 Entering Gaussian System, Link 0=g09
 AtFile(1): pc-2.gbs
            -H     0
            S    4   1.00
                  0.754230D+02           0.240650D-02
                  0.113500D+02           0.184870D-01
                  0.259930D+01           0.897420D-01
                  0.735130D+00           0.281110D+00
            S    1   1.00
                  0.231670D+00           0.100000D+01
            S    1   1.00
                  0.741470D-01           0.100000D+01
            P    1   1.00
                  0.160000D+01           0.100000D+01
            P    1   1.00
                  0.450000D+00           0.100000D+01
            D    1   1.00
                  0.125000D+01           0.100000D+01
            ****
            -C     0
            S    7   1.00
                  0.785710D+04           0.568250D-03
                  0.117870D+04           0.439150D-02
                  0.268320D+03           0.225040D-01
                  0.759480D+02           0.866530D-01
                  0.245590D+02           0.244050D+00
                  0.862120D+01           0.441480D+00
                  0.312780D+01           0.353320D+00
            S    7   1.00
                  0.117870D+04          -0.594920D-06
                  0.268320D+03          -0.627480D-04
                  0.759480D+02          -0.757730D-03
                  0.245590D+02          -0.733080D-02
                  0.862120D+01          -0.389320D-01
                  0.312780D+01          -0.889080D-01
                  0.822020D+00           0.216890D+00
            S    1   1.00
                  0.330170D+00           0.100000D+01
            S    1   1.00
                  0.114630D+00           0.100000D+01
            P    4   1.00
                  0.337750D+02           0.602940D-02
                  0.767660D+01           0.432280D-01
                  0.223570D+01           0.163010D+00
                  0.764470D+00           0.365040D+00
            P    1   1.00
                  0.262320D+00           0.100000D+01
            P    1   1.00
                  0.846380D-01           0.100000D+01
            D    1   1.00
                  0.140000D+01           0.100000D+01
            D    1   1.00
                  0.450000D+00           0.100000D+01
            F    1   1.00
                  0.950000D+00           0.100000D+01
            ****
            -N     0
            S    7   1.00
                  0.111010D+05           0.545700D-03
                  0.166530D+04           0.421810D-02
                  0.379080D+03           0.216450D-01
                  0.107300D+03           0.837760D-01
                  0.347470D+02           0.238810D+00
                  0.122490D+02           0.439940D+00
                  0.447430D+01           0.363640D+00
            S    7   1.00
                  0.166530D+04          -0.150060D-05
                  0.379080D+03          -0.587530D-04
                  0.107300D+03          -0.774530D-03
                  0.347470D+02          -0.721610D-02
                  0.122490D+02          -0.393380D-01
                  0.447430D+01          -0.906110D-01
                  0.124040D+01           0.198820D+00
            S    1   1.00
                  0.487430D+00           0.100000D+01
            S    1   1.00
                  0.164840D+00           0.100000D+01
            P    4   1.00
                  0.479340D+02           0.617060D-02
                  0.109990D+02           0.442600D-01
                  0.324720D+01           0.168250D+00
                  0.111140D+01           0.368480D+00
            P    1   1.00
                  0.379880D+00           0.100000D+01
            P    1   1.00
                  0.120680D+00           0.100000D+01
            D    1   1.00
                  0.180000D+01           0.100000D+01
            D    1   1.00
                  0.550000D+00           0.100000D+01
            F    1   1.00
                  0.102000D+01           0.100000D+01
            ****
            -O     0
            S    7   1.00
                  0.147820D+05           0.535190D-03
                  0.221730D+04           0.413750D-02
                  0.504740D+03           0.212450D-01
                  0.142870D+03           0.824530D-01
                  0.463000D+02           0.236710D+00
                  0.163370D+02           0.440390D+00
                  0.598280D+01           0.364650D+00
            S    7   1.00
                  0.221730D+04          -0.192750D-05
                  0.504740D+03          -0.579640D-04
                  0.142870D+03          -0.794940D-03
                  0.463000D+02          -0.731250D-02
                  0.163370D+02          -0.405740D-01
                  0.598280D+01          -0.915940D-01
                  0.167180D+01           0.209400D+00
            S    1   1.00
                  0.646620D+00           0.100000D+01
            S    1   1.00
                  0.216690D+00           0.100000D+01
            P    4   1.00
                  0.604240D+02           0.689490D-02
                  0.139350D+02           0.490050D-01
                  0.415310D+01           0.182550D+00
                  0.141580D+01           0.376330D+00
            P    1   1.00
                  0.475490D+00           0.100000D+01
            P    1   1.00
                  0.145290D+00           0.100000D+01
            D    1   1.00
                  0.220000D+01           0.100000D+01
            D    1   1.00
                  0.650000D+00           0.100000D+01
            F    1   1.00
                  0.110000D+01           0.100000D+01
            ****
 Initial command:
 /public3/home/sc51754/softwares/g09e01/l1.exe "./Gau-23236.inp" -scrdir="./"
 Entering Link 1 = /public3/home/sc51754/softwares/g09e01/l1.exe PID=     23237.
  
 Copyright (c) 1988,1990,1992,1993,1995,1998,2003,2009,2015,
            Gaussian, Inc.  All Rights Reserved.
  
 This is part of the Gaussian(R) 09 program.  It is based on
 the Gaussian(R) 03 system (copyright 2003, Gaussian, Inc.),
 the Gaussian(R) 98 system (copyright 1998, Gaussian, Inc.),
 the Gaussian(R) 94 system (copyright 1995, Gaussian, Inc.),
 the Gaussian 92(TM) system (copyright 1992, Gaussian, Inc.),
 the Gaussian 90(TM) system (copyright 1990, Gaussian, Inc.),
 the Gaussian 88(TM) system (copyright 1988, Gaussian, Inc.),
 the Gaussian 86(TM) system (copyright 1986, Carnegie Mellon
 University), and the Gaussian 82(TM) system (copyright 1983,
 Carnegie Mellon University). Gaussian is a federally registered
 trademark of Gaussian, Inc.
  
 This software contains proprietary and confidential information,
 including trade secrets, belonging to Gaussian, Inc.
  
 This software is provided under written license and may be
 used, copied, transmitted, or stored only in accord with that
 written license.
  
 The following legend is applicable only to US Government
 contracts under FAR:
  
                    RESTRICTED RIGHTS LEGEND
  
 Use, reproduction and disclosure by the US Government is
 subject to restrictions as set forth in subparagraphs (a)
 and (c) of the Commercial Computer Software - Restricted
 Rights clause in FAR 52.227-19.
  
 Gaussian, Inc.
 340 Quinnipiac St., Bldg. 40, Wallingford CT 06492
  
  
 ---------------------------------------------------------------
 Warning -- This program may not be used in any manner that
 competes with the business of Gaussian, Inc. or will provide
 assistance to any competitor of Gaussian, Inc.  The licensee
 of this program is prohibited from giving any competitor of
 Gaussian, Inc. access to this program.  By using this program,
 the user acknowledges that Gaussian, Inc. is engaged in the
 business of creating and licensing software in the field of
 computational chemistry and represents and warrants to the
 licensee that it is not a competitor of Gaussian, Inc. and that
 it will not use this program in any manner prohibited above.
 ---------------------------------------------------------------
  

 Cite this work as:
 Gaussian 09, Revision E.01,
 M. J. Frisch, G. W. Trucks, H. B. Schlegel, G. E. Scuseria, 
 M. A. Robb, J. R. Cheeseman, G. Scalmani, V. Barone, B. Mennucci, 
 G. A. Petersson, H. Nakatsuji, M. Caricato, X. Li, H. P. Hratchian, 
 A. F. Izmaylov, J. Bloino, G. Zheng, J. L. Sonnenberg, M. Hada, 
 M. Ehara, K. Toyota, R. Fukuda, J. Hasegawa, M. Ishida, T. Nakajima, 
 Y. Honda, O. Kitao, H. Nakai, T. Vreven, J. A. Montgomery, Jr., 
 J. E. Peralta, F. Ogliaro, M. Bearpark, J. J. Heyd, E. Brothers, 
 K. N. Kudin, V. N. Staroverov, T. Keith, R. Kobayashi, J. Normand, 
 K. Raghavachari, A. Rendell, J. C. Burant, S. S. Iyengar, J. Tomasi, 
 M. Cossi, N. Rega, J. M. Millam, M. Klene, J. E. Knox, J. B. Cross, 
 V. Bakken, C. Adamo, J. Jaramillo, R. Gomperts, R. E. Stratmann, 
 O. Yazyev, A. J. Austin, R. Cammi, C. Pomelli, J. W. Ochterski, 
 R. L. Martin, K. Morokuma, V. G. Zakrzewski, G. A. Voth, 
 P. Salvador, J. J. Dannenberg, S. Dapprich, A. D. Daniels, 
 O. Farkas, J. B. Foresman, J. V. Ortiz, J. Cioslowski, 
 and D. J. Fox, Gaussian, Inc., Wallingford CT, 2013.
 
 ******************************************
 Gaussian 09:  EM64L-G09RevE.01 30-Nov-2015
                27-Aug-2021 
 ******************************************
 %nprocshared=64
 Will use up to   64 processors via shared memory.
 %mem=128GB
 %chk=HY_H2O_TPSSTPSS_PC2_OPT_FREQ.chk
 ------------------------
 #p opt freq TPSSTPSS/gen
 ------------------------
 1/14=-1,18=20,19=15,26=3,38=1/1,3;
 2/9=110,12=2,17=6,18=5,40=1/2;
 3/5=7,11=2,16=1,25=1,30=1,71=1,74=2523/1,2,3;
 4//1;
 5/5=2,38=5/2;
 6/7=2,8=2,9=2,10=2,28=1/1;
 7//1,2,3,16;
 1/14=-1,18=20,19=15,26=3/3(2);
 2/9=110/2;
 99//99;
 2/9=110/2;
 3/5=7,6=1,11=2,16=1,25=1,30=1,71=1,74=2523,82=7/1,2,3;
 4/5=5,16=3,69=1/1;
 5/5=2,38=5/2;
 7//1,2,3,16;
 1/14=-1,18=20,19=15,26=3/3(-5);
 2/9=110/2;
 6/7=2,8=2,9=2,10=2,19=2,28=1/1;
 99/9=1/99;
 Leave Link    1 at Fri Aug 27 00:19:43 2021, MaxMem= 17179869184 cpu:         5.0
 (Enter /public3/home/sc51754/softwares/g09e01/l101.exe)
 ----------------------------
 HY_H2O_TPSSTPSS_PC2_OPT_FREQ
 ----------------------------
 Symbolic Z-matrix:
 Charge =  0 Multiplicity = 1
 O                     1.216     1.44855  -0.00262 
 N                     0.30594  -0.66619  -0.00547 
 C                     0.13701   0.65516  -0.00009 
 C                    -1.12976   1.25518   0.00826 
 C                    -0.78318  -1.4465   -0.00563 
 C                    -2.23812   0.43549   0.00911 
 C                    -2.07199  -0.951     0.00173 
 H                     2.03022   0.90023  -0.0153 
 H                    -1.20631   2.3321    0.01208 
 H                    -0.59906  -2.51382  -0.01294 
 H                    -3.22982   0.86768   0.01456 
 H                    -2.91795  -1.62195   0.00074 
 O                     3.09571  -0.58722  -0.08503 
 H                     3.59397  -0.87925   0.68253 
 H                     2.20982  -1.00228  -0.02248 
 
 Add virtual bond connecting atoms O13        and H8         Dist= 3.46D+00.
 Add virtual bond connecting atoms H15        and N2         Dist= 3.65D+00.
 Add virtual bond connecting atoms H15        and H8         Dist= 3.61D+00.
 Add atom     13 valence  3 ND=      2 dihedral       8     13     14     15
 NAtoms=     15 NQM=       15 NQMF=       0 NMMI=      0 NMMIF=      0
                NMic=       0 NMicF=      0.
                    Isotopes and Nuclear Properties:
 (Nuclear quadrupole moments (NQMom) in fm**2, nuclear magnetic moments (NMagM)
  in nuclear magnetons)

  Atom         1           2           3           4           5           6           7           8           9          10
 IAtWgt=          16          14          12          12          12          12          12           1           1           1
 AtmWgt=  15.9949146  14.0030740  12.0000000  12.0000000  12.0000000  12.0000000  12.0000000   1.0078250   1.0078250   1.0078250
 NucSpn=           0           2           0           0           0           0           0           1           1           1
 AtZEff=   0.0000000   0.0000000   0.0000000   0.0000000   0.0000000   0.0000000   0.0000000   0.0000000   0.0000000   0.0000000
 NQMom=    0.0000000   2.0440000   0.0000000   0.0000000   0.0000000   0.0000000   0.0000000   0.0000000   0.0000000   0.0000000
 NMagM=    0.0000000   0.4037610   0.0000000   0.0000000   0.0000000   0.0000000   0.0000000   2.7928460   2.7928460   2.7928460
 AtZNuc=   8.0000000   7.0000000   6.0000000   6.0000000   6.0000000   6.0000000   6.0000000   1.0000000   1.0000000   1.0000000

  Atom        11          12          13          14          15
 IAtWgt=           1           1          16           1           1
 AtmWgt=   1.0078250   1.0078250  15.9949146   1.0078250   1.0078250
 NucSpn=           1           1           0           1           1
 AtZEff=   0.0000000   0.0000000   0.0000000   0.0000000   0.0000000
 NQMom=    0.0000000   0.0000000   0.0000000   0.0000000   0.0000000
 NMagM=    2.7928460   2.7928460   0.0000000   2.7928460   2.7928460
 AtZNuc=   1.0000000   1.0000000   8.0000000   1.0000000   1.0000000
 Leave Link  101 at Fri Aug 27 00:19:43 2021, MaxMem= 17179869184 cpu:        14.5
 (Enter /public3/home/sc51754/softwares/g09e01/l103.exe)

 GradGradGradGradGradGradGradGradGradGradGradGradGradGradGradGradGradGrad
 Berny optimization.
 Initialization pass.
                           ----------------------------
                           !    Initial Parameters    !
                           ! (Angstroms and Degrees)  !
 --------------------------                            --------------------------
 ! Name  Definition              Value          Derivative Info.                !
 --------------------------------------------------------------------------------
 ! R1    R(1,3)                  1.3393         estimate D2E/DX2                !
 ! R2    R(1,8)                  0.9817         estimate D2E/DX2                !
 ! R3    R(2,3)                  1.3321         estimate D2E/DX2                !
 ! R4    R(2,5)                  1.3398         estimate D2E/DX2                !
 ! R5    R(2,15)                 1.9334         estimate D2E/DX2                !
 ! R6    R(3,4)                  1.4017         estimate D2E/DX2                !
 ! R7    R(4,6)                  1.3785         estimate D2E/DX2                !
 ! R8    R(4,9)                  1.0796         estimate D2E/DX2                !
 ! R9    R(5,7)                  1.3808         estimate D2E/DX2                !
 ! R10   R(5,10)                 1.0831         estimate D2E/DX2                !
 ! R11   R(6,7)                  1.3964         estimate D2E/DX2                !
 ! R12   R(6,11)                 1.0818         estimate D2E/DX2                !
 ! R13   R(7,12)                 1.0797         estimate D2E/DX2                !
 ! R14   R(8,13)                 1.831          estimate D2E/DX2                !
 ! R15   R(8,15)                 1.911          estimate D2E/DX2                !
 ! R16   R(13,14)                0.9606         estimate D2E/DX2                !
 ! R17   R(13,15)                0.9803         estimate D2E/DX2                !
 ! A1    A(3,1,8)              109.7141         estimate D2E/DX2                !
 ! A2    A(3,2,5)              118.3342         estimate D2E/DX2                !
 ! A3    A(3,2,15)             107.2978         estimate D2E/DX2                !
 ! A4    A(5,2,15)             134.3668         estimate D2E/DX2                !
 ! A5    A(1,3,2)              119.0414         estimate D2E/DX2                !
 ! A6    A(1,3,4)              118.3271         estimate D2E/DX2                !
 ! A7    A(2,3,4)              122.6315         estimate D2E/DX2                !
 ! A8    A(3,4,6)              118.1694         estimate D2E/DX2                !
 ! A9    A(3,4,9)              119.4119         estimate D2E/DX2                !
 ! A10   A(6,4,9)              122.4186         estimate D2E/DX2                !
 ! A11   A(2,5,7)              123.3496         estimate D2E/DX2                !
 ! A12   A(2,5,10)             115.832          estimate D2E/DX2                !
 ! A13   A(7,5,10)             120.8184         estimate D2E/DX2                !
 ! A14   A(4,6,7)              119.6513         estimate D2E/DX2                !
 ! A15   A(4,6,11)             119.9667         estimate D2E/DX2                !
 ! A16   A(7,6,11)             120.382          estimate D2E/DX2                !
 ! A17   A(5,7,6)              117.8639         estimate D2E/DX2                !
 ! A18   A(5,7,12)             120.5506         estimate D2E/DX2                !
 ! A19   A(6,7,12)             121.5855         estimate D2E/DX2                !
 ! A20   A(1,8,13)             159.5294         estimate D2E/DX2                !
 ! A21   A(1,8,15)             129.3503         estimate D2E/DX2                !
 ! A22   A(8,13,14)            121.2243         estimate D2E/DX2                !
 ! A23   A(14,13,15)           106.8012         estimate D2E/DX2                !
 ! A24   A(2,15,8)              74.5948         estimate D2E/DX2                !
 ! A25   A(2,15,13)            144.7717         estimate D2E/DX2                !
 ! D1    D(8,1,3,2)              0.4232         estimate D2E/DX2                !
 ! D2    D(8,1,3,4)           -179.5823         estimate D2E/DX2                !
 ! D3    D(3,1,8,13)             4.1107         estimate D2E/DX2                !
 ! D4    D(3,1,8,15)            -0.4785         estimate D2E/DX2                !
 ! D5    D(5,2,3,1)           -179.8646         estimate D2E/DX2                !
 ! D6    D(5,2,3,4)              0.1411         estimate D2E/DX2                !
 ! D7    D(15,2,3,1)            -0.2046         estimate D2E/DX2                !
 ! D8    D(15,2,3,4)           179.8011         estimate D2E/DX2                !
 ! D9    D(3,2,5,7)             -0.1121         estimate D2E/DX2                !
 ! D10   D(3,2,5,10)           179.8324         estimate D2E/DX2                !
 ! D11   D(15,2,5,7)          -179.6581         estimate D2E/DX2                !
 ! D12   D(15,2,5,10)            0.2865         estimate D2E/DX2                !
 ! D13   D(3,2,15,8)            -0.0003         estimate D2E/DX2                !
 ! D14   D(3,2,15,13)           -5.7168         estimate D2E/DX2                !
 ! D15   D(5,2,15,8)           179.5811         estimate D2E/DX2                !
 ! D16   D(5,2,15,13)          173.8646         estimate D2E/DX2                !
 ! D17   D(1,3,4,6)            179.9187         estimate D2E/DX2                !
 ! D18   D(1,3,4,9)              0.0211         estimate D2E/DX2                !
 ! D19   D(2,3,4,6)             -0.0869         estimate D2E/DX2                !
 ! D20   D(2,3,4,9)           -179.9845         estimate D2E/DX2                !
 ! D21   D(3,4,6,7)             -0.0001         estimate D2E/DX2                !
 ! D22   D(3,4,6,11)          -179.9445         estimate D2E/DX2                !
 ! D23   D(9,4,6,7)            179.8942         estimate D2E/DX2                !
 ! D24   D(9,4,6,11)            -0.0502         estimate D2E/DX2                !
 ! D25   D(2,5,7,6)              0.0291         estimate D2E/DX2                !
 ! D26   D(2,5,7,12)           179.968          estimate D2E/DX2                !
 ! D27   D(10,5,7,6)          -179.9128         estimate D2E/DX2                !
 ! D28   D(10,5,7,12)            0.0261         estimate D2E/DX2                !
 ! D29   D(4,6,7,5)              0.0272         estimate D2E/DX2                !
 ! D30   D(4,6,7,12)          -179.911          estimate D2E/DX2                !
 ! D31   D(11,6,7,5)           179.9714         estimate D2E/DX2                !
 ! D32   D(11,6,7,12)            0.0332         estimate D2E/DX2                !
 ! D33   D(1,8,13,14)         -110.3582         estimate D2E/DX2                !
 ! D34   D(1,8,15,2)             0.3164         estimate D2E/DX2                !
 ! D35   D(8,13,14,15)          87.5843         estimate D2E/DX2                !
 ! D36   D(14,13,15,2)         125.4771         estimate D2E/DX2                !
 --------------------------------------------------------------------------------
 Trust Radius=3.00D-01 FncErr=1.00D-07 GrdErr=1.00D-06
 Number of steps in this run=     88 maximum allowed number of steps=    100.
 GradGradGradGradGradGradGradGradGradGradGradGradGradGradGradGradGradGrad

 Leave Link  103 at Fri Aug 27 00:19:43 2021, MaxMem= 17179869184 cpu:         0.1
 (Enter /public3/home/sc51754/softwares/g09e01/l202.exe)
                          Input orientation:                          
 ---------------------------------------------------------------------
 Center     Atomic      Atomic             Coordinates (Angstroms)
 Number     Number       Type             X           Y           Z
 ---------------------------------------------------------------------
      1          8           0        1.216003    1.448553   -0.002617
      2          7           0        0.305942   -0.666194   -0.005465
      3          6           0        0.137014    0.655155   -0.000094
      4          6           0       -1.129757    1.255183    0.008257
      5          6           0       -0.783175   -1.446498   -0.005634
      6          6           0       -2.238124    0.435485    0.009108
      7          6           0       -2.071986   -0.950998    0.001732
      8          1           0        2.030216    0.900227   -0.015295
      9          1           0       -1.206308    2.332099    0.012077
     10          1           0       -0.599059   -2.513820   -0.012944
     11          1           0       -3.229823    0.867678    0.014558
     12          1           0       -2.917952   -1.621952    0.000735
     13          8           0        3.095711   -0.587217   -0.085025
     14          1           0        3.593966   -0.879251    0.682533
     15          1           0        2.209819   -1.002278   -0.022484
 ---------------------------------------------------------------------
                    Distance matrix (angstroms):
                    1          2          3          4          5
     1  O    0.000000
     2  N    2.302254   0.000000
     3  C    1.339292   1.332114   0.000000
     4  C    2.353742   2.398564   1.401718   0.000000
     5  C    3.518244   1.339795   2.294281   2.723856   0.000000
     6  C    3.599644   2.772396   2.385292   1.378544   2.378856
     7  C    4.070471   2.394934   2.731192   2.398973   1.380800
     8  H    0.981715   2.329569   1.909059   3.179934   3.663657
     9  H    2.578461   3.358120   2.148675   1.079640   3.802256
    10  H    4.358320   2.057378   3.253363   3.806241   1.083111
    11  H    4.483646   3.854192   3.373570   2.135527   3.367774
    12  H    5.149524   3.362589   3.810254   3.387566   2.141984
    13  O    2.772085   2.792020   3.210076   4.610609   3.973717
    14  H    3.397471   3.365982   3.843293   5.227238   4.467069
    15  H    2.644738   1.933388   2.654073   4.031109   3.025827
                    6          7          8          9         10
     6  C    0.000000
     7  C    1.396421   0.000000
     8  H    4.293636   4.500598   0.000000
     9  H    2.159120   3.395325   3.539222   0.000000
    10  H    3.374229   2.147590   4.309154   4.883883   0.000000
    11  H    1.081798   2.155999   5.260224   2.497829   4.284414
    12  H    2.166860   1.079740   5.553918   4.308639   2.484528
    13  O    5.431812   5.181212   1.831019   5.199923   4.167532
    14  H    6.016253   5.707158   2.469579   5.814199   4.553786
    15  H    4.674651   4.282181   1.910977   4.773802   3.189772
                   11         12         13         14         15
    11  H    0.000000
    12  H    2.509126   0.000000
    13  O    6.491457   6.102637   0.000000
    14  H    7.075454   6.589501   0.960566   0.000000
    15  H    5.752201   5.165130   0.980302   1.558219   0.000000
 Stoichiometry    C5H7NO2
 Framework group  C1[X(C5H7NO2)]
 Deg. of freedom    39
 Full point group                 C1      NOp   1
 Largest Abelian subgroup         C1      NOp   1
 Largest concise Abelian subgroup C1      NOp   1
                         Standard orientation:                         
 ---------------------------------------------------------------------
 Center     Atomic      Atomic             Coordinates (Angstroms)
 Number     Number       Type             X           Y           Z
 ---------------------------------------------------------------------
      1          8           0        1.216003    1.448553   -0.002617
      2          7           0        0.305942   -0.666194   -0.005465
      3          6           0        0.137014    0.655155   -0.000094
      4          6           0       -1.129757    1.255183    0.008257
      5          6           0       -0.783175   -1.446498   -0.005634
      6          6           0       -2.238124    0.435485    0.009108
      7          6           0       -2.071986   -0.950998    0.001732
      8          1           0        2.030216    0.900227   -0.015295
      9          1           0       -1.206308    2.332099    0.012077
     10          1           0       -0.599059   -2.513820   -0.012944
     11          1           0       -3.229823    0.867678    0.014558
     12          1           0       -2.917952   -1.621952    0.000735
     13          8           0        3.095711   -0.587217   -0.085025
     14          1           0        3.593966   -0.879251    0.682533
     15          1           0        2.209819   -1.002278   -0.022484
 ---------------------------------------------------------------------
 Rotational constants (GHZ):      4.0123302      1.4179596      1.0501753
 Leave Link  202 at Fri Aug 27 00:19:44 2021, MaxMem= 17179869184 cpu:         2.5
 (Enter /public3/home/sc51754/softwares/g09e01/l301.exe)
 General basis read from cards:  (5D, 7F)
 Centers:       8      9     10     11     12     14     15
 S 4 1.00
     Exponent=  7.5423000000D+01 Coefficients=  2.4065000000D-03
     Exponent=  1.1350000000D+01 Coefficients=  1.8487000000D-02
     Exponent=  2.5993000000D+00 Coefficients=  8.9742000000D-02
     Exponent=  7.3513000000D-01 Coefficients=  2.8111000000D-01
 S 1 1.00
     Exponent=  2.3167000000D-01 Coefficients=  1.0000000000D+00
 S 1 1.00
     Exponent=  7.4147000000D-02 Coefficients=  1.0000000000D+00
 P 1 1.00
     Exponent=  1.6000000000D+00 Coefficients=  1.0000000000D+00
 P 1 1.00
     Exponent=  4.5000000000D-01 Coefficients=  1.0000000000D+00
 D 1 1.00
     Exponent=  1.2500000000D+00 Coefficients=  1.0000000000D+00
 ****
 Centers:       3      4      5      6      7
 S 7 1.00
     Exponent=  7.8571000000D+03 Coefficients=  5.6825000000D-04
     Exponent=  1.1787000000D+03 Coefficients=  4.3915000000D-03
     Exponent=  2.6832000000D+02 Coefficients=  2.2504000000D-02
     Exponent=  7.5948000000D+01 Coefficients=  8.6653000000D-02
     Exponent=  2.4559000000D+01 Coefficients=  2.4405000000D-01
     Exponent=  8.6212000000D+00 Coefficients=  4.4148000000D-01
     Exponent=  3.1278000000D+00 Coefficients=  3.5332000000D-01
 S 7 1.00
     Exponent=  1.1787000000D+03 Coefficients= -5.9492000000D-07
     Exponent=  2.6832000000D+02 Coefficients= -6.2748000000D-05
     Exponent=  7.5948000000D+01 Coefficients= -7.5773000000D-04
     Exponent=  2.4559000000D+01 Coefficients= -7.3308000000D-03
     Exponent=  8.6212000000D+00 Coefficients= -3.8932000000D-02
     Exponent=  3.1278000000D+00 Coefficients= -8.8908000000D-02
     Exponent=  8.2202000000D-01 Coefficients=  2.1689000000D-01
 S 1 1.00
     Exponent=  3.3017000000D-01 Coefficients=  1.0000000000D+00
 S 1 1.00
     Exponent=  1.1463000000D-01 Coefficients=  1.0000000000D+00
 P 4 1.00
     Exponent=  3.3775000000D+01 Coefficients=  6.0294000000D-03
     Exponent=  7.6766000000D+00 Coefficients=  4.3228000000D-02
     Exponent=  2.2357000000D+00 Coefficients=  1.6301000000D-01
     Exponent=  7.6447000000D-01 Coefficients=  3.6504000000D-01
 P 1 1.00
     Exponent=  2.6232000000D-01 Coefficients=  1.0000000000D+00
 P 1 1.00
     Exponent=  8.4638000000D-02 Coefficients=  1.0000000000D+00
 D 1 1.00
     Exponent=  1.4000000000D+00 Coefficients=  1.0000000000D+00
 D 1 1.00
     Exponent=  4.5000000000D-01 Coefficients=  1.0000000000D+00
 F 1 1.00
     Exponent=  9.5000000000D-01 Coefficients=  1.0000000000D+00
 ****
 Centers:       2
 S 7 1.00
     Exponent=  1.1101000000D+04 Coefficients=  5.4570000000D-04
     Exponent=  1.6653000000D+03 Coefficients=  4.2181000000D-03
     Exponent=  3.7908000000D+02 Coefficients=  2.1645000000D-02
     Exponent=  1.0730000000D+02 Coefficients=  8.3776000000D-02
     Exponent=  3.4747000000D+01 Coefficients=  2.3881000000D-01
     Exponent=  1.2249000000D+01 Coefficients=  4.3994000000D-01
     Exponent=  4.4743000000D+00 Coefficients=  3.6364000000D-01
 S 7 1.00
     Exponent=  1.6653000000D+03 Coefficients= -1.5006000000D-06
     Exponent=  3.7908000000D+02 Coefficients= -5.8753000000D-05
     Exponent=  1.0730000000D+02 Coefficients= -7.7453000000D-04
     Exponent=  3.4747000000D+01 Coefficients= -7.2161000000D-03
     Exponent=  1.2249000000D+01 Coefficients= -3.9338000000D-02
     Exponent=  4.4743000000D+00 Coefficients= -9.0611000000D-02
     Exponent=  1.2404000000D+00 Coefficients=  1.9882000000D-01
 S 1 1.00
     Exponent=  4.8743000000D-01 Coefficients=  1.0000000000D+00
 S 1 1.00
     Exponent=  1.6484000000D-01 Coefficients=  1.0000000000D+00
 P 4 1.00
     Exponent=  4.7934000000D+01 Coefficients=  6.1706000000D-03
     Exponent=  1.0999000000D+01 Coefficients=  4.4260000000D-02
     Exponent=  3.2472000000D+00 Coefficients=  1.6825000000D-01
     Exponent=  1.1114000000D+00 Coefficients=  3.6848000000D-01
 P 1 1.00
     Exponent=  3.7988000000D-01 Coefficients=  1.0000000000D+00
 P 1 1.00
     Exponent=  1.2068000000D-01 Coefficients=  1.0000000000D+00
 D 1 1.00
     Exponent=  1.8000000000D+00 Coefficients=  1.0000000000D+00
 D 1 1.00
     Exponent=  5.5000000000D-01 Coefficients=  1.0000000000D+00
 F 1 1.00
     Exponent=  1.0200000000D+00 Coefficients=  1.0000000000D+00
 ****
 Centers:       1     13
 S 7 1.00
     Exponent=  1.4782000000D+04 Coefficients=  5.3519000000D-04
     Exponent=  2.2173000000D+03 Coefficients=  4.1375000000D-03
     Exponent=  5.0474000000D+02 Coefficients=  2.1245000000D-02
     Exponent=  1.4287000000D+02 Coefficients=  8.2453000000D-02
     Exponent=  4.6300000000D+01 Coefficients=  2.3671000000D-01
     Exponent=  1.6337000000D+01 Coefficients=  4.4039000000D-01
     Exponent=  5.9828000000D+00 Coefficients=  3.6465000000D-01
 S 7 1.00
     Exponent=  2.2173000000D+03 Coefficients= -1.9275000000D-06
     Exponent=  5.0474000000D+02 Coefficients= -5.7964000000D-05
     Exponent=  1.4287000000D+02 Coefficients= -7.9494000000D-04
     Exponent=  4.6300000000D+01 Coefficients= -7.3125000000D-03
     Exponent=  1.6337000000D+01 Coefficients= -4.0574000000D-02
     Exponent=  5.9828000000D+00 Coefficients= -9.1594000000D-02
     Exponent=  1.6718000000D+00 Coefficients=  2.0940000000D-01
 S 1 1.00
     Exponent=  6.4662000000D-01 Coefficients=  1.0000000000D+00
 S 1 1.00
     Exponent=  2.1669000000D-01 Coefficients=  1.0000000000D+00
 P 4 1.00
     Exponent=  6.0424000000D+01 Coefficients=  6.8949000000D-03
     Exponent=  1.3935000000D+01 Coefficients=  4.9005000000D-02
     Exponent=  4.1531000000D+00 Coefficients=  1.8255000000D-01
     Exponent=  1.4158000000D+00 Coefficients=  3.7633000000D-01
 P 1 1.00
     Exponent=  4.7549000000D-01 Coefficients=  1.0000000000D+00
 P 1 1.00
     Exponent=  1.4529000000D-01 Coefficients=  1.0000000000D+00
 D 1 1.00
     Exponent=  2.2000000000D+00 Coefficients=  1.0000000000D+00
 D 1 1.00
     Exponent=  6.5000000000D-01 Coefficients=  1.0000000000D+00
 F 1 1.00
     Exponent=  1.1000000000D+00 Coefficients=  1.0000000000D+00
 ****
 Ernie: Thresh=  0.10000D-02 Tol=  0.10000D-05 Strict=F.
 Ernie:  8 primitive shells out of 263 were deleted.
 There are   385 symmetry adapted cartesian basis functions of A   symmetry.
 There are   338 symmetry adapted basis functions of A   symmetry.
   338 basis functions,   566 primitive gaussians,   385 cartesian basis functions
    30 alpha electrons       30 beta electrons
       nuclear repulsion energy       357.6226221683 Hartrees.
 IExCor= 2523 DFT=T Ex=TPSS Corr=TPSS ExCW=0 ScaHFX=  0.000000
 ScaDFX=  1.000000  1.000000  1.000000  1.000000 ScalE2=  1.000000  1.000000
 IRadAn=      0 IRanWt=     -1 IRanGd=            0 ICorTp=0 IEmpDi=  4
 NAtoms=   15 NActive=   15 NUniq=   15 SFac= 1.00D+00 NAtFMM=   60 NAOKFM=F Big=F
 Integral buffers will be    131072 words long.
 Raffenetti 2 integral format.
 Two-electron integral symmetry is turned on.
 Leave Link  301 at Fri Aug 27 00:19:44 2021, MaxMem= 17179869184 cpu:         1.5
 (Enter /public3/home/sc51754/softwares/g09e01/l302.exe)
 NPDir=0 NMtPBC=     1 NCelOv=     1 NCel=       1 NClECP=     1 NCelD=      1
         NCelK=      1 NCelE2=     1 NClLst=     1 CellRange=     0.0.
 One-electron integrals computed using PRISM.
 NBasis=   338 RedAO= T EigKep=  1.46D-04  NBF=   338
 NBsUse=   338 1.00D-06 EigRej= -1.00D+00 NBFU=   338
 Precomputing XC quadrature grid using
 IXCGrd= 4 IRadAn=           0 IRanWt=          -1 IRanGd=           0 AccXCQ= 0.00D+00.
 Generated NRdTot=       0 NPtTot=           0 NUsed=           0 NTot=          32
 NSgBfM=   384   384   384   384   385 MxSgAt=    15 MxSgA2=    15.
 Leave Link  302 at Fri Aug 27 00:19:45 2021, MaxMem= 17179869184 cpu:        52.2
 (Enter /public3/home/sc51754/softwares/g09e01/l303.exe)
 DipDrv:  MaxL=1.
 Leave Link  303 at Fri Aug 27 00:19:45 2021, MaxMem= 17179869184 cpu:         9.9
 (Enter /public3/home/sc51754/softwares/g09e01/l401.exe)
 ExpMin= 7.41D-02 ExpMax= 1.48D+04 ExpMxC= 5.05D+02 IAcc=2 IRadAn=         4 AccDes= 0.00D+00
 Harris functional with IExCor= 1009 and IRadAn=       4 diagonalized for initial guess.
 HarFok:  IExCor= 1009 AccDes= 0.00D+00 IRadAn=         4 IDoV= 1 UseB2=F ITyADJ=14
 ICtDFT=  3500011 ScaDFX=  1.000000  1.000000  1.000000  1.000000
 FoFCou: FMM=F IPFlag=           0 FMFlag=      100000 FMFlg1=           0
         NFxFlg=           0 DoJE=T BraDBF=F KetDBF=T FulRan=T
         wScrn=  0.000000 ICntrl=     500 IOpCl=  0 I1Cent=   200000004 NGrid=           0
         NMat0=    1 NMatS0=      1 NMatT0=    0 NMatD0=    1 NMtDS0=    0 NMtDT0=    0
 Petite list used in FoFCou.
 Harris En= -399.801169270425    
 JPrj=0 DoOrth=F DoCkMO=F.
 Leave Link  401 at Fri Aug 27 00:19:46 2021, MaxMem= 17179869184 cpu:        48.1
 (Enter /public3/home/sc51754/softwares/g09e01/l502.exe)
 Closed shell SCF:
 Using DIIS extrapolation, IDIIS=  1040.
 Integral symmetry usage will be decided dynamically.
 Keep J ints in memory in canonical form, NReq=1670404686.
 IVT=      490665 IEndB=      490665 NGot= 17179869184 MDV= 15538220534
 LenX= 15538220534 LenY= 15538071868
 Requested convergence on RMS density matrix=1.00D-08 within 128 cycles.
 Requested convergence on MAX density matrix=1.00D-06.
 Requested convergence on             energy=1.00D-06.
 No special actions if energy rises.
 FoFCou: FMM=F IPFlag=           0 FMFlag=           0 FMFlg1=           0
         NFxFlg=           0 DoJE=F BraDBF=F KetDBF=F FulRan=T
         wScrn=  0.000000 ICntrl=     600 IOpCl=  0 I1Cent=           0 NGrid=           0
         NMat0=    1 NMatS0=  57291 NMatT0=    0 NMatD0=    1 NMtDS0=    0 NMtDT0=    0
 Symmetry not used in FoFCou.
 Integral accuracy reduced to 1.0D-05 until final iterations.

 Cycle   1  Pass 0  IDiag  1:
 E= -399.984115658288    
 DIIS: error= 2.18D-02 at cycle   1 NSaved=   1.
 NSaved= 1 IEnMin= 1 EnMin= -399.984115658288     IErMin= 1 ErrMin= 2.18D-02
 ErrMax= 2.18D-02  0.00D+00 EMaxC= 1.00D-01 BMatC= 2.44D-01 BMatP= 2.44D-01
 IDIUse=3 WtCom= 7.82D-01 WtEn= 2.18D-01
 Coeff-Com:  0.100D+01
 Coeff-En:   0.100D+01
 Coeff:      0.100D+01
 Gap=     0.148 Goal=   None    Shift=    0.000
 GapD=    0.148 DampG=1.000 DampE=0.500 DampFc=0.5000 IDamp=-1.
 Damping current iteration by 5.00D-01
 RMSDP=2.77D-03 MaxDP=1.12D-01              OVMax= 2.23D-01

 Cycle   2  Pass 0  IDiag  1:
 E= -400.029828177328     Delta-E=       -0.045712519039 Rises=F Damp=T
 DIIS: error= 7.40D-03 at cycle   2 NSaved=   2.
 NSaved= 2 IEnMin= 2 EnMin= -400.029828177328     IErMin= 2 ErrMin= 7.40D-03
 ErrMax= 7.40D-03  0.00D+00 EMaxC= 1.00D-01 BMatC= 3.90D-02 BMatP= 2.44D-01
 IDIUse=3 WtCom= 9.26D-01 WtEn= 7.40D-02
 Coeff-Com:  0.238D+00 0.762D+00
 Coeff-En:   0.387D+00 0.613D+00
 Coeff:      0.249D+00 0.751D+00
 Gap=     0.181 Goal=   None    Shift=    0.000
 RMSDP=8.24D-04 MaxDP=3.14D-02 DE=-4.57D-02 OVMax= 1.90D-01

 Cycle   3  Pass 0  IDiag  1:
 E= -400.169080623562     Delta-E=       -0.139252446235 Rises=F Damp=F
 DIIS: error= 9.01D-03 at cycle   3 NSaved=   3.
 NSaved= 3 IEnMin= 3 EnMin= -400.169080623562     IErMin= 2 ErrMin= 7.40D-03
 ErrMax= 9.01D-03  0.00D+00 EMaxC= 1.00D-01 BMatC= 1.81D-02 BMatP= 3.90D-02
 IDIUse=3 WtCom= 9.10D-01 WtEn= 9.01D-02
 Coeff-Com:  0.828D-01 0.412D+00 0.505D+00
 Coeff-En:   0.000D+00 0.000D+00 0.100D+01
 Coeff:      0.754D-01 0.375D+00 0.550D+00
 Gap=     0.155 Goal=   None    Shift=    0.000
 RMSDP=5.22D-04 MaxDP=2.42D-02 DE=-1.39D-01 OVMax= 7.76D-02

 Cycle   4  Pass 0  IDiag  1:
 E= -400.176840530098     Delta-E=       -0.007759906536 Rises=F Damp=F
 DIIS: error= 7.66D-03 at cycle   4 NSaved=   4.
 NSaved= 4 IEnMin= 4 EnMin= -400.176840530098     IErMin= 2 ErrMin= 7.40D-03
 ErrMax= 7.66D-03  0.00D+00 EMaxC= 1.00D-01 BMatC= 9.72D-03 BMatP= 1.81D-02
 IDIUse=3 WtCom= 9.23D-01 WtEn= 7.66D-02
 Coeff-Com:  0.937D-02 0.117D+00 0.413D+00 0.460D+00
 Coeff-En:   0.000D+00 0.000D+00 0.391D+00 0.609D+00
 Coeff:      0.865D-02 0.108D+00 0.412D+00 0.472D+00
 Gap=     0.154 Goal=   None    Shift=    0.000
 RMSDP=2.56D-04 MaxDP=1.51D-02 DE=-7.76D-03 OVMax= 5.22D-02

 Cycle   5  Pass 0  IDiag  1:
 E= -400.185708263146     Delta-E=       -0.008867733048 Rises=F Damp=F
 DIIS: error= 1.71D-03 at cycle   5 NSaved=   5.
 NSaved= 5 IEnMin= 5 EnMin= -400.185708263146     IErMin= 5 ErrMin= 1.71D-03
 ErrMax= 1.71D-03  0.00D+00 EMaxC= 1.00D-01 BMatC= 1.03D-03 BMatP= 9.72D-03
 IDIUse=3 WtCom= 9.83D-01 WtEn= 1.71D-02
 Coeff-Com: -0.245D-02 0.292D-01 0.223D+00 0.321D+00 0.429D+00
 Coeff-En:   0.000D+00 0.000D+00 0.000D+00 0.748D-01 0.925D+00
 Coeff:     -0.241D-02 0.287D-01 0.219D+00 0.317D+00 0.438D+00
 Gap=     0.153 Goal=   None    Shift=    0.000
 RMSDP=7.88D-05 MaxDP=3.81D-03 DE=-8.87D-03 OVMax= 1.34D-02

 Cycle   6  Pass 0  IDiag  1:
 E= -400.186648361516     Delta-E=       -0.000940098370 Rises=F Damp=F
 DIIS: error= 3.76D-04 at cycle   6 NSaved=   6.
 NSaved= 6 IEnMin= 6 EnMin= -400.186648361516     IErMin= 6 ErrMin= 3.76D-04
 ErrMax= 3.76D-04  0.00D+00 EMaxC= 1.00D-01 BMatC= 5.61D-05 BMatP= 1.03D-03
 IDIUse=3 WtCom= 9.96D-01 WtEn= 3.76D-03
 Coeff-Com: -0.215D-02 0.248D-02 0.742D-01 0.118D+00 0.247D+00 0.560D+00
 Coeff-En:   0.000D+00 0.000D+00 0.000D+00 0.000D+00 0.514D-02 0.995D+00
 Coeff:     -0.215D-02 0.247D-02 0.740D-01 0.118D+00 0.246D+00 0.562D+00
 Gap=     0.154 Goal=   None    Shift=    0.000
 RMSDP=1.87D-05 MaxDP=6.22D-04 DE=-9.40D-04 OVMax= 3.52D-03

 Cycle   7  Pass 0  IDiag  1:
 E= -400.186691097497     Delta-E=       -0.000042735981 Rises=F Damp=F
 DIIS: error= 2.03D-04 at cycle   7 NSaved=   7.
 NSaved= 7 IEnMin= 7 EnMin= -400.186691097497     IErMin= 7 ErrMin= 2.03D-04
 ErrMax= 2.03D-04  0.00D+00 EMaxC= 1.00D-01 BMatC= 7.17D-06 BMatP= 5.61D-05
 IDIUse=3 WtCom= 9.98D-01 WtEn= 2.03D-03
 Coeff-Com: -0.122D-02 0.748D-03 0.404D-01 0.643D-01 0.145D+00 0.377D+00
 Coeff-Com:  0.374D+00
 Coeff-En:   0.000D+00 0.000D+00 0.000D+00 0.000D+00 0.000D+00 0.491D-01
 Coeff-En:   0.951D+00
 Coeff:     -0.122D-02 0.746D-03 0.404D-01 0.642D-01 0.145D+00 0.376D+00
 Coeff:      0.375D+00
 Gap=     0.154 Goal=   None    Shift=    0.000
 RMSDP=7.31D-06 MaxDP=3.12D-04 DE=-4.27D-05 OVMax= 1.65D-03

 Initial convergence to 1.0D-05 achieved.  Increase integral accuracy.
 Cycle   8  Pass 1  IDiag  1:
 E= -400.186805485243     Delta-E=       -0.000114387745 Rises=F Damp=F
 DIIS: error= 5.00D-05 at cycle   1 NSaved=   1.
 NSaved= 1 IEnMin= 1 EnMin= -400.186805485243     IErMin= 1 ErrMin= 5.00D-05
 ErrMax= 5.00D-05  0.00D+00 EMaxC= 1.00D-01 BMatC= 8.65D-07 BMatP= 8.65D-07
 IDIUse=1 WtCom= 1.00D+00 WtEn= 0.00D+00
 Coeff-Com:  0.100D+01
 Coeff:      0.100D+01
 Gap=     0.154 Goal=   None    Shift=    0.000
 RMSDP=7.31D-06 MaxDP=3.12D-04 DE=-1.14D-04 OVMax= 1.43D-03

 Cycle   9  Pass 1  IDiag  1:
 E= -400.186802671584     Delta-E=        0.000002813659 Rises=F Damp=F
 DIIS: error= 1.32D-04 at cycle   2 NSaved=   2.
 NSaved= 2 IEnMin= 1 EnMin= -400.186805485243     IErMin= 1 ErrMin= 5.00D-05
 ErrMax= 1.32D-04  0.00D+00 EMaxC= 1.00D-01 BMatC= 3.47D-06 BMatP= 8.65D-07
 IDIUse=3 WtCom= 4.65D-01 WtEn= 5.35D-01
 Coeff-Com:  0.687D+00 0.313D+00
 Coeff-En:   0.783D+00 0.217D+00
 Coeff:      0.738D+00 0.262D+00
 Gap=     0.154 Goal=   None    Shift=    0.000
 RMSDP=4.10D-06 MaxDP=1.42D-04 DE= 2.81D-06 OVMax= 1.01D-03

 Cycle  10  Pass 1  IDiag  1:
 E= -400.186806269966     Delta-E=       -0.000003598382 Rises=F Damp=F
 DIIS: error= 6.08D-06 at cycle   3 NSaved=   3.
 NSaved= 3 IEnMin= 3 EnMin= -400.186806269966     IErMin= 3 ErrMin= 6.08D-06
 ErrMax= 6.08D-06  0.00D+00 EMaxC= 1.00D-01 BMatC= 2.04D-08 BMatP= 8.65D-07
 IDIUse=1 WtCom= 1.00D+00 WtEn= 0.00D+00
 Coeff-Com:  0.711D-01-0.115D-01 0.940D+00
 Coeff:      0.711D-01-0.115D-01 0.940D+00
 Gap=     0.154 Goal=   None    Shift=    0.000
 RMSDP=5.69D-07 MaxDP=2.54D-05 DE=-3.60D-06 OVMax= 8.05D-05

 Cycle  11  Pass 1  IDiag  1:
 E= -400.186806259906     Delta-E=        0.000000010060 Rises=F Damp=F
 DIIS: error= 7.04D-06 at cycle   4 NSaved=   4.
 NSaved= 4 IEnMin= 3 EnMin= -400.186806269966     IErMin= 3 ErrMin= 6.08D-06
 ErrMax= 7.04D-06  0.00D+00 EMaxC= 1.00D-01 BMatC= 2.96D-08 BMatP= 2.04D-08
 IDIUse=1 WtCom= 1.00D+00 WtEn= 0.00D+00
 Coeff-Com: -0.279D-02-0.333D-01 0.620D+00 0.416D+00
 Coeff:     -0.279D-02-0.333D-01 0.620D+00 0.416D+00
 Gap=     0.154 Goal=   None    Shift=    0.000
 RMSDP=4.14D-07 MaxDP=1.68D-05 DE= 1.01D-08 OVMax= 7.90D-05

 Cycle  12  Pass 1  IDiag  1:
 E= -400.186806284202     Delta-E=       -0.000000024296 Rises=F Damp=F
 DIIS: error= 3.57D-06 at cycle   5 NSaved=   5.
 NSaved= 5 IEnMin= 5 EnMin= -400.186806284202     IErMin= 5 ErrMin= 3.57D-06
 ErrMax= 3.57D-06  0.00D+00 EMaxC= 1.00D-01 BMatC= 1.83D-09 BMatP= 2.04D-08
 IDIUse=1 WtCom= 1.00D+00 WtEn= 0.00D+00
 Coeff-Com: -0.712D-02-0.213D-01 0.309D+00 0.263D+00 0.457D+00
 Coeff:     -0.712D-02-0.213D-01 0.309D+00 0.263D+00 0.457D+00
 Gap=     0.154 Goal=   None    Shift=    0.000
 RMSDP=1.30D-07 MaxDP=5.00D-06 DE=-2.43D-08 OVMax= 2.66D-05

 Cycle  13  Pass 1  IDiag  1:
 E= -400.186806285899     Delta-E=       -0.000000001697 Rises=F Damp=F
 DIIS: error= 1.41D-06 at cycle   6 NSaved=   6.
 NSaved= 6 IEnMin= 6 EnMin= -400.186806285899     IErMin= 6 ErrMin= 1.41D-06
 ErrMax= 1.41D-06  0.00D+00 EMaxC= 1.00D-01 BMatC= 3.44D-10 BMatP= 1.83D-09
 IDIUse=1 WtCom= 1.00D+00 WtEn= 0.00D+00
 Coeff-Com: -0.502D-02-0.124D-01 0.161D+00 0.150D+00 0.330D+00 0.377D+00
 Coeff:     -0.502D-02-0.124D-01 0.161D+00 0.150D+00 0.330D+00 0.377D+00
 Gap=     0.154 Goal=   None    Shift=    0.000
 RMSDP=4.26D-08 MaxDP=1.94D-06 DE=-1.70D-09 OVMax= 7.92D-06

 Cycle  14  Pass 1  IDiag  1:
 E= -400.186806286238     Delta-E=       -0.000000000338 Rises=F Damp=F
 DIIS: error= 1.33D-07 at cycle   7 NSaved=   7.
 NSaved= 7 IEnMin= 7 EnMin= -400.186806286238     IErMin= 7 ErrMin= 1.33D-07
 ErrMax= 1.33D-07  0.00D+00 EMaxC= 1.00D-01 BMatC= 7.28D-12 BMatP= 3.44D-10
 IDIUse=1 WtCom= 1.00D+00 WtEn= 0.00D+00
 Coeff-Com: -0.141D-02-0.326D-02 0.379D-01 0.396D-01 0.104D+00 0.172D+00
 Coeff-Com:  0.651D+00
 Coeff:     -0.141D-02-0.326D-02 0.379D-01 0.396D-01 0.104D+00 0.172D+00
 Coeff:      0.651D+00
 Gap=     0.154 Goal=   None    Shift=    0.000
 RMSDP=7.81D-09 MaxDP=2.97D-07 DE=-3.38D-10 OVMax= 9.61D-07

 SCF Done:  E(RTPSS-TPSS) =  -400.186806286     A.U. after   14 cycles
            NFock= 14  Conv=0.78D-08     -V/T= 2.0037
 KE= 3.986937398026D+02 PE=-1.651369717139D+03 EE= 4.948665488823D+02
 Leave Link  502 at Fri Aug 27 00:20:12 2021, MaxMem= 17179869184 cpu:       419.2
 (Enter /public3/home/sc51754/softwares/g09e01/l601.exe)
 Copying SCF densities to generalized density rwf, IOpCl= 0 IROHF=0.

 **********************************************************************

            Population analysis using the SCF density.

 **********************************************************************

 Orbital symmetries:
       Occupied  (A) (A) (A) (A) (A) (A) (A) (A) (A) (A) (A) (A)
                 (A) (A) (A) (A) (A) (A) (A) (A) (A) (A) (A) (A)
                 (A) (A) (A) (A) (A) (A)
       Virtual   (A) (A) (A) (A) (A) (A) (A) (A) (A) (A) (A) (A)
                 (A) (A) (A) (A) (A) (A) (A) (A) (A) (A) (A) (A)
                 (A) (A) (A) (A) (A) (A) (A) (A) (A) (A) (A) (A)
                 (A) (A) (A) (A) (A) (A) (A) (A) (A) (A) (A) (A)
                 (A) (A) (A) (A) (A) (A) (A) (A) (A) (A) (A) (A)
                 (A) (A) (A) (A) (A) (A) (A) (A) (A) (A) (A) (A)
                 (A) (A) (A) (A) (A) (A) (A) (A) (A) (A) (A) (A)
                 (A) (A) (A) (A) (A) (A) (A) (A) (A) (A) (A) (A)
                 (A) (A) (A) (A) (A) (A) (A) (A) (A) (A) (A) (A)
                 (A) (A) (A) (A) (A) (A) (A) (A) (A) (A) (A) (A)
                 (A) (A) (A) (A) (A) (A) (A) (A) (A) (A) (A) (A)
                 (A) (A) (A) (A) (A) (A) (A) (A) (A) (A) (A) (A)
                 (A) (A) (A) (A) (A) (A) (A) (A) (A) (A) (A) (A)
                 (A) (A) (A) (A) (A) (A) (A) (A) (A) (A) (A) (A)
                 (A) (A) (A) (A) (A) (A) (A) (A) (A) (A) (A) (A)
                 (A) (A) (A) (A) (A) (A) (A) (A) (A) (A) (A) (A)
                 (A) (A) (A) (A) (A) (A) (A) (A) (A) (A) (A) (A)
                 (A) (A) (A) (A) (A) (A) (A) (A) (A) (A) (A) (A)
                 (A) (A) (A) (A) (A) (A) (A) (A) (A) (A) (A) (A)
                 (A) (A) (A) (A) (A) (A) (A) (A) (A) (A) (A) (A)
                 (A) (A) (A) (A) (A) (A) (A) (A) (A) (A) (A) (A)
                 (A) (A) (A) (A) (A) (A) (A) (A) (A) (A) (A) (A)
                 (A) (A) (A) (A) (A) (A) (A) (A) (A) (A) (A) (A)
                 (A) (A) (A) (A) (A) (A) (A) (A) (A) (A) (A) (A)
                 (A) (A) (A) (A) (A) (A) (A) (A) (A) (A) (A) (A)
                 (A) (A) (A) (A) (A) (A) (A) (A)
 The electronic state is 1-A.
 Alpha  occ. eigenvalues --  -18.90598 -18.88445 -14.10807 -10.08363 -10.03200
 Alpha  occ. eigenvalues --  -10.01284  -9.99969  -9.99685  -1.00532  -0.94551
 Alpha  occ. eigenvalues --   -0.88229  -0.75609  -0.70709  -0.60287  -0.58497
 Alpha  occ. eigenvalues --   -0.51256  -0.49486  -0.47051  -0.44535  -0.41129
 Alpha  occ. eigenvalues --   -0.40004  -0.37662  -0.36159  -0.34710  -0.32738
 Alpha  occ. eigenvalues --   -0.31930  -0.27477  -0.27084  -0.24673  -0.21714
 Alpha virt. eigenvalues --   -0.06338  -0.03530   0.00307   0.01522   0.03413
 Alpha virt. eigenvalues --    0.05173   0.06527   0.08699   0.09711   0.10786
 Alpha virt. eigenvalues --    0.13100   0.14547   0.15594   0.17351   0.17672
 Alpha virt. eigenvalues --    0.18148   0.19206   0.19560   0.21558   0.22844
 Alpha virt. eigenvalues --    0.24246   0.24604   0.25919   0.26677   0.27192
 Alpha virt. eigenvalues --    0.28128   0.28749   0.29432   0.30522   0.31337
 Alpha virt. eigenvalues --    0.33009   0.34057   0.34731   0.34972   0.37046
 Alpha virt. eigenvalues --    0.40202   0.40753   0.42272   0.42759   0.45329
 Alpha virt. eigenvalues --    0.47853   0.50029   0.50765   0.51933   0.52340
 Alpha virt. eigenvalues --    0.56831   0.58359   0.59822   0.60937   0.61789
 Alpha virt. eigenvalues --    0.62764   0.65254   0.66861   0.70488   0.71795
 Alpha virt. eigenvalues --    0.74166   0.75174   0.78214   0.78516   0.82052
 Alpha virt. eigenvalues --    0.85752   0.87658   0.88668   0.89450   0.91497
 Alpha virt. eigenvalues --    0.92856   0.94794   0.94981   0.96538   0.99325
 Alpha virt. eigenvalues --    1.00528   1.05805   1.06157   1.07509   1.09697
 Alpha virt. eigenvalues --    1.11398   1.11537   1.12886   1.13994   1.15071
 Alpha virt. eigenvalues --    1.17204   1.18717   1.20701   1.22753   1.23412
 Alpha virt. eigenvalues --    1.25036   1.25408   1.28734   1.29349   1.31204
 Alpha virt. eigenvalues --    1.38407   1.38586   1.41317   1.41439   1.46877
 Alpha virt. eigenvalues --    1.46995   1.48263   1.49366   1.51604   1.53161
 Alpha virt. eigenvalues --    1.55016   1.56146   1.58386   1.59360   1.62371
 Alpha virt. eigenvalues --    1.63711   1.64971   1.67287   1.67592   1.71238
 Alpha virt. eigenvalues --    1.73787   1.77483   1.79468   1.82456   1.83765
 Alpha virt. eigenvalues --    1.84139   1.85161   1.86822   1.88098   1.92795
 Alpha virt. eigenvalues --    1.94393   1.95209   1.97861   2.01092   2.05211
 Alpha virt. eigenvalues --    2.08495   2.10774   2.12780   2.14677   2.15889
 Alpha virt. eigenvalues --    2.16909   2.20852   2.21501   2.23770   2.26166
 Alpha virt. eigenvalues --    2.30913   2.35861   2.37738   2.47521   2.61700
 Alpha virt. eigenvalues --    2.69057   2.76535   2.84376   2.93142   2.94061
 Alpha virt. eigenvalues --    2.96596   3.00194   3.14031   3.18337   3.19400
 Alpha virt. eigenvalues --    3.23315   3.25024   3.27340   3.29994   3.33310
 Alpha virt. eigenvalues --    3.36374   3.37327   3.37685   3.41119   3.42234
 Alpha virt. eigenvalues --    3.44706   3.46472   3.48506   3.51559   3.56513
 Alpha virt. eigenvalues --    3.57709   3.60628   3.61113   3.62781   3.63920
 Alpha virt. eigenvalues --    3.68779   3.69375   3.70008   3.73728   3.75053
 Alpha virt. eigenvalues --    3.78657   3.80194   3.81086   3.83964   3.88174
 Alpha virt. eigenvalues --    3.90880   3.91084   3.93903   3.95081   3.96601
 Alpha virt. eigenvalues --    4.00282   4.01854   4.05179   4.06437   4.07059
 Alpha virt. eigenvalues --    4.08349   4.09589   4.11088   4.13924   4.17856
 Alpha virt. eigenvalues --    4.18174   4.18374   4.18939   4.20423   4.21294
 Alpha virt. eigenvalues --    4.24246   4.26143   4.26934   4.29024   4.30053
 Alpha virt. eigenvalues --    4.31565   4.33256   4.35505   4.38562   4.39423
 Alpha virt. eigenvalues --    4.40236   4.41055   4.42388   4.45216   4.45890
 Alpha virt. eigenvalues --    4.46750   4.47840   4.48313   4.51248   4.53700
 Alpha virt. eigenvalues --    4.53746   4.55383   4.57969   4.58502   4.60470
 Alpha virt. eigenvalues --    4.62334   4.64933   4.65794   4.66715   4.67974
 Alpha virt. eigenvalues --    4.71959   4.74575   4.76618   4.79167   4.83310
 Alpha virt. eigenvalues --    4.84315   4.88518   4.89494   4.90498   4.91173
 Alpha virt. eigenvalues --    4.92667   4.97472   4.98137   5.02124   5.03378
 Alpha virt. eigenvalues --    5.07168   5.11054   5.12401   5.14458   5.19874
 Alpha virt. eigenvalues --    5.21288   5.25437   5.25719   5.33329   5.34359
 Alpha virt. eigenvalues --    5.34660   5.37415   5.39549   5.41755   5.45030
 Alpha virt. eigenvalues --    5.47772   5.48451   5.49744   5.59825   5.61575
 Alpha virt. eigenvalues --    5.65639   5.66556   5.70814   5.74558   5.80093
 Alpha virt. eigenvalues --    5.83505   5.87386   5.90392   5.97213   6.01670
 Alpha virt. eigenvalues --    6.05552   6.08315   6.09949   6.10544   6.13293
 Alpha virt. eigenvalues --    6.19401   6.23673   6.25875   6.26603   6.30292
 Alpha virt. eigenvalues --    6.32316   6.34991   6.39649   6.43805   6.47472
 Alpha virt. eigenvalues --    6.55011   6.61151   6.67343   6.72024   6.88744
 Alpha virt. eigenvalues --    6.93106   7.01926   7.19686   7.35397   7.45491
 Alpha virt. eigenvalues --    9.32652  12.19390  12.75503  15.55370  15.59850
 Alpha virt. eigenvalues --   17.44361  18.70825  22.37793
          Condensed to atoms (all electrons):
               1          2          3          4          5          6
     1  O    7.889188  -0.086408   0.313174  -0.058264   0.004376   0.008876
     2  N   -0.086408   6.738335   0.433915  -0.016521   0.515276  -0.032688
     3  C    0.313174   0.433915   4.419905   0.526994  -0.072703  -0.055909
     4  C   -0.058264  -0.016521   0.526994   4.814298  -0.039196   0.536122
     5  C    0.004376   0.515276  -0.072703  -0.039196   4.557087  -0.074125
     6  C    0.008876  -0.032688  -0.055909   0.536122  -0.074125   4.688638
     7  C   -0.000272  -0.034852  -0.050128  -0.046503   0.540734   0.510502
     8  H    0.347282   0.007855  -0.029713   0.007453  -0.000505  -0.001210
     9  H    0.006595   0.008183  -0.030194   0.421260  -0.002166  -0.031211
    10  H   -0.000516  -0.037297   0.004329  -0.003204   0.427754   0.008071
    11  H   -0.000423  -0.001482   0.006191  -0.031373   0.006430   0.418587
    12  H    0.000067   0.007887  -0.000141   0.004959  -0.022097  -0.031220
    13  O   -0.027315  -0.041018  -0.005722   0.001016  -0.001162   0.000146
    14  H    0.001284   0.003561   0.000297   0.000141   0.000222  -0.000025
    15  H    0.000039   0.037078  -0.006133   0.001017   0.003626  -0.000426
               7          8          9         10         11         12
     1  O   -0.000272   0.347282   0.006595  -0.000516  -0.000423   0.000067
     2  N   -0.034852   0.007855   0.008183  -0.037297  -0.001482   0.007887
     3  C   -0.050128  -0.029713  -0.030194   0.004329   0.006191  -0.000141
     4  C   -0.046503   0.007453   0.421260  -0.003204  -0.031373   0.004959
     5  C    0.540734  -0.000505  -0.002166   0.427754   0.006430  -0.022097
     6  C    0.510502  -0.001210  -0.031211   0.008071   0.418587  -0.031220
     7  C    4.892531   0.000466   0.007403  -0.058204  -0.033571   0.416252
     8  H    0.000466   0.403103   0.000077  -0.000201  -0.000001  -0.000014
     9  H    0.007403   0.000077   0.584458   0.000232  -0.006958  -0.000491
    10  H   -0.058204  -0.000201   0.000232   0.609352  -0.000702  -0.002731
    11  H   -0.033571  -0.000001  -0.006958  -0.000702   0.600172  -0.005413
    12  H    0.416252  -0.000014  -0.000491  -0.002731  -0.005413   0.602029
    13  O   -0.000407   0.061694   0.000023   0.000403  -0.000006   0.000013
    14  H    0.000089  -0.004252  -0.000003  -0.000033   0.000000  -0.000002
    15  H    0.001549  -0.009393  -0.000049  -0.000679   0.000028  -0.000045
              13         14         15
     1  O   -0.027315   0.001284   0.000039
     2  N   -0.041018   0.003561   0.037078
     3  C   -0.005722   0.000297  -0.006133
     4  C    0.001016   0.000141   0.001017
     5  C   -0.001162   0.000222   0.003626
     6  C    0.000146  -0.000025  -0.000426
     7  C   -0.000407   0.000089   0.001549
     8  H    0.061694  -0.004252  -0.009393
     9  H    0.000023  -0.000003  -0.000049
    10  H    0.000403  -0.000033  -0.000679
    11  H   -0.000006   0.000000   0.000028
    12  H    0.000013  -0.000002  -0.000045
    13  O    7.771897   0.351900   0.337154
    14  H    0.351900   0.448841  -0.021905
    15  H    0.337154  -0.021905   0.417369
 Mulliken charges:
               1
     1  O   -0.397684
     2  N   -0.501825
     3  C    0.545840
     4  C   -0.118200
     5  C    0.156448
     6  C    0.055872
     7  C   -0.145588
     8  H    0.217360
     9  H    0.042841
    10  H    0.053428
    11  H    0.048521
    12  H    0.030947
    13  O   -0.448615
    14  H    0.219884
    15  H    0.240771
 Sum of Mulliken charges =  -0.00000
 Mulliken charges with hydrogens summed into heavy atoms:
               1
     1  O   -0.180325
     2  N   -0.501825
     3  C    0.545840
     4  C   -0.075359
     5  C    0.209876
     6  C    0.104394
     7  C   -0.114642
    13  O    0.012040
 Electronic spatial extent (au):  <R**2>=           1069.6578
 Charge=             -0.0000 electrons
 Dipole moment (field-independent basis, Debye):
    X=             -1.7175    Y=             -1.2442    Z=              1.3165  Tot=              2.4962
 Quadrupole moment (field-independent basis, Debye-Ang):
   XX=            -42.2523   YY=            -44.9388   ZZ=            -49.1314
   XY=             -2.6668   XZ=              5.2470   YZ=             -1.3250
 Traceless Quadrupole moment (field-independent basis, Debye-Ang):
   XX=              3.1886   YY=              0.5020   ZZ=             -3.6906
   XY=             -2.6668   XZ=              5.2470   YZ=             -1.3250
 Octapole moment (field-independent basis, Debye-Ang**2):
  XXX=             12.3635  YYY=             -7.2076  ZZZ=              1.0335  XYY=             -0.3165
  XXY=             -4.2047  XXZ=             19.9028  XZZ=             12.3158  YZZ=              0.3638
  YYZ=              1.2640  XYZ=             -5.0906
 Hexadecapole moment (field-independent basis, Debye-Ang**3):
 XXXX=           -840.0239 YYYY=           -356.6905 ZZZZ=            -53.1320 XXXY=            -20.9887
 XXXZ=             75.1840 YYYX=            -12.7020 YYYZ=             -1.5323 ZZZX=              4.8674
 ZZZY=             -1.3717 XXYY=           -201.8561 XXZZ=           -166.9301 YYZZ=            -76.3978
 XXYZ=            -18.4024 YYXZ=              5.1892 ZZXY=             -3.7150
 N-N= 3.576226221683D+02 E-N=-1.651369755039D+03  KE= 3.986937398026D+02
 No NMR shielding tensors so no spin-rotation constants.
 Leave Link  601 at Fri Aug 27 00:20:13 2021, MaxMem= 17179869184 cpu:        55.5
 (Enter /public3/home/sc51754/softwares/g09e01/l701.exe)
 Compute integral first derivatives.
 ... and contract with generalized density number  0.
 Leave Link  701 at Fri Aug 27 00:20:15 2021, MaxMem= 17179869184 cpu:        71.9
 (Enter /public3/home/sc51754/softwares/g09e01/l702.exe)
 L702 exits ... SP integral derivatives will be done elsewhere.
 Leave Link  702 at Fri Aug 27 00:20:15 2021, MaxMem= 17179869184 cpu:         0.3
 (Enter /public3/home/sc51754/softwares/g09e01/l703.exe)
 Compute integral first derivatives, UseDBF=F ICtDFT=           0.
 Integral derivatives from FoFJK, PRISM(SPDF).
 Calling FoFJK, ICntrl=      2527 FMM=F ISym2X=0 I1Cent= 0 IOpClX= 0 NMat=1 NMatS=1 NMatT=0.
 FoFJK:  IHMeth= 1 ICntrl=    2527 DoSepK=F KAlg= 0 I1Cent=   0 FoldK=F
 IRaf=         0 NMat=   1 IRICut=       1 DoRegI=T DoRafI=F ISym2E= 0.
 FoFCou: FMM=F IPFlag=           0 FMFlag=      100000 FMFlg1=         800
         NFxFlg=           0 DoJE=F BraDBF=F KetDBF=F FulRan=T
         wScrn=  0.000000 ICntrl=    2527 IOpCl=  0 I1Cent=           0 NGrid=           0
         NMat0=    1 NMatS0=      1 NMatT0=    0 NMatD0=    1 NMtDS0=    0 NMtDT0=    0
 Symmetry not used in FoFCou.
 Leave Link  703 at Fri Aug 27 00:20:18 2021, MaxMem= 17179869184 cpu:       185.3
 (Enter /public3/home/sc51754/softwares/g09e01/l716.exe)
 Dipole        =-6.75707435D-01-4.89520831D-01 5.17969248D-01
 ***** Axes restored to original set *****
 -------------------------------------------------------------------
 Center     Atomic                   Forces (Hartrees/Bohr)
 Number     Number              X              Y              Z
 -------------------------------------------------------------------
      1        8          -0.001623442    0.009489032    0.000007183
      2        7           0.008070416   -0.004996147    0.000023727
      3        6          -0.002025150    0.002298159    0.000063109
      4        6           0.000464632    0.002716095   -0.000006464
      5        6          -0.001285910   -0.003088177   -0.000012728
      6        6          -0.002312324    0.000206382    0.000030417
      7        6          -0.002285563   -0.000803801   -0.000008254
      8        1           0.006711634   -0.006625646    0.000088459
      9        1          -0.000340771    0.002747776    0.000009535
     10        1           0.000862206   -0.002523479   -0.000014499
     11        1          -0.002417817    0.001132477    0.000010478
     12        1          -0.002259258   -0.001703536   -0.000002437
     13        8           0.003067883    0.006131999   -0.006329010
     14        1           0.002589773   -0.001970477    0.005307108
     15        1          -0.007216309   -0.003010656    0.000833376
 -------------------------------------------------------------------
 Cartesian Forces:  Max     0.009489032 RMS     0.003427750
 Leave Link  716 at Fri Aug 27 00:20:18 2021, MaxMem= 17179869184 cpu:         0.4
 (Enter /public3/home/sc51754/softwares/g09e01/l103.exe)

 GradGradGradGradGradGradGradGradGradGradGradGradGradGradGradGradGradGrad
 Berny optimization.
 FormGI is forming the generalized inverse of G from B-inverse, IUseBI=4.
 Internal  Forces:  Max     0.008318249 RMS     0.002356685
 Search for a local minimum.
 Step number   1 out of a maximum of   88
 All quantities printed in internal units (Hartrees-Bohrs-Radians)
 RMS Force = .23567D-02 SwitMx=.10000D-02 MixMth= 1
 Mixed Optimization -- RFO/linear search
 Second derivative matrix not updated -- first step.
 ITU=  0
     Eigenvalues ---    0.00525   0.00832   0.01684   0.02094   0.02184
     Eigenvalues ---    0.02225   0.02239   0.02286   0.02319   0.02409
     Eigenvalues ---    0.02460   0.05224   0.06028   0.06507   0.08515
     Eigenvalues ---    0.13089   0.16000   0.16000   0.16000   0.16000
     Eigenvalues ---    0.19207   0.20418   0.22000   0.22270   0.23481
     Eigenvalues ---    0.35621   0.35778   0.36026   0.36038   0.41939
     Eigenvalues ---    0.43696   0.46841   0.47322   0.48462   0.48884
     Eigenvalues ---    0.52273   0.55339   0.55352   0.56565
 RFO step:  Lambda=-9.13824812D-04 EMin= 5.24515301D-03
 Linear search not attempted -- first point.
 Iteration  1 RMS(Cart)=  0.00665532 RMS(Int)=  0.00002576
 Iteration  2 RMS(Cart)=  0.00001924 RMS(Int)=  0.00000529
 Iteration  3 RMS(Cart)=  0.00000000 RMS(Int)=  0.00000529
 ITry= 1 IFail=0 DXMaxC= 1.97D-02 DCOld= 1.00D+10 DXMaxT= 3.00D-01 DXLimC= 3.00D+00 Rises=F
 Variable       Old X    -DE/DX   Delta X   Delta X   Delta X     New X
                                 (Linear)    (Quad)   (Total)
    R1        2.53090   0.00534   0.00000   0.01023   0.01024   2.54113
    R2        1.85517   0.00832   0.00000   0.01616   0.01616   1.87134
    R3        2.51733   0.00770   0.00000   0.01422   0.01422   2.53155
    R4        2.53185   0.00634   0.00000   0.01136   0.01136   2.54320
    R5        3.65357  -0.00081   0.00000  -0.02037  -0.02038   3.63320
    R6        2.64886   0.00455   0.00000   0.01016   0.01016   2.65902
    R7        2.60507   0.00550   0.00000   0.01077   0.01077   2.61584
    R8        2.04022   0.00276   0.00000   0.00765   0.00765   2.04787
    R9        2.60933   0.00554   0.00000   0.01120   0.01120   2.62054
   R10        2.04678   0.00264   0.00000   0.00738   0.00738   2.05416
   R11        2.63885   0.00488   0.00000   0.01004   0.01004   2.64889
   R12        2.04430   0.00267   0.00000   0.00744   0.00744   2.05174
   R13        2.04041   0.00283   0.00000   0.00783   0.00783   2.04825
   R14        3.46012  -0.00145   0.00000  -0.01471  -0.01472   3.44541
   R15        3.61122   0.00110   0.00000  -0.00252  -0.00251   3.60872
   R16        1.81521   0.00618   0.00000   0.01115   0.01115   1.82636
   R17        1.85250   0.00655   0.00000   0.01323   0.01322   1.86573
    A1        1.91487  -0.00181   0.00000  -0.00798  -0.00797   1.90691
    A2        2.06532  -0.00079   0.00000  -0.00180  -0.00179   2.06353
    A3        1.87270   0.00052   0.00000   0.00253   0.00252   1.87522
    A4        2.34514   0.00028   0.00000  -0.00073  -0.00073   2.34441
    A5        2.07766  -0.00085   0.00000  -0.00105  -0.00105   2.07661
    A6        2.06520   0.00060   0.00000   0.00010   0.00010   2.06529
    A7        2.14032   0.00025   0.00000   0.00095   0.00095   2.14128
    A8        2.06244  -0.00010   0.00000  -0.00061  -0.00061   2.06183
    A9        2.08413   0.00020   0.00000   0.00126   0.00126   2.08539
   A10        2.13661  -0.00010   0.00000  -0.00064  -0.00064   2.13597
   A11        2.15286  -0.00014   0.00000   0.00032   0.00032   2.15318
   A12        2.02165  -0.00037   0.00000  -0.00286  -0.00286   2.01879
   A13        2.10868   0.00050   0.00000   0.00254   0.00254   2.11122
   A14        2.08831   0.00051   0.00000   0.00083   0.00083   2.08913
   A15        2.09381  -0.00032   0.00000  -0.00083  -0.00083   2.09298
   A16        2.10106  -0.00019   0.00000   0.00001   0.00001   2.10107
   A17        2.05711   0.00027   0.00000   0.00031   0.00031   2.05742
   A18        2.10400  -0.00007   0.00000   0.00025   0.00025   2.10425
   A19        2.12207  -0.00020   0.00000  -0.00056  -0.00055   2.12151
   A20        2.78431   0.00177   0.00000   0.00462   0.00463   2.78894
   A21        2.25759  -0.00011   0.00000  -0.00027  -0.00026   2.25733
   A22        2.11576  -0.00034   0.00000  -0.00322  -0.00320   2.11256
   A23        1.86403  -0.00065   0.00000  -0.00695  -0.00695   1.85708
   A24        1.30192   0.00226   0.00000   0.00678   0.00677   1.30869
   A25        2.52674   0.00028   0.00000  -0.00126  -0.00125   2.52549
    D1        0.00739   0.00008   0.00000  -0.00073  -0.00073   0.00666
    D2       -3.13430   0.00005   0.00000  -0.00051  -0.00051  -3.13481
    D3        0.07175   0.00043   0.00000   0.00399   0.00399   0.07574
    D4       -0.00835  -0.00012   0.00000   0.00200   0.00199  -0.00636
    D5       -3.13923  -0.00003   0.00000   0.00011   0.00011  -3.13912
    D6        0.00246  -0.00000   0.00000  -0.00012  -0.00012   0.00234
    D7       -0.00357  -0.00003   0.00000  -0.00062  -0.00062  -0.00419
    D8        3.13812   0.00000   0.00000  -0.00085  -0.00085   3.13728
    D9       -0.00196   0.00001   0.00000  -0.00004  -0.00004  -0.00200
   D10        3.13867   0.00001   0.00000  -0.00016  -0.00016   3.13850
   D11       -3.13562   0.00001   0.00000   0.00092   0.00092  -3.13471
   D12        0.00500   0.00000   0.00000   0.00079   0.00079   0.00579
   D13       -0.00000  -0.00002   0.00000   0.00098   0.00098   0.00097
   D14       -0.09978  -0.00004   0.00000   0.00429   0.00429  -0.09549
   D15        3.13428  -0.00002   0.00000   0.00008   0.00008   3.13436
   D16        3.03451  -0.00004   0.00000   0.00339   0.00339   3.03790
   D17        3.14017   0.00003   0.00000   0.00005   0.00005   3.14022
   D18        0.00037   0.00002   0.00000  -0.00008  -0.00008   0.00028
   D19       -0.00152  -0.00000   0.00000   0.00028   0.00028  -0.00124
   D20       -3.14132  -0.00001   0.00000   0.00014   0.00014  -3.14118
   D21       -0.00000   0.00000   0.00000  -0.00028  -0.00028  -0.00028
   D22       -3.14062   0.00000   0.00000  -0.00004  -0.00004  -3.14066
   D23        3.13975   0.00001   0.00000  -0.00013  -0.00013   3.13961
   D24       -0.00088   0.00001   0.00000   0.00010   0.00010  -0.00077
   D25        0.00051  -0.00001   0.00000   0.00004   0.00004   0.00054
   D26        3.14103  -0.00000   0.00000  -0.00001  -0.00001   3.14102
   D27       -3.14007  -0.00000   0.00000   0.00017   0.00017  -3.13990
   D28        0.00046   0.00000   0.00000   0.00012   0.00012   0.00058
   D29        0.00048   0.00000   0.00000   0.00013   0.00013   0.00061
   D30       -3.14004  -0.00000   0.00000   0.00018   0.00018  -3.13986
   D31        3.14109   0.00000   0.00000  -0.00011  -0.00011   3.14098
   D32        0.00058  -0.00000   0.00000  -0.00006  -0.00006   0.00052
   D33       -1.92611   0.00024   0.00000   0.00404   0.00404  -1.92208
   D34        0.00552   0.00010   0.00000  -0.00195  -0.00195   0.00357
   D35        1.52863  -0.00038   0.00000  -0.00107  -0.00108   1.52755
   D36        2.18999  -0.00015   0.00000  -0.00517  -0.00518   2.18481
         Item               Value     Threshold  Converged?
 Maximum Force            0.008318     0.000450     NO 
 RMS     Force            0.002357     0.000300     NO 
 Maximum Displacement     0.019694     0.001800     NO 
 RMS     Displacement     0.006653     0.001200     NO 
 Predicted change in Energy=-4.581341D-04
 Lowest energy point so far.  Saving SCF results.
 GradGradGradGradGradGradGradGradGradGradGradGradGradGradGradGradGradGrad

 Leave Link  103 at Fri Aug 27 00:20:19 2021, MaxMem= 17179869184 cpu:        84.3
 (Enter /public3/home/sc51754/softwares/g09e01/l202.exe)
                          Input orientation:                          
 ---------------------------------------------------------------------
 Center     Atomic      Atomic             Coordinates (Angstroms)
 Number     Number       Type             X           Y           Z
 ---------------------------------------------------------------------
      1          8           0        1.223426    1.457215   -0.003640
      2          7           0        0.312633   -0.668577   -0.006140
      3          6           0        0.140556    0.659953   -0.000567
      4          6           0       -1.131491    1.261391    0.008263
      5          6           0       -0.781480   -1.452227   -0.005889
      6          6           0       -2.243358    0.436840    0.009727
      7          6           0       -2.075911   -0.954836    0.002149
      8          1           0        2.040638    0.898074   -0.016240
      9          1           0       -1.210444    2.342192    0.012084
     10          1           0       -0.593788   -2.522888   -0.013550
     11          1           0       -3.238872    0.870126    0.015588
     12          1           0       -2.925171   -1.628310    0.001457
     13          8           0        3.097622   -0.585824   -0.086926
     14          1           0        3.592543   -0.882538    0.688361
     15          1           0        2.205583   -1.004418   -0.025235
 ---------------------------------------------------------------------
                    Distance matrix (angstroms):
                    1          2          3          4          5
     1  O    0.000000
     2  N    2.312691   0.000000
     3  C    1.344709   1.339639   0.000000
     4  C    2.363075   2.410493   1.407093   0.000000
     5  C    3.533342   1.345805   2.304665   2.736134   0.000000
     6  C    3.613853   2.784832   2.394354   1.384245   2.388703
     7  C    4.087010   2.405651   2.742313   2.409072   1.386728
     8  H    0.990268   2.332487   1.915008   3.192961   3.672652
     9  H    2.589818   3.374140   2.157612   1.083687   3.818631
    10  H    4.375337   2.064006   3.266482   3.822351   1.087015
    11  H    4.500794   3.870564   3.385996   2.143408   3.381207
    12  H    5.170236   3.377058   3.825550   3.401133   2.150923
    13  O    2.773726   2.787389   3.209931   4.615915   3.975507
    14  H    3.400886   3.359452   3.843190   5.232157   4.465266
    15  H    2.650421   1.922606   2.652371   4.033742   3.020506
                    6          7          8          9         10
     6  C    0.000000
     7  C    1.401734   0.000000
     8  H    4.308832   4.514376   0.000000
     9  H    2.167322   3.408743   3.557501   0.000000
    10  H    3.388453   2.157712   4.317775   4.904072   0.000000
    11  H    1.085735   2.164058   5.279680   2.506294   4.302309
    12  H    2.174806   1.083886   5.571551   4.324961   2.497166
    13  O    5.438865   5.187442   1.823230   5.209848   4.169425
    14  H    6.021548   5.710297   2.464844   5.824510   4.550691
    15  H    4.676700   4.281869   1.909650   4.782304   3.184708
                   11         12         13         14         15
    11  H    0.000000
    12  H    2.518093   0.000000
    13  O    6.502420   6.112988   0.000000
    14  H    7.084680   6.596105   0.966466   0.000000
    15  H    5.758270   5.168616   0.987299   1.564523   0.000000
 Stoichiometry    C5H7NO2
 Framework group  C1[X(C5H7NO2)]
 Deg. of freedom    39
 Full point group                 C1      NOp   1
 RotChk:  IX=0 Diff= 1.75D-03
 Largest Abelian subgroup         C1      NOp   1
 Largest concise Abelian subgroup C1      NOp   1
                         Standard orientation:                         
 ---------------------------------------------------------------------
 Center     Atomic      Atomic             Coordinates (Angstroms)
 Number     Number       Type             X           Y           Z
 ---------------------------------------------------------------------
      1          8           0        1.223872    1.454592   -0.002755
      2          7           0        0.310551   -0.670114   -0.005695
      3          6           0        0.140053    0.658619   -0.000096
      4          6           0       -1.131281    1.261570    0.008344
      5          6           0       -0.784493   -1.452462   -0.005861
      6          6           0       -2.244128    0.438342    0.009383
      7          6           0       -2.078335   -0.953532    0.001773
      8          1           0        2.040422    0.894481   -0.015115
      9          1           0       -1.208949    2.342463    0.012207
     10          1           0       -0.598072   -2.523345   -0.013527
     11          1           0       -3.239128    0.872811    0.014936
     12          1           0       -2.928394   -1.625995    0.000753
     13          8           0        3.095664   -0.590669   -0.085540
     14          1           0        3.589971   -0.888020    0.689896
     15          1           0        2.203107   -1.008205   -0.024175
 ---------------------------------------------------------------------
 Rotational constants (GHZ):      3.9773394      1.4132766      1.0452534
 Leave Link  202 at Fri Aug 27 00:20:20 2021, MaxMem= 17179869184 cpu:         2.5
 (Enter /public3/home/sc51754/softwares/g09e01/l301.exe)
 Basis read from rwf:  (5D, 7F)
 No pseudopotential information found on rwf file.
 There are   385 symmetry adapted cartesian basis functions of A   symmetry.
 There are   338 symmetry adapted basis functions of A   symmetry.
   338 basis functions,   566 primitive gaussians,   385 cartesian basis functions
    30 alpha electrons       30 beta electrons
       nuclear repulsion energy       356.3872252043 Hartrees.
 IExCor= 2523 DFT=T Ex=TPSS Corr=TPSS ExCW=0 ScaHFX=  0.000000
 ScaDFX=  1.000000  1.000000  1.000000  1.000000 ScalE2=  1.000000  1.000000
 IRadAn=      0 IRanWt=     -1 IRanGd=            0 ICorTp=0 IEmpDi=  4
 NAtoms=   15 NActive=   15 NUniq=   15 SFac= 1.00D+00 NAtFMM=   60 NAOKFM=F Big=F
 Integral buffers will be    131072 words long.
 Raffenetti 2 integral format.
 Two-electron integral symmetry is turned on.
 No density basis found on file   724.
 Leave Link  301 at Fri Aug 27 00:20:20 2021, MaxMem= 17179869184 cpu:         1.5
 (Enter /public3/home/sc51754/softwares/g09e01/l302.exe)
 NPDir=0 NMtPBC=     1 NCelOv=     1 NCel=       1 NClECP=     1 NCelD=      1
         NCelK=      1 NCelE2=     1 NClLst=     1 CellRange=     0.0.
 One-electron integrals computed using PRISM.
 NBasis=   338 RedAO= T EigKep=  1.50D-04  NBF=   338
 NBsUse=   338 1.00D-06 EigRej= -1.00D+00 NBFU=   338
 Precomputing XC quadrature grid using
 IXCGrd= 4 IRadAn=           0 IRanWt=          -1 IRanGd=           0 AccXCQ= 0.00D+00.
 Generated NRdTot=       0 NPtTot=           0 NUsed=           0 NTot=          32
 NSgBfM=   384   384   384   384   385 MxSgAt=    15 MxSgA2=    15.
 Leave Link  302 at Fri Aug 27 00:20:21 2021, MaxMem= 17179869184 cpu:        44.7
 (Enter /public3/home/sc51754/softwares/g09e01/l303.exe)
 DipDrv:  MaxL=1.
 Leave Link  303 at Fri Aug 27 00:20:21 2021, MaxMem= 17179869184 cpu:        14.3
 (Enter /public3/home/sc51754/softwares/g09e01/l401.exe)
 Initial guess from the checkpoint file:  "HY_H2O_TPSSTPSS_PC2_OPT_FREQ.chk"
 B after Tr=    -0.000000    0.000000   -0.000000
         Rot=    1.000000   -0.000034    0.000018    0.000450 Ang=  -0.05 deg.
 Guess basis will be translated and rotated to current coordinates.
 JPrj=2 DoOrth=T DoCkMO=T.
 Leave Link  401 at Fri Aug 27 00:20:21 2021, MaxMem= 17179869184 cpu:        22.5
 (Enter /public3/home/sc51754/softwares/g09e01/l502.exe)
 Closed shell SCF:
 Using DIIS extrapolation, IDIIS=  1040.
 Integral symmetry usage will be decided dynamically.
 Keep J ints in memory in canonical form, NReq=1670404686.
 IVT=      490665 IEndB=      490665 NGot= 17179869184 MDV= 15538220534
 LenX= 15538220534 LenY= 15538071868
 Requested convergence on RMS density matrix=1.00D-08 within 128 cycles.
 Requested convergence on MAX density matrix=1.00D-06.
 Requested convergence on             energy=1.00D-06.
 No special actions if energy rises.
 FoFCou: FMM=F IPFlag=           0 FMFlag=           0 FMFlg1=           0
         NFxFlg=           0 DoJE=F BraDBF=F KetDBF=F FulRan=T
         wScrn=  0.000000 ICntrl=     600 IOpCl=  0 I1Cent=           0 NGrid=           0
         NMat0=    1 NMatS0=  57291 NMatT0=    0 NMatD0=    1 NMtDS0=    0 NMtDT0=    0
 Symmetry not used in FoFCou.

 Cycle   1  Pass 1  IDiag  1:
 E= -400.187174575260    
 DIIS: error= 5.35D-04 at cycle   1 NSaved=   1.
 NSaved= 1 IEnMin= 1 EnMin= -400.187174575260     IErMin= 1 ErrMin= 5.35D-04
 ErrMax= 5.35D-04  0.00D+00 EMaxC= 1.00D-01 BMatC= 1.69D-04 BMatP= 1.69D-04
 IDIUse=3 WtCom= 9.95D-01 WtEn= 5.35D-03
 Coeff-Com:  0.100D+01
 Coeff-En:   0.100D+01
 Coeff:      0.100D+01
 Gap=     0.559 Goal=   None    Shift=    0.000
 RMSDP=4.38D-05 MaxDP=1.62D-03              OVMax= 3.10D-03

 Cycle   2  Pass 1  IDiag  1:
 E= -400.187299895503     Delta-E=       -0.000125320243 Rises=F Damp=F
 DIIS: error= 3.01D-04 at cycle   2 NSaved=   2.
 NSaved= 2 IEnMin= 2 EnMin= -400.187299895503     IErMin= 2 ErrMin= 3.01D-04
 ErrMax= 3.01D-04  0.00D+00 EMaxC= 1.00D-01 BMatC= 2.97D-05 BMatP= 1.69D-04
 IDIUse=3 WtCom= 9.97D-01 WtEn= 3.01D-03
 Coeff-Com:  0.222D+00 0.778D+00
 Coeff-En:   0.000D+00 0.100D+01
 Coeff:      0.221D+00 0.779D+00
 Gap=     0.152 Goal=   None    Shift=    0.000
 RMSDP=2.12D-05 MaxDP=8.51D-04 DE=-1.25D-04 OVMax= 1.55D-03

 Cycle   3  Pass 1  IDiag  1:
 E= -400.187303795552     Delta-E=       -0.000003900049 Rises=F Damp=F
 DIIS: error= 2.44D-04 at cycle   3 NSaved=   3.
 NSaved= 3 IEnMin= 3 EnMin= -400.187303795552     IErMin= 3 ErrMin= 2.44D-04
 ErrMax= 2.44D-04  0.00D+00 EMaxC= 1.00D-01 BMatC= 2.54D-05 BMatP= 2.97D-05
 IDIUse=3 WtCom= 9.98D-01 WtEn= 2.44D-03
 Coeff-Com:  0.287D-01 0.478D+00 0.493D+00
 Coeff-En:   0.000D+00 0.460D+00 0.540D+00
 Coeff:      0.286D-01 0.478D+00 0.494D+00
 Gap=     0.152 Goal=   None    Shift=    0.000
 RMSDP=1.11D-05 MaxDP=5.34D-04 DE=-3.90D-06 OVMax= 1.18D-03

 Cycle   4  Pass 1  IDiag  1:
 E= -400.187322330001     Delta-E=       -0.000018534449 Rises=F Damp=F
 DIIS: error= 4.40D-05 at cycle   4 NSaved=   4.
 NSaved= 4 IEnMin= 4 EnMin= -400.187322330001     IErMin= 4 ErrMin= 4.40D-05
 ErrMax= 4.40D-05  0.00D+00 EMaxC= 1.00D-01 BMatC= 1.33D-06 BMatP= 2.54D-05
 IDIUse=1 WtCom= 1.00D+00 WtEn= 0.00D+00
 Coeff-Com:  0.345D-02 0.220D+00 0.282D+00 0.494D+00
 Coeff:      0.345D-02 0.220D+00 0.282D+00 0.494D+00
 Gap=     0.152 Goal=   None    Shift=    0.000
 RMSDP=3.46D-06 MaxDP=1.30D-04 DE=-1.85D-05 OVMax= 6.82D-04

 Cycle   5  Pass 1  IDiag  1:
 E= -400.187323273784     Delta-E=       -0.000000943783 Rises=F Damp=F
 DIIS: error= 2.87D-05 at cycle   5 NSaved=   5.
 NSaved= 5 IEnMin= 5 EnMin= -400.187323273784     IErMin= 5 ErrMin= 2.87D-05
 ErrMax= 2.87D-05  0.00D+00 EMaxC= 1.00D-01 BMatC= 2.48D-07 BMatP= 1.33D-06
 IDIUse=1 WtCom= 1.00D+00 WtEn= 0.00D+00
 Coeff-Com: -0.106D-02 0.859D-01 0.126D+00 0.337D+00 0.452D+00
 Coeff:     -0.106D-02 0.859D-01 0.126D+00 0.337D+00 0.452D+00
 Gap=     0.152 Goal=   None    Shift=    0.000
 RMSDP=1.39D-06 MaxDP=5.52D-05 DE=-9.44D-07 OVMax= 3.24D-04

 Cycle   6  Pass 1  IDiag  1:
 E= -400.187323518586     Delta-E=       -0.000000244802 Rises=F Damp=F
 DIIS: error= 1.07D-05 at cycle   6 NSaved=   6.
 NSaved= 6 IEnMin= 6 EnMin= -400.187323518586     IErMin= 6 ErrMin= 1.07D-05
 ErrMax= 1.07D-05  0.00D+00 EMaxC= 1.00D-01 BMatC= 3.08D-08 BMatP= 2.48D-07
 IDIUse=1 WtCom= 1.00D+00 WtEn= 0.00D+00
[...]
   A11        2.15373   0.00000   0.00000   0.00002   0.00002   2.15375
   A12        2.01644  -0.00000   0.00000  -0.00001  -0.00001   2.01643
   A13        2.11301   0.00000   0.00000  -0.00001  -0.00001   2.11300
   A14        2.08983   0.00000   0.00000   0.00002   0.00002   2.08984
   A15        2.09250  -0.00000   0.00000  -0.00003  -0.00003   2.09247
   A16        2.10086   0.00000   0.00000   0.00001   0.00001   2.10087
   A17        2.05778  -0.00000   0.00000  -0.00003  -0.00003   2.05775
   A18        2.10395   0.00000   0.00000   0.00004   0.00004   2.10399
   A19        2.12146  -0.00000   0.00000  -0.00001  -0.00001   2.12145
   A20        2.80104  -0.00000   0.00000   0.00037   0.00036   2.80141
   A21        2.24588  -0.00000   0.00000   0.00035   0.00035   2.24623
   A22        2.04061  -0.00002   0.00000  -0.00203  -0.00203   2.03858
   A23        1.85007  -0.00001   0.00000  -0.00012  -0.00012   1.84995
   A24        1.35049  -0.00001   0.00000  -0.00055  -0.00055   1.34994
   A25        2.55067  -0.00002   0.00000  -0.00121  -0.00121   2.54946
    D1        0.00591   0.00000   0.00000   0.00029   0.00029   0.00619
    D2       -3.13519   0.00000   0.00000   0.00026   0.00026  -3.13493
    D3        0.08023  -0.00000   0.00000  -0.00487  -0.00487   0.07535
    D4        0.00004  -0.00000   0.00000  -0.00198  -0.00198  -0.00194
    D5       -3.13858  -0.00000   0.00000  -0.00005  -0.00005  -3.13863
    D6        0.00250  -0.00000   0.00000  -0.00003  -0.00003   0.00247
    D7       -0.00832   0.00000   0.00000   0.00120   0.00120  -0.00712
    D8        3.13275   0.00000   0.00000   0.00123   0.00123   3.13398
    D9       -0.00202  -0.00000   0.00000  -0.00003  -0.00003  -0.00204
   D10        3.13853   0.00000   0.00000  -0.00004  -0.00004   3.13848
   D11       -3.12820  -0.00000   0.00000  -0.00173  -0.00173  -3.12994
   D12        0.01234  -0.00000   0.00000  -0.00175  -0.00175   0.01059
   D13        0.00572  -0.00000   0.00000  -0.00143  -0.00143   0.00430
   D14       -0.07263  -0.00001   0.00000  -0.00197  -0.00197  -0.07460
   D15        3.13313   0.00000   0.00000   0.00015   0.00015   3.13328
   D16        3.05478  -0.00001   0.00000  -0.00039  -0.00039   3.05438
   D17        3.13963   0.00000   0.00000   0.00008   0.00008   3.13970
   D18       -0.00012   0.00000   0.00000   0.00006   0.00006  -0.00006
   D19       -0.00145   0.00000   0.00000   0.00005   0.00005  -0.00140
   D20       -3.14119   0.00000   0.00000   0.00003   0.00003  -3.14116
   D21       -0.00015   0.00000   0.00000  -0.00003  -0.00003  -0.00018
   D22       -3.14052  -0.00000   0.00000  -0.00005  -0.00005  -3.14057
   D23        3.13954   0.00000   0.00000  -0.00001  -0.00001   3.13953
   D24       -0.00083  -0.00000   0.00000  -0.00003  -0.00003  -0.00086
   D25        0.00049   0.00000   0.00000   0.00005   0.00005   0.00054
   D26        3.14097   0.00000   0.00000   0.00002   0.00002   3.14100
   D27       -3.14000   0.00000   0.00000   0.00006   0.00007  -3.13993
   D28        0.00049   0.00000   0.00000   0.00004   0.00004   0.00053
   D29        0.00060  -0.00000   0.00000  -0.00002  -0.00002   0.00058
   D30       -3.13987  -0.00000   0.00000   0.00001   0.00001  -3.13986
   D31        3.14096  -0.00000   0.00000   0.00000   0.00000   3.14097
   D32        0.00049   0.00000   0.00000   0.00003   0.00003   0.00052
   D33       -1.90932   0.00000   0.00000   0.00392   0.00392  -1.90540
   D34       -0.00388   0.00000   0.00000   0.00228   0.00228  -0.00160
   D35        1.49837   0.00001   0.00000   0.00028   0.00028   1.49865
   D36        2.09160  -0.00001   0.00000  -0.00136  -0.00136   2.09024
         Item               Value     Threshold  Converged?
 Maximum Force            0.000020     0.000450     YES
 RMS     Force            0.000006     0.000300     YES
 Maximum Displacement     0.004438     0.001800     NO 
 RMS     Displacement     0.000879     0.001200     YES
 Predicted change in Energy=-9.993661D-08
 GradGradGradGradGradGradGradGradGradGradGradGradGradGradGradGradGradGrad

 Leave Link  103 at Fri Aug 27 00:25:40 2021, MaxMem= 17179869184 cpu:        26.4
 (Enter /public3/home/sc51754/softwares/g09e01/l9999.exe)
 1\1\GINC-S1512\Freq\RTPSSTPSS\Gen\C5H7N1O2\SC51754\27-Aug-2021\0\\#P G
 eom=AllCheck Guess=TCheck SCRF=Check GenChk RTPSSTPSS/ChkBas Freq\\HY_
 H2O_TPSSTPSS_PC2_OPT_FREQ\\0,1\O,1.2426198305,1.4426792889,-0.00702503
 62\N,0.3238281752,-0.6784028012,-0.0108797174\C,0.1543460927,0.6535132
 987,-0.0019617083\C,-1.1156057601,1.2567819957,0.0118525473\C,-0.77390
 59129,-1.4581510693,-0.0092594694\C,-2.2292017602,0.4349411309,0.01455
 96628\C,-2.0660412402,-0.9566441194,0.0034518458\H,2.0553102075,0.8633
 734777,-0.0229250689\H,-1.191977444,2.3375856983,0.0182122901\H,-0.587
 984877,-2.5287920524,-0.0197189148\H,-3.2234043693,0.8709706485,0.0241
 103191\H,-2.9172624332,-1.6274289855,0.0036265302\O,3.0628283009,-0.57
 25615247,-0.0970814325\H,3.5206393136,-0.8289011496,0.7158592319\H,2.1
 582988763,-0.9827918365,-0.0433790795\\Version=EM64L-G09RevE.01\State=
 1-A\HF=-400.1875677\RMSD=3.854e-09\RMSF=1.288e-05\ZeroPoint=0.1164563\
 Thermal=0.1242625\Dipole=-0.7275894,-0.4850515,0.536339\DipoleDeriv=-1
 .5188619,-0.4424915,-0.0022502,-0.3670938,-0.6430277,0.0030785,-0.0032
 181,0.0045707,-0.3157367,-0.8721565,0.1042936,0.0000478,-0.3645634,-0.
 557432,-0.0001448,-0.01025,0.0023514,-0.22212,1.4502739,0.689565,-0.00
 42094,0.5762646,0.5994548,-0.0026661,-0.0082952,-0.0037,0.168701,-0.49
 82943,-0.3525544,-0.0008397,0.1046076,0.0383194,0.0000676,0.0065988,0.
 00112,-0.1367024,0.4743565,-0.2175402,-0.0040183,0.2141601,0.3326413,0
 .0072463,-0.0024711,0.0065114,-0.0241711,0.2488079,0.0782443,-0.001717
 1,0.0425406,0.3813661,0.0029185,-0.0017847,0.0025448,-0.090465,-0.1850
 443,0.2748703,0.0012265,0.0510976,-0.3186053,-0.0020202,0.0037593,-0.0
 024189,-0.1482298,0.7846797,-0.1786494,0.0012313,-0.389604,0.3925463,-
 0.0089713,-0.0010712,-0.0112214,0.2502085,0.0639991,0.0061726,0.000249
 8,0.0129887,-0.0572876,-0.0011747,0.0010227,-0.0008792,0.1433857,0.054
 1706,0.0303215,0.0001361,-0.0144782,-0.1116175,-0.0017992,-0.0010652,-
 0.0014265,0.1079125,-0.0662641,0.0637923,0.0014904,0.0662622,0.0512066
 ,-0.0009341,0.0008248,-0.0008557,0.1207913,-0.0387335,-0.0796016,0.000
 1214,-0.0773207,-0.0014848,-0.0004665,0.0003334,-0.0007367,0.1464411,-
 1.2006198,0.1699532,-0.0041756,0.1760178,-0.5736287,-0.1070183,0.04803
 69,-0.0899275,-0.3427939,0.3044918,-0.0145883,-0.008561,0.0084624,0.26
 53193,0.0663324,-0.0404466,0.0542551,0.1570721,0.9991946,-0.1317874,0.
 021268,-0.0393414,0.2022298,0.0455519,0.0080261,0.0398123,0.1857066\Po
 lar=102.6743538,2.44383,86.5517896,0.925712,-0.0794269,44.7615448\PG=C
 01 [X(C5H7N1O2)]\NImag=0\\0.55594402,-0.03634393,0.39189915,-0.0071377
 8,0.00343980,0.03968302,0.01258136,-0.04996759,-0.00012699,0.46378784,
 -0.02325619,-0.05804471,-0.00032749,0.11024750,0.58314336,0.00004930,0
 .00005211,0.00660543,-0.00143836,0.00262482,0.08635052,-0.24458915,-0.
 07137871,0.00201276,-0.14713852,0.02507661,0.00042381,0.71282937,-0.10
 646695,-0.16635532,0.00066658,0.04661801,-0.28362191,-0.00171012,0.004
 90910,0.64236212,0.00100393,-0.00035791,-0.04921878,0.00084478,-0.0013
 7951,-0.06613280,-0.00440660,0.00280252,0.17601705,-0.06238738,0.00648
 622,0.00050239,0.02581673,0.06895254,0.00048047,-0.23893850,0.04299451
 ,0.00159121,0.64838216,-0.02992936,0.01693346,0.00032091,0.03107811,-0
 .02887046,-0.00051756,0.10356533,-0.15637103,-0.00138462,0.02989877,0.
 73938156,0.00057396,0.00018613,0.00870105,-0.00006526,-0.00072316,0.01
 673476,0.00197908,-0.00111704,-0.07122321,-0.00383042,0.00341421,0.116
 38110,-0.00806181,0.00899713,0.00010197,-0.25402548,-0.08861808,0.0008
 9820,0.04291974,-0.07400253,-0.00082464,-0.05969790,-0.00136677,0.0003
 8063,0.64727411,0.00085226,0.00002231,-0.00009260,-0.10609508,-0.18388
 423,-0.00019284,-0.02782774,-0.06776230,-0.00014111,-0.00898656,0.0013
 1505,0.00007938,-0.03446704,0.72710892,0.00013434,-0.00008755,0.009718
 98,0.00052110,-0.00044895,-0.05774423,-0.00056459,0.00008549,-0.003971
 22,0.00031778,0.00008003,-0.00452654,-0.00366005,0.00487797,0.14671261
 ,0.00246198,0.00363465,0.00007696,-0.00636857,-0.02107210,-0.00019301,
 -0.05532766,0.00455572,0.00047625,-0.27612561,-0.13733904,0.00070197,0
 .01636435,0.03678334,0.00023643,0.72084064,0.01572390,-0.00568602,-0.0
 0010870,-0.02941894,-0.05376955,-0.00014219,-0.03896721,0.06548439,0.0
 0069496,-0.08395648,-0.20748471,-0.00027727,0.08013536,-0.01511467,-0.
 00071956,-0.01677080,0.65138399,0.00009800,-0.00007129,0.00427052,-0.0
 0015137,-0.00016876,-0.00702884,0.00014859,0.00040401,0.00120450,0.000
 98518,0.00001080,-0.05409985,0.00047024,-0.00039044,0.00710191,-0.0041
 6089,0.00359947,0.13633834,0.00313518,-0.00577220,-0.00004089,-0.06702
 973,-0.04837756,0.00023166,-0.02556083,0.04334039,0.00036251,0.0394780
 6,-0.02593162,-0.00036721,-0.29786700,0.10559247,0.00240637,-0.1251008
 7,-0.00631660,0.00038936,0.70176145,-0.01060642,0.00033838,0.00003033,
 0.00153278,0.05195128,0.00028889,0.03145886,-0.03758062,-0.00044889,-0
 .05719983,-0.03578256,0.00012989,0.04617244,-0.15775759,-0.00111344,0.
 05082081,-0.30942685,-0.00215721,0.04657610,0.66421317,-0.00008462,0.0
 0006122,-0.00137001,0.00046010,0.00055430,0.01987002,0.00034226,-0.000
 52339,-0.00819660,-0.00059241,-0.00014576,0.00628003,0.00195959,-0.001
 46964,-0.06273344,0.00076727,-0.00184868,-0.05886974,-0.00352690,0.003
 90714,0.11508325,-0.23927942,0.13455326,0.00429368,0.00120913,0.009707
 24,-0.00015155,-0.05332973,0.00399041,0.00063950,0.00328622,-0.0026405
 7,-0.00003139,0.00020428,0.00053819,-0.00001831,-0.00164265,-0.0008930
 6,0.00003538,0.00043840,0.00179113,0.00003379,0.28137548,0.16838585,-0
 .17094302,-0.00403166,0.00316810,-0.00251365,0.00006504,-0.01644640,0.
 02692733,0.00052750,-0.00854926,-0.00452847,0.00004238,-0.00166074,-0.
 00187936,-0.00002345,0.00025948,0.00362320,-0.00001090,0.00115690,-0.0
 0207820,-0.00002119,-0.13343469,0.15715197,0.00596603,-0.00416100,-0.0
 1940151,-0.00017860,0.00004907,-0.00278253,-0.00011280,-0.00012098,-0.
 00096306,0.00007245,-0.00002466,0.00383561,0.00001966,-0.00000487,-0.0
 0070871,-0.00002521,-0.00003481,0.00160853,-0.00001750,0.00001420,0.00
 038436,-0.00499018,0.00526303,0.02674784,0.00210683,-0.00088371,-0.000
 03487,-0.00615298,0.00486486,0.00010413,0.00429616,0.02850382,0.000133
 27,-0.05879759,0.02136039,0.00032664,-0.00204520,-0.00132156,0.0000025
 1,0.00705651,-0.02651236,-0.00018299,-0.00396988,-0.00262596,0.0000740
 0,-0.00022800,0.00018565,-0.00001419,0.05548770,-0.00041041,0.00114361
 ,0.00002240,0.00289106,-0.00004839,-0.00005679,-0.00351872,-0.01063935
 ,-0.00002775,0.02311021,-0.33275374,-0.00179284,0.00051280,0.00102426,
 0.00001211,0.00344717,-0.01252763,-0.00010196,-0.00354177,0.00101579,-
 0.00001006,0.00025797,-0.00008469,0.00000517,-0.02267945,0.35250901,-0
 .00003486,0.00000435,-0.00176908,0.00012399,-0.00009843,0.00563875,-0.
 00006780,-0.00027253,0.00186607,0.00035284,-0.00168958,-0.03265591,0.0
 0003478,0.00002753,-0.00042975,-0.00002926,0.00006775,0.00166387,0.000
 05126,-0.00003063,0.00858604,-0.00000770,0.00000822,-0.00065874,-0.000
 35810,0.00193455,0.02332858,-0.00035310,-0.00142054,0.00000054,0.00226
 398,-0.03348869,-0.00030945,-0.00296025,-0.00348947,0.00006617,-0.0005
 4838,-0.00074730,-0.00000464,-0.06730178,0.05711532,0.00063293,-0.0058
 9600,0.00129741,0.00009974,0.00101533,0.02854546,0.00026930,0.00048099
 ,-0.00020023,-0.00000417,0.00019823,-0.00001555,-0.00001388,0.07240663
 ,-0.00032388,-0.00118610,-0.00000377,-0.00645754,-0.02097472,-0.000107
 18,-0.00245098,0.00169874,-0.00008841,-0.00001050,0.00046600,0.0000123
 1,0.05518724,-0.31041065,-0.00263549,0.00254371,0.00076107,-0.00008189
 ,-0.00076449,-0.00678224,-0.00010535,0.00041177,-0.00005062,-0.0000056
 9,0.00010007,-0.00011338,0.00001455,-0.04851298,0.33669679,-0.00000289
 ,-0.00000004,0.00037541,-0.00001782,0.00017005,-0.00351211,0.00009387,
 -0.00002964,0.00975419,-0.00000925,0.00001932,-0.00066277,0.00058386,-
 0.00282312,-0.03927955,0.00009609,-0.00003968,0.00738667,0.00005385,-0
 .00027241,0.00620677,-0.00000972,-0.00000183,-0.00018071,-0.00001540,0
 .00000729,-0.00166131,-0.00068164,0.00296029,0.02546195,-0.00178613,0.
 00086241,0.00002151,0.00024128,-0.00057281,-0.00002613,-0.00117176,-0.
 00416212,0.00004309,-0.01867403,0.01239357,0.00023258,0.00174302,0.000
 60842,0.00003644,-0.28447252,0.09897965,0.00228531,0.00077058,-0.00077
 880,0.00001611,0.00003218,-0.00048021,-0.00000808,0.00118283,-0.000185
 50,-0.00004138,-0.00008528,-0.00013610,-0.00000345,0.30165792,-0.00104
 074,0.00070791,0.00001845,-0.00076858,-0.00020631,0.00002293,-0.003443
 05,-0.00205287,-0.00005022,-0.01814047,0.01157448,0.00015991,-0.000408
 09,-0.00675683,-0.00009883,0.09961339,-0.10212881,-0.00106927,0.029805
 98,-0.00639257,-0.00026716,-0.00019929,-0.00026396,0.00000277,0.000662
 48,0.00091083,0.00002891,0.00168211,-0.00048071,-0.00000886,-0.1070696
 6,0.10376560,-0.00001082,-0.00001524,-0.00034673,-0.00001084,0.0000223
 5,-0.00304298,0.00006307,-0.00003103,0.00990035,0.00005867,-0.00001527
 ,0.00477947,0.00003447,-0.00011411,0.00721969,0.00224668,-0.00105288,-
 0.04001387,0.00024029,-0.00008183,0.00444698,-0.00000531,0.00000097,-0
 .00049010,-0.00003831,0.00002646,-0.00455314,0.00000846,-0.00000010,-0
 .00041494,-0.00254413,0.00122278,0.02592368,0.00029426,-0.00043241,-0.
 00001008,-0.00545812,0.00262094,0.00011163,-0.00031078,0.00215290,0.00
 001345,0.00107031,0.00157533,0.00003855,-0.01613538,-0.02195313,-0.000
 08419,0.00758849,0.00502626,-0.00000402,-0.22812600,-0.13402532,0.0002
 2498,0.00005708,0.00025721,-0.00000407,0.00030091,0.00039162,0.0000027
 4,0.00076374,0.00040066,-0.00002041,0.00065629,-0.00062355,-0.00002826
 ,0.23916924,-0.00035466,0.00042422,0.00001343,0.00341323,0.00051015,-0
 .00008754,0.00139100,-0.00130681,-0.00001800,0.00250674,-0.00503420,-0
 .00010300,0.01047320,0.01101559,0.00002808,-0.02609783,-0.01354554,0.0
 0005418,-0.13455214,-0.16216926,-0.00016827,0.00004426,-0.00015029,0.0
 0000142,-0.00139527,-0.00058653,0.00000276,-0.00068376,0.00050467,0.00
 003493,0.00039263,0.00124900,0.00003343,0.14489935,0.16894212,-0.00001
 827,0.00000256,-0.00130000,0.00012124,-0.00007906,0.00815696,0.0000142
 0,-0.00001533,0.00024093,0.00005724,-0.00008567,0.00625414,0.00017966,
 0.00024656,-0.00112916,-0.00022932,-0.00011982,0.00055852,0.00018471,-
 0.00022202,-0.03023551,0.00000358,-0.00000286,-0.00002866,-0.00001061,
 -0.00000966,0.00062571,-0.00003270,0.00003506,-0.00327589,-0.00002207,
 0.00003891,-0.00336613,-0.00024458,0.00020622,0.02341123,-0.00876854,0
 .01260504,0.00009791,-0.02188506,-0.00345163,-0.00082951,-0.00095482,-
 0.00199826,0.00015354,-0.00038095,0.00083334,0.00014634,-0.00071229,0.
 00681955,0.00004775,-0.00012460,-0.00029698,-0.00002359,-0.00212466,-0
 .00109892,0.00012978,-0.00257321,-0.00650921,-0.00003213,-0.00039438,0
 .00028552,0.00000036,-0.00020398,-0.00073994,-0.00006517,-0.00021321,0
 .00002555,-0.00001924,-0.00075721,0.00014832,0.00001306,0.48317562,0.0
 2464564,-0.00743514,0.00182023,-0.00308399,0.00814432,-0.00044402,-0.0
 1253759,-0.01145544,-0.00002659,0.00386362,0.00233663,-0.00016668,0.00
 111750,0.00090386,-0.00002204,-0.00051468,-0.00184539,-0.00002789,-0.0
 0058947,0.00129755,0.00003480,-0.01240123,0.00433104,-0.00612238,-0.00
 058286,0.00024003,-0.00000146,0.00031134,0.00010035,-0.00001081,0.0001
 8039,0.00010670,0.00002447,-0.00009848,0.00011358,0.00000782,0.0907443
 4,0.14493875,-0.00190592,0.00256728,0.00551201,-0.00169726,0.00012204,
 0.00668769,0.00006481,-0.00051609,-0.00054417,0.00004096,0.00005470,-0
 .00079047,0.00004132,-0.00006744,0.00020381,-0.00001687,-0.00009231,0.
 00007795,-0.00003602,0.00009063,-0.00062198,0.00108916,-0.00333562,-0.
 01054020,0.00000492,-0.00000053,0.00002839,0.00003342,0.00001350,0.000
 22281,0.00001247,0.00000529,0.00010397,-0.00000993,-0.00000505,-0.0000
 7172,0.17013733,-0.14044078,0.39846680,0.00089037,0.00058996,0.0007002
 3,-0.00203896,-0.00067231,0.00215436,-0.00067916,-0.00053154,-0.000303
 63,0.00015342,0.00006819,-0.00024681,-0.00052934,0.00027975,0.00002871
 ,-0.00000310,-0.00005568,0.00003459,-0.00003775,-0.00012527,-0.0002099
 1,-0.00158024,0.00037427,-0.00140214,0.00000419,0.00001133,0.00000175,
 -0.00004593,-0.00004271,0.00007703,0.00002247,-0.00000373,0.00003440,-
 0.00002613,0.00002089,-0.00001888,-0.13337242,0.03353717,-0.16485025,0
 .15174030,0.00255469,-0.00256475,-0.00172419,-0.00124335,0.00028589,0.
 00041232,-0.00018355,-0.00053322,0.00004399,0.00009729,0.00008648,0.00
 010431,0.00004391,0.00038027,-0.00000820,0.00001976,-0.00001985,0.0000
 1704,-0.00008859,-0.00006942,-0.00001008,-0.00125386,0.00328382,0.0049
 9143,-0.00002224,0.00001179,0.00000402,-0.00005150,-0.00007492,-0.0000
 1953,0.00001024,-0.00000033,-0.00001859,-0.00003420,0.00000552,-0.0000
 0008,0.05641574,-0.05304298,0.12457510,-0.04762752,0.04809708,0.002477
 49,-0.00206270,-0.00019938,0.00130052,-0.00004407,-0.00002137,-0.00051
 748,-0.00013677,0.00003312,0.00012680,0.00000127,-0.00000783,-0.000014
 99,-0.00005255,0.00001459,0.00001186,-0.00000424,-0.00000542,0.0000709
 6,0.00000931,-0.00001016,-0.00194472,0.00289932,0.00036449,0.00000147,
 -0.00000078,0.00000651,-0.00002362,0.00001625,0.00001526,0.00000778,-0
 .00000254,0.00000600,0.00002526,0.00000641,0.00000587,-0.20743451,0.10
 837929,-0.35453729,0.20122242,-0.11148525,0.35580292,-0.01218847,-0.00
 152956,-0.00045735,0.00419710,-0.00196033,-0.00150555,0.01091589,0.013
 58600,0.00020715,-0.00263655,-0.00281836,0.00016598,-0.00212931,-0.007
 93820,-0.00003722,0.00074959,0.00202550,-0.00002352,0.00321771,-0.0004
 3708,0.00013666,0.01154949,-0.00650671,0.00073094,0.00095467,-0.000556
 29,-0.00001474,0.00026579,0.00079567,-0.00007893,0.00009636,-0.0000923
 5,-0.00002912,0.00091330,-0.00020597,0.00000273,-0.31071028,-0.1245917
 0,-0.00290814,-0.01449773,-0.00863684,0.00469075,0.30930245,-0.0034298
 0,0.00074600,-0.00004371,-0.00191373,-0.01210108,-0.00020785,0.0103530
 4,0.00120631,-0.00014599,-0.00106680,-0.00126849,0.00005145,-0.0021163
 2,0.00179538,0.00007383,0.00011641,0.00029636,-0.00000589,-0.00053741,
 -0.00077686,0.00001212,-0.00047152,-0.01282510,0.00014730,0.00034615,-
 0.00010162,0.,-0.00034164,-0.00015429,0.00001404,-0.00004211,-0.000032
 15,-0.00000142,-0.00015720,0.00002777,-0.00000264,-0.15378246,-0.08873
 386,0.01702928,0.01417720,0.00415463,0.00247707,0.13886621,0.10776700,
 -0.00110790,0.00044229,-0.00126093,0.00031478,-0.00027320,-0.00977925,
 0.00052683,0.00051432,0.00123361,-0.00015391,-0.00003811,0.00100042,-0
 .00020469,0.00011729,-0.00044898,0.00004104,0.00007795,-0.00019309,-0.
 00000246,-0.00014397,0.00117999,0.00106379,-0.00137894,0.00281337,0.00
 000755,-0.00000762,-0.00001598,-0.00004048,-0.00002411,-0.00043577,-0.
 00001004,-0.00000308,-0.00015226,-0.00001107,0.00000100,0.00015371,0.0
 3767808,0.03699604,-0.04419759,-0.03722188,-0.01688230,-0.00146732,-0.
 00087964,-0.01939757,0.05157006\\0.00002748,0.00000885,-0.00001712,0.0
 0001341,0.00000357,0.00001306,-0.00000755,-0.00002393,-0.00000174,-0.0
 0000682,-0.00000090,0.00000101,-0.00001752,-0.00000484,-0.00000085,0.0
 0000071,0.00000836,0.00000291,0.00000864,0.00000010,-0.00000425,-0.000
 02622,-0.00000426,0.00001409,0.00000736,-0.00000059,0.00000079,-0.0000
 0370,0.00000214,0.00000220,0.00000301,-0.00000075,-0.00000053,0.000001
 35,-0.00000047,-0.00000065,0.00001321,-0.00001492,0.00002976,0.0000028
 9,-0.00000974,-0.00001790,-0.00001625,0.00003739,-0.00002077\\\@


 WHEN YOU REACH FOR THE STARS, YOU MAY NOT QUITE GET ONE,
 BUT YOU WON'T COME UP WITH A HANDFUL OF MUD, EITHER.

                                         -- LEO BURNETT (AD AGENCY HEAD)
 Job cpu time:       0 days  1 hours  9 minutes 46.3 seconds.
 File lengths (MBytes):  RWF=    137 Int=      0 D2E=      0 Chk=      9 Scr=      1
 Normal termination of Gaussian 09 at Fri Aug 27 00:25:40 2021.
