 Entering Gaussian System, Link 0=g09
 AtFile(1): pc-2.gbs
            -H     0
            S    4   1.00
                  0.754230D+02           0.240650D-02
                  0.113500D+02           0.184870D-01
                  0.259930D+01           0.897420D-01
                  0.735130D+00           0.281110D+00
            S    1   1.00
                  0.231670D+00           0.100000D+01
            S    1   1.00
                  0.741470D-01           0.100000D+01
            P    1   1.00
                  0.160000D+01           0.100000D+01
            P    1   1.00
                  0.450000D+00           0.100000D+01
            D    1   1.00
                  0.125000D+01           0.100000D+01
            ****
            -C     0
            S    7   1.00
                  0.785710D+04           0.568250D-03
                  0.117870D+04           0.439150D-02
                  0.268320D+03           0.225040D-01
                  0.759480D+02           0.866530D-01
                  0.245590D+02           0.244050D+00
                  0.862120D+01           0.441480D+00
                  0.312780D+01           0.353320D+00
            S    7   1.00
                  0.117870D+04          -0.594920D-06
                  0.268320D+03          -0.627480D-04
                  0.759480D+02          -0.757730D-03
                  0.245590D+02          -0.733080D-02
                  0.862120D+01          -0.389320D-01
                  0.312780D+01          -0.889080D-01
                  0.822020D+00           0.216890D+00
            S    1   1.00
                  0.330170D+00           0.100000D+01
            S    1   1.00
                  0.114630D+00           0.100000D+01
            P    4   1.00
                  0.337750D+02           0.602940D-02
                  0.767660D+01           0.432280D-01
                  0.223570D+01           0.163010D+00
                  0.764470D+00           0.365040D+00
            P    1   1.00
                  0.262320D+00           0.100000D+01
            P    1   1.00
                  0.846380D-01           0.100000D+01
            D    1   1.00
                  0.140000D+01           0.100000D+01
            D    1   1.00
                  0.450000D+00           0.100000D+01
            F    1   1.00
                  0.950000D+00           0.100000D+01
            ****
            -N     0
            S    7   1.00
                  0.111010D+05           0.545700D-03
                  0.166530D+04           0.421810D-02
                  0.379080D+03           0.216450D-01
                  0.107300D+03           0.837760D-01
                  0.347470D+02           0.238810D+00
                  0.122490D+02           0.439940D+00
                  0.447430D+01           0.363640D+00
            S    7   1.00
                  0.166530D+04          -0.150060D-05
                  0.379080D+03          -0.587530D-04
                  0.107300D+03          -0.774530D-03
                  0.347470D+02          -0.721610D-02
                  0.122490D+02          -0.393380D-01
                  0.447430D+01          -0.906110D-01
                  0.124040D+01           0.198820D+00
            S    1   1.00
                  0.487430D+00           0.100000D+01
            S    1   1.00
                  0.164840D+00           0.100000D+01
            P    4   1.00
                  0.479340D+02           0.617060D-02
                  0.109990D+02           0.442600D-01
                  0.324720D+01           0.168250D+00
                  0.111140D+01           0.368480D+00
            P    1   1.00
                  0.379880D+00           0.100000D+01
            P    1   1.00
                  0.120680D+00           0.100000D+01
            D    1   1.00
                  0.180000D+01           0.100000D+01
            D    1   1.00
                  0.550000D+00           0.100000D+01
            F    1   1.00
                  0.102000D+01           0.100000D+01
            ****
            -O     0
            S    7   1.00
                  0.147820D+05           0.535190D-03
                  0.221730D+04           0.413750D-02
                  0.504740D+03           0.212450D-01
                  0.142870D+03           0.824530D-01
                  0.463000D+02           0.236710D+00
                  0.163370D+02           0.440390D+00
                  0.598280D+01           0.364650D+00
            S    7   1.00
                  0.221730D+04          -0.192750D-05
                  0.504740D+03          -0.579640D-04
                  0.142870D+03          -0.794940D-03
                  0.463000D+02          -0.731250D-02
                  0.163370D+02          -0.405740D-01
                  0.598280D+01          -0.915940D-01
                  0.167180D+01           0.209400D+00
            S    1   1.00
                  0.646620D+00           0.100000D+01
            S    1   1.00
                  0.216690D+00           0.100000D+01
            P    4   1.00
                  0.604240D+02           0.689490D-02
                  0.139350D+02           0.490050D-01
                  0.415310D+01           0.182550D+00
                  0.141580D+01           0.376330D+00
            P    1   1.00
                  0.475490D+00           0.100000D+01
            P    1   1.00
                  0.145290D+00           0.100000D+01
            D    1   1.00
                  0.220000D+01           0.100000D+01
            D    1   1.00
                  0.650000D+00           0.100000D+01
            F    1   1.00
                  0.110000D+01           0.100000D+01
            ****
 Initial command:
 /public3/home/sc51754/softwares/g09e01/l1.exe "./Gau-58597.inp" -scrdir="./"
 Entering Link 1 = /public3/home/sc51754/softwares/g09e01/l1.exe PID=     58598.
  
 Copyright (c) 1988,1990,1992,1993,1995,1998,2003,2009,2015,
            Gaussian, Inc.  All Rights Reserved.
  
 This is part of the Gaussian(R) 09 program.  It is based on
 the Gaussian(R) 03 system (copyright 2003, Gaussian, Inc.),
 the Gaussian(R) 98 system (copyright 1998, Gaussian, Inc.),
 the Gaussian(R) 94 system (copyright 1995, Gaussian, Inc.),
 the Gaussian 92(TM) system (copyright 1992, Gaussian, Inc.),
 the Gaussian 90(TM) system (copyright 1990, Gaussian, Inc.),
 the Gaussian 88(TM) system (copyright 1988, Gaussian, Inc.),
 the Gaussian 86(TM) system (copyright 1986, Carnegie Mellon
 University), and the Gaussian 82(TM) system (copyright 1983,
 Carnegie Mellon University). Gaussian is a federally registered
 trademark of Gaussian, Inc.
  
 This software contains proprietary and confidential information,
 including trade secrets, belonging to Gaussian, Inc.
  
 This software is provided under written license and may be
 used, copied, transmitted, or stored only in accord with that
 written license.
  
 The following legend is applicable only to US Government
 contracts under FAR:
  
                    RESTRICTED RIGHTS LEGEND
  
 Use, reproduction and disclosure by the US Government is
 subject to restrictions as set forth in subparagraphs (a)
 and (c) of the Commercial Computer Software - Restricted
 Rights clause in FAR 52.227-19.
  
 Gaussian, Inc.
 340 Quinnipiac St., Bldg. 40, Wallingford CT 06492
  
  
 ---------------------------------------------------------------
 Warning -- This program may not be used in any manner that
 competes with the business of Gaussian, Inc. or will provide
 assistance to any competitor of Gaussian, Inc.  The licensee
 of this program is prohibited from giving any competitor of
 Gaussian, Inc. access to this program.  By using this program,
 the user acknowledges that Gaussian, Inc. is engaged in the
 business of creating and licensing software in the field of
 computational chemistry and represents and warrants to the
 licensee that it is not a competitor of Gaussian, Inc. and that
 it will not use this program in any manner prohibited above.
 ---------------------------------------------------------------
  

 Cite this work as:
 Gaussian 09, Revision E.01,
 M. J. Frisch, G. W. Trucks, H. B. Schlegel, G. E. Scuseria, 
 M. A. Robb, J. R. Cheeseman, G. Scalmani, V. Barone, B. Mennucci, 
 G. A. Petersson, H. Nakatsuji, M. Caricato, X. Li, H. P. Hratchian, 
 A. F. Izmaylov, J. Bloino, G. Zheng, J. L. Sonnenberg, M. Hada, 
 M. Ehara, K. Toyota, R. Fukuda, J. Hasegawa, M. Ishida, T. Nakajima, 
 Y. Honda, O. Kitao, H. Nakai, T. Vreven, J. A. Montgomery, Jr., 
 J. E. Peralta, F. Ogliaro, M. Bearpark, J. J. Heyd, E. Brothers, 
 K. N. Kudin, V. N. Staroverov, T. Keith, R. Kobayashi, J. Normand, 
 K. Raghavachari, A. Rendell, J. C. Burant, S. S. Iyengar, J. Tomasi, 
 M. Cossi, N. Rega, J. M. Millam, M. Klene, J. E. Knox, J. B. Cross, 
 V. Bakken, C. Adamo, J. Jaramillo, R. Gomperts, R. E. Stratmann, 
 O. Yazyev, A. J. Austin, R. Cammi, C. Pomelli, J. W. Ochterski, 
 R. L. Martin, K. Morokuma, V. G. Zakrzewski, G. A. Voth, 
 P. Salvador, J. J. Dannenberg, S. Dapprich, A. D. Daniels, 
 O. Farkas, J. B. Foresman, J. V. Ortiz, J. Cioslowski, 
 and D. J. Fox, Gaussian, Inc., Wallingford CT, 2013.
 
 ******************************************
 Gaussian 09:  EM64L-G09RevE.01 30-Nov-2015
                27-Aug-2021 
 ******************************************
 %nprocshared=64
 Will use up to   64 processors via shared memory.
 %mem=128GB
 %chk=PY_H2O_TPSSTPSS_PC2_OPT_FREQ.chk
 ------------------------
 #p opt freq TPSSTPSS/gen
 ------------------------
 1/14=-1,18=20,19=15,26=3,38=1/1,3;
 2/9=110,12=2,17=6,18=5,40=1/2;
 3/5=7,11=2,16=1,25=1,30=1,71=1,74=2523/1,2,3;
 4//1;
 5/5=2,38=5/2;
 6/7=2,8=2,9=2,10=2,28=1/1;
 7//1,2,3,16;
 1/14=-1,18=20,19=15,26=3/3(2);
 2/9=110/2;
 99//99;
 2/9=110/2;
 3/5=7,6=1,11=2,16=1,25=1,30=1,71=1,74=2523,82=7/1,2,3;
 4/5=5,16=3,69=1/1;
 5/5=2,38=5/2;
 7//1,2,3,16;
 1/14=-1,18=20,19=15,26=3/3(-5);
 2/9=110/2;
 6/7=2,8=2,9=2,10=2,19=2,28=1/1;
 99/9=1/99;
 Leave Link    1 at Fri Aug 27 00:21:35 2021, MaxMem= 17179869184 cpu:         3.9
 (Enter /public3/home/sc51754/softwares/g09e01/l101.exe)
 ----------------------------
 PY_H2O_TPSSTPSS_PC2_OPT_FREQ
 ----------------------------
 Symbolic Z-matrix:
 Charge =  0 Multiplicity = 1
 O                     1.26148   1.38785   0.00541 
 N                     0.24943  -0.65888   0.01158 
 C                     0.21021   0.736     0.00592 
 C                    -1.11959   1.28763   0.00047 
 C                    -0.84358  -1.46082   0.0067 
 C                    -2.21816   0.48191  -0.00352 
 C                    -2.09559  -0.93059  -0.00106 
 H                     2.7014    0.27314  -0.04162 
 H                    -1.19683   2.36437  -0.00254 
 H                    -0.64999  -2.52343   0.00862 
 H                    -3.20534   0.92605  -0.00928 
 H                    -2.96087  -1.57362  -0.00584 
 O                     3.10667  -0.61979  -0.08598 
 H                     3.83344  -0.62425   0.54074 
 H                     1.18728  -1.05929   0.02234 
 
 Add virtual bond connecting atoms H8         and O1         Dist= 3.44D+00.
 Add virtual bond connecting atoms O13        and H15        Dist= 3.73D+00.
 NAtoms=     15 NQM=       15 NQMF=       0 NMMI=      0 NMMIF=      0
                NMic=       0 NMicF=      0.
                    Isotopes and Nuclear Properties:
 (Nuclear quadrupole moments (NQMom) in fm**2, nuclear magnetic moments (NMagM)
  in nuclear magnetons)

  Atom         1           2           3           4           5           6           7           8           9          10
 IAtWgt=          16          14          12          12          12          12          12           1           1           1
 AtmWgt=  15.9949146  14.0030740  12.0000000  12.0000000  12.0000000  12.0000000  12.0000000   1.0078250   1.0078250   1.0078250
 NucSpn=           0           2           0           0           0           0           0           1           1           1
 AtZEff=   0.0000000   0.0000000   0.0000000   0.0000000   0.0000000   0.0000000   0.0000000   0.0000000   0.0000000   0.0000000
 NQMom=    0.0000000   2.0440000   0.0000000   0.0000000   0.0000000   0.0000000   0.0000000   0.0000000   0.0000000   0.0000000
 NMagM=    0.0000000   0.4037610   0.0000000   0.0000000   0.0000000   0.0000000   0.0000000   2.7928460   2.7928460   2.7928460
 AtZNuc=   8.0000000   7.0000000   6.0000000   6.0000000   6.0000000   6.0000000   6.0000000   1.0000000   1.0000000   1.0000000

  Atom        11          12          13          14          15
 IAtWgt=           1           1          16           1           1
 AtmWgt=   1.0078250   1.0078250  15.9949146   1.0078250   1.0078250
 NucSpn=           1           1           0           1           1
 AtZEff=   0.0000000   0.0000000   0.0000000   0.0000000   0.0000000
 NQMom=    0.0000000   0.0000000   0.0000000   0.0000000   0.0000000
 NMagM=    2.7928460   2.7928460   0.0000000   2.7928460   2.7928460
 AtZNuc=   1.0000000   1.0000000   8.0000000   1.0000000   1.0000000
 Leave Link  101 at Fri Aug 27 00:21:35 2021, MaxMem= 17179869184 cpu:         6.8
 (Enter /public3/home/sc51754/softwares/g09e01/l103.exe)

 GradGradGradGradGradGradGradGradGradGradGradGradGradGradGradGradGradGrad
 Berny optimization.
 Initialization pass.
                           ----------------------------
                           !    Initial Parameters    !
                           ! (Angstroms and Degrees)  !
 --------------------------                            --------------------------
 ! Name  Definition              Value          Derivative Info.                !
 --------------------------------------------------------------------------------
 ! R1    R(1,3)                  1.237          estimate D2E/DX2                !
 ! R2    R(1,8)                  1.8216         estimate D2E/DX2                !
 ! R3    R(2,3)                  1.3954         estimate D2E/DX2                !
 ! R4    R(2,5)                  1.3556         estimate D2E/DX2                !
 ! R5    R(2,15)                 1.0198         estimate D2E/DX2                !
 ! R6    R(3,4)                  1.4397         estimate D2E/DX2                !
 ! R7    R(4,6)                  1.3624         estimate D2E/DX2                !
 ! R8    R(4,9)                  1.0795         estimate D2E/DX2                !
 ! R9    R(5,7)                  1.3597         estimate D2E/DX2                !
 ! R10   R(5,10)                 1.0801         estimate D2E/DX2                !
 ! R11   R(6,7)                  1.4178         estimate D2E/DX2                !
 ! R12   R(6,11)                 1.0825         estimate D2E/DX2                !
 ! R13   R(7,12)                 1.0781         estimate D2E/DX2                !
 ! R14   R(8,13)                 0.9816         estimate D2E/DX2                !
 ! R15   R(13,14)                0.9597         estimate D2E/DX2                !
 ! R16   R(13,15)                1.972          estimate D2E/DX2                !
 ! A1    A(3,1,8)              110.4468         estimate D2E/DX2                !
 ! A2    A(3,2,5)              124.6558         estimate D2E/DX2                !
 ! A3    A(3,2,15)             114.7312         estimate D2E/DX2                !
 ! A4    A(5,2,15)             120.6129         estimate D2E/DX2                !
 ! A5    A(1,3,2)              120.1911         estimate D2E/DX2                !
 ! A6    A(1,3,4)              125.6683         estimate D2E/DX2                !
 ! A7    A(2,3,4)              114.1406         estimate D2E/DX2                !
 ! A8    A(3,4,6)              121.2133         estimate D2E/DX2                !
 ! A9    A(3,4,9)              116.6328         estimate D2E/DX2                !
 ! A10   A(6,4,9)              122.1537         estimate D2E/DX2                !
 ! A11   A(2,5,7)              120.7801         estimate D2E/DX2                !
 ! A12   A(2,5,10)             115.9423         estimate D2E/DX2                !
 ! A13   A(7,5,10)             123.2776         estimate D2E/DX2                !
 ! A14   A(4,6,7)              121.2972         estimate D2E/DX2                !
 ! A15   A(4,6,11)             119.5197         estimate D2E/DX2                !
 ! A16   A(7,6,11)             119.1831         estimate D2E/DX2                !
 ! A17   A(5,7,6)              117.9124         estimate D2E/DX2                !
 ! A18   A(5,7,12)             120.4308         estimate D2E/DX2                !
 ! A19   A(6,7,12)             121.6568         estimate D2E/DX2                !
 ! A20   A(1,8,13)             152.1528         estimate D2E/DX2                !
 ! A21   A(8,13,14)            106.7015         estimate D2E/DX2                !
 ! A22   A(8,13,15)             78.3702         estimate D2E/DX2                !
 ! A23   A(14,13,15)           134.4412         estimate D2E/DX2                !
 ! A24   A(2,15,13)            143.8035         estimate D2E/DX2                !
 ! D1    D(8,1,3,2)              1.8252         estimate D2E/DX2                !
 ! D2    D(8,1,3,4)           -178.1461         estimate D2E/DX2                !
 ! D3    D(3,1,8,13)             2.218          estimate D2E/DX2                !
 ! D4    D(5,2,3,1)           -179.6964         estimate D2E/DX2                !
 ! D5    D(5,2,3,4)              0.278          estimate D2E/DX2                !
 ! D6    D(15,2,3,1)             0.4507         estimate D2E/DX2                !
 ! D7    D(15,2,3,4)          -179.5749         estimate D2E/DX2                !
 ! D8    D(3,2,5,7)             -0.1672         estimate D2E/DX2                !
 ! D9    D(3,2,5,10)           179.7881         estimate D2E/DX2                !
 ! D10   D(15,2,5,7)           179.6776         estimate D2E/DX2                !
 ! D11   D(15,2,5,10)           -0.3671         estimate D2E/DX2                !
 ! D12   D(3,2,15,13)           -6.1898         estimate D2E/DX2                !
 ! D13   D(5,2,15,13)          173.9508         estimate D2E/DX2                !
 ! D14   D(1,3,4,6)            179.7501         estimate D2E/DX2                !
 ! D15   D(1,3,4,9)             -0.1145         estimate D2E/DX2                !
 ! D16   D(2,3,4,6)             -0.2227         estimate D2E/DX2                !
 ! D17   D(2,3,4,9)            179.9126         estimate D2E/DX2                !
 ! D18   D(3,4,6,7)              0.0669         estimate D2E/DX2                !
 ! D19   D(3,4,6,11)          -179.8963         estimate D2E/DX2                !
 ! D20   D(9,4,6,7)            179.924          estimate D2E/DX2                !
 ! D21   D(9,4,6,11)            -0.0392         estimate D2E/DX2                !
 ! D22   D(2,5,7,6)             -0.0156         estimate D2E/DX2                !
 ! D23   D(2,5,7,12)           179.9426         estimate D2E/DX2                !
 ! D24   D(10,5,7,6)          -179.9675         estimate D2E/DX2                !
 ! D25   D(10,5,7,12)           -0.0093         estimate D2E/DX2                !
 ! D26   D(4,6,7,5)              0.0605         estimate D2E/DX2                !
 ! D27   D(4,6,7,12)          -179.8972         estimate D2E/DX2                !
 ! D28   D(11,6,7,5)          -179.9762         estimate D2E/DX2                !
 ! D29   D(11,6,7,12)            0.0661         estimate D2E/DX2                !
 ! D30   D(1,8,13,14)         -137.6226         estimate D2E/DX2                !
 ! D31   D(1,8,13,15)           -4.4198         estimate D2E/DX2                !
 ! D32   D(8,13,15,2)            7.3388         estimate D2E/DX2                !
 ! D33   D(14,13,15,2)         109.4095         estimate D2E/DX2                !
 --------------------------------------------------------------------------------
 Trust Radius=3.00D-01 FncErr=1.00D-07 GrdErr=1.00D-06
 Number of steps in this run=     83 maximum allowed number of steps=    100.
 GradGradGradGradGradGradGradGradGradGradGradGradGradGradGradGradGradGrad

 Leave Link  103 at Fri Aug 27 00:21:35 2021, MaxMem= 17179869184 cpu:         0.2
 (Enter /public3/home/sc51754/softwares/g09e01/l202.exe)
                          Input orientation:                          
 ---------------------------------------------------------------------
 Center     Atomic      Atomic             Coordinates (Angstroms)
 Number     Number       Type             X           Y           Z
 ---------------------------------------------------------------------
      1          8           0        1.261476    1.387852    0.005408
      2          7           0        0.249425   -0.658880    0.011581
      3          6           0        0.210209    0.735997    0.005920
      4          6           0       -1.119592    1.287625    0.000474
      5          6           0       -0.843575   -1.460822    0.006702
      6          6           0       -2.218160    0.481905   -0.003521
      7          6           0       -2.095586   -0.930593   -0.001061
      8          1           0        2.701404    0.273138   -0.041623
      9          1           0       -1.196826    2.364370   -0.002539
     10          1           0       -0.649991   -2.523426    0.008616
     11          1           0       -3.205344    0.926047   -0.009282
     12          1           0       -2.960874   -1.573618   -0.005843
     13          8           0        3.106669   -0.619787   -0.085978
     14          1           0        3.833439   -0.624251    0.540740
     15          1           0        1.187279   -1.059291    0.022340
 ---------------------------------------------------------------------
                    Distance matrix (angstroms):
                    1          2          3          4          5
     1  O    0.000000
     2  N    2.283286   0.000000
     3  C    1.236963   1.395440   0.000000
     4  C    2.383182   2.379751   1.439685   0.000000
     5  C    3.542059   1.355649   2.436488   2.762279   0.000000
     6  C    3.595648   2.718565   2.441645   1.362370   2.379869
     7  C    4.079840   2.360734   2.845042   2.423439   1.359682
     8  H    1.821590   2.623679   2.534275   3.953602   3.946622
     9  H    2.645165   3.351400   2.152073   1.079516   3.841480
    10  H    4.353368   2.070142   3.371022   3.839883   1.080095
    11  H    4.490653   3.801034   3.420870   2.116883   3.357879
    12  H    5.157390   3.338124   3.923038   3.402509   2.120339
    13  O    2.728315   2.859176   3.199387   4.637561   4.039846
    14  H    3.309098   3.623033   3.906930   5.336635   4.781162
    15  H    2.448326   1.019811   2.044014   3.290919   2.070227
                    6          7          8          9         10
     6  C    0.000000
     7  C    1.417809   0.000000
     8  H    4.924139   4.945880   0.000000
     9  H    2.141681   3.415341   4.423910   0.000000
    10  H    3.389884   2.151036   4.365220   4.918303   0.000000
    11  H    1.082510   2.163040   5.942811   2.470418   4.292903
    12  H    2.185590   1.078066   5.955937   4.315046   2.498504
    13  O    5.438228   5.212223   0.981592   5.237578   4.212515
    14  H    6.175893   5.961605   1.557548   5.876272   4.898078
    15  H    3.738043   3.285470   2.017928   4.172053   2.349349
                   11         12         13         14         15
    11  H    0.000000
    12  H    2.511594   0.000000
    13  O    6.498999   6.142580   0.000000
    14  H    7.228445   6.882059   0.959682   0.000000
    15  H    4.820550   4.180012   1.972043   2.731330   0.000000
 Stoichiometry    C5H7NO2
 Framework group  C1[X(C5H7NO2)]
 Deg. of freedom    39
 Full point group                 C1      NOp   1
 Largest Abelian subgroup         C1      NOp   1
 Largest concise Abelian subgroup C1      NOp   1
                         Standard orientation:                         
 ---------------------------------------------------------------------
 Center     Atomic      Atomic             Coordinates (Angstroms)
 Number     Number       Type             X           Y           Z
 ---------------------------------------------------------------------
      1          8           0        1.261476    1.387852    0.005408
      2          7           0        0.249425   -0.658880    0.011581
      3          6           0        0.210209    0.735997    0.005920
      4          6           0       -1.119592    1.287625    0.000474
      5          6           0       -0.843575   -1.460822    0.006702
      6          6           0       -2.218160    0.481905   -0.003521
      7          6           0       -2.095586   -0.930593   -0.001061
      8          1           0        2.701404    0.273138   -0.041623
      9          1           0       -1.196826    2.364370   -0.002539
     10          1           0       -0.649991   -2.523426    0.008616
     11          1           0       -3.205344    0.926047   -0.009282
     12          1           0       -2.960874   -1.573618   -0.005843
     13          8           0        3.106669   -0.619787   -0.085978
     14          1           0        3.833439   -0.624251    0.540740
     15          1           0        1.187279   -1.059291    0.022340
 ---------------------------------------------------------------------
 Rotational constants (GHZ):      4.0248921      1.3974909      1.0390436
 Leave Link  202 at Fri Aug 27 00:21:35 2021, MaxMem= 17179869184 cpu:         3.5
 (Enter /public3/home/sc51754/softwares/g09e01/l301.exe)
 General basis read from cards:  (5D, 7F)
 Centers:       8      9     10     11     12     14     15
 S 4 1.00
     Exponent=  7.5423000000D+01 Coefficients=  2.4065000000D-03
     Exponent=  1.1350000000D+01 Coefficients=  1.8487000000D-02
     Exponent=  2.5993000000D+00 Coefficients=  8.9742000000D-02
     Exponent=  7.3513000000D-01 Coefficients=  2.8111000000D-01
 S 1 1.00
     Exponent=  2.3167000000D-01 Coefficients=  1.0000000000D+00
 S 1 1.00
     Exponent=  7.4147000000D-02 Coefficients=  1.0000000000D+00
 P 1 1.00
     Exponent=  1.6000000000D+00 Coefficients=  1.0000000000D+00
 P 1 1.00
     Exponent=  4.5000000000D-01 Coefficients=  1.0000000000D+00
 D 1 1.00
     Exponent=  1.2500000000D+00 Coefficients=  1.0000000000D+00
 ****
 Centers:       3      4      5      6      7
 S 7 1.00
     Exponent=  7.8571000000D+03 Coefficients=  5.6825000000D-04
     Exponent=  1.1787000000D+03 Coefficients=  4.3915000000D-03
     Exponent=  2.6832000000D+02 Coefficients=  2.2504000000D-02
     Exponent=  7.5948000000D+01 Coefficients=  8.6653000000D-02
     Exponent=  2.4559000000D+01 Coefficients=  2.4405000000D-01
     Exponent=  8.6212000000D+00 Coefficients=  4.4148000000D-01
     Exponent=  3.1278000000D+00 Coefficients=  3.5332000000D-01
 S 7 1.00
     Exponent=  1.1787000000D+03 Coefficients= -5.9492000000D-07
     Exponent=  2.6832000000D+02 Coefficients= -6.2748000000D-05
     Exponent=  7.5948000000D+01 Coefficients= -7.5773000000D-04
     Exponent=  2.4559000000D+01 Coefficients= -7.3308000000D-03
     Exponent=  8.6212000000D+00 Coefficients= -3.8932000000D-02
     Exponent=  3.1278000000D+00 Coefficients= -8.8908000000D-02
     Exponent=  8.2202000000D-01 Coefficients=  2.1689000000D-01
 S 1 1.00
     Exponent=  3.3017000000D-01 Coefficients=  1.0000000000D+00
 S 1 1.00
     Exponent=  1.1463000000D-01 Coefficients=  1.0000000000D+00
 P 4 1.00
     Exponent=  3.3775000000D+01 Coefficients=  6.0294000000D-03
     Exponent=  7.6766000000D+00 Coefficients=  4.3228000000D-02
     Exponent=  2.2357000000D+00 Coefficients=  1.6301000000D-01
     Exponent=  7.6447000000D-01 Coefficients=  3.6504000000D-01
 P 1 1.00
     Exponent=  2.6232000000D-01 Coefficients=  1.0000000000D+00
 P 1 1.00
     Exponent=  8.4638000000D-02 Coefficients=  1.0000000000D+00
 D 1 1.00
     Exponent=  1.4000000000D+00 Coefficients=  1.0000000000D+00
 D 1 1.00
     Exponent=  4.5000000000D-01 Coefficients=  1.0000000000D+00
 F 1 1.00
     Exponent=  9.5000000000D-01 Coefficients=  1.0000000000D+00
 ****
 Centers:       2
 S 7 1.00
     Exponent=  1.1101000000D+04 Coefficients=  5.4570000000D-04
     Exponent=  1.6653000000D+03 Coefficients=  4.2181000000D-03
     Exponent=  3.7908000000D+02 Coefficients=  2.1645000000D-02
     Exponent=  1.0730000000D+02 Coefficients=  8.3776000000D-02
     Exponent=  3.4747000000D+01 Coefficients=  2.3881000000D-01
     Exponent=  1.2249000000D+01 Coefficients=  4.3994000000D-01
     Exponent=  4.4743000000D+00 Coefficients=  3.6364000000D-01
 S 7 1.00
     Exponent=  1.6653000000D+03 Coefficients= -1.5006000000D-06
     Exponent=  3.7908000000D+02 Coefficients= -5.8753000000D-05
     Exponent=  1.0730000000D+02 Coefficients= -7.7453000000D-04
     Exponent=  3.4747000000D+01 Coefficients= -7.2161000000D-03
     Exponent=  1.2249000000D+01 Coefficients= -3.9338000000D-02
     Exponent=  4.4743000000D+00 Coefficients= -9.0611000000D-02
     Exponent=  1.2404000000D+00 Coefficients=  1.9882000000D-01
 S 1 1.00
     Exponent=  4.8743000000D-01 Coefficients=  1.0000000000D+00
 S 1 1.00
     Exponent=  1.6484000000D-01 Coefficients=  1.0000000000D+00
 P 4 1.00
     Exponent=  4.7934000000D+01 Coefficients=  6.1706000000D-03
     Exponent=  1.0999000000D+01 Coefficients=  4.4260000000D-02
     Exponent=  3.2472000000D+00 Coefficients=  1.6825000000D-01
     Exponent=  1.1114000000D+00 Coefficients=  3.6848000000D-01
 P 1 1.00
     Exponent=  3.7988000000D-01 Coefficients=  1.0000000000D+00
 P 1 1.00
     Exponent=  1.2068000000D-01 Coefficients=  1.0000000000D+00
 D 1 1.00
     Exponent=  1.8000000000D+00 Coefficients=  1.0000000000D+00
 D 1 1.00
     Exponent=  5.5000000000D-01 Coefficients=  1.0000000000D+00
 F 1 1.00
     Exponent=  1.0200000000D+00 Coefficients=  1.0000000000D+00
 ****
 Centers:       1     13
 S 7 1.00
     Exponent=  1.4782000000D+04 Coefficients=  5.3519000000D-04
     Exponent=  2.2173000000D+03 Coefficients=  4.1375000000D-03
     Exponent=  5.0474000000D+02 Coefficients=  2.1245000000D-02
     Exponent=  1.4287000000D+02 Coefficients=  8.2453000000D-02
     Exponent=  4.6300000000D+01 Coefficients=  2.3671000000D-01
     Exponent=  1.6337000000D+01 Coefficients=  4.4039000000D-01
     Exponent=  5.9828000000D+00 Coefficients=  3.6465000000D-01
 S 7 1.00
     Exponent=  2.2173000000D+03 Coefficients= -1.9275000000D-06
     Exponent=  5.0474000000D+02 Coefficients= -5.7964000000D-05
     Exponent=  1.4287000000D+02 Coefficients= -7.9494000000D-04
     Exponent=  4.6300000000D+01 Coefficients= -7.3125000000D-03
     Exponent=  1.6337000000D+01 Coefficients= -4.0574000000D-02
     Exponent=  5.9828000000D+00 Coefficients= -9.1594000000D-02
     Exponent=  1.6718000000D+00 Coefficients=  2.0940000000D-01
 S 1 1.00
     Exponent=  6.4662000000D-01 Coefficients=  1.0000000000D+00
 S 1 1.00
     Exponent=  2.1669000000D-01 Coefficients=  1.0000000000D+00
 P 4 1.00
     Exponent=  6.0424000000D+01 Coefficients=  6.8949000000D-03
     Exponent=  1.3935000000D+01 Coefficients=  4.9005000000D-02
     Exponent=  4.1531000000D+00 Coefficients=  1.8255000000D-01
     Exponent=  1.4158000000D+00 Coefficients=  3.7633000000D-01
 P 1 1.00
     Exponent=  4.7549000000D-01 Coefficients=  1.0000000000D+00
 P 1 1.00
     Exponent=  1.4529000000D-01 Coefficients=  1.0000000000D+00
 D 1 1.00
     Exponent=  2.2000000000D+00 Coefficients=  1.0000000000D+00
 D 1 1.00
     Exponent=  6.5000000000D-01 Coefficients=  1.0000000000D+00
 F 1 1.00
     Exponent=  1.1000000000D+00 Coefficients=  1.0000000000D+00
 ****
 Ernie: Thresh=  0.10000D-02 Tol=  0.10000D-05 Strict=F.
 Ernie:  8 primitive shells out of 263 were deleted.
 There are   385 symmetry adapted cartesian basis functions of A   symmetry.
 There are   338 symmetry adapted basis functions of A   symmetry.
   338 basis functions,   566 primitive gaussians,   385 cartesian basis functions
    30 alpha electrons       30 beta electrons
       nuclear repulsion energy       356.8539014902 Hartrees.
 IExCor= 2523 DFT=T Ex=TPSS Corr=TPSS ExCW=0 ScaHFX=  0.000000
 ScaDFX=  1.000000  1.000000  1.000000  1.000000 ScalE2=  1.000000  1.000000
 IRadAn=      0 IRanWt=     -1 IRanGd=            0 ICorTp=0 IEmpDi=  4
 NAtoms=   15 NActive=   15 NUniq=   15 SFac= 1.00D+00 NAtFMM=   60 NAOKFM=F Big=F
 Integral buffers will be    131072 words long.
 Raffenetti 2 integral format.
 Two-electron integral symmetry is turned on.
 Leave Link  301 at Fri Aug 27 00:21:35 2021, MaxMem= 17179869184 cpu:         3.7
 (Enter /public3/home/sc51754/softwares/g09e01/l302.exe)
 NPDir=0 NMtPBC=     1 NCelOv=     1 NCel=       1 NClECP=     1 NCelD=      1
         NCelK=      1 NCelE2=     1 NClLst=     1 CellRange=     0.0.
 One-electron integrals computed using PRISM.
 NBasis=   338 RedAO= T EigKep=  1.57D-04  NBF=   338
 NBsUse=   338 1.00D-06 EigRej= -1.00D+00 NBFU=   338
 Precomputing XC quadrature grid using
 IXCGrd= 4 IRadAn=           0 IRanWt=          -1 IRanGd=           0 AccXCQ= 0.00D+00.
 Generated NRdTot=       0 NPtTot=           0 NUsed=           0 NTot=          32
 NSgBfM=   385   385   385   385   385 MxSgAt=    15 MxSgA2=    15.
 Leave Link  302 at Fri Aug 27 00:21:36 2021, MaxMem= 17179869184 cpu:        47.7
 (Enter /public3/home/sc51754/softwares/g09e01/l303.exe)
 DipDrv:  MaxL=1.
 Leave Link  303 at Fri Aug 27 00:21:37 2021, MaxMem= 17179869184 cpu:        13.9
 (Enter /public3/home/sc51754/softwares/g09e01/l401.exe)
 ExpMin= 7.41D-02 ExpMax= 1.48D+04 ExpMxC= 5.05D+02 IAcc=2 IRadAn=         4 AccDes= 0.00D+00
 Harris functional with IExCor= 1009 and IRadAn=       4 diagonalized for initial guess.
 HarFok:  IExCor= 1009 AccDes= 0.00D+00 IRadAn=         4 IDoV= 1 UseB2=F ITyADJ=14
 ICtDFT=  3500011 ScaDFX=  1.000000  1.000000  1.000000  1.000000
 FoFCou: FMM=F IPFlag=           0 FMFlag=      100000 FMFlg1=           0
         NFxFlg=           0 DoJE=T BraDBF=F KetDBF=T FulRan=T
         wScrn=  0.000000 ICntrl=     500 IOpCl=  0 I1Cent=   200000004 NGrid=           0
         NMat0=    1 NMatS0=      1 NMatT0=    0 NMatD0=    1 NMtDS0=    0 NMtDT0=    0
 Petite list used in FoFCou.
 Harris En= -399.816960565454    
 JPrj=0 DoOrth=F DoCkMO=F.
 Leave Link  401 at Fri Aug 27 00:21:38 2021, MaxMem= 17179869184 cpu:        45.1
 (Enter /public3/home/sc51754/softwares/g09e01/l502.exe)
 Closed shell SCF:
 Using DIIS extrapolation, IDIIS=  1040.
 Integral symmetry usage will be decided dynamically.
 Keep J ints in memory in canonical form, NReq=1670404686.
 IVT=      490665 IEndB=      490665 NGot= 17179869184 MDV= 15538220534
 LenX= 15538220534 LenY= 15538071868
 Requested convergence on RMS density matrix=1.00D-08 within 128 cycles.
 Requested convergence on MAX density matrix=1.00D-06.
 Requested convergence on             energy=1.00D-06.
 No special actions if energy rises.
 FoFCou: FMM=F IPFlag=           0 FMFlag=           0 FMFlg1=           0
         NFxFlg=           0 DoJE=F BraDBF=F KetDBF=F FulRan=T
         wScrn=  0.000000 ICntrl=     600 IOpCl=  0 I1Cent=           0 NGrid=           0
         NMat0=    1 NMatS0=  57291 NMatT0=    0 NMatD0=    1 NMtDS0=    0 NMtDT0=    0
 Symmetry not used in FoFCou.
 Integral accuracy reduced to 1.0D-05 until final iterations.

 Cycle   1  Pass 0  IDiag  1:
 E= -399.957694874762    
 DIIS: error= 2.55D-02 at cycle   1 NSaved=   1.
 NSaved= 1 IEnMin= 1 EnMin= -399.957694874762     IErMin= 1 ErrMin= 2.55D-02
 ErrMax= 2.55D-02  0.00D+00 EMaxC= 1.00D-01 BMatC= 2.80D-01 BMatP= 2.80D-01
 IDIUse=3 WtCom= 7.45D-01 WtEn= 2.55D-01
 Coeff-Com:  0.100D+01
 Coeff-En:   0.100D+01
 Coeff:      0.100D+01
 Gap=     0.099 Goal=   None    Shift=    0.000
 GapD=    0.099 DampG=0.500 DampE=0.500 DampFc=0.2500 IDamp=-1.
 Damping current iteration by 2.50D-01
 RMSDP=3.97D-03 MaxDP=1.46D-01              OVMax= 4.32D-01

 Cycle   2  Pass 0  IDiag  1:
 E= -400.032389322354     Delta-E=       -0.074694447591 Rises=F Damp=T
 DIIS: error= 1.02D-02 at cycle   2 NSaved=   2.
 NSaved= 2 IEnMin= 2 EnMin= -400.032389322354     IErMin= 2 ErrMin= 1.02D-02
 ErrMax= 1.02D-02  0.00D+00 EMaxC= 1.00D-01 BMatC= 4.26D-02 BMatP= 2.80D-01
 IDIUse=3 WtCom= 8.98D-01 WtEn= 1.02D-01
 Coeff-Com: -0.315D+00 0.131D+01
 Coeff-En:   0.463D-01 0.954D+00
 Coeff:     -0.278D+00 0.128D+01
 Gap=     0.179 Goal=   None    Shift=    0.000
 RMSDP=1.00D-03 MaxDP=4.66D-02 DE=-7.47D-02 OVMax= 4.23D-01

 Cycle   3  Pass 0  IDiag  1:
 E= -400.115863063703     Delta-E=       -0.083473741350 Rises=F Damp=F
 DIIS: error= 1.73D-02 at cycle   3 NSaved=   3.
 NSaved= 3 IEnMin= 3 EnMin= -400.115863063703     IErMin= 2 ErrMin= 1.02D-02
 ErrMax= 1.73D-02  0.00D+00 EMaxC= 1.00D-01 BMatC= 7.80D-02 BMatP= 4.26D-02
 IDIUse=2 WtCom= 0.00D+00 WtEn= 1.00D+00
 Coeff-En:   0.000D+00 0.682D-01 0.932D+00
 Coeff:      0.000D+00 0.682D-01 0.932D+00
 Gap=     0.096 Goal=   None    Shift=    0.000
 RMSDP=2.53D-03 MaxDP=1.40D-01 DE=-8.35D-02 OVMax= 5.71D-01

 Cycle   4  Pass 0  IDiag  1:
 E= -399.493518332453     Delta-E=        0.622344731250 Rises=F Damp=F
 DIIS: error= 5.59D-02 at cycle   4 NSaved=   4.
 NSaved= 4 IEnMin= 3 EnMin= -400.115863063703     IErMin= 2 ErrMin= 1.02D-02
 ErrMax= 5.59D-02  0.00D+00 EMaxC= 1.00D-01 BMatC= 7.56D-01 BMatP= 4.26D-02
 IDIUse=2 WtCom= 0.00D+00 WtEn= 1.00D+00
 Coeff-En:   0.000D+00 0.000D+00 0.840D+00 0.160D+00
 Coeff:      0.000D+00 0.000D+00 0.840D+00 0.160D+00
 Gap=     0.097 Goal=   None    Shift=    0.000
 RMSDP=1.54D-03 MaxDP=7.97D-02 DE= 6.22D-01 OVMax= 3.45D-01

 Cycle   5  Pass 0  IDiag  1:
 E= -400.124909139695     Delta-E=       -0.631390807242 Rises=F Damp=F
 DIIS: error= 1.62D-02 at cycle   5 NSaved=   5.
 NSaved= 5 IEnMin= 5 EnMin= -400.124909139695     IErMin= 2 ErrMin= 1.02D-02
 ErrMax= 1.62D-02  0.00D+00 EMaxC= 1.00D-01 BMatC= 7.04D-02 BMatP= 4.26D-02
 IDIUse=2 WtCom= 0.00D+00 WtEn= 1.00D+00
 Coeff-En:   0.000D+00 0.000D+00 0.477D+00 0.000D+00 0.523D+00
 Coeff:      0.000D+00 0.000D+00 0.477D+00 0.000D+00 0.523D+00
 Gap=     0.152 Goal=   None    Shift=    0.000
 RMSDP=6.07D-04 MaxDP=3.18D-02 DE=-6.31D-01 OVMax= 1.50D-01

 Cycle   6  Pass 0  IDiag  1:
 E= -400.189152058306     Delta-E=       -0.064242918611 Rises=F Damp=F
 DIIS: error= 1.39D-03 at cycle   6 NSaved=   6.
 NSaved= 6 IEnMin= 6 EnMin= -400.189152058306     IErMin= 6 ErrMin= 1.39D-03
 ErrMax= 1.39D-03  0.00D+00 EMaxC= 1.00D-01 BMatC= 8.28D-04 BMatP= 4.26D-02
 IDIUse=3 WtCom= 9.86D-01 WtEn= 1.39D-02
 Coeff-Com: -0.172D-01 0.191D-01 0.181D+00-0.306D-01 0.308D+00 0.540D+00
 Coeff-En:   0.000D+00 0.000D+00 0.000D+00 0.000D+00 0.000D+00 0.100D+01
 Coeff:     -0.170D-01 0.189D-01 0.179D+00-0.301D-01 0.303D+00 0.546D+00
 Gap=     0.128 Goal=   None    Shift=    0.000
 RMSDP=9.70D-05 MaxDP=5.09D-03 DE=-6.42D-02 OVMax= 2.27D-02

 Cycle   7  Pass 0  IDiag  1:
 E= -400.189721377943     Delta-E=       -0.000569319637 Rises=F Damp=F
 DIIS: error= 9.33D-04 at cycle   7 NSaved=   7.
 NSaved= 7 IEnMin= 7 EnMin= -400.189721377943     IErMin= 7 ErrMin= 9.33D-04
 ErrMax= 9.33D-04  0.00D+00 EMaxC= 1.00D-01 BMatC= 2.59D-04 BMatP= 8.28D-04
 IDIUse=3 WtCom= 9.91D-01 WtEn= 9.33D-03
 Coeff-Com: -0.106D-01 0.129D-01 0.744D-01-0.187D-01 0.139D+00 0.365D+00
 Coeff-Com:  0.438D+00
 Coeff-En:   0.000D+00 0.000D+00 0.000D+00 0.000D+00 0.000D+00 0.280D+00
 Coeff-En:   0.720D+00
 Coeff:     -0.105D-01 0.128D-01 0.737D-01-0.186D-01 0.138D+00 0.364D+00
 Coeff:      0.441D+00
 Gap=     0.129 Goal=   None    Shift=    0.000
 RMSDP=4.07D-05 MaxDP=2.18D-03 DE=-5.69D-04 OVMax= 9.89D-03

 Cycle   8  Pass 0  IDiag  1:
 E= -400.189964979522     Delta-E=       -0.000243601579 Rises=F Damp=F
 DIIS: error= 2.58D-04 at cycle   8 NSaved=   8.
 NSaved= 8 IEnMin= 8 EnMin= -400.189964979522     IErMin= 8 ErrMin= 2.58D-04
 ErrMax= 2.58D-04  0.00D+00 EMaxC= 1.00D-01 BMatC= 2.10D-05 BMatP= 2.59D-04
 IDIUse=3 WtCom= 9.97D-01 WtEn= 2.58D-03
 Coeff-Com: -0.190D-02 0.341D-02 0.198D-01-0.525D-02 0.307D-01 0.139D+00
 Coeff-Com:  0.244D+00 0.570D+00
 Coeff-En:   0.000D+00 0.000D+00 0.000D+00 0.000D+00 0.000D+00 0.000D+00
 Coeff-En:   0.000D+00 0.100D+01
 Coeff:     -0.189D-02 0.340D-02 0.197D-01-0.524D-02 0.306D-01 0.139D+00
 Coeff:      0.244D+00 0.571D+00
 Gap=     0.129 Goal=   None    Shift=    0.000
 RMSDP=1.21D-05 MaxDP=6.42D-04 DE=-2.44D-04 OVMax= 2.78D-03

 Cycle   9  Pass 0  IDiag  1:
 E= -400.189979309645     Delta-E=       -0.000014330123 Rises=F Damp=F
 DIIS: error= 1.61D-04 at cycle   9 NSaved=   9.
 NSaved= 9 IEnMin= 9 EnMin= -400.189979309645     IErMin= 9 ErrMin= 1.61D-04
 ErrMax= 1.61D-04  0.00D+00 EMaxC= 1.00D-01 BMatC= 4.64D-06 BMatP= 2.10D-05
 IDIUse=3 WtCom= 9.98D-01 WtEn= 1.61D-03
 Coeff-Com:  0.116D-02-0.163D-02 0.375D-02-0.680D-03 0.179D-02 0.572D-01
 Coeff-Com:  0.113D+00 0.384D+00 0.441D+00
 Coeff-En:   0.000D+00 0.000D+00 0.000D+00 0.000D+00 0.000D+00 0.000D+00
 Coeff-En:   0.000D+00 0.138D+00 0.862D+00
 Coeff:      0.115D-02-0.163D-02 0.374D-02-0.679D-03 0.179D-02 0.571D-01
 Coeff:      0.113D+00 0.384D+00 0.442D+00
 Gap=     0.129 Goal=   None    Shift=    0.000
 RMSDP=5.07D-06 MaxDP=3.21D-04 DE=-1.43D-05 OVMax= 1.23D-03

 Initial convergence to 1.0D-05 achieved.  Increase integral accuracy.
 Cycle  10  Pass 1  IDiag  1:
 E= -400.190110296271     Delta-E=       -0.000130986627 Rises=F Damp=F
 DIIS: error= 2.41D-05 at cycle   1 NSaved=   1.
 NSaved= 1 IEnMin= 1 EnMin= -400.190110296271     IErMin= 1 ErrMin= 2.41D-05
 ErrMax= 2.41D-05  0.00D+00 EMaxC= 1.00D-01 BMatC= 4.04D-07 BMatP= 4.04D-07
 IDIUse=1 WtCom= 1.00D+00 WtEn= 0.00D+00
 Coeff-Com:  0.100D+01
 Coeff:      0.100D+01
 Gap=     0.129 Goal=   None    Shift=    0.000
 RMSDP=5.07D-06 MaxDP=3.21D-04 DE=-1.31D-04 OVMax= 4.46D-04

 Cycle  11  Pass 1  IDiag  1:
 E= -400.190110212264     Delta-E=        0.000000084007 Rises=F Damp=F
 DIIS: error= 5.62D-05 at cycle   2 NSaved=   2.
 NSaved= 2 IEnMin= 1 EnMin= -400.190110296271     IErMin= 1 ErrMin= 2.41D-05
 ErrMax= 5.62D-05  0.00D+00 EMaxC= 1.00D-01 BMatC= 3.94D-07 BMatP= 4.04D-07
 IDIUse=1 WtCom= 1.00D+00 WtEn= 0.00D+00
 Coeff-Com:  0.496D+00 0.504D+00
 Coeff:      0.496D+00 0.504D+00
 Gap=     0.129 Goal=   None    Shift=    0.000
 RMSDP=2.17D-06 MaxDP=9.85D-05 DE= 8.40D-08 OVMax= 5.24D-04

 Cycle  12  Pass 1  IDiag  1:
 E= -400.190110383346     Delta-E=       -0.000000171082 Rises=F Damp=F
 DIIS: error= 4.13D-05 at cycle   3 NSaved=   3.
 NSaved= 3 IEnMin= 3 EnMin= -400.190110383346     IErMin= 1 ErrMin= 2.41D-05
 ErrMax= 4.13D-05  0.00D+00 EMaxC= 1.00D-01 BMatC= 2.18D-07 BMatP= 3.94D-07
 IDIUse=1 WtCom= 1.00D+00 WtEn= 0.00D+00
 Coeff-Com:  0.543D-02 0.425D+00 0.570D+00
 Coeff:      0.543D-02 0.425D+00 0.570D+00
 Gap=     0.129 Goal=   None    Shift=    0.000
 RMSDP=1.00D-06 MaxDP=4.78D-05 DE=-1.71D-07 OVMax= 2.37D-04

 Cycle  13  Pass 1  IDiag  1:
 E= -400.190110595469     Delta-E=       -0.000000212123 Rises=F Damp=F
 DIIS: error= 5.89D-06 at cycle   4 NSaved=   4.
 NSaved= 4 IEnMin= 4 EnMin= -400.190110595469     IErMin= 4 ErrMin= 5.89D-06
 ErrMax= 5.89D-06  0.00D+00 EMaxC= 1.00D-01 BMatC= 9.29D-09 BMatP= 2.18D-07
 IDIUse=1 WtCom= 1.00D+00 WtEn= 0.00D+00
 Coeff-Com: -0.134D-01 0.244D+00 0.352D+00 0.417D+00
 Coeff:     -0.134D-01 0.244D+00 0.352D+00 0.417D+00
 Gap=     0.129 Goal=   None    Shift=    0.000
 RMSDP=2.25D-07 MaxDP=1.53D-05 DE=-2.12D-07 OVMax= 3.88D-05

 Cycle  14  Pass 1  IDiag  1:
 E= -400.190110603951     Delta-E=       -0.000000008482 Rises=F Damp=F
 DIIS: error= 1.39D-06 at cycle   5 NSaved=   5.
 NSaved= 5 IEnMin= 5 EnMin= -400.190110603951     IErMin= 5 ErrMin= 1.39D-06
 ErrMax= 1.39D-06  0.00D+00 EMaxC= 1.00D-01 BMatC= 4.44D-10 BMatP= 9.29D-09
 IDIUse=1 WtCom= 1.00D+00 WtEn= 0.00D+00
 Coeff-Com: -0.798D-02 0.104D+00 0.153D+00 0.237D+00 0.515D+00
 Coeff:     -0.798D-02 0.104D+00 0.153D+00 0.237D+00 0.515D+00
 Gap=     0.129 Goal=   None    Shift=    0.000
 RMSDP=7.00D-08 MaxDP=4.33D-06 DE=-8.48D-09 OVMax= 1.86D-05

 Cycle  15  Pass 1  IDiag  1:
 E= -400.190110604267     Delta-E=       -0.000000000316 Rises=F Damp=F
 DIIS: error= 8.85D-07 at cycle   6 NSaved=   6.
 NSaved= 6 IEnMin= 6 EnMin= -400.190110604267     IErMin= 6 ErrMin= 8.85D-07
 ErrMax= 8.85D-07  0.00D+00 EMaxC= 1.00D-01 BMatC= 1.22D-10 BMatP= 4.44D-10
 IDIUse=1 WtCom= 1.00D+00 WtEn= 0.00D+00
 Coeff-Com: -0.480D-02 0.550D-01 0.821D-01 0.137D+00 0.380D+00 0.351D+00
 Coeff:     -0.480D-02 0.550D-01 0.821D-01 0.137D+00 0.380D+00 0.351D+00
 Gap=     0.129 Goal=   None    Shift=    0.000
 RMSDP=3.13D-08 MaxDP=1.54D-06 DE=-3.16D-10 OVMax= 8.73D-06

 Cycle  16  Pass 1  IDiag  1:
 E= -400.190110604403     Delta-E=       -0.000000000137 Rises=F Damp=F
 DIIS: error= 1.40D-07 at cycle   7 NSaved=   7.
 NSaved= 7 IEnMin= 7 EnMin= -400.190110604403     IErMin= 7 ErrMin= 1.40D-07
 ErrMax= 1.40D-07  0.00D+00 EMaxC= 1.00D-01 BMatC= 6.04D-12 BMatP= 1.22D-10
 IDIUse=1 WtCom= 1.00D+00 WtEn= 0.00D+00
 Coeff-Com: -0.124D-02 0.120D-01 0.181D-01 0.325D-01 0.125D+00 0.204D+00
 Coeff-Com:  0.610D+00
 Coeff:     -0.124D-02 0.120D-01 0.181D-01 0.325D-01 0.125D+00 0.204D+00
 Coeff:      0.610D+00
 Gap=     0.129 Goal=   None    Shift=    0.000
 RMSDP=8.06D-09 MaxDP=4.09D-07 DE=-1.37D-10 OVMax= 1.80D-06

 SCF Done:  E(RTPSS-TPSS) =  -400.190110604     A.U. after   16 cycles
            NFock= 16  Conv=0.81D-08     -V/T= 2.0037
 KE= 3.987034101724D+02 PE=-1.649794374950D+03 EE= 4.940469526831D+02
 Leave Link  502 at Fri Aug 27 00:22:03 2021, MaxMem= 17179869184 cpu:       376.1
 (Enter /public3/home/sc51754/softwares/g09e01/l601.exe)
 Copying SCF densities to generalized density rwf, IOpCl= 0 IROHF=0.

 **********************************************************************

            Population analysis using the SCF density.

 **********************************************************************

 Orbital symmetries:
       Occupied  (A) (A) (A) (A) (A) (A) (A) (A) (A) (A) (A) (A)
                 (A) (A) (A) (A) (A) (A) (A) (A) (A) (A) (A) (A)
                 (A) (A) (A) (A) (A) (A)
       Virtual   (A) (A) (A) (A) (A) (A) (A) (A) (A) (A) (A) (A)
                 (A) (A) (A) (A) (A) (A) (A) (A) (A) (A) (A) (A)
                 (A) (A) (A) (A) (A) (A) (A) (A) (A) (A) (A) (A)
                 (A) (A) (A) (A) (A) (A) (A) (A) (A) (A) (A) (A)
                 (A) (A) (A) (A) (A) (A) (A) (A) (A) (A) (A) (A)
                 (A) (A) (A) (A) (A) (A) (A) (A) (A) (A) (A) (A)
                 (A) (A) (A) (A) (A) (A) (A) (A) (A) (A) (A) (A)
                 (A) (A) (A) (A) (A) (A) (A) (A) (A) (A) (A) (A)
                 (A) (A) (A) (A) (A) (A) (A) (A) (A) (A) (A) (A)
                 (A) (A) (A) (A) (A) (A) (A) (A) (A) (A) (A) (A)
                 (A) (A) (A) (A) (A) (A) (A) (A) (A) (A) (A) (A)
                 (A) (A) (A) (A) (A) (A) (A) (A) (A) (A) (A) (A)
                 (A) (A) (A) (A) (A) (A) (A) (A) (A) (A) (A) (A)
                 (A) (A) (A) (A) (A) (A) (A) (A) (A) (A) (A) (A)
                 (A) (A) (A) (A) (A) (A) (A) (A) (A) (A) (A) (A)
                 (A) (A) (A) (A) (A) (A) (A) (A) (A) (A) (A) (A)
                 (A) (A) (A) (A) (A) (A) (A) (A) (A) (A) (A) (A)
                 (A) (A) (A) (A) (A) (A) (A) (A) (A) (A) (A) (A)
                 (A) (A) (A) (A) (A) (A) (A) (A) (A) (A) (A) (A)
                 (A) (A) (A) (A) (A) (A) (A) (A) (A) (A) (A) (A)
                 (A) (A) (A) (A) (A) (A) (A) (A) (A) (A) (A) (A)
                 (A) (A) (A) (A) (A) (A) (A) (A) (A) (A) (A) (A)
                 (A) (A) (A) (A) (A) (A) (A) (A) (A) (A) (A) (A)
                 (A) (A) (A) (A) (A) (A) (A) (A) (A) (A) (A) (A)
                 (A) (A) (A) (A) (A) (A) (A) (A) (A) (A) (A) (A)
                 (A) (A) (A) (A) (A) (A) (A) (A)
 The electronic state is 1-A.
 Alpha  occ. eigenvalues --  -18.87125 -18.84890 -14.15913 -10.08723 -10.05300
 Alpha  occ. eigenvalues --  -10.01801 -10.00347 -10.00049  -0.97456  -0.93157
 Alpha  occ. eigenvalues --   -0.89977  -0.76954  -0.71049  -0.61156  -0.59382
 Alpha  occ. eigenvalues --   -0.52299  -0.48211  -0.46666  -0.44570  -0.42847
 Alpha  occ. eigenvalues --   -0.40692  -0.39407  -0.35581  -0.34715  -0.32976
 Alpha  occ. eigenvalues --   -0.31741  -0.28632  -0.26066  -0.22591  -0.20594
 Alpha virt. eigenvalues --   -0.07715  -0.02935   0.00110   0.01678   0.02934
 Alpha virt. eigenvalues --    0.04631   0.06758   0.08694   0.09013   0.10743
 Alpha virt. eigenvalues --    0.12600   0.13806   0.15031   0.16442   0.17231
 Alpha virt. eigenvalues --    0.17715   0.19041   0.19355   0.20560   0.23100
 Alpha virt. eigenvalues --    0.24528   0.24702   0.25408   0.25995   0.26602
 Alpha virt. eigenvalues --    0.28002   0.28278   0.29446   0.31233   0.31681
 Alpha virt. eigenvalues --    0.32592   0.33100   0.34966   0.36865   0.37710
 Alpha virt. eigenvalues --    0.39567   0.40520   0.42702   0.43731   0.46463
 Alpha virt. eigenvalues --    0.47633   0.49049   0.50557   0.52145   0.54005
 Alpha virt. eigenvalues --    0.54451   0.57831   0.59300   0.60416   0.60885
 Alpha virt. eigenvalues --    0.63641   0.65468   0.68674   0.71749   0.72681
 Alpha virt. eigenvalues --    0.73185   0.74889   0.77810   0.79275   0.81503
 Alpha virt. eigenvalues --    0.83999   0.86322   0.88561   0.89465   0.89926
 Alpha virt. eigenvalues --    0.91895   0.94695   0.96437   0.98523   1.01414
 Alpha virt. eigenvalues --    1.02931   1.05187   1.07018   1.07476   1.09809
 Alpha virt. eigenvalues --    1.10884   1.12588   1.14144   1.14898   1.15060
 Alpha virt. eigenvalues --    1.17456   1.19462   1.20719   1.21410   1.22269
 Alpha virt. eigenvalues --    1.23884   1.24862   1.28990   1.30412   1.35020
 Alpha virt. eigenvalues --    1.36694   1.37400   1.38797   1.41404   1.42422
 Alpha virt. eigenvalues --    1.44433   1.45086   1.45588   1.47051   1.50513
 Alpha virt. eigenvalues --    1.53309   1.55367   1.58203   1.61657   1.62294
 Alpha virt. eigenvalues --    1.63221   1.65365   1.66153   1.69737   1.70322
 Alpha virt. eigenvalues --    1.75145   1.75700   1.78258   1.82363   1.83014
 Alpha virt. eigenvalues --    1.85048   1.85665   1.87402   1.89919   1.93505
 Alpha virt. eigenvalues --    1.96921   1.97526   1.99002   2.02673   2.02925
 Alpha virt. eigenvalues --    2.06119   2.08873   2.11441   2.14995   2.18046
 Alpha virt. eigenvalues --    2.18327   2.18870   2.21491   2.24814   2.27384
 Alpha virt. eigenvalues --    2.30689   2.37723   2.45128   2.48724   2.60639
 Alpha virt. eigenvalues --    2.66828   2.83150   2.86184   2.88911   2.92551
 Alpha virt. eigenvalues --    2.92797   2.98310   3.15039   3.15657   3.18865
 Alpha virt. eigenvalues --    3.22457   3.23316   3.24213   3.27208   3.30028
 Alpha virt. eigenvalues --    3.31232   3.33358   3.36729   3.40781   3.41604
 Alpha virt. eigenvalues --    3.44592   3.46489   3.49286   3.52909   3.54426
 Alpha virt. eigenvalues --    3.55585   3.58831   3.61568   3.63628   3.66840
 Alpha virt. eigenvalues --    3.67962   3.68804   3.70311   3.71602   3.76155
 Alpha virt. eigenvalues --    3.79617   3.83912   3.87030   3.89623   3.90074
 Alpha virt. eigenvalues --    3.91976   3.94035   3.94594   3.96490   3.98987
 Alpha virt. eigenvalues --    4.02321   4.03971   4.05852   4.07075   4.07838
 Alpha virt. eigenvalues --    4.09749   4.10525   4.12932   4.14513   4.16837
 Alpha virt. eigenvalues --    4.17457   4.18046   4.20253   4.21327   4.23103
 Alpha virt. eigenvalues --    4.23964   4.25282   4.25523   4.27232   4.27407
 Alpha virt. eigenvalues --    4.29173   4.30713   4.33128   4.34562   4.35653
 Alpha virt. eigenvalues --    4.37313   4.40705   4.42085   4.42417   4.45061
 Alpha virt. eigenvalues --    4.46670   4.47217   4.49005   4.50504   4.51931
 Alpha virt. eigenvalues --    4.52529   4.54706   4.55772   4.57756   4.59092
 Alpha virt. eigenvalues --    4.61609   4.62305   4.66292   4.66740   4.67160
 Alpha virt. eigenvalues --    4.70891   4.72730   4.73430   4.79517   4.83373
 Alpha virt. eigenvalues --    4.84635   4.86267   4.88603   4.90284   4.92952
 Alpha virt. eigenvalues --    4.93566   4.96058   4.96656   4.98135   4.99441
 Alpha virt. eigenvalues --    5.04044   5.08018   5.09685   5.14381   5.19476
 Alpha virt. eigenvalues --    5.21182   5.26897   5.27355   5.31995   5.35321
 Alpha virt. eigenvalues --    5.35859   5.38251   5.38606   5.43207   5.45792
 Alpha virt. eigenvalues --    5.49172   5.49549   5.57747   5.58870   5.63401
 Alpha virt. eigenvalues --    5.63943   5.68595   5.71595   5.78191   5.78750
 Alpha virt. eigenvalues --    5.80419   5.83401   5.89632   5.95533   5.98578
 Alpha virt. eigenvalues --    5.99827   6.02106   6.06618   6.10318   6.11445
 Alpha virt. eigenvalues --    6.12868   6.14054   6.20901   6.25939   6.28806
 Alpha virt. eigenvalues --    6.31989   6.35409   6.38649   6.44065   6.49567
 Alpha virt. eigenvalues --    6.53450   6.54869   6.65057   6.79012   6.89955
 Alpha virt. eigenvalues --    6.94540   7.00422   7.13808   7.28849   7.44246
 Alpha virt. eigenvalues --    9.53678  12.33525  13.21244  14.75055  15.46115
 Alpha virt. eigenvalues --   18.01970  18.36784  22.78518
          Condensed to atoms (all electrons):
               1          2          3          4          5          6
     1  O    8.127724  -0.103263   0.528020  -0.063681   0.009676   0.006811
     2  N   -0.103263   6.387616   0.351810  -0.036909   0.396578  -0.019564
     3  C    0.528020   0.351810   4.362405   0.463221  -0.038095  -0.042820
     4  C   -0.063681  -0.036909   0.463221   4.894501  -0.036354   0.548842
     5  C    0.009676   0.396578  -0.038095  -0.036354   4.589335  -0.080082
     6  C    0.006811  -0.019564  -0.042820   0.548842  -0.080082   4.704782
     7  C    0.001612  -0.055359  -0.023625  -0.066217   0.610974   0.480407
     8  H    0.044272   0.003118  -0.004738   0.000867   0.002627  -0.000311
     9  H    0.008436   0.008193  -0.038490   0.429207  -0.000627  -0.031973
    10  H   -0.000897  -0.031481   0.001177  -0.002935   0.410953   0.007130
    11  H   -0.000672  -0.002534   0.006907  -0.026736   0.007472   0.409512
    12  H    0.000032   0.006924  -0.000652   0.004996  -0.026025  -0.028664
    13  O   -0.037135  -0.033311   0.001022   0.000181  -0.005440   0.000074
    14  H    0.003617   0.000479   0.000939   0.000125   0.000082  -0.000017
    15  H    0.002233   0.386343  -0.024813   0.007717  -0.022438  -0.002619
               7          8          9         10         11         12
     1  O    0.001612   0.044272   0.008436  -0.000897  -0.000672   0.000032
     2  N   -0.055359   0.003118   0.008193  -0.031481  -0.002534   0.006924
     3  C   -0.023625  -0.004738  -0.038490   0.001177   0.006907  -0.000652
     4  C   -0.066217   0.000867   0.429207  -0.002935  -0.026736   0.004996
     5  C    0.610974   0.002627  -0.000627   0.410953   0.007472  -0.026025
     6  C    0.480407  -0.000311  -0.031973   0.007130   0.409512  -0.028664
     7  C    4.819708  -0.000067   0.006575  -0.030921  -0.034692   0.423816
     8  H   -0.000067   0.406596   0.000192   0.000169   0.000005  -0.000020
     9  H    0.006575   0.000192   0.582680   0.000341  -0.008525  -0.000447
    10  H   -0.030921   0.000169   0.000341   0.589029  -0.000859  -0.003515
    11  H   -0.034692   0.000005  -0.008525  -0.000859   0.604658  -0.005558
    12  H    0.423816  -0.000020  -0.000447  -0.003515  -0.005558   0.591796
    13  O   -0.000083   0.334832   0.000048  -0.000880  -0.000005   0.000027
    14  H    0.000032  -0.020556  -0.000010  -0.000067   0.000001   0.000000
    15  H    0.005252  -0.012324  -0.000535  -0.008349   0.000216   0.000070
              13         14         15
     1  O   -0.037135   0.003617   0.002233
     2  N   -0.033311   0.000479   0.386343
     3  C    0.001022   0.000939  -0.024813
     4  C    0.000181   0.000125   0.007717
     5  C   -0.005440   0.000082  -0.022438
     6  C    0.000074  -0.000017  -0.002619
     7  C   -0.000083   0.000032   0.005252
     8  H    0.334832  -0.020556  -0.012324
     9  H    0.000048  -0.000010  -0.000535
    10  H   -0.000880  -0.000067  -0.008349
    11  H   -0.000005   0.000001   0.000216
    12  H    0.000027   0.000000   0.000070
    13  O    7.805359   0.348184   0.061838
    14  H    0.348184   0.458427  -0.004155
    15  H    0.061838  -0.004155   0.447103
 Mulliken charges:
               1
     1  O   -0.526786
     2  N   -0.258639
     3  C    0.457732
     4  C   -0.116825
     5  C    0.181365
     6  C    0.048491
     7  C   -0.137413
     8  H    0.245339
     9  H    0.044935
    10  H    0.071104
    11  H    0.050811
    12  H    0.037219
    13  O   -0.474711
    14  H    0.212917
    15  H    0.164461
 Sum of Mulliken charges =  -0.00000
 Mulliken charges with hydrogens summed into heavy atoms:
               1
     1  O   -0.526786
     2  N   -0.094178
     3  C    0.457732
     4  C   -0.071890
     5  C    0.252469
     6  C    0.099302
     7  C   -0.100194
    13  O   -0.016454
 Electronic spatial extent (au):  <R**2>=           1080.0544
 Charge=             -0.0000 electrons
 Dipole moment (field-independent basis, Debye):
    X=             -2.3691    Y=             -2.1229    Z=              1.0928  Tot=              3.3636
 Quadrupole moment (field-independent basis, Debye-Ang):
   XX=            -41.6739   YY=            -45.6819   ZZ=            -49.5264
   XY=             -1.9941   XZ=              4.6678   YZ=             -0.8620
 Traceless Quadrupole moment (field-independent basis, Debye-Ang):
   XX=              3.9535   YY=             -0.0545   ZZ=             -3.8990
   XY=             -1.9941   XZ=              4.6678   YZ=             -0.8620
 Octapole moment (field-independent basis, Debye-Ang**2):
  XXX=             23.7589  YYY=            -11.4009  ZZZ=              0.7122  XYY=             -6.2691
  XXY=              0.2482  XXZ=             18.4162  XZZ=             10.9946  YZZ=              0.6421
  YYZ=              0.5921  XYZ=             -3.2424
 Hexadecapole moment (field-independent basis, Debye-Ang**3):
 XXXX=           -772.7140 YYYY=           -350.9912 ZZZZ=            -53.1620 XXXY=             -4.2831
 XXXZ=             74.6352 YYYX=            -12.5797 YYYZ=             -0.8317 ZZZX=              3.4954
 ZZZY=             -0.5371 XXYY=           -219.5346 XXZZ=           -174.8414 YYZZ=            -76.8209
 XXYZ=            -12.4913 YYXZ=              2.7488 ZZXY=             -2.0699
 N-N= 3.568539014902D+02 E-N=-1.649794373752D+03  KE= 3.987034101724D+02
 No NMR shielding tensors so no spin-rotation constants.
 Leave Link  601 at Fri Aug 27 00:22:04 2021, MaxMem= 17179869184 cpu:        51.0
 (Enter /public3/home/sc51754/softwares/g09e01/l701.exe)
 Compute integral first derivatives.
 ... and contract with generalized density number  0.
 Leave Link  701 at Fri Aug 27 00:22:06 2021, MaxMem= 17179869184 cpu:        70.5
 (Enter /public3/home/sc51754/softwares/g09e01/l702.exe)
 L702 exits ... SP integral derivatives will be done elsewhere.
 Leave Link  702 at Fri Aug 27 00:22:06 2021, MaxMem= 17179869184 cpu:         0.4
 (Enter /public3/home/sc51754/softwares/g09e01/l703.exe)
 Compute integral first derivatives, UseDBF=F ICtDFT=           0.
 Integral derivatives from FoFJK, PRISM(SPDF).
 Calling FoFJK, ICntrl=      2527 FMM=F ISym2X=0 I1Cent= 0 IOpClX= 0 NMat=1 NMatS=1 NMatT=0.
 FoFJK:  IHMeth= 1 ICntrl=    2527 DoSepK=F KAlg= 0 I1Cent=   0 FoldK=F
 IRaf=         0 NMat=   1 IRICut=       1 DoRegI=T DoRafI=F ISym2E= 0.
 FoFCou: FMM=F IPFlag=           0 FMFlag=      100000 FMFlg1=         800
         NFxFlg=           0 DoJE=F BraDBF=F KetDBF=F FulRan=T
         wScrn=  0.000000 ICntrl=    2527 IOpCl=  0 I1Cent=           0 NGrid=           0
         NMat0=    1 NMatS0=      1 NMatT0=    0 NMatD0=    1 NMtDS0=    0 NMtDT0=    0
 Symmetry not used in FoFCou.
 Leave Link  703 at Fri Aug 27 00:22:09 2021, MaxMem= 17179869184 cpu:       182.1
 (Enter /public3/home/sc51754/softwares/g09e01/l716.exe)
 Dipole        =-9.32073983D-01-8.35223961D-01 4.29922532D-01
 ***** Axes restored to original set *****
 -------------------------------------------------------------------
 Center     Atomic                   Forces (Hartrees/Bohr)
 Number     Number              X              Y              Z
 -------------------------------------------------------------------
      1        8           0.011484607    0.006329956   -0.000031619
      2        7          -0.001691537   -0.002324197   -0.000162067
      3        6          -0.007126428    0.001013826    0.000082098
      4        6           0.003099202    0.001271491    0.000014001
      5        6           0.001700828   -0.003986303    0.000077100
      6        6          -0.003722734   -0.002161562   -0.000001857
      7        6          -0.003918067    0.002128207   -0.000043848
      8        1          -0.003205563    0.006589264    0.000667008
      9        1          -0.000126715    0.002605429   -0.000011896
     10        1           0.000827645   -0.002526240   -0.000009901
     11        1          -0.002572266    0.000994027   -0.000023238
     12        1          -0.002174079   -0.001629017   -0.000009302
     13        8          -0.002729646   -0.007005362   -0.005160711
     14        1           0.004335774    0.000416874    0.004391684
     15        1           0.005818980   -0.001716394    0.000222547
 -------------------------------------------------------------------
 Cartesian Forces:  Max     0.011484607 RMS     0.003469778
 Leave Link  716 at Fri Aug 27 00:22:09 2021, MaxMem= 17179869184 cpu:         0.4
 (Enter /public3/home/sc51754/softwares/g09e01/l103.exe)

 GradGradGradGradGradGradGradGradGradGradGradGradGradGradGradGradGradGrad
 Berny optimization.
 FormGI is forming the generalized inverse of G from B-inverse, IUseBI=4.
 Internal  Forces:  Max     0.012139851 RMS     0.002621186
 Search for a local minimum.
 Step number   1 out of a maximum of   83
 All quantities printed in internal units (Hartrees-Bohrs-Radians)
 RMS Force = .26212D-02 SwitMx=.10000D-02 MixMth= 1
 Mixed Optimization -- RFO/linear search
 Second derivative matrix not updated -- first step.
 ITU=  0
     Eigenvalues ---    0.00646   0.00900   0.01671   0.02019   0.02045
     Eigenvalues ---    0.02138   0.02190   0.02305   0.02392   0.02435
     Eigenvalues ---    0.02516   0.04986   0.06334   0.06909   0.09520
     Eigenvalues ---    0.16000   0.16000   0.16000   0.16000   0.19047
     Eigenvalues ---    0.20437   0.21968   0.22000   0.22256   0.23654
     Eigenvalues ---    0.35693   0.35983   0.36053   0.36229   0.38136
     Eigenvalues ---    0.40185   0.42590   0.44184   0.49041   0.49982
     Eigenvalues ---    0.52121   0.53321   0.55542   0.84771
 RFO step:  Lambda=-9.34816145D-04 EMin= 6.46442552D-03
 Linear search not attempted -- first point.
 Iteration  1 RMS(Cart)=  0.00708076 RMS(Int)=  0.00001578
 Iteration  2 RMS(Cart)=  0.00001897 RMS(Int)=  0.00000223
 Iteration  3 RMS(Cart)=  0.00000000 RMS(Int)=  0.00000223
 ITry= 1 IFail=0 DXMaxC= 2.29D-02 DCOld= 1.00D+10 DXMaxT= 3.00D-01 DXLimC= 3.00D+00 Rises=F
 Variable       Old X    -DE/DX   Delta X   Delta X   Delta X     New X
                                 (Linear)    (Quad)   (Total)
    R1        2.33752   0.01214   0.00000   0.01416   0.01416   2.35169
    R2        3.44231  -0.00075   0.00000  -0.01043  -0.01043   3.43188
    R3        2.63700   0.00714   0.00000   0.01591   0.01590   2.65290
    R4        2.56181   0.00492   0.00000   0.00934   0.00934   2.57114
    R5        1.92716   0.00547   0.00000   0.01181   0.01181   1.93897
    R6        2.72061   0.00289   0.00000   0.00714   0.00714   2.72775
    R7        2.57451   0.00728   0.00000   0.01363   0.01363   2.58814
    R8        2.03999   0.00261   0.00000   0.00721   0.00721   2.04720
    R9        2.56943   0.00704   0.00000   0.01336   0.01336   2.58278
   R10        2.04108   0.00263   0.00000   0.00730   0.00730   2.04839
   R11        2.67927   0.00278   0.00000   0.00634   0.00634   2.68561
   R12        2.04565   0.00275   0.00000   0.00769   0.00769   2.05334
   R13        2.03725   0.00272   0.00000   0.00748   0.00748   2.04473
   R14        1.85494   0.00703   0.00000   0.01365   0.01365   1.86859
   R15        1.81354   0.00615   0.00000   0.01105   0.01105   1.82459
   R16        3.72662  -0.00050   0.00000  -0.01849  -0.01849   3.70813
    A1        1.92766  -0.00177   0.00000  -0.00474  -0.00473   1.92293
    A2        2.17565   0.00047   0.00000   0.00283   0.00284   2.17849
    A3        2.00244  -0.00048   0.00000  -0.00242  -0.00243   2.00001
    A4        2.10509   0.00001   0.00000  -0.00041  -0.00041   2.10468
    A5        2.09773  -0.00077   0.00000  -0.00050  -0.00051   2.09722
    A6        2.19333   0.00152   0.00000   0.00461   0.00461   2.19793
    A7        1.99213  -0.00075   0.00000  -0.00411  -0.00410   1.98803
    A8        2.11557   0.00077   0.00000   0.00294   0.00294   2.11852
    A9        2.03563  -0.00044   0.00000  -0.00183  -0.00183   2.03379
   A10        2.13199  -0.00033   0.00000  -0.00111  -0.00111   2.13087
   A11        2.10801  -0.00064   0.00000  -0.00199  -0.00199   2.10602
   A12        2.02357  -0.00005   0.00000  -0.00132  -0.00132   2.02226
   A13        2.15160   0.00069   0.00000   0.00330   0.00330   2.15490
   A14        2.11704   0.00008   0.00000  -0.00019  -0.00019   2.11684
   A15        2.08601   0.00011   0.00000   0.00107   0.00107   2.08708
   A16        2.08014  -0.00020   0.00000  -0.00088  -0.00088   2.07926
   A17        2.05796   0.00008   0.00000   0.00051   0.00051   2.05847
   A18        2.10191  -0.00005   0.00000  -0.00035  -0.00035   2.10157
   A19        2.12331  -0.00002   0.00000  -0.00016  -0.00016   2.12315
   A20        2.65557   0.00078   0.00000   0.00233   0.00233   2.65790
   A21        1.86229  -0.00107   0.00000  -0.00648  -0.00649   1.85580
   A22        1.36782   0.00154   0.00000   0.00409   0.00409   1.37191
   A23        2.34644  -0.00048   0.00000  -0.00347  -0.00347   2.34297
   A24        2.50984   0.00069   0.00000   0.00110   0.00109   2.51093
    D1        0.03186  -0.00010   0.00000  -0.00072  -0.00072   0.03114
    D2       -3.10924  -0.00008   0.00000   0.00030   0.00030  -3.10894
    D3        0.03871   0.00000   0.00000   0.00010   0.00010   0.03882
    D4       -3.13629  -0.00001   0.00000   0.00015   0.00015  -3.13614
    D5        0.00485  -0.00003   0.00000  -0.00074  -0.00074   0.00411
    D6        0.00787  -0.00001   0.00000   0.00152   0.00152   0.00938
    D7       -3.13417  -0.00002   0.00000   0.00062   0.00062  -3.13355
    D8       -0.00292   0.00002   0.00000   0.00082   0.00082  -0.00210
    D9        3.13789   0.00000   0.00000   0.00028   0.00028   3.13817
   D10        3.13597   0.00002   0.00000  -0.00062  -0.00062   3.13534
   D11       -0.00641  -0.00000   0.00000  -0.00116  -0.00116  -0.00757
   D12       -0.10803  -0.00005   0.00000  -0.00299  -0.00298  -0.11102
   D13        3.03601  -0.00004   0.00000  -0.00169  -0.00169   3.03433
   D14        3.13723  -0.00000   0.00000  -0.00062  -0.00063   3.13661
   D15       -0.00200  -0.00001   0.00000  -0.00048  -0.00048  -0.00248
   D16       -0.00389   0.00002   0.00000   0.00033   0.00033  -0.00355
   D17        3.14007   0.00002   0.00000   0.00048   0.00048   3.14055
   D18        0.00117  -0.00000   0.00000  -0.00001  -0.00001   0.00116
   D19       -3.13978   0.00000   0.00000   0.00016   0.00016  -3.13962
   D20        3.14027   0.00000   0.00000  -0.00016  -0.00016   3.14010
   D21       -0.00068   0.00000   0.00000   0.00001   0.00001  -0.00067
   D22       -0.00027  -0.00000   0.00000  -0.00043  -0.00043  -0.00070
   D23        3.14059  -0.00001   0.00000  -0.00032  -0.00032   3.14027
   D24       -3.14103   0.00002   0.00000   0.00015   0.00015  -3.14087
   D25       -0.00016   0.00001   0.00000   0.00027   0.00027   0.00011
   D26        0.00106  -0.00000   0.00000   0.00005   0.00005   0.00111
   D27       -3.13980   0.00000   0.00000  -0.00007  -0.00007  -3.13986
   D28       -3.14118  -0.00001   0.00000  -0.00012  -0.00012  -3.14130
   D29        0.00115  -0.00000   0.00000  -0.00024  -0.00024   0.00092
   D30       -2.40197   0.00011   0.00000   0.00208   0.00208  -2.39988
   D31       -0.07714  -0.00006   0.00000  -0.00064  -0.00064  -0.07778
   D32        0.12809   0.00003   0.00000   0.00219   0.00219   0.13028
   D33        1.90956   0.00001   0.00000  -0.00297  -0.00297   1.90659
         Item               Value     Threshold  Converged?
 Maximum Force            0.012140     0.000450     NO 
 RMS     Force            0.002621     0.000300     NO 
 Maximum Displacement     0.022869     0.001800     NO 
 RMS     Displacement     0.007077     0.001200     NO 
 Predicted change in Energy=-4.684978D-04
 Lowest energy point so far.  Saving SCF results.
 GradGradGradGradGradGradGradGradGradGradGradGradGradGradGradGradGradGrad

 Leave Link  103 at Fri Aug 27 00:22:11 2021, MaxMem= 17179869184 cpu:        82.5
 (Enter /public3/home/sc51754/softwares/g09e01/l202.exe)
                          Input orientation:                          
 ---------------------------------------------------------------------
 Center     Atomic      Atomic             Coordinates (Angstroms)
 Number     Number       Type             X           Y           Z
 ---------------------------------------------------------------------
      1          8           0        1.273578    1.396975    0.004417
      2          7           0        0.252376   -0.660253    0.010863
      3          6           0        0.214754    0.743089    0.005736
      4          6           0       -1.120079    1.292433    0.000646
      5          6           0       -0.843380   -1.466792    0.006611
      6          6           0       -2.224584    0.482609   -0.003181
      7          6           0       -2.101654   -0.933227   -0.000888
      8          1           0        2.701804    0.276252   -0.043168
      9          1           0       -1.198630    2.372909   -0.002402
     10          1           0       -0.646071   -2.532641    0.008258
     11          1           0       -3.215892    0.927508   -0.008837
     12          1           0       -2.970195   -1.578513   -0.005479
     13          8           0        3.106229   -0.624969   -0.087848
     14          1           0        3.835272   -0.627055    0.545193
     15          1           0        1.196426   -1.062058    0.022013
 ---------------------------------------------------------------------
                    Distance matrix (angstroms):
                    1          2          3          4          5
     1  O    0.000000
     2  N    2.296755   0.000000
     3  C    1.244459   1.403856   0.000000
     4  C    2.395942   2.386780   1.443462   0.000000
     5  C    3.561274   1.360589   2.450147   2.773070   0.000000
     6  C    3.615697   2.727941   2.453222   1.369584   2.389139
     7  C    4.101471   2.369834   2.859340   2.432499   1.366749
     8  H    1.816071   2.622910   2.530958   3.954913   3.950823
     9  H    2.657876   3.362389   2.157320   1.083332   3.856110
    10  H    4.373437   2.076789   3.386951   3.854340   1.083960
    11  H    4.513969   3.814480   3.435630   2.127367   3.370716
    12  H    5.182976   3.350886   3.941302   3.415450   2.129782
    13  O    2.730454   2.855777   3.200152   4.641761   4.039430
    14  H    3.309292   3.622672   3.908511   5.341954   4.783828
    15  H    2.460306   1.026061   2.054872   3.303071   2.079628
                    6          7          8          9         10
     6  C    0.000000
     7  C    1.421164   0.000000
     8  H    4.930871   4.953569   0.000000
     9  H    2.150771   3.427242   4.428433   0.000000
    10  H    3.403464   2.162622   4.370445   4.936584   0.000000
    11  H    1.086581   2.168853   5.953524   2.481647   4.310094
    12  H    2.191841   1.082025   5.967676   4.330380   2.512390
    13  O    5.445316   5.217723   0.988815   5.246559   4.210487
    14  H    6.184975   5.969844   1.564251   5.885559   4.899182
    15  H    3.753657   3.300675   2.015312   4.187587   2.357456
                   11         12         13         14         15
    11  H    0.000000
    12  H    2.518039   0.000000
    13  O    6.510425   6.151338   0.000000
    14  H    7.241721   6.893685   0.965531   0.000000
    15  H    4.840235   4.198597   1.962259   2.725152   0.000000
 Stoichiometry    C5H7NO2
 Framework group  C1[X(C5H7NO2)]
 Deg. of freedom    39
 Full point group                 C1      NOp   1
 RotChk:  IX=0 Diff= 1.40D-03
 Largest Abelian subgroup         C1      NOp   1
 Largest concise Abelian subgroup C1      NOp   1
                         Standard orientation:                         
 ---------------------------------------------------------------------
 Center     Atomic      Atomic             Coordinates (Angstroms)
 Number     Number       Type             X           Y           Z
 ---------------------------------------------------------------------
      1          8           0        1.273936    1.395108    0.005055
      2          7           0        0.250775   -0.661147    0.011330
      3          6           0        0.214490    0.742230    0.006129
      4          6           0       -1.119819    1.292843    0.000667
      5          6           0       -0.845746   -1.466643    0.006830
      6          6           0       -2.225093    0.484071   -0.003408
      7          6           0       -2.103511   -0.931881   -0.001019
      8          1           0        2.701107    0.273023   -0.042109
      9          1           0       -1.197340    2.373393   -0.002451
     10          1           0       -0.649452   -2.532680    0.008577
     11          1           0       -3.215975    0.929913   -0.009343
     12          1           0       -2.972664   -1.576341   -0.005806
     13          8           0        3.104686   -0.628584   -0.086643
     14          1           0        3.833562   -0.631334    0.546588
     15          1           0        1.194439   -1.063850    0.022743
 ---------------------------------------------------------------------
 Rotational constants (GHZ):      3.9867117      1.3923936      1.0337080
 Leave Link  202 at Fri Aug 27 00:22:11 2021, MaxMem= 17179869184 cpu:         1.9
 (Enter /public3/home/sc51754/softwares/g09e01/l301.exe)
 Basis read from rwf:  (5D, 7F)
 No pseudopotential information found on rwf file.
 There are   385 symmetry adapted cartesian basis functions of A   symmetry.
 There are   338 symmetry adapted basis functions of A   symmetry.
   338 basis functions,   566 primitive gaussians,   385 cartesian basis functions
    30 alpha electrons       30 beta electrons
       nuclear repulsion energy       355.5461649600 Hartrees.
 IExCor= 2523 DFT=T Ex=TPSS Corr=TPSS ExCW=0 ScaHFX=  0.000000
 ScaDFX=  1.000000  1.000000  1.000000  1.000000 ScalE2=  1.000000  1.000000
 IRadAn=      0 IRanWt=     -1 IRanGd=            0 ICorTp=0 IEmpDi=  4
 NAtoms=   15 NActive=   15 NUniq=   15 SFac= 1.00D+00 NAtFMM=   60 NAOKFM=F Big=F
 Integral buffers will be    131072 words long.
 Raffenetti 2 integral format.
 Two-electron integral symmetry is turned on.
 No density basis found on file   724.
 Leave Link  301 at Fri Aug 27 00:22:11 2021, MaxMem= 17179869184 cpu:         1.2
 (Enter /public3/home/sc51754/softwares/g09e01/l302.exe)
 NPDir=0 NMtPBC=     1 NCelOv=     1 NCel=       1 NClECP=     1 NCelD=      1
         NCelK=      1 NCelE2=     1 NClLst=     1 CellRange=     0.0.
 One-electron integrals computed using PRISM.
 NBasis=   338 RedAO= T EigKep=  1.62D-04  NBF=   338
 NBsUse=   338 1.00D-06 EigRej= -1.00D+00 NBFU=   338
 Precomputing XC quadrature grid using
 IXCGrd= 4 IRadAn=           0 IRanWt=          -1 IRanGd=           0 AccXCQ= 0.00D+00.
 Generated NRdTot=       0 NPtTot=           0 NUsed=           0 NTot=          32
 NSgBfM=   385   385   385   385   385 MxSgAt=    15 MxSgA2=    15.
 Leave Link  302 at Fri Aug 27 00:22:12 2021, MaxMem= 17179869184 cpu:        45.6
 (Enter /public3/home/sc51754/softwares/g09e01/l303.exe)
 DipDrv:  MaxL=1.
 Leave Link  303 at Fri Aug 27 00:22:12 2021, MaxMem= 17179869184 cpu:        12.9
 (Enter /public3/home/sc51754/softwares/g09e01/l401.exe)
 Initial guess from the checkpoint file:  "PY_H2O_TPSSTPSS_PC2_OPT_FREQ.chk"
 B after Tr=     0.000000    0.000000   -0.000000
         Rot=    1.000000    0.000029   -0.000013    0.000734 Ang=   0.08 deg.
 Guess basis will be translated and rotated to current coordinates.
 JPrj=2 DoOrth=T DoCkMO=T.
 Generating alternative initial guess.
 ExpMin= 7.41D-02 ExpMax= 1.48D+04 ExpMxC= 5.05D+02 IAcc=2 IRadAn=         4 AccDes= 0.00D+00
 Harris functional with IExCor= 1009 and IRadAn=       4 diagonalized for initial guess.
 HarFok:  IExCor= 1009 AccDes= 0.00D+00 IRadAn=         4 IDoV= 1 UseB2=F ITyADJ=14
 ICtDFT=  3500011 ScaDFX=  1.000000  1.000000  1.000000  1.000000
 FoFCou: FMM=F IPFlag=           0 FMFlag=      100000 FMFlg1=           0
         NFxFlg=           0 DoJE=T BraDBF=F KetDBF=T FulRan=T
         wScrn=  0.000000 ICntrl=     500 IOpCl=  0 I1Cent=   200000004 NGrid=           0
         NMat0=    1 NMatS0=      1 NMatT0=    0 NMatD0=    1 NMtDS0=    0 NMtDT0=    0
 Petite list used in FoFCou.
 Harris En= -399.812220942051    
 Leave Link  401 at Fri Aug 27 00:22:14 2021, MaxMem= 17179869184 cpu:        81.3
 (Enter /public3/home/sc51754/softwares/g09e01/l502.exe)
 Closed shell SCF:
 Using DIIS extrapolation, IDIIS=  1040.
 Integral symmetry usage will be decided dynamically.
 Keep J ints in memory in canonical form, NReq=1670404686.
 IVT=      490665 IEndB=      490665 NGot= 17179869184 MDV= 15538220534
 LenX= 15538220534 LenY= 15538071868
 Requested convergence on RMS density matrix=1.00D-08 within 128 cycles.
 Requested convergence on MAX density matrix=1.00D-06.
 Requested convergence on             energy=1.00D-06.
 No special actions if energy rises.
 FoFCou: FMM=F IPFlag=           0 FMFlag=           0 FMFlg1=           0
         NFxFlg=           0 DoJE=F BraDBF=F KetDBF=F FulRan=T
         wScrn=  0.000000 ICntrl=     600 IOpCl=  0 I1Cent=           0 NGrid=           0
         NMat0=    1 NMatS0=  57291 NMatT0=    0 NMatD0=    1 NMtDS0=    0 NMtDT0=    0
 Symmetry not used in FoFCou.
 Integral accuracy reduced to 1.0D-05 until final iterations.

 Cycle   1  Pass 0  IDiag  1:
 E= -400.190348855384    
 DIIS: error= 5.50D-04 at cycle   1 NSaved=   1.
 NSaved= 1 IEnMin= 1 EnMin= -400.190348855384     IErMin= 1 ErrMin= 5.50D-04
 ErrMax= 5.50D-04  0.00D+00 EMaxC= 1.00D-01 BMatC= 1.61D-04 BMatP= 1.61D-04
 IDIUse=3 WtCom= 9.95D-01 WtEn= 5.50D-03
 Coeff-Com:  0.100D+01
 Coeff-En:   0.100D+01
 Coeff:      0.100D+01
 Gap=     0.522 Goal=   None    Shift=    0.000
 RMSDP=4.42D-05 MaxDP=1.61D-03              OVMax= 6.08D-03

 Cycle   2  Pass 0  IDiag  1:
 E= -400.190450555314     Delta-E=       -0.000101699930 Rises=F Damp=F
 DIIS: error= 3.90D-04 at cycle   2 NSaved=   2.
 NSaved= 2 IEnMin= 2 EnMin= -400.190450555314     IErMin= 2 ErrMin= 3.90D-04
 ErrMax= 3.90D-04  0.00D+00 EMaxC= 1.00D-01 BMatC= 4.85D-05 BMatP= 1.61D-04
 IDIUse=3 WtCom= 9.96D-01 WtEn= 3.90D-03
 Coeff-Com:  0.296D+00 0.704D+00
 Coeff-En:   0.000D+00 0.100D+01
 Coeff:      0.294D+00 0.706D+00
 Gap=     0.127 Goal=   None    Shift=    0.000
 RMSDP=3.36D-05 MaxDP=1.89D-03 DE=-1.02D-04 OVMax= 7.47D-03

 Cycle   3  Pass 0  IDiag  1:
 E= -400.190411477571     Delta-E=        0.000039077743 Rises=F Damp=F
 DIIS: error= 5.53D-04 at cycle   3 NSaved=   3.
 NSaved= 3 IEnMin= 2 EnMin= -400.190450555314     IErMin= 2 ErrMin= 3.90D-04
 ErrMax= 5.53D-04  0.00D+00 EMaxC= 1.00D-01 BMatC= 9.24D-05 BMatP= 4.85D-05
 IDIUse=3 WtCom= 2.98D-01 WtEn= 7.02D-01
 Coeff-Com:  0.845D-01 0.555D+00 0.361D+00
 Coeff-En:   0.000D+00 0.619D+00 0.381D+00
 Coeff:      0.252D-01 0.600D+00 0.375D+00
 Gap=     0.127 Goal=   None    Shift=    0.000
 RMSDP=2.30D-05 MaxDP=1.34D-03 DE= 3.91D-05 OVMax= 5.55D-03

 Cycle   4  Pass 0  IDiag  1:
 E= -400.190487554441     Delta-E=       -0.000076076869 Rises=F Damp=F
 DIIS: error= 1.55D-04 at cycle   4 NSaved=   4.
 NSaved= 4 IEnMin= 4 EnMin= -400.190487554441     IErMin= 4 ErrMin= 1.55D-04
[...]
 ! A10   A(6,4,9)              121.9805         -DE/DX =    0.0                 !
 ! A11   A(2,5,7)              120.6183         -DE/DX =    0.0                 !
 ! A12   A(2,5,10)             115.8677         -DE/DX =    0.0                 !
 ! A13   A(7,5,10)             123.5139         -DE/DX =    0.0                 !
 ! A14   A(4,6,7)              121.3549         -DE/DX =    0.0                 !
 ! A15   A(4,6,11)             119.4537         -DE/DX =    0.0                 !
 ! A16   A(7,6,11)             119.1914         -DE/DX =    0.0                 !
 ! A17   A(5,7,6)              117.9415         -DE/DX =    0.0                 !
 ! A18   A(5,7,12)             120.3591         -DE/DX =    0.0                 !
 ! A19   A(6,7,12)             121.6993         -DE/DX =    0.0                 !
 ! A20   A(1,8,13)             153.8309         -DE/DX =    0.0                 !
 ! A21   A(8,13,14)            105.8564         -DE/DX =    0.0                 !
 ! A22   A(8,13,15)             78.3693         -DE/DX =    0.0                 !
 ! A23   A(14,13,15)           127.9697         -DE/DX =    0.0                 !
 ! A24   A(2,15,13)            144.6088         -DE/DX =    0.0                 !
 ! D1    D(8,1,3,2)              1.9168         -DE/DX =    0.0                 !
 ! D2    D(8,1,3,4)           -177.997          -DE/DX =    0.0                 !
 ! D3    D(3,1,8,13)             1.3152         -DE/DX =    0.0                 !
 ! D4    D(5,2,3,1)           -179.6521         -DE/DX =    0.0                 !
 ! D5    D(5,2,3,4)              0.2716         -DE/DX =    0.0                 !
 ! D6    D(15,2,3,1)             0.6152         -DE/DX =    0.0                 !
 ! D7    D(15,2,3,4)          -179.4611         -DE/DX =    0.0                 !
 ! D8    D(3,2,5,7)             -0.1393         -DE/DX =    0.0                 !
 ! D9    D(3,2,5,10)           179.7628         -DE/DX =    0.0                 !
 ! D10   D(15,2,5,7)           179.5755         -DE/DX =    0.0                 !
 ! D11   D(15,2,5,10)           -0.5224         -DE/DX =    0.0                 !
 ! D12   D(3,2,15,13)           -6.7607         -DE/DX =    0.0                 !
 ! D13   D(5,2,15,13)          173.496          -DE/DX =    0.0                 !
 ! D14   D(1,3,4,6)            179.6842         -DE/DX =    0.0                 !
 ! D15   D(1,3,4,9)             -0.1539         -DE/DX =    0.0                 !
 ! D16   D(2,3,4,6)             -0.234          -DE/DX =    0.0                 !
 ! D17   D(2,3,4,9)            179.9279         -DE/DX =    0.0                 !
 ! D18   D(3,4,6,7)              0.0758         -DE/DX =    0.0                 !
 ! D19   D(3,4,6,11)          -179.8694         -DE/DX =    0.0                 !
 ! D20   D(9,4,6,7)            179.9054         -DE/DX =    0.0                 !
 ! D21   D(9,4,6,11)            -0.0398         -DE/DX =    0.0                 !
 ! D22   D(2,5,7,6)             -0.0451         -DE/DX =    0.0                 !
 ! D23   D(2,5,7,12)           179.9139         -DE/DX =    0.0                 !
 ! D24   D(10,5,7,6)          -179.9394         -DE/DX =    0.0                 !
 ! D25   D(10,5,7,12)            0.0196         -DE/DX =    0.0                 !
 ! D26   D(4,6,7,5)              0.0726         -DE/DX =    0.0                 !
 ! D27   D(4,6,7,12)          -179.8858         -DE/DX =    0.0                 !
 ! D28   D(11,6,7,5)          -179.982          -DE/DX =    0.0                 !
 ! D29   D(11,6,7,12)            0.0596         -DE/DX =    0.0                 !
 ! D30   D(1,8,13,14)         -130.2845         -DE/DX =    0.0                 !
 ! D31   D(1,8,13,15)           -3.8056         -DE/DX =    0.0                 !
 ! D32   D(8,13,15,2)            7.4951         -DE/DX =    0.0                 !
 ! D33   D(14,13,15,2)         108.6358         -DE/DX =    0.0                 !
 --------------------------------------------------------------------------------
 GradGradGradGradGradGradGradGradGradGradGradGradGradGradGradGradGradGrad

 Leave Link  103 at Fri Aug 27 00:28:08 2021, MaxMem= 17179869184 cpu:        67.6
 (Enter /public3/home/sc51754/softwares/g09e01/l9999.exe)
 1\1\GINC-T1413\Freq\RTPSSTPSS\Gen\C5H7N1O2\SC51754\27-Aug-2021\0\\#P G
 eom=AllCheck Guess=TCheck SCRF=Check GenChk RTPSSTPSS/ChkBas Freq\\PY_
 H2O_TPSSTPSS_PC2_OPT_FREQ\\0,1\O,1.2870050737,1.4021328392,-0.00740772
 47\N,0.2687425994,-0.6566894787,0.0036820499\C,0.2249393407,0.74723197
 23,-0.0005084568\C,-1.1068656418,1.2932911289,0.0021170728\C,-0.822817
 0052,-1.4654143131,0.0044186014\C,-2.2094934258,0.4789064746,0.0034138
 839\C,-2.0835185699,-0.9342384296,0.0038258412\H,2.6534367421,0.279565
 5423,-0.0661199204\H,-1.1912680284,2.3733082001,0.0002748055\H,-0.6222
 025012,-2.5305362132,0.0038116771\H,-3.2012138313,0.9224676552,0.00323
 81589\H,-2.9499893355,-1.582288927,0.0030127995\O,3.0643025539,-0.6256
 408599,-0.1082468063\H,3.726246526,-0.6482481548,0.5957684313\H,1.2226
 485034,-1.0475814364,0.0106535868\\Version=EM64L-G09RevE.01\State=1-A\
 HF=-400.1908178\RMSD=2.558e-09\RMSF=1.973e-05\ZeroPoint=0.1165292\Ther
 mal=0.1245084\Dipole=-0.9919643,-0.8544377,0.4778757\DipoleDeriv=-1.68
 48717,-0.5027182,-0.001422,-0.3948968,-0.7613176,-0.0003432,0.0014204,
 -0.0028696,-0.3687754,-0.8041044,0.2274431,0.0014266,-0.5774552,-0.478
 7004,0.0018891,-0.0127892,0.0013009,-0.1465444,1.6672392,0.7196442,-0.
 0014412,0.7665714,0.7857827,-0.0016441,-0.0093328,-0.0083892,0.2011517
 ,-0.6194328,-0.4018481,-0.000448,0.0729816,0.0306189,-0.0010922,0.0064
 024,-0.0000151,-0.1571792,0.6488531,-0.3060559,0.0005744,0.2554296,0.1
 17238,0.0020663,-0.0018808,0.0029165,-0.0146354,0.2638472,0.0712983,0.
 000079,0.1137756,0.5303293,-0.0002271,-0.0015931,-0.0010841,-0.0773371
 ,-0.2234588,0.3224577,-0.0001222,0.0251273,-0.403098,0.0007418,0.00380
 9,0.0009509,-0.1890507,0.8001075,-0.1652099,-0.0238812,-0.4783587,0.34
 92217,-0.0440695,-0.0363799,-0.0310366,0.2114763,0.0584513,-0.0070594,
 -0.0000929,0.0115264,-0.0392081,0.0002157,0.0005611,0.0006036,0.142457
 7,0.0556145,0.0235593,-0.0002279,-0.000645,-0.0485043,0.0003961,-0.001
 3705,-0.0006552,0.138312,-0.0762903,0.0660617,-0.0000614,0.0673887,0.0
 491488,-0.0000072,-0.0009081,0.0000387,0.1207392,-0.0074512,-0.0642571
 ,-0.0001941,-0.0657194,0.0053037,-0.000015,-0.0003621,-0.000173,0.1555
 194,-1.0762887,0.1190156,0.1043536,0.3239971,-0.5679777,0.0905601,0.13
 2377,0.0501897,-0.432279,0.2495312,0.0030634,-0.0809373,-0.0476238,0.2
 680471,-0.050214,-0.0896315,-0.0190685,0.1958444,0.7482538,-0.1053948,
 0.0023946,-0.0720988,0.1631159,0.0017432,0.0096782,0.0072911,0.2203006
 \Polar=105.0482052,5.7215531,86.7475541,0.9068515,-0.3573051,44.522415
 4\PG=C01 [X(C5H7N1O2)]\NImag=0\\0.49495010,0.24197593,0.26515071,-0.00
 275514,-0.00201094,0.03514115,0.01213814,-0.06274990,0.00033983,0.8024
 4980,-0.03910797,-0.06134685,0.00040254,-0.00281023,0.60323914,0.00073
 255,0.00041363,0.01603000,0.00185507,-0.00191624,0.08264682,-0.4244382
 0,-0.19046403,0.00211106,-0.16007250,0.00929756,-0.00064768,0.80638899
 ,-0.18516455,-0.20484763,0.00117590,0.05349935,-0.17715150,-0.00006531
 ,0.10400824,0.55107023,0.00192219,0.00103428,-0.06668286,-0.00018936,0
 .00029166,-0.05788347,-0.00213737,-0.00126418,0.18495113,-0.06952982,-
 0.00463456,0.00045396,0.02375570,0.04579816,0.00006445,-0.20005313,0.0
 4283123,0.00015179,0.63497563,-0.02870125,0.01976734,0.00019764,0.0367
 5528,-0.02348108,0.00010744,0.07121684,-0.14343683,-0.00021048,0.06383
 463,0.73581114,0.00038543,0.00035342,0.01848492,-0.00014030,0.00006614
 ,0.00499064,0.00025763,-0.00027150,-0.07209276,-0.00090514,-0.00087307
 ,0.11149636,-0.01279804,0.01294627,-0.00006846,-0.25797866,-0.06102248
 ,0.00002826,0.04452135,-0.06945213,0.00008704,-0.04492675,-0.00456683,
 0.00002378,0.70604834,-0.00322782,-0.00187645,0.00004236,-0.10835031,-
 0.20483954,0.00048177,-0.01779354,-0.03800146,0.00002706,-0.00382226,0
 .00025853,0.00000543,-0.06849919,0.73205558,0.00001033,0.00004156,0.00
 555159,-0.00001511,0.00018345,-0.04377204,0.00000287,0.00014396,-0.003
 45336,0.00002737,0.00001153,-0.00009513,0.00028163,-0.00021361,0.13167
 475,0.00244536,0.00485789,-0.00001478,-0.00644027,-0.00843174,0.000005
 71,-0.04367215,-0.00823932,0.00004533,-0.30102294,-0.14963723,0.000336
 19,0.01168361,0.03443729,-0.00001194,0.72871438,0.01927954,-0.00429894
 ,-0.00006412,-0.03248960,-0.03557461,0.00001327,-0.02718651,0.05357655
 ,-0.00001024,-0.10630858,-0.21952985,0.00031876,0.06975580,-0.02189713
 ,-0.00000753,0.00782313,0.63805804,-0.00001374,-0.00000545,0.00443636,
 0.00005982,0.00003654,-0.00468744,0.00008492,-0.00001822,-0.00076020,0
 .00013485,0.00019677,-0.05185049,-0.00006226,0.00003256,0.00650694,-0.
 00023369,-0.00029939,0.13509592,0.00615380,-0.00580385,-0.00000098,-0.
 07366467,-0.02838636,-0.00008799,-0.01847926,0.03320910,-0.00001777,0.
 03227019,-0.02526921,0.00000381,-0.33916577,0.12006875,-0.00016956,-0.
 11932711,-0.01023377,0.00000508,0.74832874,-0.01204664,0.00068503,0.00
 002315,0.00039665,0.04060477,-0.00007405,0.02285819,-0.02649709,0.0000
 0660,-0.04614816,-0.03592369,0.00001587,0.07721697,-0.16322988,0.00009
 759,0.03948402,-0.28108396,0.00005696,0.03297937,0.63681723,0.00001094
 ,0.00003940,-0.00041392,-0.00001958,-0.00001764,0.01079984,-0.00002615
 ,-0.00002301,-0.00674014,0.00006680,-0.00000221,0.00622044,-0.00020596
 ,0.00012411,-0.05847757,-0.00004072,-0.00002655,-0.05703237,0.00036798
 ,-0.00000413,0.10841020,0.01527803,-0.00347118,-0.00142195,-0.00243067
 ,0.00641030,-0.00046339,-0.02055597,-0.01240939,0.00032647,0.00503771,
 0.00169374,0.00017914,0.00035289,0.00003387,-0.00003668,-0.00041654,-0
 .00247978,0.00001598,-0.00012910,0.00184064,0.00003916,0.09432199,-0.0
 1766237,-0.01234456,0.00128963,0.00263069,-0.00458594,0.00045056,0.012
 10497,0.01934862,-0.00007000,-0.00629640,-0.00277240,-0.00017850,-0.00
 217922,-0.00253945,-0.00001052,0.00048248,0.00374276,-0.00002339,0.001
 52853,-0.00234958,-0.00002893,-0.11817828,0.32984544,-0.00003603,-0.00
 000340,-0.00962075,-0.00077050,-0.00018947,-0.00072898,-0.00004456,-0.
 00004900,0.00055844,0.00002410,-0.00001132,0.00129537,0.00008815,0.000
 20917,-0.00024468,-0.00005807,-0.00009312,0.00017336,-0.00014799,0.000
 04405,0.00011517,0.01666771,0.01361758,0.04445845,0.00214023,-0.002417
 90,-0.00002391,-0.00631067,0.00372981,-0.00001105,0.00321586,0.0296028
 3,-0.00006230,-0.05792734,0.02411538,0.00002991,-0.00215333,-0.0009297
 9,-0.00000058,0.00629816,-0.02703107,0.00004501,-0.00377917,-0.0024638
 2,0.00001388,-0.00022900,0.00032455,-0.00000903,0.05647923,0.00017806,
 0.00180408,-0.00000760,0.00260392,-0.00036086,0.00001140,-0.00370631,-
 0.00979722,0.00005805,0.02595088,-0.33400544,0.00045741,0.00070497,0.0
 0093145,0.00000237,0.00345725,-0.01288314,0.00002799,-0.00355042,0.001
 17670,0.00001904,0.00006662,-0.00010252,0.00001020,-0.02542328,0.35335
 695,0.00000245,-0.00002001,-0.00224667,0.00001337,-0.00000885,0.005100
 60,-0.00003363,0.00000153,0.00235827,0.00003691,0.00055522,-0.03259425
 ,0.00002113,0.00000768,-0.00070239,-0.00003089,0.00000110,0.00221566,-
 0.00000236,0.00000595,0.00895248,-0.00001754,0.00000842,-0.00003567,0.
 00000294,-0.00053413,0.02342202,-0.00100015,-0.00232457,0.00002171,0.0
 0504882,-0.03527217,0.00001346,-0.00381507,0.00203006,-0.00001105,-0.0
 0002200,-0.00062776,0.00000042,-0.07026237,0.05926792,0.00000678,-0.00
 588870,0.00096367,-0.00000879,0.00292306,0.02769889,0.00000869,0.00041
 076,-0.00035978,0.00000770,0.00018774,0.00000912,-0.00000146,0.0704623
 1,-0.00073070,-0.00196502,0.00002426,0.00082161,-0.02080935,-0.0000096
 7,-0.00278466,0.00511327,-0.00004709,0.00029149,0.00056065,-0.00000146
 ,0.05313517,-0.32248529,-0.00008944,0.00243863,0.00056146,-0.00000217,
 -0.00096153,-0.00529031,-0.00001915,0.00036979,-0.00026390,-0.00001347
 ,0.00003991,-0.00008789,0.00000009,-0.05270295,0.34378988,-0.00000632,
 -0.00001276,-0.00018110,0.00008756,0.00012551,0.00219341,0.00001037,-0
 .00001462,0.00583059,0.00000512,0.00001435,-0.00003184,-0.00006106,-0.
 00028806,-0.03608120,-0.00002839,0.00001060,0.00762594,0.00003366,0.00
 003072,0.00571330,-0.00002994,0.00000892,-0.00004370,-0.00000480,-0.00
 000150,-0.00129563,-0.00001232,0.00013934,0.02378477,-0.00229576,0.000
 46015,0.00001912,0.00034851,-0.00028990,0.00000044,-0.00005441,-0.0044
 6887,-0.00000787,-0.02005779,0.01235740,-0.00002054,0.00139889,0.00045
 610,-0.00000059,-0.28088954,0.10034830,-0.00000802,0.00127749,-0.00105
 902,-0.00001335,0.00033874,-0.00034082,-0.00001628,0.00124941,-0.00021
 415,0.00000194,0.00000574,-0.00009407,0.00000113,0.29829522,-0.0010360
 3,0.00061962,0.00000928,-0.00106339,0.00026474,-0.00000068,-0.00283490
 ,-0.00285359,0.00001272,-0.01855374,0.01172245,-0.00000529,-0.00033269
 ,-0.00679483,0.00000337,0.10070542,-0.10318651,0.00001356,0.02931291,-
 0.00734847,0.00000418,0.00007171,-0.00013874,-0.00000278,0.00050817,0.
 00090855,-0.00000713,0.00167051,-0.00043524,0.00000586,-0.10783195,0.1
 0578347,-0.00001275,-0.00004091,-0.00210552,0.00000898,-0.00000620,-0.
 00091281,0.00001271,0.00002824,0.01159002,0.00006835,0.00004920,0.0061
 6680,-0.00000139,-0.00001258,0.00516244,-0.00007039,-0.00000689,-0.040
 66102,-0.00001206,0.00001218,0.00408895,-0.00002948,0.00002873,-0.0001
 8800,-0.00000964,-0.00001706,-0.00542527,-0.00000064,0.00000133,-0.000
 41946,0.00002385,-0.00002831,0.02579767,0.00017566,-0.00029966,0.00000
 207,-0.00405902,0.00426470,-0.00002191,-0.00006616,0.00116462,-0.00001
 430,0.00072644,0.00144692,-0.00000246,-0.01784777,-0.02038900,-0.00003
 195,0.00737391,0.00460087,-0.00000099,-0.23797689,-0.13433961,-0.00016
 124,0.00005635,0.00013488,-0.00002482,0.00025350,0.00030604,-0.0000021
 5,0.00081984,0.00024079,0.00000857,0.00056673,-0.00057839,0.00000494,0
 .25039176,-0.00045574,0.00045579,0.00000262,0.00379427,-0.00045052,0.0
 0001182,0.00122397,-0.00118494,-0.00000471,0.00262761,-0.00507167,0.00
 000392,0.01183171,0.01121998,-0.00000217,-0.02617594,-0.01260283,-0.00
 002980,-0.13656207,-0.15692472,-0.00011417,0.00007751,-0.00016313,0.00
 000872,-0.00135375,-0.00062522,0.00000283,-0.00061709,0.00058634,0.000
 00176,0.00039462,0.00126396,0.00000328,0.14473458,0.16279718,0.0000069
 4,-0.00001942,-0.00060769,-0.00003032,-0.00001520,0.00745779,-0.000007
 41,0.00001373,-0.00033534,0.00000121,0.00000643,0.00435586,0.00000039,
 -0.00002065,-0.00163390,0.00001682,0.00002818,-0.00033813,-0.00020128,
 -0.00015173,-0.02678164,0.00000640,-0.00000250,0.00002354,-0.00000207,
 0.00000312,0.00063995,0.00000413,0.00000551,-0.00430227,0.00000322,-0.
 00000025,-0.00243940,0.00020085,0.00012893,0.02232324,-0.01257892,0.01
 261492,0.00012884,-0.01579053,-0.00412819,-0.00080334,0.00329964,0.001
 86423,0.00022547,-0.00105388,-0.00015866,0.00011933,0.00131703,0.00489
 345,-0.00007022,-0.00014866,-0.00017931,-0.00003570,-0.00200099,-0.000
 58654,0.00008994,-0.08304814,0.14339601,-0.00143595,-0.00013556,0.0001
 4904,0.00001184,-0.00006180,-0.00036024,-0.00002426,-0.00025435,-0.000
 00637,-0.00001539,-0.00045242,0.00012346,0.00002020,0.34216494,0.02651
 522,-0.00409693,0.00040469,-0.00266431,0.00620039,-0.00120676,-0.01181
 835,-0.01518618,0.00015276,0.00466067,0.00246499,-0.00011671,0.0017261
 2,0.00118988,-0.00006540,-0.00030215,-0.00275799,0.00000562,-0.0009385
 0,0.00185223,0.00003759,0.10494911,-0.32661361,-0.04610808,-0.00034359
 ,0.00011321,-0.00000767,0.00041454,0.00027107,0.00002115,0.00027287,0.
 00012494,0.00002251,-0.00004609,0.00011339,0.00003493,-0.15453572,0.37
 972390,-0.00093736,0.00121339,0.00624470,-0.00316634,0.00014228,0.0036
 7286,0.00055890,-0.00011576,-0.00035542,-0.00014989,0.00005562,-0.0008
 5851,-0.00030420,0.00017628,0.00034000,0.00007688,0.00004911,0.0000278
 3,0.00001787,-0.00018088,-0.00025624,-0.01691835,-0.01044247,-0.036374
 78,0.00001900,-0.00000888,0.00000365,-0.00002561,-0.00006551,0.0000235
 8,0.00001492,0.00000260,0.00011818,-0.00002668,0.00000220,-0.00009305,
 0.25466781,0.02747462,0.30144804,0.00035680,0.00122280,0.00112448,-0.0
 0153601,-0.00052269,0.00084046,-0.00049472,-0.00044890,-0.00020520,0.0
 0011933,0.00009695,-0.00022359,-0.00026830,0.00039020,0.00006886,0.000
 00201,-0.00008571,0.00001561,-0.00008451,-0.00011069,-0.00006539,-0.01
 235148,-0.00495541,-0.01576616,-0.00000304,0.00001620,-0.00000542,-0.0
 0002095,-0.00006943,-0.00000200,0.00001251,-0.00000513,0.00003081,-0.0
 0003355,0.00002154,-0.00002264,-0.23611553,0.02827843,-0.23682040,0.24
 970097,0.00237385,-0.00220381,-0.00145351,-0.00241459,0.00054682,0.000
 62027,-0.00084694,-0.00101043,-0.00007544,0.00017296,0.00016279,0.0001
 9190,0.00017289,0.00059583,0.00002149,0.00001537,-0.00011373,0.0000085
 7,-0.00025474,-0.00003709,-0.00000724,0.02713399,0.00235173,0.03196583
 ,-0.00003848,0.00002303,-0.00000083,-0.00000611,-0.00005003,-0.0000374
 9,0.00000296,0.00000409,-0.00003292,-0.00005692,0.00002039,-0.00001772
 ,-0.00461199,-0.03908906,-0.01913599,-0.02478459,0.03881671,0.00091059
 ,-0.00092727,-0.00002219,0.00301995,-0.00005511,-0.00003285,-0.0002115
 1,0.00017257,-0.00000053,0.00005869,-0.00004727,-0.00002353,0.00010732
 ,-0.00035568,-0.00000079,0.00000276,0.00003988,-0.00000324,0.00014499,
 0.00008415,-0.00000902,0.00116443,-0.00438794,-0.00156625,0.00000479,-
 0.00000407,0.00001059,-0.00000094,0.00005514,0.00002795,0.00000313,-0.
 00000240,0.00000950,0.00004593,-0.00001019,0.00000625,-0.25518026,0.01
 626326,-0.26740101,0.25305049,-0.01027263,0.26879789,-0.01099723,-0.00
 191231,0.00008414,-0.31545796,0.11047119,-0.00150503,0.01427573,0.0119
 7349,-0.00011307,-0.00229134,-0.00255620,-0.00004360,-0.01992116,0.003
 46433,-0.00006123,0.00128847,0.00322303,0.00000190,0.00365420,-0.00572
 025,-0.00006501,0.00336441,-0.01062983,0.00152174,0.00071399,-0.000547
 96,0.00000288,0.00121275,0.00036618,0.00002267,0.00005862,-0.00002615,
 0.00000212,0.00007163,0.00033531,0.00000358,0.00485916,0.00383175,0.00
 299345,0.00071648,0.00314233,-0.00312036,0.31845224,-0.00218952,0.0044
 9762,-0.00003590,0.11204055,-0.12225560,0.00116256,0.03672545,-0.00914
 181,0.00009900,-0.00040392,-0.00652694,0.00003368,-0.02143734,0.015412
 79,-0.00011665,-0.00091511,-0.00201011,-0.00000015,-0.00513822,-0.0024
 5115,0.00001870,-0.00610867,-0.00341470,0.00061509,0.00168103,-0.00045
 168,-0.00000419,-0.00014430,0.00050437,-0.00000379,0.00000637,0.000065
 56,-0.00000059,-0.00118375,0.00056599,0.00000663,0.00152591,-0.0043102
 3,0.00083339,0.00095642,-0.00001725,-0.00055244,-0.11541491,0.12953315
 ,-0.00022007,-0.00005553,-0.00400800,-0.00105306,0.00096059,-0.0248743
 7,0.00006985,0.00028568,0.00301564,-0.00003857,-0.00004985,0.00453614,
 0.00006563,-0.00021584,-0.00477464,0.00000518,0.00004695,-0.00074911,0
 .00006661,0.00003357,0.00541052,0.00051803,-0.00025961,0.00217846,0.00
 000783,-0.00001635,-0.00040335,-0.00000207,0.00002230,-0.00284434,-0.0
 0000111,-0.00000471,-0.00078209,0.00002412,-0.00000505,0.00172479,0.00
 230169,0.00308749,-0.00653983,-0.00201989,-0.00177429,0.00020723,0.000
 27582,-0.00205536,0.02790296\\-0.00001055,-0.00002037,-0.00000827,-0.0
 0002344,-0.00005464,-0.00000222,0.00001915,0.00006859,0.00000712,0.000
 01221,-0.00000390,0.00000016,0.00004396,0.00001418,-0.00000641,-0.0000
 0624,-0.00002148,-0.00000563,-0.00002055,0.00001042,0.00000340,-0.0000
 3783,-0.00002540,0.00001588,-0.00000777,-0.00000103,0.00000316,-0.0000
 0244,-0.00000398,-0.00000183,-0.00000012,0.00000079,0.00000243,0.00000
 469,-0.00000607,-0.00000014,0.00003760,0.00002311,-0.00000312,-0.00000
 322,0.00000363,-0.00000851,-0.00000547,0.00001614,0.00000399\\\@


 A MAN SHOULD NEVER BE ASHAMED TO OWN HE HAS BEEN IN THE WRONG
 WHICH IS BUT SAYING IN OTHER WORDS,
 THAT HE IS WISER TODAY THAN HE WAS YESTERDAY.

                          -- JONATHAN SWIFT
 Job cpu time:       0 days  1 hours 13 minutes 24.2 seconds.
 File lengths (MBytes):  RWF=    137 Int=      0 D2E=      0 Chk=      9 Scr=      1
 Normal termination of Gaussian 09 at Fri Aug 27 00:28:08 2021.
