 Entering Gaussian System, Link 0=g09
 AtFile(1): pc-2.gbs
            -H     0
            S    4   1.00
                  0.754230D+02           0.240650D-02
                  0.113500D+02           0.184870D-01
                  0.259930D+01           0.897420D-01
                  0.735130D+00           0.281110D+00
            S    1   1.00
                  0.231670D+00           0.100000D+01
            S    1   1.00
                  0.741470D-01           0.100000D+01
            P    1   1.00
                  0.160000D+01           0.100000D+01
            P    1   1.00
                  0.450000D+00           0.100000D+01
            D    1   1.00
                  0.125000D+01           0.100000D+01
            ****
            -C     0
            S    7   1.00
                  0.785710D+04           0.568250D-03
                  0.117870D+04           0.439150D-02
                  0.268320D+03           0.225040D-01
                  0.759480D+02           0.866530D-01
                  0.245590D+02           0.244050D+00
                  0.862120D+01           0.441480D+00
                  0.312780D+01           0.353320D+00
            S    7   1.00
                  0.117870D+04          -0.594920D-06
                  0.268320D+03          -0.627480D-04
                  0.759480D+02          -0.757730D-03
                  0.245590D+02          -0.733080D-02
                  0.862120D+01          -0.389320D-01
                  0.312780D+01          -0.889080D-01
                  0.822020D+00           0.216890D+00
            S    1   1.00
                  0.330170D+00           0.100000D+01
            S    1   1.00
                  0.114630D+00           0.100000D+01
            P    4   1.00
                  0.337750D+02           0.602940D-02
                  0.767660D+01           0.432280D-01
                  0.223570D+01           0.163010D+00
                  0.764470D+00           0.365040D+00
            P    1   1.00
                  0.262320D+00           0.100000D+01
            P    1   1.00
                  0.846380D-01           0.100000D+01
            D    1   1.00
                  0.140000D+01           0.100000D+01
            D    1   1.00
                  0.450000D+00           0.100000D+01
            F    1   1.00
                  0.950000D+00           0.100000D+01
            ****
            -N     0
            S    7   1.00
                  0.111010D+05           0.545700D-03
                  0.166530D+04           0.421810D-02
                  0.379080D+03           0.216450D-01
                  0.107300D+03           0.837760D-01
                  0.347470D+02           0.238810D+00
                  0.122490D+02           0.439940D+00
                  0.447430D+01           0.363640D+00
            S    7   1.00
                  0.166530D+04          -0.150060D-05
                  0.379080D+03          -0.587530D-04
                  0.107300D+03          -0.774530D-03
                  0.347470D+02          -0.721610D-02
                  0.122490D+02          -0.393380D-01
                  0.447430D+01          -0.906110D-01
                  0.124040D+01           0.198820D+00
            S    1   1.00
                  0.487430D+00           0.100000D+01
            S    1   1.00
                  0.164840D+00           0.100000D+01
            P    4   1.00
                  0.479340D+02           0.617060D-02
                  0.109990D+02           0.442600D-01
                  0.324720D+01           0.168250D+00
                  0.111140D+01           0.368480D+00
            P    1   1.00
                  0.379880D+00           0.100000D+01
            P    1   1.00
                  0.120680D+00           0.100000D+01
            D    1   1.00
                  0.180000D+01           0.100000D+01
            D    1   1.00
                  0.550000D+00           0.100000D+01
            F    1   1.00
                  0.102000D+01           0.100000D+01
            ****
            -O     0
            S    7   1.00
                  0.147820D+05           0.535190D-03
                  0.221730D+04           0.413750D-02
                  0.504740D+03           0.212450D-01
                  0.142870D+03           0.824530D-01
                  0.463000D+02           0.236710D+00
                  0.163370D+02           0.440390D+00
                  0.598280D+01           0.364650D+00
            S    7   1.00
                  0.221730D+04          -0.192750D-05
                  0.504740D+03          -0.579640D-04
                  0.142870D+03          -0.794940D-03
                  0.463000D+02          -0.731250D-02
                  0.163370D+02          -0.405740D-01
                  0.598280D+01          -0.915940D-01
                  0.167180D+01           0.209400D+00
            S    1   1.00
                  0.646620D+00           0.100000D+01
            S    1   1.00
                  0.216690D+00           0.100000D+01
            P    4   1.00
                  0.604240D+02           0.689490D-02
                  0.139350D+02           0.490050D-01
                  0.415310D+01           0.182550D+00
                  0.141580D+01           0.376330D+00
            P    1   1.00
                  0.475490D+00           0.100000D+01
            P    1   1.00
                  0.145290D+00           0.100000D+01
            D    1   1.00
                  0.220000D+01           0.100000D+01
            D    1   1.00
                  0.650000D+00           0.100000D+01
            F    1   1.00
                  0.110000D+01           0.100000D+01
            ****
 Initial command:
 /public3/home/sc51754/softwares/g09e01/l1.exe "./Gau-165374.inp" -scrdir="./"
 Entering Link 1 = /public3/home/sc51754/softwares/g09e01/l1.exe PID=    165375.
  
 Copyright (c) 1988,1990,1992,1993,1995,1998,2003,2009,2015,
            Gaussian, Inc.  All Rights Reserved.
  
 This is part of the Gaussian(R) 09 program.  It is based on
 the Gaussian(R) 03 system (copyright 2003, Gaussian, Inc.),
 the Gaussian(R) 98 system (copyright 1998, Gaussian, Inc.),
 the Gaussian(R) 94 system (copyright 1995, Gaussian, Inc.),
 the Gaussian 92(TM) system (copyright 1992, Gaussian, Inc.),
 the Gaussian 90(TM) system (copyright 1990, Gaussian, Inc.),
 the Gaussian 88(TM) system (copyright 1988, Gaussian, Inc.),
 the Gaussian 86(TM) system (copyright 1986, Carnegie Mellon
 University), and the Gaussian 82(TM) system (copyright 1983,
 Carnegie Mellon University). Gaussian is a federally registered
 trademark of Gaussian, Inc.
  
 This software contains proprietary and confidential information,
 including trade secrets, belonging to Gaussian, Inc.
  
 This software is provided under written license and may be
 used, copied, transmitted, or stored only in accord with that
 written license.
  
 The following legend is applicable only to US Government
 contracts under FAR:
  
                    RESTRICTED RIGHTS LEGEND
  
 Use, reproduction and disclosure by the US Government is
 subject to restrictions as set forth in subparagraphs (a)
 and (c) of the Commercial Computer Software - Restricted
 Rights clause in FAR 52.227-19.
  
 Gaussian, Inc.
 340 Quinnipiac St., Bldg. 40, Wallingford CT 06492
  
  
 ---------------------------------------------------------------
 Warning -- This program may not be used in any manner that
 competes with the business of Gaussian, Inc. or will provide
 assistance to any competitor of Gaussian, Inc.  The licensee
 of this program is prohibited from giving any competitor of
 Gaussian, Inc. access to this program.  By using this program,
 the user acknowledges that Gaussian, Inc. is engaged in the
 business of creating and licensing software in the field of
 computational chemistry and represents and warrants to the
 licensee that it is not a competitor of Gaussian, Inc. and that
 it will not use this program in any manner prohibited above.
 ---------------------------------------------------------------
  

 Cite this work as:
 Gaussian 09, Revision E.01,
 M. J. Frisch, G. W. Trucks, H. B. Schlegel, G. E. Scuseria, 
 M. A. Robb, J. R. Cheeseman, G. Scalmani, V. Barone, B. Mennucci, 
 G. A. Petersson, H. Nakatsuji, M. Caricato, X. Li, H. P. Hratchian, 
 A. F. Izmaylov, J. Bloino, G. Zheng, J. L. Sonnenberg, M. Hada, 
 M. Ehara, K. Toyota, R. Fukuda, J. Hasegawa, M. Ishida, T. Nakajima, 
 Y. Honda, O. Kitao, H. Nakai, T. Vreven, J. A. Montgomery, Jr., 
 J. E. Peralta, F. Ogliaro, M. Bearpark, J. J. Heyd, E. Brothers, 
 K. N. Kudin, V. N. Staroverov, T. Keith, R. Kobayashi, J. Normand, 
 K. Raghavachari, A. Rendell, J. C. Burant, S. S. Iyengar, J. Tomasi, 
 M. Cossi, N. Rega, J. M. Millam, M. Klene, J. E. Knox, J. B. Cross, 
 V. Bakken, C. Adamo, J. Jaramillo, R. Gomperts, R. E. Stratmann, 
 O. Yazyev, A. J. Austin, R. Cammi, C. Pomelli, J. W. Ochterski, 
 R. L. Martin, K. Morokuma, V. G. Zakrzewski, G. A. Voth, 
 P. Salvador, J. J. Dannenberg, S. Dapprich, A. D. Daniels, 
 O. Farkas, J. B. Foresman, J. V. Ortiz, J. Cioslowski, 
 and D. J. Fox, Gaussian, Inc., Wallingford CT, 2013.
 
 ******************************************
 Gaussian 09:  EM64L-G09RevE.01 30-Nov-2015
                28-Aug-2021 
 ******************************************
 %nprocshared=64
 Will use up to   64 processors via shared memory.
 %mem=128GB
 %chk=TST_H2O_TPSSTPSS.chk
 -------------------------------------------------------------
 #p opt=(calcfc,qst3,MaxCycle=200,cartesian) freq TPSSTPSS/gen
 -------------------------------------------------------------
 1/5=1,6=200,10=4,14=-1,18=20,26=3,27=203,38=1/1,3;
 2/9=110,12=2,17=6,18=5,40=1/2;
 3/5=7,11=2,16=1,25=1,30=1,71=2,74=2523,140=1/1,2,3;
 4//1;
 5/5=2,38=5/2;
 8/6=4,10=90,11=11/1;
 11/6=1,8=1,9=11,15=111,16=1/1,2,10;
 10/6=1,13=1/2;
 6/7=2,8=2,9=2,10=2,28=1/1;
 7/10=1,18=20,25=1/1,2,3,16;
 1/5=1,6=200,10=4,14=-1,18=20,26=3,27=203/3(2);
 2/9=110/2;
 99//99;
 2/9=110/2;
 3/5=7,6=1,11=2,16=1,25=1,30=1,71=1,74=2523,82=7/1,2,3;
 4/5=5,16=3,69=1/1;
 5/5=2,38=5/2;
 7//1,2,3,16;
 1/5=1,6=200,14=-1,18=20,26=3,27=203/3(-5);
 2/9=110/2;
 6/7=2,8=2,9=2,10=2,19=2,28=1/1;
 99/9=1/99;
 Leave Link    1 at Sat Aug 28 13:43:15 2021, MaxMem= 17179869184 cpu:        10.4
 (Enter /public3/home/sc51754/softwares/g09e01/l101.exe)
 ----------------------------
 HY_H2O_TPSSTPSS_PC2_OPT_FREQ
 ----------------------------
 Symbolic Z-matrix:
 Charge =  0 Multiplicity = 1
 O                     1.25022   1.43288  -0.0048 
 N                     0.31189  -0.67964  -0.0068 
 C                     0.1547    0.6538   -0.00084 
 C                    -1.10966   1.26879   0.00879 
 C                    -0.79299  -1.44922  -0.00632 
 C                    -2.2308    0.45727   0.0104 
 C                    -2.08047  -0.93578   0.00234 
 H                     2.05756   0.84607  -0.01765 
 H                    -1.17606   2.35026   0.0129 
 H                    -0.61694  -2.52155  -0.01429 
 H                    -3.22095   0.90247   0.01674 
 H                    -2.93785  -1.59868   0.00176 
 O                     3.05195  -0.59925  -0.08665 
 H                     3.50544  -0.85823   0.72787 
 H                     2.14355  -1.00101  -0.03433 
 
 Add virtual bond connecting atoms O13        and H8         Dist= 3.32D+00.
 Add virtual bond connecting atoms H15        and N2         Dist= 3.51D+00.
 Add virtual bond connecting atoms H15        and H8         Dist= 3.49D+00.
 Add atom     13 valence  3 ND=      2 dihedral       8     13     14     15
 ----------------------------
 PY_H2O_TPSSTPSS_PC2_OPT_FREQ
 ----------------------------
 Symbolic Z-matrix:
 Charge =  0 Multiplicity = 1
 O                     1.28519   1.39688   0.00272 
 N                     0.26116  -0.6591    0.00907 
 C                     0.22129   0.74494   0.00508 
 C                    -1.10899   1.29471   0.00239 
 C                    -0.83265  -1.46478   0.00511 
 C                    -2.21388   0.48341  -0.00106 
 C                    -2.09185  -0.93009  -0.00052 
 H                     2.64872   0.27052  -0.05069 
 H                    -1.19038   2.37496   0.00049 
 H                    -0.635    -2.53045   0.00504 
 H                    -3.20435   0.92973  -0.00519 
 H                    -2.96011  -1.57572  -0.00506 
 O                     3.05723  -0.63582  -0.09138 
 H                     3.71621  -0.66045   0.61535 
 H                     1.21393  -1.05265   0.01985 
 
 Add virtual bond connecting atoms H8         and O1         Dist= 3.34D+00.
 Add virtual bond connecting atoms O13        and H15        Dist= 3.58D+00.
 ----------------
 TST_H2O_TPSSTPSS
 ----------------
 Symbolic Z-matrix:
 Charge =  0 Multiplicity = 1
 O                     1.40919   1.39613  -0.00871 
 N                     0.47086  -0.71639  -0.01071 
 C                     0.31366   0.61705  -0.00474 
 C                    -0.95069   1.23204   0.00488 
 C                    -0.63403  -1.48597  -0.01023 
 C                    -2.07183   0.42052   0.00649 
 C                    -1.9215   -0.97254  -0.00157 
 H                     2.09278   0.60058  -0.02722 
 H                    -1.0171    2.31351   0.00899 
 H                    -0.45798  -2.5583   -0.01819 
 H                    -3.06199   0.86572   0.01283 
 H                    -2.77888  -1.63543  -0.00215 
 O                     2.6988   -0.28026  -0.06927 
 H                     3.15229  -0.53924   0.74525 
 H                     1.7904   -0.68202  -0.01695 
 
 NAtoms=     15 NQM=       15 NQMF=       0 NMMI=      0 NMMIF=      0
                NMic=       0 NMicF=      0.
                    Isotopes and Nuclear Properties:
 (Nuclear quadrupole moments (NQMom) in fm**2, nuclear magnetic moments (NMagM)
  in nuclear magnetons)

  Atom         1           2           3           4           5           6           7           8           9          10
 IAtWgt=          16          14          12          12          12          12          12           1           1           1
 AtmWgt=  15.9949146  14.0030740  12.0000000  12.0000000  12.0000000  12.0000000  12.0000000   1.0078250   1.0078250   1.0078250
 NucSpn=           0           2           0           0           0           0           0           1           1           1
 AtZEff=   0.0000000   0.0000000   0.0000000   0.0000000   0.0000000   0.0000000   0.0000000   0.0000000   0.0000000   0.0000000
 NQMom=    0.0000000   2.0440000   0.0000000   0.0000000   0.0000000   0.0000000   0.0000000   0.0000000   0.0000000   0.0000000
 NMagM=    0.0000000   0.4037610   0.0000000   0.0000000   0.0000000   0.0000000   0.0000000   2.7928460   2.7928460   2.7928460
 AtZNuc=   8.0000000   7.0000000   6.0000000   6.0000000   6.0000000   6.0000000   6.0000000   1.0000000   1.0000000   1.0000000

  Atom        11          12          13          14          15
 IAtWgt=           1           1          16           1           1
 AtmWgt=   1.0078250   1.0078250  15.9949146   1.0078250   1.0078250
 NucSpn=           1           1           0           1           1
 AtZEff=   0.0000000   0.0000000   0.0000000   0.0000000   0.0000000
 NQMom=    0.0000000   0.0000000   0.0000000   0.0000000   0.0000000
 NMagM=    2.7928460   2.7928460   0.0000000   2.7928460   2.7928460
 AtZNuc=   1.0000000   1.0000000   8.0000000   1.0000000   1.0000000
 Leave Link  101 at Sat Aug 28 13:43:15 2021, MaxMem= 17179869184 cpu:         9.0
 (Enter /public3/home/sc51754/softwares/g09e01/l103.exe)

 GradGradGradGradGradGradGradGradGradGradGradGradGradGradGradGradGradGrad
 Berny optimization.
 Initialization pass.
                           ----------------------------
                           !    Initial Parameters    !
                           ! (Angstroms and Degrees)  !
 --------------------------                            --------------------------
 ! Name  Definition        TS        Reactant  Product Derivative Info.         !
 --------------------------------------------------------------------------------
 ! R1    R(1,3)             1.3443    1.3443    1.2478 calculate D2E/DX2 analyti!
 ! R2    R(1,8)             1.0491    0.9982    1.7694 calculate D2E/DX2 analyti!
 ! R3    R(2,3)             1.3427    1.3427    1.4046 calculate D2E/DX2 analyti!
 ! R4    R(2,5)             1.3465    1.3465    1.3585 calculate D2E/DX2 analyti!
 ! R5    R(2,15)            1.32      1.8598    1.0309 calculate D2E/DX2 analyti!
 ! R6    R(3,4)             1.406     1.406     1.4394 calculate D2E/DX2 analyti!
 ! R7    R(4,6)             1.384     1.384     1.3708 calculate D2E/DX2 analyti!
 ! R8    R(4,9)             1.0835    1.0835    1.0833 calculate D2E/DX2 analyti!
 ! R9    R(5,7)             1.3861    1.3861    1.368  calculate D2E/DX2 analyti!
 ! R10   R(5,10)            1.0867    1.0867    1.0839 calculate D2E/DX2 analyti!
 ! R11   R(6,7)             1.4012    1.4012    1.4187 calculate D2E/DX2 analyti!
 ! R12   R(6,11)            1.0857    1.0857    1.0864 calculate D2E/DX2 analyti!
 ! R13   R(7,12)            1.0838    1.0838    1.082  calculate D2E/DX2 analyti!
 ! R14   R(8,13)            1.07      1.7557    0.995  calculate D2E/DX2 analyti!
 ! R15   R(8,15)            1.3178    1.8491    1.953  calculate D2E/DX2 analyti!
 ! R16   R(13,14)           0.9676    0.9676    0.9666 calculate D2E/DX2 analyti!
 ! R17   R(13,15)           0.9947    0.9947    1.8931 calculate D2E/DX2 analyti!
 ! A1    A(3,1,8)          95.2552  108.5709  108.9365 calculate D2E/DX2 analyti!
 ! A2    A(3,2,5)         118.1342  118.1342  124.7473 calculate D2E/DX2 analyti!
 ! A3    A(3,2,15)         95.2324  106.6768  114.0705 calculate D2E/DX2 analyti!
 ! A4    A(5,2,15)        146.6333  135.1846  121.1817 calculate D2E/DX2 analyti!
 ! A5    A(1,3,2)         118.6936  118.6936  119.8726 calculate D2E/DX2 analyti!
 ! A6    A(1,3,4)         118.6435  118.6435  126.0464 calculate D2E/DX2 analyti!
 ! A7    A(2,3,4)         122.6628  122.6628  114.0809 calculate D2E/DX2 analyti!
 ! A8    A(3,4,6)         118.1629  118.1629  121.2566 calculate D2E/DX2 analyti!
 ! A9    A(3,4,9)         119.4528  119.4528  116.7626 calculate D2E/DX2 analyti!
 ! A10   A(6,4,9)         122.3842  122.3842  121.9806 calculate D2E/DX2 analyti!
 ! A11   A(2,5,7)         123.3997  123.3997  120.6183 calculate D2E/DX2 analyti!
 ! A12   A(2,5,10)        115.5337  115.5337  115.8677 calculate D2E/DX2 analyti!
 ! A13   A(7,5,10)        121.0666  121.0666  123.5139 calculate D2E/DX2 analyti!
 ! A14   A(4,6,7)         119.7382  119.7382  121.3549 calculate D2E/DX2 analyti!
 ! A15   A(4,6,11)        119.8913  119.8913  119.4537 calculate D2E/DX2 analyti!
 ! A16   A(7,6,11)        120.3705  120.3705  119.1914 calculate D2E/DX2 analyti!
 ! A17   A(5,7,6)         117.9021  117.9021  117.9415 calculate D2E/DX2 analyti!
 ! A18   A(5,7,12)        120.5473  120.5473  120.3591 calculate D2E/DX2 analyti!
 ! A19   A(6,7,12)        121.5505  121.5505  121.6993 calculate D2E/DX2 analyti!
 ! A20   A(1,8,13)        173.7352  160.488   153.8309 calculate D2E/DX2 analyti!
 ! A21   A(1,8,15)        126.0453  128.6795   82.1869 calculate D2E/DX2 analyti!
 ! A22   A(8,13,14)       116.9182  116.9182  105.8564 calculate D2E/DX2 analyti!
 ! A23   A(8,13,15)        79.2328   79.2328   78.3693 calculate D2E/DX2 analyti!
 ! A24   A(14,13,15)      106.0011  106.0011  127.9698 calculate D2E/DX2 analyti!
 ! A25   A(2,15,8)        104.7594   77.3773  114.8314 calculate D2E/DX2 analyti!
 ! A26   A(2,15,13)       157.4774  146.1426  144.6089 calculate D2E/DX2 analyti!
 ! D1    D(8,1,3,2)         0.6168    0.3385    1.9168 calculate D2E/DX2 analyti!
 ! D2    D(8,1,3,4)      -179.3549 -179.6332 -177.997  calculate D2E/DX2 analyti!
 ! D3    D(3,1,8,13)       11.5835    4.5966    1.3152 calculate D2E/DX2 analyti!
 ! D4    D(3,1,8,15)       -1.2113    0.0021   -2.3315 calculate D2E/DX2 analyti!
 ! D5    D(5,2,3,1)      -179.8274 -179.8274 -179.6521 calculate D2E/DX2 analyti!
 ! D6    D(5,2,3,4)         0.1431    0.1431    0.2716 calculate D2E/DX2 analyti!
 ! D7    D(15,2,3,1)        0.0836   -0.4769    0.6152 calculate D2E/DX2 analyti!
 ! D8    D(15,2,3,4)     -179.946   179.4935 -179.4611 calculate D2E/DX2 analyti!
 ! D9    D(3,2,5,7)        -0.1155   -0.1155   -0.1392 calculate D2E/DX2 analyti!
 ! D10   D(3,2,5,10)      179.8243  179.8243  179.7629 calculate D2E/DX2 analyti!
 ! D11   D(15,2,5,7)     -179.9542 -179.2327  179.5755 calculate D2E/DX2 analyti!
 ! D12   D(15,2,5,10)      -0.0145    0.7071   -0.5224 calculate D2E/DX2 analyti!
 ! D13   D(3,2,15,8)       -0.6213    0.328    -2.6479 calculate D2E/DX2 analyti!
 ! D14   D(3,2,15,13)      -7.4656   -4.1615   -6.7607 calculate D2E/DX2 analyti!
 ! D15   D(5,2,15,8)      179.2359  179.5153  177.6088 calculate D2E/DX2 analyti!
 ! D16   D(5,2,15,13)     172.3916  175.0258  173.496  calculate D2E/DX2 analyti!
 ! D17   D(1,3,4,6)       179.8873  179.8873  179.6842 calculate D2E/DX2 analyti!
 ! D18   D(1,3,4,9)        -0.0067   -0.0067   -0.1539 calculate D2E/DX2 analyti!
 ! D19   D(2,3,4,6)        -0.0831   -0.0831   -0.2339 calculate D2E/DX2 analyti!
 ! D20   D(2,3,4,9)      -179.9772 -179.9772  179.9279 calculate D2E/DX2 analyti!
 ! D21   D(3,4,6,7)        -0.0086   -0.0086    0.0758 calculate D2E/DX2 analyti!
 ! D22   D(3,4,6,11)     -179.9384 -179.9384 -179.8694 calculate D2E/DX2 analyti!
 ! D23   D(9,4,6,7)       179.8822  179.8822  179.9054 calculate D2E/DX2 analyti!
 ! D24   D(9,4,6,11)       -0.0477   -0.0477   -0.0398 calculate D2E/DX2 analyti!
 ! D25   D(2,5,7,6)         0.0281    0.0281   -0.0451 calculate D2E/DX2 analyti!
 ! D26   D(2,5,7,12)      179.9645  179.9645  179.9138 calculate D2E/DX2 analyti!
 ! D27   D(10,5,7,6)     -179.9085 -179.9085 -179.9394 calculate D2E/DX2 analyti!
 ! D28   D(10,5,7,12)       0.0279    0.0279    0.0195 calculate D2E/DX2 analyti!
 ! D29   D(4,6,7,5)         0.0345    0.0345    0.0726 calculate D2E/DX2 analyti!
 ! D30   D(4,6,7,12)     -179.9012 -179.9012 -179.8858 calculate D2E/DX2 analyti!
 ! D31   D(11,6,7,5)      179.964   179.964  -179.9821 calculate D2E/DX2 analyti!
 ! D32   D(11,6,7,12)       0.0283    0.0283    0.0596 calculate D2E/DX2 analyti!
 ! D33   D(1,8,13,14)    -116.5739 -109.3957 -130.2845 calculate D2E/DX2 analyti!
 ! D34   D(1,8,13,15)     -13.9743   -6.796    -3.8056 calculate D2E/DX2 analyti!
 ! D35   D(1,8,15,2)        1.413    -0.2223    3.0819 calculate D2E/DX2 analyti!
 ! D36   D(8,13,14,15)     85.8501   85.8501   87.4681 calculate D2E/DX2 analyti!
 ! D37   D(8,13,15,2)       8.3066    4.6973    7.4951 calculate D2E/DX2 analyti!
 ! D38   D(14,13,15,2)    123.4491  119.8398  108.6357 calculate D2E/DX2 analyti!
 --------------------------------------------------------------------------------
 Trust Radius=3.00D-01 FncErr=1.00D-07 GrdErr=1.00D-06
 Number of steps in this run=    100 maximum allowed number of steps=    100.
 Search for a saddle point of order  1.
 GradGradGradGradGradGradGradGradGradGradGradGradGradGradGradGradGradGrad

 Leave Link  103 at Sat Aug 28 13:43:16 2021, MaxMem= 17179869184 cpu:         3.2
 (Enter /public3/home/sc51754/softwares/g09e01/l202.exe)
                          Input orientation:                          
 ---------------------------------------------------------------------
 Center     Atomic      Atomic             Coordinates (Angstroms)
 Number     Number       Type             X           Y           Z
 ---------------------------------------------------------------------
      1          8           0        1.409186    1.396126   -0.008711
      2          7           0        0.470860   -0.716390   -0.010710
      3          6           0        0.313663    0.617048   -0.004744
      4          6           0       -0.950694    1.232037    0.004878
      5          6           0       -0.634028   -1.485969   -0.010226
      6          6           0       -2.071834    0.420516    0.006491
      7          6           0       -1.921504   -0.972535   -0.001566
      8          1           0        2.092779    0.600577   -0.027217
      9          1           0       -1.017097    2.313510    0.008989
     10          1           0       -0.457977   -2.558299   -0.018194
     11          1           0       -3.061988    0.865720    0.012829
     12          1           0       -2.778881   -1.635433   -0.002146
     13          8           0        2.698801   -0.280257   -0.069269
     14          1           0        3.152294   -0.539238    0.745254
     15          1           0        1.790398   -0.682017   -0.016947
 ---------------------------------------------------------------------
                    Distance matrix (angstroms):
                    1          2          3          4          5
     1  O    0.000000
     2  N    2.311533   0.000000
     3  C    1.344302   1.342685   0.000000
     4  C    2.365617   2.411934   1.406024   0.000000
     5  C    3.532874   1.346488   2.306692   2.736432   0.000000
     6  C    3.615183   2.785344   2.393605   1.384025   2.387939
     7  C    4.087065   2.406055   2.742764   2.408869   1.386104
     8  H    1.049066   2.089329   1.779334   3.108456   3.433575
     9  H    2.593985   3.375603   2.156176   1.083517   3.818789
    10  H    4.373084   2.062868   3.267788   3.822296   1.086715
    11  H    4.502576   3.871000   3.384844   2.142852   3.380231
    12  H    5.170135   3.377207   3.825899   3.400691   2.150070
    13  O    2.115900   2.270982   2.549157   3.951119   3.544711
    14  H    2.711553   2.791586   3.155522   4.529909   3.975334
    15  H    2.112834   1.320000   1.966841   3.343301   2.554256
                    6          7          8          9         10
     6  C    0.000000
     7  C    1.401162   0.000000
     8  H    4.168639   4.311589   0.000000
     9  H    2.167003   3.408248   3.550602   0.000000
    10  H    3.387991   2.157970   4.060164   4.903863   0.000000
    11  H    1.085657   2.163352   5.161736   2.505532   4.301830
    12  H    2.174147   1.083757   5.360358   4.324137   2.497706
    13  O    4.822424   4.672371   1.070000   4.532289   3.893241
    14  H    5.362687   5.146738   1.737373   5.105299   4.206366
    15  H    4.016586   3.723285   1.317796   4.105592   2.928417
                   11         12         13         14         15
    11  H    0.000000
    12  H    2.517169   0.000000
    13  O    5.874239   5.643226   0.000000
    14  H    6.413084   6.077753   0.967561   0.000000
    15  H    5.093331   4.667711   0.994658   1.567194   0.000000
 Stoichiometry    C5H7NO2
 Framework group  C1[X(C5H7NO2)]
 Deg. of freedom    39
 Full point group                 C1      NOp   1
 Largest Abelian subgroup         C1      NOp   1
 Largest concise Abelian subgroup C1      NOp   1
                         Standard orientation:                         
 ---------------------------------------------------------------------
 Center     Atomic      Atomic             Coordinates (Angstroms)
 Number     Number       Type             X           Y           Z
 ---------------------------------------------------------------------
      1          8           0        1.490894    1.209452   -0.010332
      2          7           0        0.309610   -0.777442   -0.012892
      3          6           0        0.311035    0.565214   -0.004052
      4          6           0       -0.871794    1.325210    0.010902
      5          6           0       -0.878436   -1.411134   -0.010046
      6          6           0       -2.080930    0.651786    0.014857
      7          6           0       -2.096221   -0.749249    0.003845
      8          1           0        2.075671    0.338774   -0.032536
      9          1           0       -0.809979    2.406945    0.017138
     10          1           0       -0.830304   -2.496732   -0.020492
     11          1           0       -3.011541    1.210807    0.025307
     12          1           0       -3.025893   -1.306239    0.004982
     13          8           0        2.573275   -0.607381   -0.078174
     14          1           0        2.995551   -0.919856    0.734364
     15          1           0        1.623945   -0.899147   -0.023504
 ---------------------------------------------------------------------
 Rotational constants (GHZ):      4.3543149      1.6651756      1.2081869
 Leave Link  202 at Sat Aug 28 13:43:16 2021, MaxMem= 17179869184 cpu:         4.6
 (Enter /public3/home/sc51754/softwares/g09e01/l301.exe)
 General basis read from cards:  (5D, 7F)
 Centers:       8      9     10     11     12     14     15
 S 4 1.00
     Exponent=  7.5423000000D+01 Coefficients=  2.4065000000D-03
     Exponent=  1.1350000000D+01 Coefficients=  1.8487000000D-02
     Exponent=  2.5993000000D+00 Coefficients=  8.9742000000D-02
     Exponent=  7.3513000000D-01 Coefficients=  2.8111000000D-01
 S 1 1.00
     Exponent=  2.3167000000D-01 Coefficients=  1.0000000000D+00
 S 1 1.00
     Exponent=  7.4147000000D-02 Coefficients=  1.0000000000D+00
 P 1 1.00
     Exponent=  1.6000000000D+00 Coefficients=  1.0000000000D+00
 P 1 1.00
     Exponent=  4.5000000000D-01 Coefficients=  1.0000000000D+00
 D 1 1.00
     Exponent=  1.2500000000D+00 Coefficients=  1.0000000000D+00
 ****
 Centers:       3      4      5      6      7
 S 7 1.00
     Exponent=  7.8571000000D+03 Coefficients=  5.6825000000D-04
     Exponent=  1.1787000000D+03 Coefficients=  4.3915000000D-03
     Exponent=  2.6832000000D+02 Coefficients=  2.2504000000D-02
     Exponent=  7.5948000000D+01 Coefficients=  8.6653000000D-02
     Exponent=  2.4559000000D+01 Coefficients=  2.4405000000D-01
     Exponent=  8.6212000000D+00 Coefficients=  4.4148000000D-01
     Exponent=  3.1278000000D+00 Coefficients=  3.5332000000D-01
 S 7 1.00
     Exponent=  1.1787000000D+03 Coefficients= -5.9492000000D-07
     Exponent=  2.6832000000D+02 Coefficients= -6.2748000000D-05
     Exponent=  7.5948000000D+01 Coefficients= -7.5773000000D-04
     Exponent=  2.4559000000D+01 Coefficients= -7.3308000000D-03
     Exponent=  8.6212000000D+00 Coefficients= -3.8932000000D-02
     Exponent=  3.1278000000D+00 Coefficients= -8.8908000000D-02
     Exponent=  8.2202000000D-01 Coefficients=  2.1689000000D-01
 S 1 1.00
     Exponent=  3.3017000000D-01 Coefficients=  1.0000000000D+00
 S 1 1.00
     Exponent=  1.1463000000D-01 Coefficients=  1.0000000000D+00
 P 4 1.00
     Exponent=  3.3775000000D+01 Coefficients=  6.0294000000D-03
     Exponent=  7.6766000000D+00 Coefficients=  4.3228000000D-02
     Exponent=  2.2357000000D+00 Coefficients=  1.6301000000D-01
     Exponent=  7.6447000000D-01 Coefficients=  3.6504000000D-01
 P 1 1.00
     Exponent=  2.6232000000D-01 Coefficients=  1.0000000000D+00
 P 1 1.00
     Exponent=  8.4638000000D-02 Coefficients=  1.0000000000D+00
 D 1 1.00
     Exponent=  1.4000000000D+00 Coefficients=  1.0000000000D+00
 D 1 1.00
     Exponent=  4.5000000000D-01 Coefficients=  1.0000000000D+00
 F 1 1.00
     Exponent=  9.5000000000D-01 Coefficients=  1.0000000000D+00
 ****
 Centers:       2
 S 7 1.00
     Exponent=  1.1101000000D+04 Coefficients=  5.4570000000D-04
     Exponent=  1.6653000000D+03 Coefficients=  4.2181000000D-03
     Exponent=  3.7908000000D+02 Coefficients=  2.1645000000D-02
     Exponent=  1.0730000000D+02 Coefficients=  8.3776000000D-02
     Exponent=  3.4747000000D+01 Coefficients=  2.3881000000D-01
     Exponent=  1.2249000000D+01 Coefficients=  4.3994000000D-01
     Exponent=  4.4743000000D+00 Coefficients=  3.6364000000D-01
 S 7 1.00
     Exponent=  1.6653000000D+03 Coefficients= -1.5006000000D-06
     Exponent=  3.7908000000D+02 Coefficients= -5.8753000000D-05
     Exponent=  1.0730000000D+02 Coefficients= -7.7453000000D-04
     Exponent=  3.4747000000D+01 Coefficients= -7.2161000000D-03
     Exponent=  1.2249000000D+01 Coefficients= -3.9338000000D-02
     Exponent=  4.4743000000D+00 Coefficients= -9.0611000000D-02
     Exponent=  1.2404000000D+00 Coefficients=  1.9882000000D-01
 S 1 1.00
     Exponent=  4.8743000000D-01 Coefficients=  1.0000000000D+00
 S 1 1.00
     Exponent=  1.6484000000D-01 Coefficients=  1.0000000000D+00
 P 4 1.00
     Exponent=  4.7934000000D+01 Coefficients=  6.1706000000D-03
     Exponent=  1.0999000000D+01 Coefficients=  4.4260000000D-02
     Exponent=  3.2472000000D+00 Coefficients=  1.6825000000D-01
     Exponent=  1.1114000000D+00 Coefficients=  3.6848000000D-01
 P 1 1.00
     Exponent=  3.7988000000D-01 Coefficients=  1.0000000000D+00
 P 1 1.00
     Exponent=  1.2068000000D-01 Coefficients=  1.0000000000D+00
 D 1 1.00
     Exponent=  1.8000000000D+00 Coefficients=  1.0000000000D+00
 D 1 1.00
     Exponent=  5.5000000000D-01 Coefficients=  1.0000000000D+00
 F 1 1.00
     Exponent=  1.0200000000D+00 Coefficients=  1.0000000000D+00
 ****
 Centers:       1     13
 S 7 1.00
     Exponent=  1.4782000000D+04 Coefficients=  5.3519000000D-04
     Exponent=  2.2173000000D+03 Coefficients=  4.1375000000D-03
     Exponent=  5.0474000000D+02 Coefficients=  2.1245000000D-02
     Exponent=  1.4287000000D+02 Coefficients=  8.2453000000D-02
     Exponent=  4.6300000000D+01 Coefficients=  2.3671000000D-01
     Exponent=  1.6337000000D+01 Coefficients=  4.4039000000D-01
     Exponent=  5.9828000000D+00 Coefficients=  3.6465000000D-01
 S 7 1.00
     Exponent=  2.2173000000D+03 Coefficients= -1.9275000000D-06
     Exponent=  5.0474000000D+02 Coefficients= -5.7964000000D-05
     Exponent=  1.4287000000D+02 Coefficients= -7.9494000000D-04
     Exponent=  4.6300000000D+01 Coefficients= -7.3125000000D-03
     Exponent=  1.6337000000D+01 Coefficients= -4.0574000000D-02
     Exponent=  5.9828000000D+00 Coefficients= -9.1594000000D-02
     Exponent=  1.6718000000D+00 Coefficients=  2.0940000000D-01
 S 1 1.00
     Exponent=  6.4662000000D-01 Coefficients=  1.0000000000D+00
 S 1 1.00
     Exponent=  2.1669000000D-01 Coefficients=  1.0000000000D+00
 P 4 1.00
     Exponent=  6.0424000000D+01 Coefficients=  6.8949000000D-03
     Exponent=  1.3935000000D+01 Coefficients=  4.9005000000D-02
     Exponent=  4.1531000000D+00 Coefficients=  1.8255000000D-01
     Exponent=  1.4158000000D+00 Coefficients=  3.7633000000D-01
 P 1 1.00
     Exponent=  4.7549000000D-01 Coefficients=  1.0000000000D+00
 P 1 1.00
     Exponent=  1.4529000000D-01 Coefficients=  1.0000000000D+00
 D 1 1.00
     Exponent=  2.2000000000D+00 Coefficients=  1.0000000000D+00
 D 1 1.00
     Exponent=  6.5000000000D-01 Coefficients=  1.0000000000D+00
 F 1 1.00
     Exponent=  1.1000000000D+00 Coefficients=  1.0000000000D+00
 ****
 Ernie: Thresh=  0.10000D-02 Tol=  0.10000D-05 Strict=F.
 Ernie:  8 primitive shells out of 263 were deleted.
 There are   385 symmetry adapted cartesian basis functions of A   symmetry.
 There are   338 symmetry adapted basis functions of A   symmetry.
   338 basis functions,   566 primitive gaussians,   385 cartesian basis functions
    30 alpha electrons       30 beta electrons
       nuclear repulsion energy       373.2240453916 Hartrees.
 IExCor= 2523 DFT=T Ex=TPSS Corr=TPSS ExCW=0 ScaHFX=  0.000000
 ScaDFX=  1.000000  1.000000  1.000000  1.000000 ScalE2=  1.000000  1.000000
 IRadAn=      0 IRanWt=     -1 IRanGd=            0 ICorTp=0 IEmpDi=  4
 NAtoms=   15 NActive=   15 NUniq=   15 SFac= 1.00D+00 NAtFMM=   60 NAOKFM=F Big=F
 Integral buffers will be    131072 words long.
 Raffenetti 2 integral format.
 Two-electron integral symmetry is turned on.
 Leave Link  301 at Sat Aug 28 13:43:16 2021, MaxMem= 17179869184 cpu:         3.0
 (Enter /public3/home/sc51754/softwares/g09e01/l302.exe)
 NPDir=0 NMtPBC=     1 NCelOv=     1 NCel=       1 NClECP=     1 NCelD=      1
         NCelK=      1 NCelE2=     1 NClLst=     1 CellRange=     0.0.
 One-electron integrals computed using PRISM.
 NBasis=   338 RedAO= T EigKep=  1.50D-04  NBF=   338
 NBsUse=   338 1.00D-06 EigRej= -1.00D+00 NBFU=   338
 Precomputing XC quadrature grid using
 IXCGrd= 4 IRadAn=           0 IRanWt=          -1 IRanGd=           0 AccXCQ= 0.00D+00.
 Generated NRdTot=       0 NPtTot=           0 NUsed=           0 NTot=          32
 NSgBfM=   385   385   385   385   385 MxSgAt=    15 MxSgA2=    15.
 Leave Link  302 at Sat Aug 28 13:43:19 2021, MaxMem= 17179869184 cpu:       114.2
 (Enter /public3/home/sc51754/softwares/g09e01/l303.exe)
 DipDrv:  MaxL=1.
 Leave Link  303 at Sat Aug 28 13:43:20 2021, MaxMem= 17179869184 cpu:        27.6
 (Enter /public3/home/sc51754/softwares/g09e01/l401.exe)
 ExpMin= 7.41D-02 ExpMax= 1.48D+04 ExpMxC= 5.05D+02 IAcc=2 IRadAn=         4 AccDes= 0.00D+00
 Harris functional with IExCor= 1009 and IRadAn=       4 diagonalized for initial guess.
 HarFok:  IExCor= 1009 AccDes= 0.00D+00 IRadAn=         4 IDoV= 1 UseB2=F ITyADJ=14
 ICtDFT=  3500011 ScaDFX=  1.000000  1.000000  1.000000  1.000000
 FoFCou: FMM=F IPFlag=           0 FMFlag=      100000 FMFlg1=           0
         NFxFlg=           0 DoJE=T BraDBF=F KetDBF=T FulRan=T
         wScrn=  0.000000 ICntrl=     500 IOpCl=  0 I1Cent=   200000004 NGrid=           0
         NMat0=    1 NMatS0=      1 NMatT0=    0 NMatD0=    1 NMtDS0=    0 NMtDT0=    0
 Petite list used in FoFCou.
 Harris En= -399.739730890002    
 JPrj=0 DoOrth=F DoCkMO=F.
 Leave Link  401 at Sat Aug 28 13:43:24 2021, MaxMem= 17179869184 cpu:       174.1
 (Enter /public3/home/sc51754/softwares/g09e01/l502.exe)
 Closed shell SCF:
 Using DIIS extrapolation, IDIIS=  1040.
 Integral symmetry usage will be decided dynamically.
 Keep J ints in memory in canonical form, NReq=1670404686.
 IVT=      490665 IEndB=      490665 NGot= 17179869184 MDV= 15538220534
 LenX= 15538220534 LenY= 15538071868
 Requested convergence on RMS density matrix=1.00D-08 within 128 cycles.
 Requested convergence on MAX density matrix=1.00D-06.
 Requested convergence on             energy=1.00D-06.
 No special actions if energy rises.
 FoFCou: FMM=F IPFlag=           0 FMFlag=           0 FMFlg1=           0
         NFxFlg=           0 DoJE=F BraDBF=F KetDBF=F FulRan=T
         wScrn=  0.000000 ICntrl=     600 IOpCl=  0 I1Cent=           0 NGrid=           0
         NMat0=    1 NMatS0=  57291 NMatT0=    0 NMatD0=    1 NMtDS0=    0 NMtDT0=    0
 Symmetry not used in FoFCou.
 Integral accuracy reduced to 1.0D-05 until final iterations.

 Cycle   1  Pass 0  IDiag  1:
 E= -399.910357412958    
 DIIS: error= 1.84D-02 at cycle   1 NSaved=   1.
 NSaved= 1 IEnMin= 1 EnMin= -399.910357412958     IErMin= 1 ErrMin= 1.84D-02
 ErrMax= 1.84D-02  0.00D+00 EMaxC= 1.00D-01 BMatC= 2.51D-01 BMatP= 2.51D-01
 IDIUse=3 WtCom= 8.16D-01 WtEn= 1.84D-01
 Coeff-Com:  0.100D+01
 Coeff-En:   0.100D+01
 Coeff:      0.100D+01
 Gap=     0.114 Goal=   None    Shift=    0.000
 GapD=    0.114 DampG=1.000 DampE=0.500 DampFc=0.5000 IDamp=-1.
 Damping current iteration by 5.00D-01
 RMSDP=3.78D-03 MaxDP=1.19D-01              OVMax= 2.85D-01

 Cycle   2  Pass 0  IDiag  1:
 E= -399.937273510197     Delta-E=       -0.026916097239 Rises=F Damp=T
 DIIS: error= 7.08D-03 at cycle   2 NSaved=   2.
 NSaved= 2 IEnMin= 2 EnMin= -399.937273510197     IErMin= 2 ErrMin= 7.08D-03
 ErrMax= 7.08D-03  0.00D+00 EMaxC= 1.00D-01 BMatC= 5.45D-02 BMatP= 2.51D-01
 IDIUse=3 WtCom= 9.29D-01 WtEn= 7.08D-02
 Coeff-Com:  0.272D+00 0.728D+00
 Coeff-En:   0.441D+00 0.559D+00
 Coeff:      0.284D+00 0.716D+00
 Gap=     0.194 Goal=   None    Shift=    0.000
 RMSDP=1.36D-03 MaxDP=4.84D-02 DE=-2.69D-02 OVMax= 2.76D-01

 Cycle   3  Pass 0  IDiag  1:
 E= -400.067380139413     Delta-E=       -0.130106629216 Rises=F Damp=F
 DIIS: error= 8.91D-03 at cycle   3 NSaved=   3.
 NSaved= 3 IEnMin= 3 EnMin= -400.067380139413     IErMin= 2 ErrMin= 7.08D-03
 ErrMax= 8.91D-03  0.00D+00 EMaxC= 1.00D-01 BMatC= 5.19D-02 BMatP= 5.45D-02
 IDIUse=3 WtCom= 9.11D-01 WtEn= 8.91D-02
 Coeff-Com:  0.116D+00 0.487D+00 0.397D+00
 Coeff-En:   0.000D+00 0.000D+00 0.100D+01
 Coeff:      0.105D+00 0.444D+00 0.451D+00
 Gap=     0.137 Goal=   None    Shift=    0.000
 RMSDP=7.48D-04 MaxDP=3.41D-02 DE=-1.30D-01 OVMax= 1.44D-01

 Cycle   4  Pass 0  IDiag  1:
 E= -400.103482131626     Delta-E=       -0.036101992212 Rises=F Damp=F
 DIIS: error= 4.98D-03 at cycle   4 NSaved=   4.
 NSaved= 4 IEnMin= 4 EnMin= -400.103482131626     IErMin= 4 ErrMin= 4.98D-03
 ErrMax= 4.98D-03  0.00D+00 EMaxC= 1.00D-01 BMatC= 1.34D-02 BMatP= 5.19D-02
 IDIUse=3 WtCom= 9.50D-01 WtEn= 4.98D-02
 Coeff-Com:  0.103D-01 0.128D+00 0.335D+00 0.526D+00
 Coeff-En:   0.000D+00 0.000D+00 0.259D+00 0.741D+00
 Coeff:      0.978D-02 0.122D+00 0.332D+00 0.537D+00
 Gap=     0.139 Goal=   None    Shift=    0.000
 RMSDP=2.98D-04 MaxDP=1.42D-02 DE=-3.61D-02 OVMax= 6.80D-02

 Cycle   5  Pass 0  IDiag  1:
 E= -400.114583838873     Delta-E=       -0.011101707247 Rises=F Damp=F
 DIIS: error= 1.56D-03 at cycle   5 NSaved=   5.
 NSaved= 5 IEnMin= 5 EnMin= -400.114583838873     IErMin= 5 ErrMin= 1.56D-03
 ErrMax= 1.56D-03  0.00D+00 EMaxC= 1.00D-01 BMatC= 1.05D-03 BMatP= 1.34D-02
 IDIUse=3 WtCom= 9.84D-01 WtEn= 1.56D-02
 Coeff-Com: -0.483D-02 0.286D-01 0.163D+00 0.339D+00 0.475D+00
 Coeff-En:   0.000D+00 0.000D+00 0.000D+00 0.456D-01 0.954D+00
 Coeff:     -0.475D-02 0.282D-01 0.160D+00 0.334D+00 0.482D+00
 Gap=     0.138 Goal=   None    Shift=    0.000
 RMSDP=9.96D-05 MaxDP=5.10D-03 DE=-1.11D-02 OVMax= 1.95D-02

 Cycle   6  Pass 0  IDiag  1:
 E= -400.115502596625     Delta-E=       -0.000918757753 Rises=F Damp=F
 DIIS: error= 8.62D-04 at cycle   6 NSaved=   6.
 NSaved= 6 IEnMin= 6 EnMin= -400.115502596625     IErMin= 6 ErrMin= 8.62D-04
 ErrMax= 8.62D-04  0.00D+00 EMaxC= 1.00D-01 BMatC= 1.19D-04 BMatP= 1.05D-03
 IDIUse=3 WtCom= 9.91D-01 WtEn= 8.62D-03
 Coeff-Com: -0.364D-02 0.364D-02 0.576D-01 0.138D+00 0.301D+00 0.504D+00
 Coeff-En:   0.000D+00 0.000D+00 0.000D+00 0.000D+00 0.116D+00 0.884D+00
 Coeff:     -0.361D-02 0.361D-02 0.571D-01 0.136D+00 0.299D+00 0.507D+00
 Gap=     0.138 Goal=   None    Shift=    0.000
 RMSDP=3.39D-05 MaxDP=2.00D-03 DE=-9.19D-04 OVMax= 7.40D-03

 Cycle   7  Pass 0  IDiag  1:
 E= -400.115612096992     Delta-E=       -0.000109500367 Rises=F Damp=F
 DIIS: error= 3.36D-04 at cycle   7 NSaved=   7.
 NSaved= 7 IEnMin= 7 EnMin= -400.115612096992     IErMin= 7 ErrMin= 3.36D-04
 ErrMax= 3.36D-04  0.00D+00 EMaxC= 1.00D-01 BMatC= 2.35D-05 BMatP= 1.19D-04
 IDIUse=3 WtCom= 9.97D-01 WtEn= 3.36D-03
 Coeff-Com: -0.188D-02-0.209D-03 0.231D-01 0.605D-01 0.160D+00 0.357D+00
 Coeff-Com:  0.402D+00
 Coeff-En:   0.000D+00 0.000D+00 0.000D+00 0.000D+00 0.000D+00 0.167D+00
 Coeff-En:   0.833D+00
 Coeff:     -0.187D-02-0.209D-03 0.230D-01 0.603D-01 0.159D+00 0.357D+00
 Coeff:      0.403D+00
 Gap=     0.138 Goal=   None    Shift=    0.000
 RMSDP=1.14D-05 MaxDP=5.50D-04 DE=-1.10D-04 OVMax= 2.18D-03

 Cycle   8  Pass 0  IDiag  1:
 E= -400.115636125954     Delta-E=       -0.000024028962 Rises=F Damp=F
 DIIS: error= 2.75D-05 at cycle   8 NSaved=   8.
 NSaved= 8 IEnMin= 8 EnMin= -400.115636125954     IErMin= 8 ErrMin= 2.75D-05
 ErrMax= 2.75D-05  0.00D+00 EMaxC= 1.00D-01 BMatC= 4.48D-07 BMatP= 2.35D-05
 IDIUse=1 WtCom= 1.00D+00 WtEn= 0.00D+00
 Coeff-Com: -0.180D-03-0.391D-03 0.299D-02 0.915D-02 0.335D-01 0.972D-01
 Coeff-Com:  0.163D+00 0.695D+00
 Coeff:     -0.180D-03-0.391D-03 0.299D-02 0.915D-02 0.335D-01 0.972D-01
 Coeff:      0.163D+00 0.695D+00
 Gap=     0.138 Goal=   None    Shift=    0.000
 RMSDP=2.26D-06 MaxDP=9.62D-05 DE=-2.40D-05 OVMax= 3.37D-04

 Initial convergence to 1.0D-05 achieved.  Increase integral accuracy.
 Cycle   9  Pass 1  IDiag  1:
 E= -400.115529889241     Delta-E=        0.000106236714 Rises=F Damp=F
 DIIS: error= 2.94D-05 at cycle   1 NSaved=   1.
 NSaved= 1 IEnMin= 1 EnMin= -400.115529889241     IErMin= 1 ErrMin= 2.94D-05
 ErrMax= 2.94D-05  0.00D+00 EMaxC= 1.00D-01 BMatC= 5.87D-07 BMatP= 5.87D-07
 IDIUse=1 WtCom= 1.00D+00 WtEn= 0.00D+00
 Coeff-Com:  0.100D+01
 Coeff:      0.100D+01
 Gap=     0.138 Goal=   None    Shift=    0.000
 RMSDP=2.26D-06 MaxDP=9.62D-05 DE= 1.06D-04 OVMax= 7.54D-04

 Cycle  10  Pass 1  IDiag  1:
 E= -400.115529261886     Delta-E=        0.000000627355 Rises=F Damp=F
 DIIS: error= 5.38D-05 at cycle   2 NSaved=   2.
 NSaved= 2 IEnMin= 1 EnMin= -400.115529889241     IErMin= 1 ErrMin= 2.94D-05
 ErrMax= 5.38D-05  0.00D+00 EMaxC= 1.00D-01 BMatC= 1.16D-06 BMatP= 5.87D-07
 IDIUse=1 WtCom= 1.00D+00 WtEn= 0.00D+00
 Coeff-Com:  0.607D+00 0.393D+00
 Coeff:      0.607D+00 0.393D+00
 Gap=     0.138 Goal=   None    Shift=    0.000
 RMSDP=3.48D-06 MaxDP=1.44D-04 DE= 6.27D-07 OVMax= 7.54D-04

 Cycle  11  Pass 1  IDiag  1:
 E= -400.115530264763     Delta-E=       -0.000001002877 Rises=F Damp=F
 DIIS: error= 2.40D-05 at cycle   3 NSaved=   3.
 NSaved= 3 IEnMin= 3 EnMin= -400.115530264763     IErMin= 3 ErrMin= 2.40D-05
 ErrMax= 2.40D-05  0.00D+00 EMaxC= 1.00D-01 BMatC= 1.92D-07 BMatP= 5.87D-07
 IDIUse=1 WtCom= 1.00D+00 WtEn= 0.00D+00
 Coeff-Com:  0.524D-01 0.282D+00 0.666D+00
 Coeff:      0.524D-01 0.282D+00 0.666D+00
 Gap=     0.138 Goal=   None    Shift=    0.000
 RMSDP=1.26D-06 MaxDP=5.22D-05 DE=-1.00D-06 OVMax= 2.44D-04

 Cycle  12  Pass 1  IDiag  1:
 E= -400.115530428921     Delta-E=       -0.000000164158 Rises=F Damp=F
 DIIS: error= 1.53D-05 at cycle   4 NSaved=   4.
 NSaved= 4 IEnMin= 4 EnMin= -400.115530428921     IErMin= 4 ErrMin= 1.53D-05
 ErrMax= 1.53D-05  0.00D+00 EMaxC= 1.00D-01 BMatC= 4.02D-08 BMatP= 1.92D-07
 IDIUse=1 WtCom= 1.00D+00 WtEn= 0.00D+00
 Coeff-Com: -0.126D-01 0.163D+00 0.460D+00 0.390D+00
 Coeff:     -0.126D-01 0.163D+00 0.460D+00 0.390D+00
 Gap=     0.138 Goal=   None    Shift=    0.000
 RMSDP=4.30D-07 MaxDP=2.54D-05 DE=-1.64D-07 OVMax= 7.98D-05

 Cycle  13  Pass 1  IDiag  1:
 E= -400.115530469633     Delta-E=       -0.000000040713 Rises=F Damp=F
 DIIS: error= 1.03D-06 at cycle   5 NSaved=   5.
 NSaved= 5 IEnMin= 5 EnMin= -400.115530469633     IErMin= 5 ErrMin= 1.03D-06
 ErrMax= 1.03D-06  0.00D+00 EMaxC= 1.00D-01 BMatC= 3.86D-10 BMatP= 4.02D-08
 IDIUse=1 WtCom= 1.00D+00 WtEn= 0.00D+00
 Coeff-Com: -0.762D-02 0.804D-01 0.228D+00 0.206D+00 0.494D+00
 Coeff:     -0.762D-02 0.804D-01 0.228D+00 0.206D+00 0.494D+00
 Gap=     0.138 Goal=   None    Shift=    0.000
 RMSDP=6.00D-08 MaxDP=2.38D-06 DE=-4.07D-08 OVMax= 7.77D-06

 Cycle  14  Pass 1  IDiag  1:
 E= -400.115530469920     Delta-E=       -0.000000000287 Rises=F Damp=F
 DIIS: error= 4.27D-07 at cycle   6 NSaved=   6.
 NSaved= 6 IEnMin= 6 EnMin= -400.115530469920     IErMin= 6 ErrMin= 4.27D-07
 ErrMax= 4.27D-07  0.00D+00 EMaxC= 1.00D-01 BMatC= 1.06D-10 BMatP= 3.86D-10
 IDIUse=1 WtCom= 1.00D+00 WtEn= 0.00D+00
 Coeff-Com: -0.363D-02 0.335D-01 0.949D-01 0.886D-01 0.342D+00 0.445D+00
 Coeff:     -0.363D-02 0.335D-01 0.949D-01 0.886D-01 0.342D+00 0.445D+00
 Gap=     0.138 Goal=   None    Shift=    0.000
 RMSDP=2.64D-08 MaxDP=1.68D-06 DE=-2.87D-10 OVMax= 4.94D-06

 Cycle  15  Pass 1  IDiag  1:
 E= -400.115530469989     Delta-E=       -0.000000000069 Rises=F Damp=F
 DIIS: error= 1.57D-07 at cycle   7 NSaved=   7.
 NSaved= 7 IEnMin= 7 EnMin= -400.115530469989     IErMin= 7 ErrMin= 1.57D-07
 ErrMax= 1.57D-07  0.00D+00 EMaxC= 1.00D-01 BMatC= 1.62D-11 BMatP= 1.06D-10
 IDIUse=1 WtCom= 1.00D+00 WtEn= 0.00D+00
 Coeff-Com: -0.118D-02 0.947D-02 0.265D-01 0.259D-01 0.154D+00 0.310D+00
 Coeff-Com:  0.476D+00
 Coeff:     -0.118D-02 0.947D-02 0.265D-01 0.259D-01 0.154D+00 0.310D+00
 Coeff:      0.476D+00
 Gap=     0.138 Goal=   None    Shift=    0.000
 RMSDP=1.11D-08 MaxDP=5.38D-07 DE=-6.89D-11 OVMax= 2.26D-06

 Cycle  16  Pass 1  IDiag  1:
 E= -400.115530470011     Delta-E=       -0.000000000022 Rises=F Damp=F
 DIIS: error= 5.58D-08 at cycle   8 NSaved=   8.
 NSaved= 8 IEnMin= 8 EnMin= -400.115530470011     IErMin= 8 ErrMin= 5.58D-08
 ErrMax= 5.58D-08  0.00D+00 EMaxC= 1.00D-01 BMatC= 1.45D-12 BMatP= 1.62D-11
 IDIUse=1 WtCom= 1.00D+00 WtEn= 0.00D+00
 Coeff-Com: -0.297D-03 0.191D-02 0.513D-02 0.535D-02 0.502D-01 0.132D+00
 Coeff-Com:  0.293D+00 0.513D+00
 Coeff:     -0.297D-03 0.191D-02 0.513D-02 0.535D-02 0.502D-01 0.132D+00
 Coeff:      0.293D+00 0.513D+00
 Gap=     0.138 Goal=   None    Shift=    0.000
 RMSDP=3.69D-09 MaxDP=2.33D-07 DE=-2.23D-11 OVMax= 8.11D-07

 SCF Done:  E(RTPSS-TPSS) =  -400.115530470     A.U. after   16 cycles
            NFock= 16  Conv=0.37D-08     -V/T= 2.0020
 KE= 3.993177653071D+02 PE=-1.682971829583D+03 EE= 5.103144884141D+02
 Leave Link  502 at Sat Aug 28 13:43:50 2021, MaxMem= 17179869184 cpu:       447.9
 (Enter /public3/home/sc51754/softwares/g09e01/l801.exe)
 Range of M.O.s used for correlation:     1   338
 NBasis=   338 NAE=    30 NBE=    30 NFC=     0 NFV=     0
 NROrb=    338 NOA=    30 NOB=    30 NVA=   308 NVB=   308

 **** Warning!!: The largest alpha MO coefficient is  0.17120479D+02

 Leave Link  801 at Sat Aug 28 13:43:50 2021, MaxMem= 17179869184 cpu:         1.0
 (Enter /public3/home/sc51754/softwares/g09e01/l1101.exe)
 Using compressed storage, NAtomX=    15.
 Will process     16 centers per pass.
 Leave Link 1101 at Sat Aug 28 13:43:52 2021, MaxMem= 17179869184 cpu:        79.5
 (Enter /public3/home/sc51754/softwares/g09e01/l1102.exe)
 Symmetrizing basis deriv contribution to polar:
 IMax=3 JMax=2 DiffMx= 0.00D+00
 Leave Link 1102 at Sat Aug 28 13:43:53 2021, MaxMem= 17179869184 cpu:        16.4
 (Enter /public3/home/sc51754/softwares/g09e01/l1110.exe)
 Forming Gx(P) for the SCF density, NAtomX=    15.
 Integral derivatives from FoFJK, PRISM(SPDF).
 Do as many integral derivatives as possible in FoFJK.
 G2DrvN: MDV=   17179868960.
 G2DrvN: will do    16 centers at a time, making    1 passes.
 Calling FoFCou, ICntrl=  3507 FMM=F I1Cent=   0 AccDes= 0.00D+00.
 FoFJK:  IHMeth= 1 ICntrl=    3507 DoSepK=F KAlg= 0 I1Cent=   0 FoldK=F
 IRaf=         0 NMat=   1 IRICut=       1 DoRegI=T DoRafI=F ISym2E= 0.
 FoFCou: FMM=F IPFlag=           0 FMFlag=      100000 FMFlg1=           0
         NFxFlg=           0 DoJE=F BraDBF=F KetDBF=F FulRan=T
         wScrn=  0.000000 ICntrl=    3507 IOpCl=  0 I1Cent=           0 NGrid=           0
         NMat0=    1 NMatS0=      1 NMatT0=    0 NMatD0=    1 NMtDS0=    0 NMtDT0=    0
 Symmetry not used in FoFCou.
 End of G2Drv F.D. properties file   721 does not exist.
 End of G2Drv F.D. properties file   722 does not exist.
 End of G2Drv F.D. properties file   788 does not exist.
 Leave Link 1110 at Sat Aug 28 13:44:09 2021, MaxMem= 17179869184 cpu:       959.2
 (Enter /public3/home/sc51754/softwares/g09e01/l1002.exe)
 Minotr:  Closed shell wavefunction.
          IDoAtm=111111111111111
          Direct CPHF calculation.
          Differentiating once with respect to nuclear coordinates.
          Requested convergence is 1.0D-08 RMS, and 1.0D-07 maximum.
          Secondary convergence is 1.0D-12 RMS, and 1.0D-12 maximum.
          NewPWx=T KeepS1=F KeepF1=F KeepIn=T MapXYZ=F SortEE=F KeepMc=T.
          MDV=   17179868692 using IRadAn=       2.
 Generate precomputed XC quadrature information.
 Keep J ints in memory in canonical form, NReq=1669919891.
 FoFCou: FMM=F IPFlag=           0 FMFlag=           0 FMFlg1=           0
         NFxFlg=           0 DoJE=F BraDBF=F KetDBF=F FulRan=T
         wScrn=  0.000000 ICntrl=     600 IOpCl=  0 I1Cent=           0 NGrid=           0
         NMat0=    1 NMatS0=  57291 NMatT0=    0 NMatD0=    1 NMtDS0=    0 NMtDT0=    0
 Symmetry not used in FoFCou.
          Solving linear equations simultaneously, MaxMat=       0.
          There are    48 degrees of freedom in the 1st order CPHF.  IDoFFX=6 NUNeed=     0.
     42 vectors produced by pass  0 Test12= 1.92D-14 2.08D-09 XBig12= 1.71D-01 1.50D-01.
 AX will form    42 AO Fock derivatives at one time.
     42 vectors produced by pass  1 Test12= 1.92D-14 2.08D-09 XBig12= 7.01D-02 5.90D-02.
     42 vectors produced by pass  2 Test12= 1.92D-14 2.08D-09 XBig12= 4.24D-04 2.41D-03.
     42 vectors produced by pass  3 Test12= 1.92D-14 2.08D-09 XBig12= 2.84D-06 1.44D-04.
     42 vectors produced by pass  4 Test12= 1.92D-14 2.08D-09 XBig12= 2.43D-09 5.63D-06.
     26 vectors produced by pass  5 Test12= 1.92D-14 2.08D-09 XBig12= 2.13D-12 9.14D-08.
      3 vectors produced by pass  6 Test12= 1.92D-14 2.08D-09 XBig12= 2.35D-15 3.62D-09.
 InvSVY:  IOpt=1 It=  1 EMax= 1.89D-15
 Solved reduced A of dimension   239 with    42 vectors.
 End of Minotr F.D. properties file   721 does not exist.
 End of Minotr F.D. properties file   722 does not exist.
 End of Minotr F.D. properties file   788 does not exist.
 Leave Link 1002 at Sat Aug 28 13:44:33 2021, MaxMem= 17179869184 cpu:      1468.2
 (Enter /public3/home/sc51754/softwares/g09e01/l601.exe)
 Copying SCF densities to generalized density rwf, IOpCl= 0 IROHF=0.

 **********************************************************************

            Population analysis using the SCF density.

 **********************************************************************

 Orbital symmetries:
       Occupied  (A) (A) (A) (A) (A) (A) (A) (A) (A) (A) (A) (A)
                 (A) (A) (A) (A) (A) (A) (A) (A) (A) (A) (A) (A)
                 (A) (A) (A) (A) (A) (A)
       Virtual   (A) (A) (A) (A) (A) (A) (A) (A) (A) (A) (A) (A)
                 (A) (A) (A) (A) (A) (A) (A) (A) (A) (A) (A) (A)
                 (A) (A) (A) (A) (A) (A) (A) (A) (A) (A) (A) (A)
                 (A) (A) (A) (A) (A) (A) (A) (A) (A) (A) (A) (A)
                 (A) (A) (A) (A) (A) (A) (A) (A) (A) (A) (A) (A)
                 (A) (A) (A) (A) (A) (A) (A) (A) (A) (A) (A) (A)
                 (A) (A) (A) (A) (A) (A) (A) (A) (A) (A) (A) (A)
                 (A) (A) (A) (A) (A) (A) (A) (A) (A) (A) (A) (A)
                 (A) (A) (A) (A) (A) (A) (A) (A) (A) (A) (A) (A)
                 (A) (A) (A) (A) (A) (A) (A) (A) (A) (A) (A) (A)
                 (A) (A) (A) (A) (A) (A) (A) (A) (A) (A) (A) (A)
                 (A) (A) (A) (A) (A) (A) (A) (A) (A) (A) (A) (A)
                 (A) (A) (A) (A) (A) (A) (A) (A) (A) (A) (A) (A)
                 (A) (A) (A) (A) (A) (A) (A) (A) (A) (A) (A) (A)
                 (A) (A) (A) (A) (A) (A) (A) (A) (A) (A) (A) (A)
                 (A) (A) (A) (A) (A) (A) (A) (A) (A) (A) (A) (A)
                 (A) (A) (A) (A) (A) (A) (A) (A) (A) (A) (A) (A)
                 (A) (A) (A) (A) (A) (A) (A) (A) (A) (A) (A) (A)
                 (A) (A) (A) (A) (A) (A) (A) (A) (A) (A) (A) (A)
                 (A) (A) (A) (A) (A) (A) (A) (A) (A) (A) (A) (A)
                 (A) (A) (A) (A) (A) (A) (A) (A) (A) (A) (A) (A)
                 (A) (A) (A) (A) (A) (A) (A) (A) (A) (A) (A) (A)
                 (A) (A) (A) (A) (A) (A) (A) (A) (A) (A) (A) (A)
                 (A) (A) (A) (A) (A) (A) (A) (A) (A) (A) (A) (A)
                 (A) (A) (A) (A) (A) (A) (A) (A) (A) (A) (A) (A)
                 (A) (A) (A) (A) (A) (A) (A) (A)
 The electronic state is 1-A.
 Alpha  occ. eigenvalues --  -18.88429 -18.85310 -14.11363 -10.07679 -10.03972
 Alpha  occ. eigenvalues --  -10.01349  -9.99928  -9.99670  -1.03515  -0.94203
 Alpha  occ. eigenvalues --   -0.88300  -0.75751  -0.70200  -0.61323  -0.57685
 Alpha  occ. eigenvalues --   -0.53736  -0.50854  -0.45784  -0.44192  -0.42309
 Alpha  occ. eigenvalues --   -0.40082  -0.38862  -0.36557  -0.34906  -0.33501
 Alpha  occ. eigenvalues --   -0.30348  -0.27412  -0.26400  -0.23743  -0.20633
 Alpha virt. eigenvalues --   -0.06829  -0.03327   0.00272   0.01516   0.03393
 Alpha virt. eigenvalues --    0.05144   0.07125   0.09338   0.09844   0.11429
 Alpha virt. eigenvalues --    0.13883   0.14808   0.15795   0.16764   0.17756
 Alpha virt. eigenvalues --    0.18418   0.19402   0.20384   0.21948   0.23153
 Alpha virt. eigenvalues --    0.24750   0.25728   0.26884   0.27059   0.28247
 Alpha virt. eigenvalues --    0.28475   0.29702   0.29787   0.31864   0.32597
 Alpha virt. eigenvalues --    0.33954   0.35100   0.37043   0.38671   0.39897
 Alpha virt. eigenvalues --    0.41010   0.42307   0.42819   0.44254   0.48169
 Alpha virt. eigenvalues --    0.50066   0.50817   0.52303   0.54251   0.55462
 Alpha virt. eigenvalues --    0.56310   0.59158   0.59659   0.61248   0.61504
 Alpha virt. eigenvalues --    0.62568   0.65108   0.68545   0.70334   0.72719
 Alpha virt. eigenvalues --    0.73882   0.74297   0.77338   0.79785   0.81532
 Alpha virt. eigenvalues --    0.84582   0.88151   0.88776   0.90317   0.90889
 Alpha virt. eigenvalues --    0.93125   0.94469   0.95580   0.99519   1.03159
 Alpha virt. eigenvalues --    1.04348   1.06210   1.06860   1.10444   1.10658
 Alpha virt. eigenvalues --    1.12068   1.12744   1.14691   1.15558   1.17722
 Alpha virt. eigenvalues --    1.20106   1.21747   1.22537   1.23473   1.26103
 Alpha virt. eigenvalues --    1.28158   1.30074   1.31916   1.35275   1.37636
 Alpha virt. eigenvalues --    1.38593   1.42490   1.46161   1.46801   1.47033
 Alpha virt. eigenvalues --    1.48832   1.50044   1.53133   1.56142   1.57352
 Alpha virt. eigenvalues --    1.59372   1.59879   1.61265   1.65023   1.66044
 Alpha virt. eigenvalues --    1.67567   1.68949   1.71776   1.73020   1.78698
 Alpha virt. eigenvalues --    1.80107   1.81344   1.83379   1.84807   1.85915
 Alpha virt. eigenvalues --    1.86688   1.91143   1.91697   1.95988   1.98661
 Alpha virt. eigenvalues --    2.00260   2.03467   2.05084   2.07502   2.11786
 Alpha virt. eigenvalues --    2.15107   2.16323   2.18304   2.20970   2.22228
 Alpha virt. eigenvalues --    2.23278   2.26139   2.27100   2.28886   2.33211
 Alpha virt. eigenvalues --    2.38996   2.54030   2.57247   2.63129   2.73416
 Alpha virt. eigenvalues --    2.81186   2.83046   2.91745   2.92666   2.94075
 Alpha virt. eigenvalues --    3.10332   3.12034   3.17312   3.18483   3.22515
 Alpha virt. eigenvalues --    3.24333   3.26570   3.26971   3.29882   3.32863
 Alpha virt. eigenvalues --    3.33836   3.36718   3.38591   3.42509   3.44221
 Alpha virt. eigenvalues --    3.45738   3.46693   3.51669   3.52987   3.57962
 Alpha virt. eigenvalues --    3.59656   3.60896   3.61427   3.65573   3.67212
 Alpha virt. eigenvalues --    3.68898   3.71180   3.74356   3.76504   3.79673
 Alpha virt. eigenvalues --    3.81148   3.84677   3.87228   3.89076   3.91166
 Alpha virt. eigenvalues --    3.92290   3.93022   3.96331   3.98130   4.01837
 Alpha virt. eigenvalues --    4.03905   4.04554   4.06856   4.07917   4.09746
 Alpha virt. eigenvalues --    4.12526   4.13640   4.14589   4.15672   4.18139
 Alpha virt. eigenvalues --    4.19037   4.20612   4.21218   4.22762   4.24525
 Alpha virt. eigenvalues --    4.26401   4.27089   4.28772   4.29532   4.31123
 Alpha virt. eigenvalues --    4.32928   4.35382   4.38190   4.39037   4.39841
 Alpha virt. eigenvalues --    4.41226   4.42156   4.43403   4.45352   4.46040
 Alpha virt. eigenvalues --    4.48362   4.50342   4.51635   4.53751   4.56725
 Alpha virt. eigenvalues --    4.58187   4.60973   4.63330   4.64914   4.66238
 Alpha virt. eigenvalues --    4.67529   4.71600   4.74586   4.75126   4.77779
 Alpha virt. eigenvalues --    4.80427   4.82205   4.83735   4.84702   4.86624
 Alpha virt. eigenvalues --    4.91553   4.94053   4.95468   4.96595   5.00890
 Alpha virt. eigenvalues --    5.05913   5.09369   5.11917   5.12896   5.13773
 Alpha virt. eigenvalues --    5.19746   5.22037   5.23479   5.25989   5.28821
 Alpha virt. eigenvalues --    5.32494   5.33717   5.34831   5.36819   5.38739
 Alpha virt. eigenvalues --    5.39458   5.43717   5.46758   5.47565   5.48575
 Alpha virt. eigenvalues --    5.54230   5.57759   5.59772   5.61840   5.65329
 Alpha virt. eigenvalues --    5.66186   5.69287   5.73928   5.79710   5.88770
 Alpha virt. eigenvalues --    5.90044   5.92418   5.97332   6.01017   6.09008
 Alpha virt. eigenvalues --    6.13000   6.19616   6.21490   6.26063   6.27341
 Alpha virt. eigenvalues --    6.34757   6.37779   6.42503   6.44523   6.50638
 Alpha virt. eigenvalues --    6.54624   6.61145   6.67109   6.72472   6.77925
 Alpha virt. eigenvalues --    6.81249   6.90186   7.03552   7.11768   7.19525
 Alpha virt. eigenvalues --    7.26718   7.49790   7.51782   7.65842   7.95054
 Alpha virt. eigenvalues --    9.47817  12.51588  13.16366  16.13036  18.22035
 Alpha virt. eigenvalues --   18.85892  22.57767  23.58948
          Condensed to atoms (all electrons):
               1          2          3          4          5          6
     1  O    8.161681  -0.086882   0.353001  -0.073252   0.004984   0.007787
     2  N   -0.086882   6.797899   0.370387  -0.018111   0.503594  -0.030778
     3  C    0.353001   0.370387   4.493141   0.524053  -0.075276  -0.060213
     4  C   -0.073252  -0.018111   0.524053   4.821421  -0.039545   0.535889
     5  C    0.004984   0.503594  -0.075276  -0.039545   4.565697  -0.070561
     6  C    0.007787  -0.030778  -0.060213   0.535889  -0.070561   4.708479
     7  C    0.000588  -0.032539  -0.039069  -0.053941   0.550497   0.499788
     8  H    0.281402   0.001395  -0.017030   0.004983  -0.002323  -0.000923
     9  H    0.005704   0.007984  -0.031076   0.426253  -0.001736  -0.032844
    10  H   -0.000655  -0.039792   0.002884  -0.002557   0.423624   0.007929
    11  H   -0.000618  -0.001589   0.007401  -0.028518   0.006736   0.413616
    12  H    0.000066   0.006474  -0.001211   0.005630  -0.022789  -0.030729
    13  O   -0.212519  -0.155107  -0.011974  -0.000548  -0.001158   0.000893
    14  H    0.009761   0.007739   0.002408   0.000891  -0.000182  -0.000119
    15  H    0.009363   0.118374  -0.008054   0.002829  -0.000912  -0.001846
               7          8          9         10         11         12
     1  O    0.000588   0.281402   0.005704  -0.000655  -0.000618   0.000066
     2  N   -0.032539   0.001395   0.007984  -0.039792  -0.001589   0.006474
     3  C   -0.039069  -0.017030  -0.031076   0.002884   0.007401  -0.001211
     4  C   -0.053941   0.004983   0.426253  -0.002557  -0.028518   0.005630
     5  C    0.550497  -0.002323  -0.001736   0.423624   0.006736  -0.022789
     6  C    0.499788  -0.000923  -0.032844   0.007929   0.413616  -0.030729
     7  C    4.880691   0.000649   0.006809  -0.053656  -0.035099   0.417464
     8  H    0.000649   0.397850   0.000912   0.000201  -0.000071  -0.000038
     9  H    0.006809   0.000912   0.577588   0.000258  -0.006666  -0.000422
    10  H   -0.053656   0.000201   0.000258   0.606557  -0.000724  -0.002271
    11  H   -0.035099  -0.000071  -0.006666  -0.000724   0.603193  -0.005793
    12  H    0.417464  -0.000038  -0.000422  -0.002271  -0.005793   0.600035
    13  O   -0.002010   0.205320   0.000445   0.001024  -0.000028   0.000057
    14  H    0.000276  -0.016209  -0.000041  -0.000269   0.000007  -0.000010
    15  H    0.002080  -0.025427  -0.000439  -0.002262   0.000179  -0.000104
              13         14         15
     1  O   -0.212519   0.009761   0.009363
     2  N   -0.155107   0.007739   0.118374
     3  C   -0.011974   0.002408  -0.008054
     4  C   -0.000548   0.000891   0.002829
     5  C   -0.001158  -0.000182  -0.000912
     6  C    0.000893  -0.000119  -0.001846
     7  C   -0.002010   0.000276   0.002080
     8  H    0.205320  -0.016209  -0.025427
     9  H    0.000445  -0.000041  -0.000439
    10  H    0.001024  -0.000269  -0.002262
    11  H   -0.000028   0.000007   0.000179
    12  H    0.000057  -0.000010  -0.000104
    13  O    7.817021   0.343684   0.312669
    14  H    0.343684   0.442797  -0.014759
    15  H    0.312669  -0.014759   0.438621
 Mulliken charges:
               1
     1  O   -0.460410
     2  N   -0.449046
     3  C    0.490628
     4  C   -0.105477
     5  C    0.159351
     6  C    0.053631
     7  C   -0.142529
     8  H    0.169308
     9  H    0.047270
    10  H    0.059710
    11  H    0.047975
    12  H    0.033642
    13  O   -0.297768
    14  H    0.224026
    15  H    0.169687
 Sum of Mulliken charges =  -0.00000
 Mulliken charges with hydrogens summed into heavy atoms:
               1
     1  O   -0.291102
     2  N   -0.449046
     3  C    0.490628
     4  C   -0.058207
     5  C    0.219061
     6  C    0.101606
     7  C   -0.108887
    13  O    0.095946
 APT charges:
               1
     1  O   -0.273294
     2  N   -0.503932
     3  C    0.138871
     4  C   -0.514608
     5  C   -0.306899
     6  C   -0.377462
     7  C   -0.525772
     8  H    0.074763
     9  H    0.469665
    10  H    0.470880
    11  H    0.601577
    12  H    0.618703
    13  O   -0.522284
    14  H    0.673606
    15  H   -0.023812
 Sum of APT charges =  -0.00000
 APT charges with hydrogens summed into heavy atoms:
               1
     1  O   -0.198531
     2  N   -0.503932
     3  C    0.138871
     4  C   -0.044943
     5  C    0.163981
     6  C    0.224114
     7  C    0.092932
    13  O    0.127509
 Electronic spatial extent (au):  <R**2>=            943.8729
 Charge=             -0.0000 electrons
 Dipole moment (field-independent basis, Debye):
    X=             -1.7695    Y=             -1.8457    Z=              1.3731  Tot=              2.9023
 Quadrupole moment (field-independent basis, Debye-Ang):
   XX=            -42.8872   YY=            -45.3851   ZZ=            -48.6643
   XY=             -4.2455   XZ=              4.6239   YZ=             -1.4509
 Traceless Quadrupole moment (field-independent basis, Debye-Ang):
   XX=              2.7583   YY=              0.2605   ZZ=             -3.0188
   XY=             -4.2455   XZ=              4.6239   YZ=             -1.4509
 Octapole moment (field-independent basis, Debye-Ang**2):
  XXX=             11.6532  YYY=             -6.5068  ZZZ=              1.1303  XYY=             -3.3112
  XXY=             -7.7233  XXZ=             14.7626  XZZ=             12.8821  YZZ=             -0.9519
  YYZ=              1.4973  XYZ=             -4.7926
 Hexadecapole moment (field-independent basis, Debye-Ang**3):
 XXXX=           -726.5310 YYYY=           -329.8393 ZZZZ=            -52.7302 XXXY=            -22.7934
 XXXZ=             46.7303 YYYX=            -12.3792 YYYZ=             -1.6439 ZZZX=              4.6883
 ZZZY=             -1.6786 XXYY=           -185.9426 XXZZ=           -143.9313 YYZZ=            -72.5906
 XXYZ=            -14.3569 YYXZ=              5.0676 ZZXY=             -4.2708
 N-N= 3.732240453916D+02 E-N=-1.682971824287D+03  KE= 3.993177653071D+02
  Exact polarizability:   0.000   0.000   0.000   0.000   0.000   0.000
 Approx polarizability: 190.195  15.090 169.722   1.271  -0.859  72.987
 No NMR shielding tensors so no spin-rotation constants.
 Leave Link  601 at Sat Aug 28 13:44:34 2021, MaxMem= 17179869184 cpu:        58.3
 (Enter /public3/home/sc51754/softwares/g09e01/l701.exe)
 Compute integral second derivatives.
 ... and contract with generalized density number  0.
 Leave Link  701 at Sat Aug 28 13:44:35 2021, MaxMem= 17179869184 cpu:        57.3
 (Enter /public3/home/sc51754/softwares/g09e01/l702.exe)
 L702 exits ... SP integral derivatives will be done elsewhere.
 Leave Link  702 at Sat Aug 28 13:44:35 2021, MaxMem= 17179869184 cpu:         0.3
 (Enter /public3/home/sc51754/softwares/g09e01/l703.exe)
 Compute integral second derivatives, UseDBF=F ICtDFT=           0.
 Integral derivatives from FoFJK, PRISM(SPDF).
 Calling FoFJK, ICntrl=    100547 FMM=F ISym2X=0 I1Cent= 0 IOpClX= 0 NMat=1 NMatS=1 NMatT=0.
 FoFJK:  IHMeth= 1 ICntrl=  100547 DoSepK=F KAlg= 0 I1Cent=   0 FoldK=F
 IRaf=         0 NMat=   1 IRICut=       1 DoRegI=T DoRafI=F ISym2E= 0.
 FoFCou: FMM=F IPFlag=           0 FMFlag=      100000 FMFlg1=         800
         NFxFlg=           0 DoJE=F BraDBF=F KetDBF=F FulRan=T
         wScrn=  0.000000 ICntrl=  100547 IOpCl=  0 I1Cent=           0 NGrid=           0
         NMat0=    1 NMatS0=      1 NMatT0=    0 NMatD0=    1 NMtDS0=    0 NMtDT0=    0
 Symmetry not used in FoFCou.
 Leave Link  703 at Sat Aug 28 13:44:59 2021, MaxMem= 17179869184 cpu:      1467.1
 (Enter /public3/home/sc51754/softwares/g09e01/l716.exe)
 Dipole        =-6.96190573D-01-7.26154644D-01 5.40229344D-01
 Polarizability= 0.00000000D+00 0.00000000D+00 0.00000000D+00
                 0.00000000D+00 0.00000000D+00 0.00000000D+00
 ***** Axes restored to original set *****
 -------------------------------------------------------------------
 Center     Atomic                   Forces (Hartrees/Bohr)
 Number     Number              X              Y              Z
 -------------------------------------------------------------------
      1        8          -0.082626074    0.037642667    0.000027736
      2        7          -0.046407523   -0.003842630    0.001181379
      3        6          -0.001328509    0.048696811    0.000394087
      4        6          -0.012660567   -0.006180090    0.000047018
      5        6          -0.005207245   -0.006171352    0.000020808
      6        6           0.001516086    0.007052294    0.000001475
      7        6           0.004443652   -0.004720406   -0.000062924
      8        1           0.025483407    0.061417350    0.005478234
      9        1           0.001177299   -0.000684508   -0.000003405
     10        1           0.000012756    0.000095522   -0.000023925
     11        1          -0.000596192   -0.000299145   -0.000013193
     12        1           0.000666656   -0.000363144   -0.000021762
     13        8           0.133197788   -0.077531077   -0.004319608
     14        1           0.004527938    0.002223636   -0.000586388
     15        1          -0.022199474   -0.057335927   -0.002119530
 -------------------------------------------------------------------
 Cartesian Forces:  Max     0.133197788 RMS     0.031686376
 FormGI is forming the generalized inverse of G from B-inverse, IUseBI=4.
 Leave Link  716 at Sat Aug 28 13:45:00 2021, MaxMem= 17179869184 cpu:         7.2
 (Enter /public3/home/sc51754/softwares/g09e01/l103.exe)

 GradGradGradGradGradGradGradGradGradGradGradGradGradGradGradGradGradGrad
 Berny optimization.
 Red2BG is reusing G-inverse.
 Internal  Forces:  Max     0.091854954 RMS     0.019903941
 Search for a saddle point.
 Step number   1 out of a maximum of  100
 All quantities printed in internal units (Hartrees-Bohrs-Radians)
 Second derivative matrix not updated -- analytic derivatives used.
 ITU=  0
 LST/QST climbing along tangent vector
     Eigenvalues ---    0.00105   0.00207   0.00460   0.00743   0.01119
     Eigenvalues ---    0.01663   0.01787   0.02069   0.02277   0.02618
     Eigenvalues ---    0.02932   0.03269   0.04017   0.06129   0.07533
     Eigenvalues ---    0.08956   0.10073   0.10402   0.11915   0.12141
     Eigenvalues ---    0.12846   0.14393   0.19048   0.19427   0.21553
     Eigenvalues ---    0.27058   0.31249   0.34328   0.34958   0.35415
     Eigenvalues ---    0.35597   0.37371   0.40245   0.42777   0.43730
     Eigenvalues ---    0.46381   0.49907   0.50845   0.515941000.00000
     Eigenvalues --- 1000.000001000.000001000.000001000.000001000.00000
     Eigenvalues --- 1000.000001000.000001000.000001000.000001000.00000
     Eigenvalues --- 1000.000001000.000001000.000001000.000001000.00000
     Eigenvalues --- 1000.000001000.000001000.000001000.000001000.00000
     Eigenvalues --- 1000.000001000.000001000.000001000.000001000.00000
     Eigenvalues --- 1000.000001000.000001000.000001000.000001000.00000
     Eigenvalues --- 1000.000001000.000001000.000001000.000001000.00000
     Eigenvalues --- 1000.000001000.000001000.000001000.000001000.00000
     Eigenvalues --- 1000.00000
 Eigenvectors required to have negative eigenvalues:
                          D33       D34       D3        D38       D37
   1                    0.57490   0.56943  -0.55883  -0.10192  -0.05684
                          A21       A22       R5        A25       D35
   1                   -0.05583  -0.04679  -0.04368   0.04129   0.03976
 Eigenvalue     1 is   1.05D-03 should be less than     0.000000 Eigenvector:
                          D33       D34       D3        D38       D37
   1                    0.57490   0.56943  -0.55883  -0.10192  -0.05684
                          A21       A22       R5        A25       D35
   1                   -0.05583  -0.04679  -0.04368   0.04129   0.03976
 QST in optimization variable space.
 Eigenvectors 1 and  16 swapped, overlap=  1.0000
                        Tangent   TS vect  // Eig F  Eigenval
   1         R1        -0.04532   0.04532   0.03712   0.08956
   2         R2         0.33255  -0.33255   0.00044   0.00207
   3         R3         0.02498  -0.02498  -0.00018   0.00460
   4         R4         0.00552  -0.00552   0.00042   0.00743
   5         R5        -0.53415   0.53415   0.00008   0.01119
   6         R6         0.01336  -0.01336   0.00003   0.01663
   7         R7        -0.00603   0.00603   0.00012   0.01787
   8         R8        -0.00008   0.00008  -0.00010   0.02069
   9         R9        -0.00704   0.00704  -0.00014   0.02277
  10         R10       -0.00118   0.00118   0.00000   0.02618
  11         R11        0.00699  -0.00699   0.00003   0.02932
  12         R12        0.00030  -0.00030  -0.00003   0.03269
  13         R13       -0.00072   0.00072  -0.00580   0.04017
  14         R14       -0.54078   0.54078  -0.00753   0.06129
  15         R15       -0.15883   0.15883  -0.00081   0.07533
  16         R16       -0.00039   0.00039   0.00009   0.00105
  17         R17        0.35126  -0.35126  -0.00358   0.10073
  18         A1        -0.05379   0.05379   0.00641   0.10402
  19         A2         0.02237  -0.02237  -0.00031   0.11915
  20         A3        -0.00380   0.00380  -0.01121   0.12141
  21         A4        -0.01856   0.01856  -0.00128   0.12846
  22         A5         0.00190  -0.00190  -0.01491   0.14393
  23         A6         0.02907  -0.02907  -0.00109   0.19048
  24         A7        -0.03098   0.03098   0.01165   0.19427
  25         A8         0.01124  -0.01124  -0.00897   0.21553
  26         A9        -0.00995   0.00995  -0.01327   0.27058
  27         A10       -0.00129   0.00129  -0.01274   0.31249
  28         A11       -0.00915   0.00915   0.00295   0.34328
  29         A12        0.00057  -0.00057  -0.00262   0.34958
  30         A13        0.00858  -0.00858  -0.00679   0.35415
  31         A14        0.00577  -0.00577  -0.00092   0.35597
  32         A15       -0.00148   0.00148   0.03460   0.37371
  33         A16       -0.00429   0.00429  -0.01229   0.40245
  34         A17        0.00075  -0.00075  -0.02512   0.42777
  35         A18       -0.00101   0.00101  -0.01631   0.43730
  36         A19        0.00026  -0.00026  -0.00100   0.46381
  37         A20        0.05308  -0.05308   0.05618   0.49907
  38         A21       -0.22363   0.22363   0.00981   0.50845
  39         A22       -0.04335   0.04335   0.03265   0.51594
  40         A23       -0.00523   0.00523  -0.000001000.00000
  41         A24        0.07697  -0.07697  -0.000001000.00000
  42         A25        0.27874  -0.27874   0.000001000.00000
  43         A26        0.00764  -0.00764   0.000001000.00000
  44         D1         0.00891  -0.00891   0.000001000.00000
  45         D2         0.00950  -0.00950  -0.000001000.00000
  46         D3         0.01393  -0.01393   0.000001000.00000
  47         D4        -0.01977   0.01977  -0.000001000.00000
  48         D5         0.00160  -0.00160  -0.000001000.00000
  49         D6         0.00101  -0.00101   0.000001000.00000
  50         D7         0.00628  -0.00628  -0.000001000.00000
  51         D8         0.00569  -0.00569  -0.000001000.00000
  52         D9        -0.00018   0.00018  -0.000001000.00000
  53         D10        0.00006  -0.00006   0.000001000.00000
  54         D11       -0.00873   0.00873   0.000001000.00000
  55         D12       -0.00849   0.00849   0.000001000.00000
  56         D13       -0.01905   0.01905  -0.000001000.00000
  57         D14       -0.01963   0.01963   0.000001000.00000
  58         D15       -0.01145   0.01145  -0.000001000.00000
  59         D16       -0.01203   0.01203   0.000001000.00000
  60         D17       -0.00171   0.00171   0.000001000.00000
  61         D18       -0.00107   0.00107  -0.000001000.00000
  62         D19       -0.00111   0.00111  -0.000001000.00000
  63         D20       -0.00047   0.00047  -0.000001000.00000
  64         D21        0.00040  -0.00040   0.000001000.00000
  65         D22        0.00045  -0.00045  -0.000001000.00000
  66         D23       -0.00027   0.00027   0.000001000.00000
  67         D24       -0.00022   0.00022  -0.000001000.00000
  68         D25       -0.00055   0.00055   0.000001000.00000
  69         D26       -0.00013   0.00013   0.000001000.00000
  70         D27       -0.00079   0.00079   0.000001000.00000
  71         D28       -0.00037   0.00037  -0.000001000.00000
  72         D29        0.00040  -0.00040  -0.000001000.00000
  73         D30       -0.00002   0.00002  -0.000001000.00000
  74         D31        0.00035  -0.00035   0.000001000.00000
  75         D32       -0.00008   0.00008   0.000001000.00000
  76         D33       -0.10289   0.10289   0.000001000.00000
  77         D34       -0.01530   0.01530   0.000001000.00000
  78         D35        0.03002  -0.03002   0.000001000.00000
  79         D36        0.02071  -0.02071  -0.000001000.00000
  80         D37        0.01987  -0.01987  -0.000001000.00000
  81         D38       -0.03235   0.03235   0.000001000.00000
 RFO step:  Lambda0=1.029467700D-01 Lambda=-1.98705636D-02.
 Linear search not attempted -- option 19 set.
 Maximum step size (   0.300) exceeded in Quadratic search.
    -- Step size scaled by   0.109
 Iteration  1 RMS(Cart)=  0.02339061 RMS(Int)=  0.00120446
 Iteration  2 RMS(Cart)=  0.00058950 RMS(Int)=  0.00067141
 Iteration  3 RMS(Cart)=  0.00000055 RMS(Int)=  0.00067140
 ITry= 1 IFail=0 DXMaxC= 1.47D-01 DCOld= 1.00D+10 DXMaxT= 3.00D-01 DXLimC= 3.00D+00 Rises=F
 Variable       Old X    -DE/DX   Delta X   Delta X   Delta X     New X
                                 (Linear)    (Quad)   (Total)
    R1        2.54036  -0.00681   0.00000  -0.01770  -0.01842   2.52195
    R2        1.98245   0.09134   0.00000   0.11051   0.11085   2.09330
    R3        2.53731   0.03351   0.00000   0.00996   0.00925   2.54656
    R4        2.54449   0.00467   0.00000   0.00159   0.00161   2.54610
    R5        2.49444   0.05778   0.00000  -0.15700  -0.15663   2.33781
    R6        2.65700   0.00677   0.00000   0.00497   0.00495   2.66195
    R7        2.61543  -0.00285   0.00000  -0.00220  -0.00221   2.61321
    R8        2.04755  -0.00076   0.00000  -0.00002  -0.00002   2.04753
    R9        2.61936  -0.00423   0.00000  -0.00261  -0.00259   2.61677
   R10        2.05359  -0.00009   0.00000  -0.00039  -0.00039   2.05320
   R11        2.64781   0.00441   0.00000   0.00270   0.00270   2.65051
   R12        2.05159   0.00042   0.00000   0.00014   0.00014   2.05173
   R13        2.04800  -0.00030   0.00000  -0.00027  -0.00027   2.04773
   R14        2.02201   0.09185   0.00000  -0.15313  -0.15470   1.86731
   R15        2.49027   0.04837   0.00000  -0.03601  -0.03204   2.45823
   R16        1.82843   0.00103   0.00000  -0.00013  -0.00013   1.82829
   R17        1.87963   0.05823   0.00000   0.11655   0.11414   1.99377
    A1        1.66252   0.01852   0.00000  -0.00861  -0.00870   1.65381
    A2        2.06183  -0.00356   0.00000   0.00878   0.00874   2.07057
    A3        1.66212   0.02375   0.00000   0.00390   0.00391   1.66603
    A4        2.55923  -0.02019   0.00000  -0.01268  -0.01265   2.54659
    A5        2.07159   0.00109   0.00000  -0.00085  -0.00156   2.07004
    A6        2.07072   0.00699   0.00000   0.01275   0.01317   2.08389
    A7        2.14087  -0.00808   0.00000  -0.01190  -0.01161   2.12926
    A8        2.06233   0.00385   0.00000   0.00409   0.00399   2.06632
    A9        2.08484  -0.00308   0.00000  -0.00367  -0.00362   2.08123
   A10        2.13601  -0.00077   0.00000  -0.00042  -0.00037   2.13564
   A11        2.15373   0.00244   0.00000  -0.00363  -0.00365   2.15008
   A12        2.01644  -0.00126   0.00000   0.00044   0.00045   2.01689
   A13        2.11301  -0.00118   0.00000   0.00319   0.00321   2.11622
   A14        2.08983   0.00190   0.00000   0.00237   0.00229   2.09212
   A15        2.09250  -0.00041   0.00000  -0.00060  -0.00056   2.09194
   A16        2.10086  -0.00149   0.00000  -0.00177  -0.00174   2.09913
   A17        2.05778   0.00345   0.00000   0.00028   0.00025   2.05803
   A18        2.10395  -0.00245   0.00000  -0.00038  -0.00036   2.10359
[...]
   A12        2.02166   0.00000   0.00000  -0.00001  -0.00001   2.02165
   A13        2.13608  -0.00000   0.00000   0.00001   0.00001   2.13609
   A14        2.10732  -0.00000   0.00000  -0.00002  -0.00002   2.10730
   A15        2.08657   0.00000   0.00000   0.00000   0.00000   2.08658
   A16        2.08929   0.00000   0.00000   0.00001   0.00001   2.08930
   A17        2.05798  -0.00000   0.00000   0.00001   0.00001   2.05799
   A18        2.10319   0.00000   0.00000  -0.00001  -0.00001   2.10318
   A19        2.12201   0.00000   0.00000   0.00000   0.00000   2.12201
   A20        2.76567   0.00003   0.00000   0.00042   0.00042   2.76609
   A21        1.90583   0.00001   0.00000   0.00045   0.00045   1.90628
   A22        1.93505  -0.00002   0.00000  -0.00017  -0.00017   1.93488
   A23        1.41866   0.00002   0.00000  -0.00014  -0.00014   1.41852
   A24        1.96191  -0.00001   0.00000  -0.00001  -0.00001   1.96189
   A25        1.76730  -0.00000   0.00000  -0.00050  -0.00050   1.76680
   A26        2.62345  -0.00004   0.00000  -0.00049  -0.00049   2.62296
    D1       -0.00401   0.00001   0.00000   0.00184   0.00184  -0.00217
    D2        3.13869   0.00001   0.00000   0.00205   0.00205   3.14074
    D3        0.10459  -0.00000   0.00000   0.00007   0.00007   0.10466
    D4       -0.00831  -0.00001   0.00000  -0.00120  -0.00120  -0.00951
    D5       -3.13990   0.00001   0.00000   0.00138   0.00138  -3.13852
    D6        0.00064   0.00001   0.00000   0.00119   0.00119   0.00182
    D7        0.01760  -0.00001   0.00000  -0.00164  -0.00164   0.01596
    D8       -3.12505  -0.00001   0.00000  -0.00184  -0.00184  -3.12688
    D9       -0.00012  -0.00000   0.00000  -0.00079  -0.00079  -0.00090
   D10        3.13797  -0.00000   0.00000  -0.00035  -0.00035   3.13762
   D11        3.12091   0.00001   0.00000   0.00312   0.00312   3.12403
   D12       -0.02419   0.00002   0.00000   0.00356   0.00356  -0.02063
   D13       -0.01864  -0.00000   0.00000   0.00070   0.00070  -0.01795
   D14       -0.13072   0.00000   0.00000  -0.00055  -0.00055  -0.13127
   D15        3.14121  -0.00002   0.00000  -0.00277  -0.00277   3.13844
   D16        3.02913  -0.00001   0.00000  -0.00402  -0.00402   3.02511
   D17        3.13953  -0.00001   0.00000  -0.00106  -0.00106   3.13846
   D18        0.00004  -0.00000   0.00000  -0.00071  -0.00071  -0.00067
   D19       -0.00094  -0.00000   0.00000  -0.00086  -0.00086  -0.00180
   D20       -3.14043  -0.00000   0.00000  -0.00050  -0.00050  -3.14093
   D21        0.00075   0.00000   0.00000   0.00014   0.00014   0.00089
   D22       -3.14000   0.00000   0.00000   0.00026   0.00026  -3.13973
   D23        3.14016  -0.00000   0.00000  -0.00022  -0.00022   3.13993
   D24       -0.00059  -0.00000   0.00000  -0.00010  -0.00010  -0.00069
   D25       -0.00009  -0.00000   0.00000   0.00004   0.00004  -0.00006
   D26        3.13935   0.00000   0.00000   0.00015   0.00015   3.13950
   D27       -3.13795  -0.00000   0.00000  -0.00043  -0.00043  -3.13837
   D28        0.00150  -0.00000   0.00000  -0.00032  -0.00032   0.00118
   D29       -0.00024   0.00000   0.00000   0.00027   0.00027   0.00003
   D30       -3.13966   0.00000   0.00000   0.00016   0.00016  -3.13950
   D31        3.14051   0.00000   0.00000   0.00015   0.00015   3.14066
   D32        0.00109  -0.00000   0.00000   0.00004   0.00004   0.00113
   D33       -2.07348  -0.00001   0.00000  -0.00150  -0.00150  -2.07497
   D34       -0.14052  -0.00001   0.00000  -0.00155  -0.00156  -0.14208
   D35        0.01867   0.00001   0.00000   0.00032   0.00032   0.01899
   D36        1.55257   0.00001   0.00000  -0.00023  -0.00023   1.55234
   D37        0.14523   0.00000   0.00000   0.00162   0.00162   0.14685
   D38        2.04876  -0.00001   0.00000   0.00138   0.00138   2.05015
         Item               Value     Threshold  Converged?
 Maximum Force            0.000148     0.000450     YES
 RMS     Force            0.000023     0.000300     YES
 Maximum Displacement     0.004765     0.001800     NO 
 RMS     Displacement     0.001156     0.001200     YES
 Predicted change in Energy=-3.342223D-07
 GradGradGradGradGradGradGradGradGradGradGradGradGradGradGradGradGradGrad

 Leave Link  103 at Sat Aug 28 14:06:07 2021, MaxMem= 17179869184 cpu:        46.2
 (Enter /public3/home/sc51754/softwares/g09e01/l9999.exe)
 1\1\GINC-J2712\Freq\RTPSSTPSS\Gen\C5H7N1O2\SC51754\28-Aug-2021\0\\#P G
 eom=AllCheck Guess=TCheck SCRF=Check GenChk RTPSSTPSS/ChkBas Freq\\HY_
 H2O_TPSSTPSS_PC2_OPT_FREQ\\0,1\O,1.3555081889,1.4554967769,-0.01322646
 06\N,0.4254279918,-0.6343747778,-0.0132234733\C,0.2778469095,0.7280232
 08,-0.0082794732\C,-1.0303077599,1.2719545691,0.0005743585\C,-0.639748
 6428,-1.4594342758,-0.0105893057\C,-2.1144840218,0.4189898492,0.002822
 0705\C,-1.9318338741,-0.9773521679,-0.002658052\H,2.2667830261,0.67366
 83059,-0.016841445\H,-1.1420387294,2.3494321246,0.0033508451\H,-0.4154
 62054,-2.5213246234,-0.0185166337\H,-3.1195695233,0.8302780909,0.00809
 12877\H,-2.7729912843,-1.659349069,-0.0027656836\O,2.8568932259,-0.439
 3630514,-0.0672579952\H,3.3518522219,-0.6044618231,0.7479509623\H,1.66
 61079155,-0.8567906862,-0.0007183516\\Version=EM64L-G09RevE.01\State=1
 -A\HF=-400.1712303\RMSD=6.052e-09\RMSF=3.700e-05\ZeroPoint=0.1105627\T
 hermal=0.11725\Dipole=-1.0641384,-0.6856925,0.5359283\DipoleDeriv=-1.8
 088099,-0.3019517,-0.0151334,-0.169448,-0.8206928,0.0068235,-0.0153644
 ,0.0051776,-0.3151717,-1.2648872,0.1430338,-0.0092989,-0.4689158,-0.46
 49731,-0.001534,-0.0459862,-0.0009466,-0.1427733,1.5395536,0.7015075,0
 .0006125,0.6723919,0.604437,0.0019491,-0.0079103,-0.0044758,0.174323,-
 0.5692341,-0.4096187,-0.0022432,0.0802201,0.0475413,-0.0006627,0.01270
 1,-0.0000542,-0.1512327,0.5529089,-0.2593417,-0.002976,0.2941447,0.250
 7721,0.0088722,0.000218,0.0073764,-0.010817,0.2623806,0.0873619,-0.000
 8769,0.0694266,0.4726509,0.0020128,-0.0028287,0.0005639,-0.0780552,-0.
 2313487,0.308421,-0.0000967,0.037598,-0.3722686,-0.002045,0.0097052,-0
 .001363,-0.1715191,1.1209863,-0.4095601,0.0084328,-0.9274581,0.6665194
 ,-0.0388677,-0.0030865,-0.0256012,0.1925467,0.0592701,-0.0004034,0.000
 0292,0.0167614,-0.0429545,-0.0004366,0.000267,-0.0005271,0.1437243,0.0
 571316,0.0320184,-0.000286,-0.010703,-0.0750947,-0.001135,-0.0044827,-
 0.0017094,0.1239521,-0.0709022,0.0616492,0.0006237,0.0631053,0.0566196
 ,-0.0005438,-0.0012148,0.0001321,0.1206842,-0.0262367,-0.0723047,-0.00
 03521,-0.0706927,0.0001636,-0.0002773,-0.0000572,-0.0002886,0.1508564,
 -1.7293456,0.1990962,0.0156161,0.3268565,-0.7316987,-0.0078777,0.08971
 24,-0.024575,-0.3294909,0.262931,0.0031693,-0.0318187,-0.0091732,0.256
 3377,0.0120938,-0.0609278,0.0246128,0.1295199,1.8456023,-0.0830771,0.0
 377675,0.0958865,0.1526406,0.0216284,0.029255,0.0216779,0.1634534\Pola
 r=108.2622634,3.6639024,86.8693704,1.4632619,-0.3197478,44.387352\PG=C
 01 [X(C5H7N1O2)]\NImag=1\\0.41132911,0.13507730,0.32640864,-0.00186336
 ,-0.00165192,0.05052930,0.02630275,-0.05546360,0.00050544,0.57150817,-
 0.03462008,-0.05690629,-0.00022336,0.11275709,0.58858280,0.00134466,-0
 .00033123,0.01229204,0.00042982,0.00104712,0.09627779,-0.29708916,-0.1
 2670368,0.00125976,-0.16759459,0.01883497,-0.00115864,0.75745275,-0.12
 662100,-0.19180880,0.00138376,0.04159535,-0.23132168,-0.00110224,0.034
 53247,0.60067699,0.00065043,0.00045782,-0.06112111,0.00013520,-0.00075
 355,-0.06728840,-0.00197013,0.00082403,0.18442826,-0.06829334,0.002875
 08,0.00040002,0.02517213,0.05899727,0.00058663,-0.23024438,0.04588008,
 0.00068511,0.64073135,-0.03124073,0.01940778,0.00010993,0.03671071,-0.
 02329093,-0.00017259,0.08890421,-0.14958441,-0.00077214,0.03685545,0.7
 4046285,0.00043922,0.00052988,0.01222059,-0.00032597,-0.00049225,0.011
 35624,0.00123252,-0.00081909,-0.07106433,-0.00251536,0.00145757,0.1140
 4343,-0.01273456,0.01180464,-0.00003391,-0.25386235,-0.08516433,0.0006
 9296,0.05001108,-0.06863027,-0.00039484,-0.05404114,-0.00447298,0.0002
 4997,0.67539318,-0.00336070,-0.00016899,-0.00015961,-0.10605952,-0.204
 01668,0.00029522,-0.02006511,-0.05584558,0.00009304,-0.00951749,0.0005
 1817,0.00010568,-0.04671036,0.73031266,0.00000448,0.00004412,0.0079208
 4,0.00039526,0.00004371,-0.05136803,-0.00032639,0.00007625,-0.00302394
 ,0.00018106,0.00009166,-0.00285747,-0.00258604,0.00311264,0.14039383,0
 .00343338,0.00400849,-0.00004065,-0.00604051,-0.01417718,-0.00027480,-
 0.05040637,-0.00455432,0.00028502,-0.27732694,-0.14322534,0.00068380,0
 .01166503,0.03664820,0.00018436,0.72247562,0.02053711,-0.00614532,-0.0
 0002343,-0.03238261,-0.04737826,-0.00011676,-0.03806659,0.05883627,0.0
 0048073,-0.09336604,-0.21884738,-0.00003293,0.07730082,-0.01356201,-0.
 00045564,-0.00539959,0.64460450,0.00007570,-0.00006178,0.00464944,-0.0
 0000779,-0.00006995,-0.00609057,0.00005165,0.00021797,0.00001192,0.000
 72024,0.00012895,-0.05294544,0.00028006,-0.00023597,0.00661963,-0.0024
 9353,0.00157629,0.13671402,0.00637425,-0.00596112,0.00002925,-0.073076
 25,-0.04325168,0.00020897,-0.02523235,0.03879290,0.00020379,0.03924237
 ,-0.02333999,-0.00026119,-0.31774339,0.10792570,0.00153952,-0.12445670
 ,-0.00405239,0.00019988,0.71939359,-0.01376633,0.00125542,0.00001553,-
 0.00102546,0.04580846,0.00023887,0.02980547,-0.03056232,-0.00027829,-0
 .05110845,-0.03804093,0.00008151,0.05418990,-0.15646454,-0.00075860,0.
 05117953,-0.29610126,-0.00093511,0.04319818,0.65493567,-0.00017511,0.0
 0014476,-0.00091098,0.00015345,0.00029822,0.01544882,0.00031099,-0.000
 33077,-0.00743290,-0.00036643,-0.00010595,0.00616815,0.00123837,-0.000
 85898,-0.06073127,0.00045964,-0.00085226,-0.05796920,-0.00224870,0.002
 06898,0.11166496,-0.00333746,-0.00698519,-0.00123764,-0.01589966,0.013
 62224,-0.00138889,-0.06171154,-0.02126743,0.00038179,0.01091726,0.0021
 2280,0.00012065,0.00160939,0.00337749,0.00002102,-0.00185912,-0.005096
 98,-0.00001722,-0.00143047,0.00389829,0.00018775,0.06333432,-0.0284653
 7,-0.04993498,0.00069201,0.01675785,-0.01144473,0.00146753,0.01980313,
 0.04682079,-0.00015120,-0.01623594,-0.00702299,-0.00007687,-0.00340934
 ,-0.00560613,-0.00008744,0.00138827,0.00815862,0.00003230,0.00332124,-
 0.00506635,-0.00019594,0.05283947,0.04604432,0.00188760,-0.00167446,-0
 .03320194,-0.00110208,0.00012846,-0.00154876,-0.00077227,-0.00060167,0
 .00074307,0.00029967,0.00006413,0.00359195,-0.00000991,0.00015336,-0.0
 0075673,-0.00005731,-0.00015396,0.00097337,-0.00012252,0.00006773,0.00
 031321,0.00473279,0.00463388,0.06484574,0.00267349,-0.00185018,-0.0000
 2169,-0.00671166,0.00420181,0.00001262,0.00272938,0.02953141,0.0000546
 7,-0.05996173,0.03055953,0.00024040,-0.00203849,-0.00113900,-0.0000001
 8,0.00739884,-0.02613121,-0.00008826,-0.00371985,-0.00265481,0.0000509
 6,-0.00083223,0.00095487,-0.00003634,0.05745490,-0.00026169,0.00144115
 ,0.00001117,0.00273879,-0.00007115,-0.00000249,-0.00285017,-0.00936238
 ,0.00001524,0.03236010,-0.33216314,-0.00082215,0.00050089,0.00089842,0
 .00000483,0.00394872,-0.01325946,-0.00003615,-0.00360129,0.00091951,0.
 00000649,0.00046514,-0.00038167,0.00001282,-0.03272967,0.35159789,-0.0
 0002539,-0.00001126,-0.00221698,0.00008585,-0.00001000,0.00543333,0.00
 002363,-0.00016215,0.00218205,0.00019179,-0.00069683,-0.03242864,0.000
 00396,0.00000154,-0.00054960,-0.00001726,0.00005137,0.00171052,0.00003
 951,-0.00003457,0.00865870,-0.00001494,0.00000849,-0.00034984,-0.00024
 347,0.00085157,0.02331700,-0.00087055,-0.00166894,-0.00000293,0.005377
 42,-0.03347820,-0.00020293,-0.00339009,-0.00112725,0.00005510,-0.00034
 218,-0.00072314,0.00000475,-0.07276213,0.06523519,0.00053546,-0.005984
 92,0.00101742,0.00006060,0.00132045,0.02810551,0.00019402,0.00087719,-
 0.00078769,0.00001684,0.00018981,0.00000613,-0.00001175,0.07443422,-0.
 00050302,-0.00153816,0.00000758,-0.00276249,-0.02213654,-0.00012326,-0
 .00293112,0.00313715,-0.00007579,0.00014218,0.00040737,0.00000234,0.06
 154715,-0.31268791,-0.00192008,0.00216222,0.00075947,-0.00005543,-0.00
 063883,-0.00510335,-0.00008518,0.00051148,-0.00039187,0.00000717,0.000
 08838,-0.00009530,0.00000938,-0.05811201,0.33725199,0.00005427,-0.0000
 3660,0.00005311,0.00013692,0.00024412,-0.00079366,0.00000926,-0.000006
 08,0.00820850,0.00005561,0.00002434,-0.00035831,0.00048758,-0.00226978
 ,-0.03816497,0.00001983,-0.00005858,0.00744270,0.00002557,-0.00010544,
 0.00602656,-0.00008610,0.00007982,-0.00013542,-0.00001082,0.00000270,-
 0.00151001,-0.00057147,0.00218530,0.02485760,-0.00203343,0.00075638,0.
 00000325,0.00031161,-0.00053452,-0.00000797,-0.00079065,-0.00412038,0.
 00001655,-0.01892393,0.01146335,0.00011964,0.00159802,0.00071526,0.000
 01625,-0.28850471,0.09436532,0.00128065,0.00021736,-0.00065388,-0.0000
 0013,0.00045724,-0.00079849,0.00000342,0.00118867,-0.00016657,-0.00001
 966,-0.00008285,-0.00012416,-0.00000106,0.30614296,-0.00109250,0.00073
 020,0.00000694,-0.00090650,-0.00015615,0.00000687,-0.00334503,-0.00255
 790,-0.00002386,-0.01915152,0.01143149,0.00010173,0.00000932,-0.006758
 47,-0.00004615,0.09485967,-0.09730578,-0.00054602,0.02977146,-0.006062
 06,-0.00014105,0.00006095,-0.00037402,0.00000448,0.00060776,0.00090618
 ,0.00001237,0.00167140,-0.00039557,-0.00000375,-0.10173531,0.09903072,
 0.00000193,-0.00007300,-0.00103818,0.00005049,0.00001265,-0.00198815,0
 .00002572,0.00001327,0.01055044,0.00007763,0.00001399,0.00537432,0.000
 03874,-0.00007096,0.00644572,0.00118871,-0.00054608,-0.04068261,0.0001
 1071,-0.00002001,0.00442501,-0.00003748,0.00003151,-0.00047395,-0.0000
 2642,0.00000215,-0.00484531,-0.00000083,0.00000385,-0.00045558,-0.0014
 1055,0.00061438,0.02600875,0.00052061,-0.00033728,0.00000483,-0.005643
 06,0.00331594,0.00006090,-0.00033174,0.00144313,-0.00001103,0.00085883
 ,0.00171996,0.00001479,-0.01663582,-0.02174186,-0.00008334,0.00804980,
 0.00536196,-0.00001647,-0.22609022,-0.13605333,0.00013100,-0.00026168,
 0.00055220,-0.00002565,0.00030305,0.00038011,0.00000071,0.00079945,0.0
 0029702,-0.00000968,0.00063644,-0.00060394,-0.00000774,0.23721851,-0.0
 0050042,0.00043584,0.00000362,0.00375562,0.00023385,-0.00004479,0.0013
 1594,-0.00109159,-0.00000815,0.00274055,-0.00488172,-0.00004972,0.0103
 7631,0.01083720,0.00001646,-0.02556475,-0.01378524,0.00002000,-0.13730
 804,-0.16685459,-0.00011487,0.00021985,-0.00034653,0.00000934,-0.00134
 209,-0.00061802,0.00000128,-0.00066241,0.00051656,0.00002262,0.0003592
 6,0.00125218,0.00001910,0.14673213,0.17373444,-0.00000386,-0.00004555,
 -0.00091766,0.00005924,-0.00009302,0.00801120,-0.00001533,0.00003924,-
 0.00024278,0.00001663,-0.00004228,0.00549996,0.00012824,0.00014158,-0.
 00146330,-0.00011601,-0.00001347,0.00009348,0.00006474,-0.00020678,-0.
 02857469,0.00001790,-0.00001921,-0.00000503,-0.00000448,-0.00000260,0.
 00064297,-0.00002479,0.00003203,-0.00363784,-0.00001008,0.00001720,-0.
 00302287,-0.00010763,0.00014084,0.02290688,-0.02237043,0.03821164,0.00
 042155,-0.08057018,-0.01141103,-0.00296928,-0.00247952,-0.00381736,0.0
 0038452,0.00029896,0.00130673,0.00027421,-0.00251679,0.01441700,-0.000
 17828,-0.00044798,-0.00156472,-0.00007990,-0.00501643,-0.00187326,0.00
 035903,-0.02612766,0.00483835,-0.00150190,-0.00061613,0.00040213,-0.00
 001191,-0.00025717,-0.00106307,-0.00015920,-0.00032254,0.00004881,-0.0
 0003486,-0.00146318,0.00038536,0.00006072,0.27954426,0.08363757,-0.039
 18256,0.00373559,-0.02702124,0.01850540,-0.00385267,-0.02873615,-0.031
 82590,0.00033238,0.01022351,0.00594070,-0.00036001,0.00347102,0.005378
 35,-0.00009404,-0.00097442,-0.00567447,-0.00007078,-0.00290499,0.00336
 535,0.00030334,-0.03817836,-0.00640718,-0.02224156,-0.00121358,0.00053
 347,-0.00002700,0.00065532,0.00004151,-0.00009851,0.00045139,0.0002535
 7,0.00006803,-0.00048850,0.00030898,0.00006793,-0.06435730,0.11828895,
 -0.00408349,0.00528942,0.01457890,-0.00672944,-0.00086303,0.01554830,0
 .00113125,-0.00045342,-0.00027617,-0.00021830,0.00003913,-0.00182851,-
 0.00049369,0.00045397,0.00080263,0.00011942,-0.00001821,0.00011827,-0.
 00011904,-0.00021211,-0.00123693,-0.00328269,-0.00691396,-0.03798520,0
 .00003520,-0.00000551,0.00015389,0.00001168,-0.00009123,0.00055294,0.0
 0001200,0.00000973,0.00025311,-0.00009769,-0.00000255,-0.00022595,0.20
 750393,-0.06958238,0.40509148,0.00068441,0.00221077,0.00171879,-0.0073
 3187,-0.00193432,0.00395331,-0.00050811,-0.00111898,-0.00058271,0.0001
 1843,0.00016929,-0.00051147,-0.00085087,0.00103864,0.00009688,0.000048
 90,-0.00014838,0.00006255,-0.00027835,-0.00030309,-0.00036015,-0.00428
 421,-0.00133673,-0.00602779,0.00000238,0.00003560,0.00000994,-0.000047
 84,-0.00013877,0.00014624,0.00002018,0.00000082,0.00007153,-0.00012080
 ,0.00003932,-0.00003954,-0.13893133,0.03716362,-0.19748315,0.14904683,
 0.00700920,-0.00655873,-0.00383034,-0.00561633,0.00083344,0.00201995,-
 0.00160262,-0.00193460,-0.00012236,0.00048364,0.00025774,0.00035430,-0
 .00003839,0.00099227,-0.00000270,-0.00002938,-0.00022597,0.00003144,-0
 .00034606,-0.00006132,-0.00010675,0.00206067,0.00834594,0.01855048,-0.
 00007939,0.00005102,0.00001115,-0.00003985,-0.00013416,-0.00000063,0.0
 0002239,0.00000492,-0.00006936,-0.00010699,0.00002772,-0.00002101,0.03
 593290,-0.03928736,0.06520138,-0.04284126,0.03605842,0.00325130,-0.003
 13766,0.00009573,0.00455144,0.00019815,-0.00004033,-0.00040268,-0.0001
 1121,0.00002469,0.00007020,0.00000874,-0.00003320,0.00032042,-0.000340
 48,0.00003901,0.00001900,0.00002939,-0.00001162,0.00016638,0.00010169,
 -0.00000619,-0.00099650,0.00259685,0.00000374,0.00000862,0.00000123,0.
 00000415,-0.00002176,0.00005503,0.00001263,0.00000734,-0.00000517,0.00
 001214,0.00008021,0.00000114,0.00000204,-0.21880998,0.07431614,-0.3576
 4238,0.21509171,-0.07227574,0.35680139,-0.04458909,0.00402571,-0.00114
 272,-0.01194195,0.01284202,-0.00128735,0.02958528,0.03948166,0.0001065
 3,-0.00820569,-0.00680985,0.00023403,-0.00709118,-0.02076345,0.0001999
 4,0.00195567,0.00762588,-0.00002817,0.01049598,-0.00293828,0.00006531,
 0.03854864,-0.04942183,0.00271543,0.00193956,-0.00122822,-0.00001102,0
 .00073919,0.00152503,-0.00009694,0.00008562,-0.00019539,-0.00004757,0.
 00215982,-0.00054664,-0.00002575,0.00127613,0.02827212,0.00369401,0.00
 243225,0.00519146,-0.00333571,-0.01739023,-0.00582935,0.00256479,-0.00
 007746,0.01692233,-0.05724156,0.00067047,0.03110428,-0.00357604,-0.000
 01789,-0.00117842,-0.00459461,0.00002000,-0.01077439,0.00617323,-0.000
 02503,-0.00027013,-0.00007373,0.00000425,-0.00160507,-0.00196771,-0.00
 003004,-0.00765042,-0.02239321,0.00103981,0.00119619,-0.00039652,-0.00
 000534,-0.00009149,0.00036879,0.00002051,-0.00000004,0.00000070,0.0000
 0048,-0.00047056,0.00023093,0.00000511,-0.01145618,-0.03023881,0.00714
 877,0.00716346,0.00163069,-0.00143811,-0.01706023,0.10951306,-0.001558
 39,0.00055745,-0.00293310,0.00166217,0.00053274,-0.03524982,0.00060068
 ,0.00103211,0.00430070,-0.00018450,-0.00014864,0.00326127,0.00007808,-
 0.00042124,-0.00330633,0.00003978,0.00013356,-0.00063389,0.00016313,-0
 .00002339,0.00415675,0.00159955,-0.00209777,0.00398582,0.00002917,-0.0
 0003929,-0.00020222,-0.00004200,0.00004829,-0.00209826,-0.00000966,-0.
 00000770,-0.00056285,0.00006680,-0.00001431,0.00093360,0.01474137,0.01
 750354,-0.03790438,-0.01614614,-0.00973980,0.00073820,-0.00104003,-0.0
 0731552,0.06551451\\-0.00010042,0.00010267,-0.00000147,-0.00004697,0.0
 0000129,-0.00008089,-0.00001729,-0.00000512,0.00000904,-0.00000174,0.0
 0000043,0.00000568,-0.00000299,-0.00000722,0.00004353,0.00000221,0.000
 00690,0.00000302,0.00000053,0.00000243,0.00000735,0.00007975,-0.000017
 34,-0.00000546,0.00000547,0.00000337,-0.00000061,-0.00000537,0.0000010
 9,-0.00001405,0.00000214,0.00000715,0.00000187,-0.00000375,0.00000648,
 0.00000039,0.00000973,-0.00011204,0.00004270,0.00000024,-0.00002443,-0
 .00001436,0.00007847,0.00003435,0.00000325\\\@


 IF YOU'RE NOT PART OF THE SOLUTION,
 THEN YOU'RE PART OF THE PRECIPITATE.
 Job cpu time:       0 days  1 hours 21 minutes 45.0 seconds.
 File lengths (MBytes):  RWF=    137 Int=      0 D2E=      0 Chk=      9 Scr=      1
 Normal termination of Gaussian 09 at Sat Aug 28 14:06:07 2021.
