 Entering Gaussian System, Link 0=g09
 AtFile(1): pc-2.gbs
            -H     0
            S    4   1.00
                  0.754230D+02           0.240650D-02
                  0.113500D+02           0.184870D-01
                  0.259930D+01           0.897420D-01
                  0.735130D+00           0.281110D+00
            S    1   1.00
                  0.231670D+00           0.100000D+01
            S    1   1.00
                  0.741470D-01           0.100000D+01
            P    1   1.00
                  0.160000D+01           0.100000D+01
            P    1   1.00
                  0.450000D+00           0.100000D+01
            D    1   1.00
                  0.125000D+01           0.100000D+01
            ****
            -C     0
            S    7   1.00
                  0.785710D+04           0.568250D-03
                  0.117870D+04           0.439150D-02
                  0.268320D+03           0.225040D-01
                  0.759480D+02           0.866530D-01
                  0.245590D+02           0.244050D+00
                  0.862120D+01           0.441480D+00
                  0.312780D+01           0.353320D+00
            S    7   1.00
                  0.117870D+04          -0.594920D-06
                  0.268320D+03          -0.627480D-04
                  0.759480D+02          -0.757730D-03
                  0.245590D+02          -0.733080D-02
                  0.862120D+01          -0.389320D-01
                  0.312780D+01          -0.889080D-01
                  0.822020D+00           0.216890D+00
            S    1   1.00
                  0.330170D+00           0.100000D+01
            S    1   1.00
                  0.114630D+00           0.100000D+01
            P    4   1.00
                  0.337750D+02           0.602940D-02
                  0.767660D+01           0.432280D-01
                  0.223570D+01           0.163010D+00
                  0.764470D+00           0.365040D+00
            P    1   1.00
                  0.262320D+00           0.100000D+01
            P    1   1.00
                  0.846380D-01           0.100000D+01
            D    1   1.00
                  0.140000D+01           0.100000D+01
            D    1   1.00
                  0.450000D+00           0.100000D+01
            F    1   1.00
                  0.950000D+00           0.100000D+01
            ****
            -N     0
            S    7   1.00
                  0.111010D+05           0.545700D-03
                  0.166530D+04           0.421810D-02
                  0.379080D+03           0.216450D-01
                  0.107300D+03           0.837760D-01
                  0.347470D+02           0.238810D+00
                  0.122490D+02           0.439940D+00
                  0.447430D+01           0.363640D+00
            S    7   1.00
                  0.166530D+04          -0.150060D-05
                  0.379080D+03          -0.587530D-04
                  0.107300D+03          -0.774530D-03
                  0.347470D+02          -0.721610D-02
                  0.122490D+02          -0.393380D-01
                  0.447430D+01          -0.906110D-01
                  0.124040D+01           0.198820D+00
            S    1   1.00
                  0.487430D+00           0.100000D+01
            S    1   1.00
                  0.164840D+00           0.100000D+01
            P    4   1.00
                  0.479340D+02           0.617060D-02
                  0.109990D+02           0.442600D-01
                  0.324720D+01           0.168250D+00
                  0.111140D+01           0.368480D+00
            P    1   1.00
                  0.379880D+00           0.100000D+01
            P    1   1.00
                  0.120680D+00           0.100000D+01
            D    1   1.00
                  0.180000D+01           0.100000D+01
            D    1   1.00
                  0.550000D+00           0.100000D+01
            F    1   1.00
                  0.102000D+01           0.100000D+01
            ****
            -O     0
            S    7   1.00
                  0.147820D+05           0.535190D-03
                  0.221730D+04           0.413750D-02
                  0.504740D+03           0.212450D-01
                  0.142870D+03           0.824530D-01
                  0.463000D+02           0.236710D+00
                  0.163370D+02           0.440390D+00
                  0.598280D+01           0.364650D+00
            S    7   1.00
                  0.221730D+04          -0.192750D-05
                  0.504740D+03          -0.579640D-04
                  0.142870D+03          -0.794940D-03
                  0.463000D+02          -0.731250D-02
                  0.163370D+02          -0.405740D-01
                  0.598280D+01          -0.915940D-01
                  0.167180D+01           0.209400D+00
            S    1   1.00
                  0.646620D+00           0.100000D+01
            S    1   1.00
                  0.216690D+00           0.100000D+01
            P    4   1.00
                  0.604240D+02           0.689490D-02
                  0.139350D+02           0.490050D-01
                  0.415310D+01           0.182550D+00
                  0.141580D+01           0.376330D+00
            P    1   1.00
                  0.475490D+00           0.100000D+01
            P    1   1.00
                  0.145290D+00           0.100000D+01
            D    1   1.00
                  0.220000D+01           0.100000D+01
            D    1   1.00
                  0.650000D+00           0.100000D+01
            F    1   1.00
                  0.110000D+01           0.100000D+01
            ****
 Initial command:
 /public3/home/sc51754/softwares/g09e01/l1.exe "./Gau-56039.inp" -scrdir="./"
 Entering Link 1 = /public3/home/sc51754/softwares/g09e01/l1.exe PID=     56040.
  
 Copyright (c) 1988,1990,1992,1993,1995,1998,2003,2009,2015,
            Gaussian, Inc.  All Rights Reserved.
  
 This is part of the Gaussian(R) 09 program.  It is based on
 the Gaussian(R) 03 system (copyright 2003, Gaussian, Inc.),
 the Gaussian(R) 98 system (copyright 1998, Gaussian, Inc.),
 the Gaussian(R) 94 system (copyright 1995, Gaussian, Inc.),
 the Gaussian 92(TM) system (copyright 1992, Gaussian, Inc.),
 the Gaussian 90(TM) system (copyright 1990, Gaussian, Inc.),
 the Gaussian 88(TM) system (copyright 1988, Gaussian, Inc.),
 the Gaussian 86(TM) system (copyright 1986, Carnegie Mellon
 University), and the Gaussian 82(TM) system (copyright 1983,
 Carnegie Mellon University). Gaussian is a federally registered
 trademark of Gaussian, Inc.
  
 This software contains proprietary and confidential information,
 including trade secrets, belonging to Gaussian, Inc.
  
 This software is provided under written license and may be
 used, copied, transmitted, or stored only in accord with that
 written license.
  
 The following legend is applicable only to US Government
 contracts under FAR:
  
                    RESTRICTED RIGHTS LEGEND
  
 Use, reproduction and disclosure by the US Government is
 subject to restrictions as set forth in subparagraphs (a)
 and (c) of the Commercial Computer Software - Restricted
 Rights clause in FAR 52.227-19.
  
 Gaussian, Inc.
 340 Quinnipiac St., Bldg. 40, Wallingford CT 06492
  
  
 ---------------------------------------------------------------
 Warning -- This program may not be used in any manner that
 competes with the business of Gaussian, Inc. or will provide
 assistance to any competitor of Gaussian, Inc.  The licensee
 of this program is prohibited from giving any competitor of
 Gaussian, Inc. access to this program.  By using this program,
 the user acknowledges that Gaussian, Inc. is engaged in the
 business of creating and licensing software in the field of
 computational chemistry and represents and warrants to the
 licensee that it is not a competitor of Gaussian, Inc. and that
 it will not use this program in any manner prohibited above.
 ---------------------------------------------------------------
  

 Cite this work as:
 Gaussian 09, Revision E.01,
 M. J. Frisch, G. W. Trucks, H. B. Schlegel, G. E. Scuseria, 
 M. A. Robb, J. R. Cheeseman, G. Scalmani, V. Barone, B. Mennucci, 
 G. A. Petersson, H. Nakatsuji, M. Caricato, X. Li, H. P. Hratchian, 
 A. F. Izmaylov, J. Bloino, G. Zheng, J. L. Sonnenberg, M. Hada, 
 M. Ehara, K. Toyota, R. Fukuda, J. Hasegawa, M. Ishida, T. Nakajima, 
 Y. Honda, O. Kitao, H. Nakai, T. Vreven, J. A. Montgomery, Jr., 
 J. E. Peralta, F. Ogliaro, M. Bearpark, J. J. Heyd, E. Brothers, 
 K. N. Kudin, V. N. Staroverov, T. Keith, R. Kobayashi, J. Normand, 
 K. Raghavachari, A. Rendell, J. C. Burant, S. S. Iyengar, J. Tomasi, 
 M. Cossi, N. Rega, J. M. Millam, M. Klene, J. E. Knox, J. B. Cross, 
 V. Bakken, C. Adamo, J. Jaramillo, R. Gomperts, R. E. Stratmann, 
 O. Yazyev, A. J. Austin, R. Cammi, C. Pomelli, J. W. Ochterski, 
 R. L. Martin, K. Morokuma, V. G. Zakrzewski, G. A. Voth, 
 P. Salvador, J. J. Dannenberg, S. Dapprich, A. D. Daniels, 
 O. Farkas, J. B. Foresman, J. V. Ortiz, J. Cioslowski, 
 and D. J. Fox, Gaussian, Inc., Wallingford CT, 2013.
 
 ******************************************
 Gaussian 09:  EM64L-G09RevE.01 30-Nov-2015
                27-Aug-2021 
 ******************************************
 %nprocshared=64
 Will use up to   64 processors via shared memory.
 %mem=128GB
 %chk=HY_H2O_PBEPBE_PC2_OPT_FREQ.chk
 ----------------------
 #p opt freq PBEPBE/gen
 ----------------------
 1/14=-1,18=20,19=15,26=3,38=1/1,3;
 2/9=110,12=2,17=6,18=5,40=1/2;
 3/5=7,11=2,16=1,25=1,30=1,71=1,74=1009/1,2,3;
 4//1;
 5/5=2,38=5/2;
 6/7=2,8=2,9=2,10=2,28=1/1;
 7//1,2,3,16;
 1/14=-1,18=20,19=15,26=3/3(2);
 2/9=110/2;
 99//99;
 2/9=110/2;
 3/5=7,6=1,11=2,16=1,25=1,30=1,71=1,74=1009,82=7/1,2,3;
 4/5=5,16=3,69=1/1;
 5/5=2,38=5/2;
 7//1,2,3,16;
 1/14=-1,18=20,19=15,26=3/3(-5);
 2/9=110/2;
 6/7=2,8=2,9=2,10=2,19=2,28=1/1;
 99/9=1/99;
 Leave Link    1 at Fri Aug 27 00:02:52 2021, MaxMem= 17179869184 cpu:         2.5
 (Enter /public3/home/sc51754/softwares/g09e01/l101.exe)
 --------------------------
 HY_H2O_PBEPBE_PC2_OPT_FREQ
 --------------------------
 Symbolic Z-matrix:
 Charge =  0 Multiplicity = 1
 O                     1.216     1.44855  -0.00262 
 N                     0.30594  -0.66619  -0.00547 
 C                     0.13701   0.65516  -0.00009 
 C                    -1.12976   1.25518   0.00826 
 C                    -0.78318  -1.4465   -0.00563 
 C                    -2.23812   0.43549   0.00911 
 C                    -2.07199  -0.951     0.00173 
 H                     2.03022   0.90023  -0.0153 
 H                    -1.20631   2.3321    0.01208 
 H                    -0.59906  -2.51382  -0.01294 
 H                    -3.22982   0.86768   0.01456 
 H                    -2.91795  -1.62195   0.00074 
 O                     3.09571  -0.58722  -0.08503 
 H                     3.59397  -0.87925   0.68253 
 H                     2.20982  -1.00228  -0.02248 
 
 Add virtual bond connecting atoms O13        and H8         Dist= 3.46D+00.
 Add virtual bond connecting atoms H15        and N2         Dist= 3.65D+00.
 Add virtual bond connecting atoms H15        and H8         Dist= 3.61D+00.
 Add atom     13 valence  3 ND=      2 dihedral       8     13     14     15
 NAtoms=     15 NQM=       15 NQMF=       0 NMMI=      0 NMMIF=      0
                NMic=       0 NMicF=      0.
                    Isotopes and Nuclear Properties:
 (Nuclear quadrupole moments (NQMom) in fm**2, nuclear magnetic moments (NMagM)
  in nuclear magnetons)

  Atom         1           2           3           4           5           6           7           8           9          10
 IAtWgt=          16          14          12          12          12          12          12           1           1           1
 AtmWgt=  15.9949146  14.0030740  12.0000000  12.0000000  12.0000000  12.0000000  12.0000000   1.0078250   1.0078250   1.0078250
 NucSpn=           0           2           0           0           0           0           0           1           1           1
 AtZEff=   0.0000000   0.0000000   0.0000000   0.0000000   0.0000000   0.0000000   0.0000000   0.0000000   0.0000000   0.0000000
 NQMom=    0.0000000   2.0440000   0.0000000   0.0000000   0.0000000   0.0000000   0.0000000   0.0000000   0.0000000   0.0000000
 NMagM=    0.0000000   0.4037610   0.0000000   0.0000000   0.0000000   0.0000000   0.0000000   2.7928460   2.7928460   2.7928460
 AtZNuc=   8.0000000   7.0000000   6.0000000   6.0000000   6.0000000   6.0000000   6.0000000   1.0000000   1.0000000   1.0000000

  Atom        11          12          13          14          15
 IAtWgt=           1           1          16           1           1
 AtmWgt=   1.0078250   1.0078250  15.9949146   1.0078250   1.0078250
 NucSpn=           1           1           0           1           1
 AtZEff=   0.0000000   0.0000000   0.0000000   0.0000000   0.0000000
 NQMom=    0.0000000   0.0000000   0.0000000   0.0000000   0.0000000
 NMagM=    2.7928460   2.7928460   0.0000000   2.7928460   2.7928460
 AtZNuc=   1.0000000   1.0000000   8.0000000   1.0000000   1.0000000
 Leave Link  101 at Fri Aug 27 00:02:53 2021, MaxMem= 17179869184 cpu:         9.5
 (Enter /public3/home/sc51754/softwares/g09e01/l103.exe)

 GradGradGradGradGradGradGradGradGradGradGradGradGradGradGradGradGradGrad
 Berny optimization.
 Initialization pass.
                           ----------------------------
                           !    Initial Parameters    !
                           ! (Angstroms and Degrees)  !
 --------------------------                            --------------------------
 ! Name  Definition              Value          Derivative Info.                !
 --------------------------------------------------------------------------------
 ! R1    R(1,3)                  1.3393         estimate D2E/DX2                !
 ! R2    R(1,8)                  0.9817         estimate D2E/DX2                !
 ! R3    R(2,3)                  1.3321         estimate D2E/DX2                !
 ! R4    R(2,5)                  1.3398         estimate D2E/DX2                !
 ! R5    R(2,15)                 1.9334         estimate D2E/DX2                !
 ! R6    R(3,4)                  1.4017         estimate D2E/DX2                !
 ! R7    R(4,6)                  1.3785         estimate D2E/DX2                !
 ! R8    R(4,9)                  1.0796         estimate D2E/DX2                !
 ! R9    R(5,7)                  1.3808         estimate D2E/DX2                !
 ! R10   R(5,10)                 1.0831         estimate D2E/DX2                !
 ! R11   R(6,7)                  1.3964         estimate D2E/DX2                !
 ! R12   R(6,11)                 1.0818         estimate D2E/DX2                !
 ! R13   R(7,12)                 1.0797         estimate D2E/DX2                !
 ! R14   R(8,13)                 1.831          estimate D2E/DX2                !
 ! R15   R(8,15)                 1.911          estimate D2E/DX2                !
 ! R16   R(13,14)                0.9606         estimate D2E/DX2                !
 ! R17   R(13,15)                0.9803         estimate D2E/DX2                !
 ! A1    A(3,1,8)              109.7141         estimate D2E/DX2                !
 ! A2    A(3,2,5)              118.3342         estimate D2E/DX2                !
 ! A3    A(3,2,15)             107.2978         estimate D2E/DX2                !
 ! A4    A(5,2,15)             134.3668         estimate D2E/DX2                !
 ! A5    A(1,3,2)              119.0414         estimate D2E/DX2                !
 ! A6    A(1,3,4)              118.3271         estimate D2E/DX2                !
 ! A7    A(2,3,4)              122.6315         estimate D2E/DX2                !
 ! A8    A(3,4,6)              118.1694         estimate D2E/DX2                !
 ! A9    A(3,4,9)              119.4119         estimate D2E/DX2                !
 ! A10   A(6,4,9)              122.4186         estimate D2E/DX2                !
 ! A11   A(2,5,7)              123.3496         estimate D2E/DX2                !
 ! A12   A(2,5,10)             115.832          estimate D2E/DX2                !
 ! A13   A(7,5,10)             120.8184         estimate D2E/DX2                !
 ! A14   A(4,6,7)              119.6513         estimate D2E/DX2                !
 ! A15   A(4,6,11)             119.9667         estimate D2E/DX2                !
 ! A16   A(7,6,11)             120.382          estimate D2E/DX2                !
 ! A17   A(5,7,6)              117.8639         estimate D2E/DX2                !
 ! A18   A(5,7,12)             120.5506         estimate D2E/DX2                !
 ! A19   A(6,7,12)             121.5855         estimate D2E/DX2                !
 ! A20   A(1,8,13)             159.5294         estimate D2E/DX2                !
 ! A21   A(1,8,15)             129.3503         estimate D2E/DX2                !
 ! A22   A(8,13,14)            121.2243         estimate D2E/DX2                !
 ! A23   A(14,13,15)           106.8012         estimate D2E/DX2                !
 ! A24   A(2,15,8)              74.5948         estimate D2E/DX2                !
 ! A25   A(2,15,13)            144.7717         estimate D2E/DX2                !
 ! D1    D(8,1,3,2)              0.4232         estimate D2E/DX2                !
 ! D2    D(8,1,3,4)           -179.5823         estimate D2E/DX2                !
 ! D3    D(3,1,8,13)             4.1107         estimate D2E/DX2                !
 ! D4    D(3,1,8,15)            -0.4785         estimate D2E/DX2                !
 ! D5    D(5,2,3,1)           -179.8646         estimate D2E/DX2                !
 ! D6    D(5,2,3,4)              0.1411         estimate D2E/DX2                !
 ! D7    D(15,2,3,1)            -0.2046         estimate D2E/DX2                !
 ! D8    D(15,2,3,4)           179.8011         estimate D2E/DX2                !
 ! D9    D(3,2,5,7)             -0.1121         estimate D2E/DX2                !
 ! D10   D(3,2,5,10)           179.8324         estimate D2E/DX2                !
 ! D11   D(15,2,5,7)          -179.6581         estimate D2E/DX2                !
 ! D12   D(15,2,5,10)            0.2865         estimate D2E/DX2                !
 ! D13   D(3,2,15,8)            -0.0003         estimate D2E/DX2                !
 ! D14   D(3,2,15,13)           -5.7168         estimate D2E/DX2                !
 ! D15   D(5,2,15,8)           179.5811         estimate D2E/DX2                !
 ! D16   D(5,2,15,13)          173.8646         estimate D2E/DX2                !
 ! D17   D(1,3,4,6)            179.9187         estimate D2E/DX2                !
 ! D18   D(1,3,4,9)              0.0211         estimate D2E/DX2                !
 ! D19   D(2,3,4,6)             -0.0869         estimate D2E/DX2                !
 ! D20   D(2,3,4,9)           -179.9845         estimate D2E/DX2                !
 ! D21   D(3,4,6,7)             -0.0001         estimate D2E/DX2                !
 ! D22   D(3,4,6,11)          -179.9445         estimate D2E/DX2                !
 ! D23   D(9,4,6,7)            179.8942         estimate D2E/DX2                !
 ! D24   D(9,4,6,11)            -0.0502         estimate D2E/DX2                !
 ! D25   D(2,5,7,6)              0.0291         estimate D2E/DX2                !
 ! D26   D(2,5,7,12)           179.968          estimate D2E/DX2                !
 ! D27   D(10,5,7,6)          -179.9128         estimate D2E/DX2                !
 ! D28   D(10,5,7,12)            0.0261         estimate D2E/DX2                !
 ! D29   D(4,6,7,5)              0.0272         estimate D2E/DX2                !
 ! D30   D(4,6,7,12)          -179.911          estimate D2E/DX2                !
 ! D31   D(11,6,7,5)           179.9714         estimate D2E/DX2                !
 ! D32   D(11,6,7,12)            0.0332         estimate D2E/DX2                !
 ! D33   D(1,8,13,14)         -110.3582         estimate D2E/DX2                !
 ! D34   D(1,8,15,2)             0.3164         estimate D2E/DX2                !
 ! D35   D(8,13,14,15)          87.5843         estimate D2E/DX2                !
 ! D36   D(14,13,15,2)         125.4771         estimate D2E/DX2                !
 --------------------------------------------------------------------------------
 Trust Radius=3.00D-01 FncErr=1.00D-07 GrdErr=1.00D-06
 Number of steps in this run=     88 maximum allowed number of steps=    100.
 GradGradGradGradGradGradGradGradGradGradGradGradGradGradGradGradGradGrad

 Leave Link  103 at Fri Aug 27 00:02:53 2021, MaxMem= 17179869184 cpu:         0.1
 (Enter /public3/home/sc51754/softwares/g09e01/l202.exe)
                          Input orientation:                          
 ---------------------------------------------------------------------
 Center     Atomic      Atomic             Coordinates (Angstroms)
 Number     Number       Type             X           Y           Z
 ---------------------------------------------------------------------
      1          8           0        1.216003    1.448553   -0.002617
      2          7           0        0.305942   -0.666194   -0.005465
      3          6           0        0.137014    0.655155   -0.000094
      4          6           0       -1.129757    1.255183    0.008257
      5          6           0       -0.783175   -1.446498   -0.005634
      6          6           0       -2.238124    0.435485    0.009108
      7          6           0       -2.071986   -0.950998    0.001732
      8          1           0        2.030216    0.900227   -0.015295
      9          1           0       -1.206308    2.332099    0.012077
     10          1           0       -0.599059   -2.513820   -0.012944
     11          1           0       -3.229823    0.867678    0.014558
     12          1           0       -2.917952   -1.621952    0.000735
     13          8           0        3.095711   -0.587217   -0.085025
     14          1           0        3.593966   -0.879251    0.682533
     15          1           0        2.209819   -1.002278   -0.022484
 ---------------------------------------------------------------------
                    Distance matrix (angstroms):
                    1          2          3          4          5
     1  O    0.000000
     2  N    2.302254   0.000000
     3  C    1.339292   1.332114   0.000000
     4  C    2.353742   2.398564   1.401718   0.000000
     5  C    3.518244   1.339795   2.294281   2.723856   0.000000
     6  C    3.599644   2.772396   2.385292   1.378544   2.378856
     7  C    4.070471   2.394934   2.731192   2.398973   1.380800
     8  H    0.981715   2.329569   1.909059   3.179934   3.663657
     9  H    2.578461   3.358120   2.148675   1.079640   3.802256
    10  H    4.358320   2.057378   3.253363   3.806241   1.083111
    11  H    4.483646   3.854192   3.373570   2.135527   3.367774
    12  H    5.149524   3.362589   3.810254   3.387566   2.141984
    13  O    2.772085   2.792020   3.210076   4.610609   3.973717
    14  H    3.397471   3.365982   3.843293   5.227238   4.467069
    15  H    2.644738   1.933388   2.654073   4.031109   3.025827
                    6          7          8          9         10
     6  C    0.000000
     7  C    1.396421   0.000000
     8  H    4.293636   4.500598   0.000000
     9  H    2.159120   3.395325   3.539222   0.000000
    10  H    3.374229   2.147590   4.309154   4.883883   0.000000
    11  H    1.081798   2.155999   5.260224   2.497829   4.284414
    12  H    2.166860   1.079740   5.553918   4.308639   2.484528
    13  O    5.431812   5.181212   1.831019   5.199923   4.167532
    14  H    6.016253   5.707158   2.469579   5.814199   4.553786
    15  H    4.674651   4.282181   1.910977   4.773802   3.189772
                   11         12         13         14         15
    11  H    0.000000
    12  H    2.509126   0.000000
    13  O    6.491457   6.102637   0.000000
    14  H    7.075454   6.589501   0.960566   0.000000
    15  H    5.752201   5.165130   0.980302   1.558219   0.000000
 Stoichiometry    C5H7NO2
 Framework group  C1[X(C5H7NO2)]
 Deg. of freedom    39
 Full point group                 C1      NOp   1
 Largest Abelian subgroup         C1      NOp   1
 Largest concise Abelian subgroup C1      NOp   1
                         Standard orientation:                         
 ---------------------------------------------------------------------
 Center     Atomic      Atomic             Coordinates (Angstroms)
 Number     Number       Type             X           Y           Z
 ---------------------------------------------------------------------
      1          8           0        1.216003    1.448553   -0.002617
      2          7           0        0.305942   -0.666194   -0.005465
      3          6           0        0.137014    0.655155   -0.000094
      4          6           0       -1.129757    1.255183    0.008257
      5          6           0       -0.783175   -1.446498   -0.005634
      6          6           0       -2.238124    0.435485    0.009108
      7          6           0       -2.071986   -0.950998    0.001732
      8          1           0        2.030216    0.900227   -0.015295
      9          1           0       -1.206308    2.332099    0.012077
     10          1           0       -0.599059   -2.513820   -0.012944
     11          1           0       -3.229823    0.867678    0.014558
     12          1           0       -2.917952   -1.621952    0.000735
     13          8           0        3.095711   -0.587217   -0.085025
     14          1           0        3.593966   -0.879251    0.682533
     15          1           0        2.209819   -1.002278   -0.022484
 ---------------------------------------------------------------------
 Rotational constants (GHZ):      4.0123302      1.4179596      1.0501753
 Leave Link  202 at Fri Aug 27 00:02:53 2021, MaxMem= 17179869184 cpu:         2.3
 (Enter /public3/home/sc51754/softwares/g09e01/l301.exe)
 General basis read from cards:  (5D, 7F)
 Centers:       8      9     10     11     12     14     15
 S 4 1.00
     Exponent=  7.5423000000D+01 Coefficients=  2.4065000000D-03
     Exponent=  1.1350000000D+01 Coefficients=  1.8487000000D-02
     Exponent=  2.5993000000D+00 Coefficients=  8.9742000000D-02
     Exponent=  7.3513000000D-01 Coefficients=  2.8111000000D-01
 S 1 1.00
     Exponent=  2.3167000000D-01 Coefficients=  1.0000000000D+00
 S 1 1.00
     Exponent=  7.4147000000D-02 Coefficients=  1.0000000000D+00
 P 1 1.00
     Exponent=  1.6000000000D+00 Coefficients=  1.0000000000D+00
 P 1 1.00
     Exponent=  4.5000000000D-01 Coefficients=  1.0000000000D+00
 D 1 1.00
     Exponent=  1.2500000000D+00 Coefficients=  1.0000000000D+00
 ****
 Centers:       3      4      5      6      7
 S 7 1.00
     Exponent=  7.8571000000D+03 Coefficients=  5.6825000000D-04
     Exponent=  1.1787000000D+03 Coefficients=  4.3915000000D-03
     Exponent=  2.6832000000D+02 Coefficients=  2.2504000000D-02
     Exponent=  7.5948000000D+01 Coefficients=  8.6653000000D-02
     Exponent=  2.4559000000D+01 Coefficients=  2.4405000000D-01
     Exponent=  8.6212000000D+00 Coefficients=  4.4148000000D-01
     Exponent=  3.1278000000D+00 Coefficients=  3.5332000000D-01
 S 7 1.00
     Exponent=  1.1787000000D+03 Coefficients= -5.9492000000D-07
     Exponent=  2.6832000000D+02 Coefficients= -6.2748000000D-05
     Exponent=  7.5948000000D+01 Coefficients= -7.5773000000D-04
     Exponent=  2.4559000000D+01 Coefficients= -7.3308000000D-03
     Exponent=  8.6212000000D+00 Coefficients= -3.8932000000D-02
     Exponent=  3.1278000000D+00 Coefficients= -8.8908000000D-02
     Exponent=  8.2202000000D-01 Coefficients=  2.1689000000D-01
 S 1 1.00
     Exponent=  3.3017000000D-01 Coefficients=  1.0000000000D+00
 S 1 1.00
     Exponent=  1.1463000000D-01 Coefficients=  1.0000000000D+00
 P 4 1.00
     Exponent=  3.3775000000D+01 Coefficients=  6.0294000000D-03
     Exponent=  7.6766000000D+00 Coefficients=  4.3228000000D-02
     Exponent=  2.2357000000D+00 Coefficients=  1.6301000000D-01
     Exponent=  7.6447000000D-01 Coefficients=  3.6504000000D-01
 P 1 1.00
     Exponent=  2.6232000000D-01 Coefficients=  1.0000000000D+00
 P 1 1.00
     Exponent=  8.4638000000D-02 Coefficients=  1.0000000000D+00
 D 1 1.00
     Exponent=  1.4000000000D+00 Coefficients=  1.0000000000D+00
 D 1 1.00
     Exponent=  4.5000000000D-01 Coefficients=  1.0000000000D+00
 F 1 1.00
     Exponent=  9.5000000000D-01 Coefficients=  1.0000000000D+00
 ****
 Centers:       2
 S 7 1.00
     Exponent=  1.1101000000D+04 Coefficients=  5.4570000000D-04
     Exponent=  1.6653000000D+03 Coefficients=  4.2181000000D-03
     Exponent=  3.7908000000D+02 Coefficients=  2.1645000000D-02
     Exponent=  1.0730000000D+02 Coefficients=  8.3776000000D-02
     Exponent=  3.4747000000D+01 Coefficients=  2.3881000000D-01
     Exponent=  1.2249000000D+01 Coefficients=  4.3994000000D-01
     Exponent=  4.4743000000D+00 Coefficients=  3.6364000000D-01
 S 7 1.00
     Exponent=  1.6653000000D+03 Coefficients= -1.5006000000D-06
     Exponent=  3.7908000000D+02 Coefficients= -5.8753000000D-05
     Exponent=  1.0730000000D+02 Coefficients= -7.7453000000D-04
     Exponent=  3.4747000000D+01 Coefficients= -7.2161000000D-03
     Exponent=  1.2249000000D+01 Coefficients= -3.9338000000D-02
     Exponent=  4.4743000000D+00 Coefficients= -9.0611000000D-02
     Exponent=  1.2404000000D+00 Coefficients=  1.9882000000D-01
 S 1 1.00
     Exponent=  4.8743000000D-01 Coefficients=  1.0000000000D+00
 S 1 1.00
     Exponent=  1.6484000000D-01 Coefficients=  1.0000000000D+00
 P 4 1.00
     Exponent=  4.7934000000D+01 Coefficients=  6.1706000000D-03
     Exponent=  1.0999000000D+01 Coefficients=  4.4260000000D-02
     Exponent=  3.2472000000D+00 Coefficients=  1.6825000000D-01
     Exponent=  1.1114000000D+00 Coefficients=  3.6848000000D-01
 P 1 1.00
     Exponent=  3.7988000000D-01 Coefficients=  1.0000000000D+00
 P 1 1.00
     Exponent=  1.2068000000D-01 Coefficients=  1.0000000000D+00
 D 1 1.00
     Exponent=  1.8000000000D+00 Coefficients=  1.0000000000D+00
 D 1 1.00
     Exponent=  5.5000000000D-01 Coefficients=  1.0000000000D+00
 F 1 1.00
     Exponent=  1.0200000000D+00 Coefficients=  1.0000000000D+00
 ****
 Centers:       1     13
 S 7 1.00
     Exponent=  1.4782000000D+04 Coefficients=  5.3519000000D-04
     Exponent=  2.2173000000D+03 Coefficients=  4.1375000000D-03
     Exponent=  5.0474000000D+02 Coefficients=  2.1245000000D-02
     Exponent=  1.4287000000D+02 Coefficients=  8.2453000000D-02
     Exponent=  4.6300000000D+01 Coefficients=  2.3671000000D-01
     Exponent=  1.6337000000D+01 Coefficients=  4.4039000000D-01
     Exponent=  5.9828000000D+00 Coefficients=  3.6465000000D-01
 S 7 1.00
     Exponent=  2.2173000000D+03 Coefficients= -1.9275000000D-06
     Exponent=  5.0474000000D+02 Coefficients= -5.7964000000D-05
     Exponent=  1.4287000000D+02 Coefficients= -7.9494000000D-04
     Exponent=  4.6300000000D+01 Coefficients= -7.3125000000D-03
     Exponent=  1.6337000000D+01 Coefficients= -4.0574000000D-02
     Exponent=  5.9828000000D+00 Coefficients= -9.1594000000D-02
     Exponent=  1.6718000000D+00 Coefficients=  2.0940000000D-01
 S 1 1.00
     Exponent=  6.4662000000D-01 Coefficients=  1.0000000000D+00
 S 1 1.00
     Exponent=  2.1669000000D-01 Coefficients=  1.0000000000D+00
 P 4 1.00
     Exponent=  6.0424000000D+01 Coefficients=  6.8949000000D-03
     Exponent=  1.3935000000D+01 Coefficients=  4.9005000000D-02
     Exponent=  4.1531000000D+00 Coefficients=  1.8255000000D-01
     Exponent=  1.4158000000D+00 Coefficients=  3.7633000000D-01
 P 1 1.00
     Exponent=  4.7549000000D-01 Coefficients=  1.0000000000D+00
 P 1 1.00
     Exponent=  1.4529000000D-01 Coefficients=  1.0000000000D+00
 D 1 1.00
     Exponent=  2.2000000000D+00 Coefficients=  1.0000000000D+00
 D 1 1.00
     Exponent=  6.5000000000D-01 Coefficients=  1.0000000000D+00
 F 1 1.00
     Exponent=  1.1000000000D+00 Coefficients=  1.0000000000D+00
 ****
 Ernie: Thresh=  0.10000D-02 Tol=  0.10000D-05 Strict=F.
 Ernie:  8 primitive shells out of 263 were deleted.
 There are   385 symmetry adapted cartesian basis functions of A   symmetry.
 There are   338 symmetry adapted basis functions of A   symmetry.
   338 basis functions,   566 primitive gaussians,   385 cartesian basis functions
    30 alpha electrons       30 beta electrons
       nuclear repulsion energy       357.6226221683 Hartrees.
 IExCor= 1009 DFT=T Ex=PBE Corr=PBE ExCW=0 ScaHFX=  0.000000
 ScaDFX=  1.000000  1.000000  1.000000  1.000000 ScalE2=  1.000000  1.000000
 IRadAn=      0 IRanWt=     -1 IRanGd=            0 ICorTp=0 IEmpDi=  4
 NAtoms=   15 NActive=   15 NUniq=   15 SFac= 1.00D+00 NAtFMM=   60 NAOKFM=F Big=F
 Integral buffers will be    131072 words long.
 Raffenetti 2 integral format.
 Two-electron integral symmetry is turned on.
 Leave Link  301 at Fri Aug 27 00:02:53 2021, MaxMem= 17179869184 cpu:         2.7
 (Enter /public3/home/sc51754/softwares/g09e01/l302.exe)
 NPDir=0 NMtPBC=     1 NCelOv=     1 NCel=       1 NClECP=     1 NCelD=      1
         NCelK=      1 NCelE2=     1 NClLst=     1 CellRange=     0.0.
 One-electron integrals computed using PRISM.
 NBasis=   338 RedAO= T EigKep=  1.46D-04  NBF=   338
 NBsUse=   338 1.00D-06 EigRej= -1.00D+00 NBFU=   338
 Precomputing XC quadrature grid using
 IXCGrd= 4 IRadAn=           0 IRanWt=          -1 IRanGd=           0 AccXCQ= 0.00D+00.
 Generated NRdTot=       0 NPtTot=           0 NUsed=           0 NTot=          32
 NSgBfM=   384   384   384   384   385 MxSgAt=    15 MxSgA2=    15.
 Leave Link  302 at Fri Aug 27 00:02:54 2021, MaxMem= 17179869184 cpu:        49.9
 (Enter /public3/home/sc51754/softwares/g09e01/l303.exe)
 DipDrv:  MaxL=1.
 Leave Link  303 at Fri Aug 27 00:02:54 2021, MaxMem= 17179869184 cpu:        11.7
 (Enter /public3/home/sc51754/softwares/g09e01/l401.exe)
 ExpMin= 7.41D-02 ExpMax= 1.48D+04 ExpMxC= 5.05D+02 IAcc=2 IRadAn=         4 AccDes= 0.00D+00
 Harris functional with IExCor= 1009 and IRadAn=       4 diagonalized for initial guess.
 HarFok:  IExCor= 1009 AccDes= 0.00D+00 IRadAn=         4 IDoV= 1 UseB2=F ITyADJ=14
 ICtDFT=  3500011 ScaDFX=  1.000000  1.000000  1.000000  1.000000
 FoFCou: FMM=F IPFlag=           0 FMFlag=      100000 FMFlg1=           0
         NFxFlg=           0 DoJE=T BraDBF=F KetDBF=T FulRan=T
         wScrn=  0.000000 ICntrl=     500 IOpCl=  0 I1Cent=   200000004 NGrid=           0
         NMat0=    1 NMatS0=      1 NMatT0=    0 NMatD0=    1 NMtDS0=    0 NMtDT0=    0
 Petite list used in FoFCou.
 Harris En= -399.801169270424    
 JPrj=0 DoOrth=F DoCkMO=F.
 Leave Link  401 at Fri Aug 27 00:02:55 2021, MaxMem= 17179869184 cpu:        51.5
 (Enter /public3/home/sc51754/softwares/g09e01/l502.exe)
 Closed shell SCF:
 Using DIIS extrapolation, IDIIS=  1040.
 Integral symmetry usage will be decided dynamically.
 Keep J ints in memory in canonical form, NReq=1670404686.
 IVT=      490665 IEndB=      490665 NGot= 17179869184 MDV= 15538220534
 LenX= 15538220534 LenY= 15538071868
 Requested convergence on RMS density matrix=1.00D-08 within 128 cycles.
 Requested convergence on MAX density matrix=1.00D-06.
 Requested convergence on             energy=1.00D-06.
 No special actions if energy rises.
 FoFCou: FMM=F IPFlag=           0 FMFlag=           0 FMFlg1=           0
         NFxFlg=           0 DoJE=F BraDBF=F KetDBF=F FulRan=T
         wScrn=  0.000000 ICntrl=     600 IOpCl=  0 I1Cent=           0 NGrid=           0
         NMat0=    1 NMatS0=  57291 NMatT0=    0 NMatD0=    1 NMtDS0=    0 NMtDT0=    0
 Symmetry not used in FoFCou.
 Integral accuracy reduced to 1.0D-05 until final iterations.

 Cycle   1  Pass 0  IDiag  1:
 E= -399.467564547580    
 DIIS: error= 2.22D-02 at cycle   1 NSaved=   1.
 NSaved= 1 IEnMin= 1 EnMin= -399.467564547580     IErMin= 1 ErrMin= 2.22D-02
 ErrMax= 2.22D-02  0.00D+00 EMaxC= 1.00D-01 BMatC= 2.39D-01 BMatP= 2.39D-01
 IDIUse=3 WtCom= 7.78D-01 WtEn= 2.22D-01
 Coeff-Com:  0.100D+01
 Coeff-En:   0.100D+01
 Coeff:      0.100D+01
 Gap=     0.141 Goal=   None    Shift=    0.000
 GapD=    0.141 DampG=1.000 DampE=0.500 DampFc=0.5000 IDamp=-1.
 Damping current iteration by 5.00D-01
 RMSDP=2.93D-03 MaxDP=1.16D-01              OVMax= 2.32D-01

 Cycle   2  Pass 0  IDiag  1:
 E= -399.500222885470     Delta-E=       -0.032658337891 Rises=F Damp=T
 DIIS: error= 8.88D-03 at cycle   2 NSaved=   2.
 NSaved= 2 IEnMin= 2 EnMin= -399.500222885470     IErMin= 2 ErrMin= 8.88D-03
 ErrMax= 8.88D-03  0.00D+00 EMaxC= 1.00D-01 BMatC= 4.35D-02 BMatP= 2.39D-01
 IDIUse=3 WtCom= 9.11D-01 WtEn= 8.88D-02
 Coeff-Com:  0.275D+00 0.725D+00
 Coeff-En:   0.429D+00 0.571D+00
 Coeff:      0.289D+00 0.711D+00
 Gap=     0.204 Goal=   None    Shift=    0.000
 RMSDP=8.54D-04 MaxDP=3.01D-02 DE=-3.27D-02 OVMax= 1.91D-01

 Cycle   3  Pass 0  IDiag  1:
 E= -399.654117012619     Delta-E=       -0.153894127149 Rises=F Damp=F
 DIIS: error= 8.52D-03 at cycle   3 NSaved=   3.
 NSaved= 3 IEnMin= 3 EnMin= -399.654117012619     IErMin= 3 ErrMin= 8.52D-03
 ErrMax= 8.52D-03  0.00D+00 EMaxC= 1.00D-01 BMatC= 1.82D-02 BMatP= 4.35D-02
 IDIUse=3 WtCom= 9.15D-01 WtEn= 8.52D-02
 Coeff-Com:  0.134D+00 0.434D+00 0.432D+00
 Coeff-En:   0.000D+00 0.000D+00 0.100D+01
 Coeff:      0.122D+00 0.397D+00 0.480D+00
 Gap=     0.149 Goal=   None    Shift=    0.000
 RMSDP=4.73D-04 MaxDP=2.31D-02 DE=-1.54D-01 OVMax= 7.13D-02

 Cycle   4  Pass 0  IDiag  1:
 E= -399.665646672996     Delta-E=       -0.011529660377 Rises=F Damp=F
 DIIS: error= 5.95D-03 at cycle   4 NSaved=   4.
 NSaved= 4 IEnMin= 4 EnMin= -399.665646672996     IErMin= 4 ErrMin= 5.95D-03
 ErrMax= 5.95D-03  0.00D+00 EMaxC= 1.00D-01 BMatC= 6.13D-03 BMatP= 1.82D-02
 IDIUse=3 WtCom= 9.40D-01 WtEn= 5.95D-02
 Coeff-Com:  0.442D-01 0.171D+00 0.354D+00 0.431D+00
 Coeff-En:   0.000D+00 0.000D+00 0.302D+00 0.698D+00
 Coeff:      0.416D-01 0.160D+00 0.351D+00 0.447D+00
 Gap=     0.149 Goal=   None    Shift=    0.000
 RMSDP=2.04D-04 MaxDP=1.24D-02 DE=-1.15D-02 OVMax= 4.22D-02

 Cycle   5  Pass 0  IDiag  1:
 E= -399.671052170226     Delta-E=       -0.005405497230 Rises=F Damp=F
 DIIS: error= 1.46D-03 at cycle   5 NSaved=   5.
 NSaved= 5 IEnMin= 5 EnMin= -399.671052170226     IErMin= 5 ErrMin= 1.46D-03
 ErrMax= 1.46D-03  0.00D+00 EMaxC= 1.00D-01 BMatC= 7.18D-04 BMatP= 6.13D-03
 IDIUse=3 WtCom= 9.85D-01 WtEn= 1.46D-02
 Coeff-Com:  0.127D-01 0.618D-01 0.192D+00 0.317D+00 0.416D+00
 Coeff-En:   0.000D+00 0.000D+00 0.000D+00 0.104D+00 0.896D+00
 Coeff:      0.125D-01 0.609D-01 0.189D+00 0.314D+00 0.423D+00
 Gap=     0.148 Goal=   None    Shift=    0.000
 RMSDP=6.48D-05 MaxDP=3.26D-03 DE=-5.41D-03 OVMax= 1.03D-02

 Cycle   6  Pass 0  IDiag  1:
 E= -399.671724279089     Delta-E=       -0.000672108863 Rises=F Damp=F
 DIIS: error= 2.80D-04 at cycle   6 NSaved=   6.
 NSaved= 6 IEnMin= 6 EnMin= -399.671724279089     IErMin= 6 ErrMin= 2.80D-04
 ErrMax= 2.80D-04  0.00D+00 EMaxC= 1.00D-01 BMatC= 3.45D-05 BMatP= 7.18D-04
 IDIUse=3 WtCom= 9.97D-01 WtEn= 2.80D-03
 Coeff-Com:  0.479D-03 0.950D-02 0.542D-01 0.107D+00 0.234D+00 0.594D+00
 Coeff-En:   0.000D+00 0.000D+00 0.000D+00 0.000D+00 0.000D+00 0.100D+01
 Coeff:      0.478D-03 0.947D-02 0.541D-01 0.107D+00 0.233D+00 0.596D+00
 Gap=     0.149 Goal=   None    Shift=    0.000
 RMSDP=1.58D-05 MaxDP=5.50D-04 DE=-6.72D-04 OVMax= 2.97D-03

 Cycle   7  Pass 0  IDiag  1:
 E= -399.671747315591     Delta-E=       -0.000023036502 Rises=F Damp=F
 DIIS: error= 1.93D-04 at cycle   7 NSaved=   7.
 NSaved= 7 IEnMin= 7 EnMin= -399.671747315591     IErMin= 7 ErrMin= 1.93D-04
 ErrMax= 1.93D-04  0.00D+00 EMaxC= 1.00D-01 BMatC= 7.36D-06 BMatP= 3.45D-05
 IDIUse=3 WtCom= 9.98D-01 WtEn= 1.93D-03
 Coeff-Com: -0.581D-04 0.414D-02 0.287D-01 0.579D-01 0.139D+00 0.414D+00
 Coeff-Com:  0.356D+00
 Coeff-En:   0.000D+00 0.000D+00 0.000D+00 0.000D+00 0.000D+00 0.163D+00
 Coeff-En:   0.837D+00
 Coeff:     -0.580D-04 0.414D-02 0.287D-01 0.578D-01 0.139D+00 0.414D+00
 Coeff:      0.357D+00
 Gap=     0.148 Goal=   None    Shift=    0.000
 RMSDP=6.88D-06 MaxDP=3.06D-04 DE=-2.30D-05 OVMax= 1.52D-03

 Initial convergence to 1.0D-05 achieved.  Increase integral accuracy.
 Cycle   8  Pass 1  IDiag  1:
 E= -399.671797736175     Delta-E=       -0.000050420584 Rises=F Damp=F
 DIIS: error= 4.09D-05 at cycle   1 NSaved=   1.
 NSaved= 1 IEnMin= 1 EnMin= -399.671797736175     IErMin= 1 ErrMin= 4.09D-05
 ErrMax= 4.09D-05  0.00D+00 EMaxC= 1.00D-01 BMatC= 6.12D-07 BMatP= 6.12D-07
 IDIUse=1 WtCom= 1.00D+00 WtEn= 0.00D+00
 Coeff-Com:  0.100D+01
 Coeff:      0.100D+01
 Gap=     0.148 Goal=   None    Shift=    0.000
 RMSDP=6.88D-06 MaxDP=3.06D-04 DE=-5.04D-05 OVMax= 1.25D-03

 Cycle   9  Pass 1  IDiag  1:
 E= -399.671795334177     Delta-E=        0.000002401998 Rises=F Damp=F
 DIIS: error= 1.22D-04 at cycle   2 NSaved=   2.
 NSaved= 2 IEnMin= 1 EnMin= -399.671797736175     IErMin= 1 ErrMin= 4.09D-05
 ErrMax= 1.22D-04  0.00D+00 EMaxC= 1.00D-01 BMatC= 2.96D-06 BMatP= 6.12D-07
 IDIUse=3 WtCom= 4.76D-01 WtEn= 5.24D-01
 Coeff-Com:  0.703D+00 0.297D+00
 Coeff-En:   0.791D+00 0.209D+00
 Coeff:      0.749D+00 0.251D+00
 Gap=     0.148 Goal=   None    Shift=    0.000
 RMSDP=3.69D-06 MaxDP=1.31D-04 DE= 2.40D-06 OVMax= 9.09D-04

 Cycle  10  Pass 1  IDiag  1:
 E= -399.671798343285     Delta-E=       -0.000003009108 Rises=F Damp=F
 DIIS: error= 6.41D-06 at cycle   3 NSaved=   3.
 NSaved= 3 IEnMin= 3 EnMin= -399.671798343285     IErMin= 3 ErrMin= 6.41D-06
 ErrMax= 6.41D-06  0.00D+00 EMaxC= 1.00D-01 BMatC= 2.43D-08 BMatP= 6.12D-07
 IDIUse=1 WtCom= 1.00D+00 WtEn= 0.00D+00
 Coeff-Com:  0.142D+00 0.838D-02 0.849D+00
 Coeff:      0.142D+00 0.838D-02 0.849D+00
 Gap=     0.148 Goal=   None    Shift=    0.000
 RMSDP=5.53D-07 MaxDP=2.90D-05 DE=-3.01D-06 OVMax= 7.09D-05

 Cycle  11  Pass 1  IDiag  1:
 E= -399.671798338559     Delta-E=        0.000000004727 Rises=F Damp=F
 DIIS: error= 7.11D-06 at cycle   4 NSaved=   4.
 NSaved= 4 IEnMin= 3 EnMin= -399.671798343285     IErMin= 3 ErrMin= 6.41D-06
 ErrMax= 7.11D-06  0.00D+00 EMaxC= 1.00D-01 BMatC= 2.77D-08 BMatP= 2.43D-08
 IDIUse=1 WtCom= 1.00D+00 WtEn= 0.00D+00
 Coeff-Com:  0.203D-01-0.307D-01 0.595D+00 0.415D+00
 Coeff:      0.203D-01-0.307D-01 0.595D+00 0.415D+00
 Gap=     0.148 Goal=   None    Shift=    0.000
 RMSDP=3.82D-07 MaxDP=1.76D-05 DE= 4.73D-09 OVMax= 6.89D-05

 Cycle  12  Pass 1  IDiag  1:
 E= -399.671798360505     Delta-E=       -0.000000021946 Rises=F Damp=F
 DIIS: error= 3.06D-06 at cycle   5 NSaved=   5.
 NSaved= 5 IEnMin= 5 EnMin= -399.671798360505     IErMin= 5 ErrMin= 3.06D-06
 ErrMax= 3.06D-06  0.00D+00 EMaxC= 1.00D-01 BMatC= 1.43D-09 BMatP= 2.43D-08
 IDIUse=1 WtCom= 1.00D+00 WtEn= 0.00D+00
 Coeff-Com: -0.310D-03-0.213D-01 0.280D+00 0.250D+00 0.491D+00
 Coeff:     -0.310D-03-0.213D-01 0.280D+00 0.250D+00 0.491D+00
 Gap=     0.148 Goal=   None    Shift=    0.000
 RMSDP=1.24D-07 MaxDP=4.73D-06 DE=-2.19D-08 OVMax= 2.54D-05

 Cycle  13  Pass 1  IDiag  1:
 E= -399.671798361672     Delta-E=       -0.000000001167 Rises=F Damp=F
 DIIS: error= 1.61D-06 at cycle   6 NSaved=   6.
 NSaved= 6 IEnMin= 6 EnMin= -399.671798361672     IErMin= 6 ErrMin= 1.61D-06
 ErrMax= 1.61D-06  0.00D+00 EMaxC= 1.00D-01 BMatC= 4.30D-10 BMatP= 1.43D-09
 IDIUse=1 WtCom= 1.00D+00 WtEn= 0.00D+00
 Coeff-Com: -0.230D-02-0.138D-01 0.159D+00 0.152D+00 0.373D+00 0.332D+00
 Coeff:     -0.230D-02-0.138D-01 0.159D+00 0.152D+00 0.373D+00 0.332D+00
 Gap=     0.148 Goal=   None    Shift=    0.000
 RMSDP=4.57D-08 MaxDP=2.18D-06 DE=-1.17D-09 OVMax= 7.30D-06

 Cycle  14  Pass 1  IDiag  1:
 E= -399.671798362092     Delta-E=       -0.000000000421 Rises=F Damp=F
 DIIS: error= 7.18D-08 at cycle   7 NSaved=   7.
 NSaved= 7 IEnMin= 7 EnMin= -399.671798362092     IErMin= 7 ErrMin= 7.18D-08
 ErrMax= 7.18D-08  0.00D+00 EMaxC= 1.00D-01 BMatC= 3.38D-12 BMatP= 4.30D-10
 IDIUse=1 WtCom= 1.00D+00 WtEn= 0.00D+00
 Coeff-Com: -0.689D-03-0.339D-02 0.362D-01 0.363D-01 0.104D+00 0.129D+00
 Coeff-Com:  0.698D+00
 Coeff:     -0.689D-03-0.339D-02 0.362D-01 0.363D-01 0.104D+00 0.129D+00
 Coeff:      0.698D+00
 Gap=     0.148 Goal=   None    Shift=    0.000
 RMSDP=5.58D-09 MaxDP=2.84D-07 DE=-4.21D-10 OVMax= 5.30D-07

 SCF Done:  E(RPBE-PBE) =  -399.671798362     A.U. after   14 cycles
            NFock= 14  Conv=0.56D-08     -V/T= 2.0028
 KE= 3.985361368131D+02 PE=-1.651099662400D+03 EE= 4.952691050565D+02
 Leave Link  502 at Fri Aug 27 00:03:18 2021, MaxMem= 17179869184 cpu:       290.5
 (Enter /public3/home/sc51754/softwares/g09e01/l601.exe)
 Copying SCF densities to generalized density rwf, IOpCl= 0 IROHF=0.

 **********************************************************************

            Population analysis using the SCF density.

 **********************************************************************

 Orbital symmetries:
       Occupied  (A) (A) (A) (A) (A) (A) (A) (A) (A) (A) (A) (A)
                 (A) (A) (A) (A) (A) (A) (A) (A) (A) (A) (A) (A)
                 (A) (A) (A) (A) (A) (A)
       Virtual   (A) (A) (A) (A) (A) (A) (A) (A) (A) (A) (A) (A)
                 (A) (A) (A) (A) (A) (A) (A) (A) (A) (A) (A) (A)
                 (A) (A) (A) (A) (A) (A) (A) (A) (A) (A) (A) (A)
                 (A) (A) (A) (A) (A) (A) (A) (A) (A) (A) (A) (A)
                 (A) (A) (A) (A) (A) (A) (A) (A) (A) (A) (A) (A)
                 (A) (A) (A) (A) (A) (A) (A) (A) (A) (A) (A) (A)
                 (A) (A) (A) (A) (A) (A) (A) (A) (A) (A) (A) (A)
                 (A) (A) (A) (A) (A) (A) (A) (A) (A) (A) (A) (A)
                 (A) (A) (A) (A) (A) (A) (A) (A) (A) (A) (A) (A)
                 (A) (A) (A) (A) (A) (A) (A) (A) (A) (A) (A) (A)
                 (A) (A) (A) (A) (A) (A) (A) (A) (A) (A) (A) (A)
                 (A) (A) (A) (A) (A) (A) (A) (A) (A) (A) (A) (A)
                 (A) (A) (A) (A) (A) (A) (A) (A) (A) (A) (A) (A)
                 (A) (A) (A) (A) (A) (A) (A) (A) (A) (A) (A) (A)
                 (A) (A) (A) (A) (A) (A) (A) (A) (A) (A) (A) (A)
                 (A) (A) (A) (A) (A) (A) (A) (A) (A) (A) (A) (A)
                 (A) (A) (A) (A) (A) (A) (A) (A) (A) (A) (A) (A)
                 (A) (A) (A) (A) (A) (A) (A) (A) (A) (A) (A) (A)
                 (A) (A) (A) (A) (A) (A) (A) (A) (A) (A) (A) (A)
                 (A) (A) (A) (A) (A) (A) (A) (A) (A) (A) (A) (A)
                 (A) (A) (A) (A) (A) (A) (A) (A) (A) (A) (A) (A)
                 (A) (A) (A) (A) (A) (A) (A) (A) (A) (A) (A) (A)
                 (A) (A) (A) (A) (A) (A) (A) (A) (A) (A) (A) (A)
                 (A) (A) (A) (A) (A) (A) (A) (A) (A) (A) (A) (A)
                 (A) (A) (A) (A) (A) (A) (A) (A) (A) (A) (A) (A)
                 (A) (A) (A) (A) (A) (A) (A) (A)
 The electronic state is 1-A.
 Alpha  occ. eigenvalues --  -18.77312 -18.74923 -13.99248  -9.98088  -9.92816
 Alpha  occ. eigenvalues --   -9.90952  -9.89684  -9.89407  -0.98724  -0.92486
 Alpha  occ. eigenvalues --   -0.86738  -0.74138  -0.69361  -0.59334  -0.57671
 Alpha  occ. eigenvalues --   -0.50758  -0.48949  -0.46558  -0.43878  -0.40427
 Alpha  occ. eigenvalues --   -0.39814  -0.37045  -0.35660  -0.34275  -0.32349
 Alpha  occ. eigenvalues --   -0.31805  -0.27295  -0.27027  -0.24347  -0.21789
 Alpha virt. eigenvalues --   -0.06950  -0.04201  -0.00532   0.00766   0.02754
 Alpha virt. eigenvalues --    0.04523   0.05787   0.07855   0.08656   0.09940
 Alpha virt. eigenvalues --    0.12031   0.13427   0.14570   0.16296   0.16679
 Alpha virt. eigenvalues --    0.17077   0.18120   0.18587   0.20489   0.21803
 Alpha virt. eigenvalues --    0.23137   0.23462   0.24790   0.25651   0.26068
 Alpha virt. eigenvalues --    0.27042   0.27607   0.28316   0.29451   0.30089
 Alpha virt. eigenvalues --    0.31702   0.32691   0.33261   0.33659   0.35786
 Alpha virt. eigenvalues --    0.38702   0.39439   0.40937   0.41445   0.43924
 Alpha virt. eigenvalues --    0.46513   0.48559   0.49465   0.50568   0.51140
 Alpha virt. eigenvalues --    0.55340   0.56402   0.58115   0.59306   0.60018
 Alpha virt. eigenvalues --    0.60897   0.63797   0.65392   0.68857   0.70188
 Alpha virt. eigenvalues --    0.72299   0.73330   0.76369   0.76639   0.80273
 Alpha virt. eigenvalues --    0.83812   0.85726   0.86881   0.87448   0.89457
 Alpha virt. eigenvalues --    0.90801   0.92754   0.92912   0.94421   0.97172
 Alpha virt. eigenvalues --    0.98303   1.03389   1.03764   1.04970   1.07434
 Alpha virt. eigenvalues --    1.08811   1.08905   1.10382   1.11375   1.12373
 Alpha virt. eigenvalues --    1.14596   1.16550   1.18033   1.19967   1.20771
 Alpha virt. eigenvalues --    1.22161   1.22588   1.25955   1.26269   1.28454
 Alpha virt. eigenvalues --    1.35476   1.35814   1.38414   1.38753   1.43630
 Alpha virt. eigenvalues --    1.43931   1.45214   1.46300   1.48482   1.50016
 Alpha virt. eigenvalues --    1.51590   1.52914   1.54959   1.55874   1.59048
 Alpha virt. eigenvalues --    1.59823   1.61487   1.64072   1.64298   1.67842
 Alpha virt. eigenvalues --    1.70130   1.74048   1.75879   1.78891   1.80213
 Alpha virt. eigenvalues --    1.80341   1.81478   1.82729   1.84124   1.88843
 Alpha virt. eigenvalues --    1.90537   1.91300   1.93989   1.96939   2.00655
 Alpha virt. eigenvalues --    2.04117   2.06169   2.07608   2.09298   2.10523
 Alpha virt. eigenvalues --    2.11851   2.15809   2.16726   2.18586   2.20785
 Alpha virt. eigenvalues --    2.24218   2.30841   2.33109   2.42012   2.54745
 Alpha virt. eigenvalues --    2.61575   2.70912   2.78384   2.86715   2.87556
 Alpha virt. eigenvalues --    2.89985   2.94079   3.06750   3.09424   3.11979
 Alpha virt. eigenvalues --    3.14951   3.17081   3.17918   3.22097   3.26582
 Alpha virt. eigenvalues --    3.28557   3.28990   3.29609   3.32882   3.33528
 Alpha virt. eigenvalues --    3.36534   3.38562   3.40959   3.43757   3.48425
 Alpha virt. eigenvalues --    3.49537   3.51391   3.52605   3.53415   3.54937
 Alpha virt. eigenvalues --    3.59098   3.59830   3.61263   3.63938   3.65561
 Alpha virt. eigenvalues --    3.69451   3.70625   3.71805   3.74422   3.78390
 Alpha virt. eigenvalues --    3.81539   3.82980   3.84645   3.85664   3.88323
 Alpha virt. eigenvalues --    3.90850   3.92460   3.95740   3.97194   3.97387
 Alpha virt. eigenvalues --    3.98951   4.00249   4.01252   4.04150   4.07777
 Alpha virt. eigenvalues --    4.08470   4.08880   4.09480   4.11243   4.13391
 Alpha virt. eigenvalues --    4.13799   4.16251   4.18875   4.20187   4.21702
 Alpha virt. eigenvalues --    4.22494   4.22996   4.24328   4.25771   4.29523
 Alpha virt. eigenvalues --    4.30323   4.31468   4.32253   4.34684   4.35084
 Alpha virt. eigenvalues --    4.36484   4.36867   4.38197   4.38852   4.41846
 Alpha virt. eigenvalues --    4.42741   4.43618   4.44908   4.47354   4.49710
 Alpha virt. eigenvalues --    4.50962   4.52814   4.55884   4.56782   4.57518
 Alpha virt. eigenvalues --    4.59790   4.64404   4.67034   4.67719   4.73073
 Alpha virt. eigenvalues --    4.74468   4.78154   4.80180   4.80362   4.81695
 Alpha virt. eigenvalues --    4.82984   4.87009   4.87896   4.91754   4.93398
 Alpha virt. eigenvalues --    4.96379   5.00555   5.00991   5.04969   5.10163
 Alpha virt. eigenvalues --    5.10330   5.13684   5.14291   5.19482   5.23586
 Alpha virt. eigenvalues --    5.24698   5.25679   5.29420   5.31349   5.32195
 Alpha virt. eigenvalues --    5.33956   5.36809   5.37355   5.44747   5.46217
 Alpha virt. eigenvalues --    5.52876   5.53471   5.57421   5.59377   5.67832
 Alpha virt. eigenvalues --    5.69568   5.72721   5.74787   5.82883   5.87491
 Alpha virt. eigenvalues --    5.92119   5.94504   5.96077   5.96643   6.00915
 Alpha virt. eigenvalues --    6.08984   6.12250   6.13304   6.14492   6.18558
 Alpha virt. eigenvalues --    6.19123   6.20900   6.26299   6.31101   6.37717
 Alpha virt. eigenvalues --    6.41454   6.49259   6.53126   6.59864   6.77593
 Alpha virt. eigenvalues --    6.82021   6.85901   7.03731   7.21787   7.31236
 Alpha virt. eigenvalues --    9.19542  12.04033  12.59535  15.36398  15.39146
 Alpha virt. eigenvalues --   17.24457  18.49959  22.13644
          Condensed to atoms (all electrons):
               1          2          3          4          5          6
     1  O    7.850315  -0.090887   0.337130  -0.064880   0.004750   0.008631
     2  N   -0.090887   6.684386   0.452009  -0.021899   0.514959  -0.032971
     3  C    0.337130   0.452009   4.442493   0.519219  -0.072810  -0.054770
     4  C   -0.064880  -0.021899   0.519219   4.839861  -0.038560   0.530891
     5  C    0.004750   0.514959  -0.072810  -0.038560   4.602241  -0.071519
     6  C    0.008631  -0.032971  -0.054770   0.530891  -0.071519   4.723285
     7  C   -0.000223  -0.038620  -0.050222  -0.048148   0.523727   0.502901
     8  H    0.344871   0.007579  -0.029815   0.007793  -0.000494  -0.001121
     9  H    0.006147   0.007688  -0.033913   0.422826  -0.002086  -0.032257
    10  H   -0.000560  -0.039056   0.005873  -0.003214   0.436518   0.008632
    11  H   -0.000425  -0.001813   0.007582  -0.034516   0.008030   0.424638
    12  H    0.000077   0.007478  -0.000104   0.006311  -0.023852  -0.034716
    13  O   -0.028930  -0.041959  -0.006457   0.001156  -0.001693   0.000131
    14  H    0.001332   0.003679   0.000369   0.000157   0.000244  -0.000023
    15  H    0.000171   0.042398  -0.006676   0.001118   0.003058  -0.000434
               7          8          9         10         11         12
     1  O   -0.000223   0.344871   0.006147  -0.000560  -0.000425   0.000077
     2  N   -0.038620   0.007579   0.007688  -0.039056  -0.001813   0.007478
     3  C   -0.050222  -0.029815  -0.033913   0.005873   0.007582  -0.000104
     4  C   -0.048148   0.007793   0.422826  -0.003214  -0.034516   0.006311
     5  C    0.523727  -0.000494  -0.002086   0.436518   0.008030  -0.023852
     6  C    0.502901  -0.001121  -0.032257   0.008632   0.424638  -0.034716
     7  C    4.914894   0.000459   0.008650  -0.064102  -0.038579   0.417105
     8  H    0.000459   0.409693  -0.000048  -0.000195   0.000011  -0.000011
     9  H    0.008650  -0.000048   0.576964   0.000277  -0.007805  -0.000305
    10  H   -0.064102  -0.000195   0.000277   0.606166  -0.000542  -0.002954
    11  H   -0.038579   0.000011  -0.007805  -0.000542   0.592444  -0.006680
    12  H    0.417105  -0.000011  -0.000305  -0.002954  -0.006680   0.592420
    13  O   -0.000438   0.067966   0.000024   0.000468  -0.000007   0.000015
    14  H    0.000092  -0.004446  -0.000005  -0.000036   0.000001  -0.000002
    15  H    0.001810  -0.010798  -0.000076  -0.001044   0.000034  -0.000063
              13         14         15
     1  O   -0.028930   0.001332   0.000171
     2  N   -0.041959   0.003679   0.042398
     3  C   -0.006457   0.000369  -0.006676
     4  C    0.001156   0.000157   0.001118
     5  C   -0.001693   0.000244   0.003058
     6  C    0.000131  -0.000023  -0.000434
     7  C   -0.000438   0.000092   0.001810
     8  H    0.067966  -0.004446  -0.010798
     9  H    0.000024  -0.000005  -0.000076
    10  H    0.000468  -0.000036  -0.001044
    11  H   -0.000007   0.000001   0.000034
    12  H    0.000015  -0.000002  -0.000063
    13  O    7.745078   0.354735   0.340858
    14  H    0.354735   0.452632  -0.022636
    15  H    0.340858  -0.022636   0.422764
 Mulliken charges:
               1
     1  O   -0.367517
     2  N   -0.452971
     3  C    0.490090
     4  C   -0.118115
     5  C    0.117487
     6  C    0.028702
     7  C   -0.129307
     8  H    0.208557
     9  H    0.053919
    10  H    0.053768
    11  H    0.057628
    12  H    0.045281
    13  O   -0.430948
    14  H    0.213909
    15  H    0.229517
 Sum of Mulliken charges =  -0.00000
 Mulliken charges with hydrogens summed into heavy atoms:
               1
     1  O   -0.158960
     2  N   -0.452971
     3  C    0.490090
     4  C   -0.064196
     5  C    0.171255
     6  C    0.086331
     7  C   -0.084027
    13  O    0.012478
 Electronic spatial extent (au):  <R**2>=           1070.1242
 Charge=             -0.0000 electrons
 Dipole moment (field-independent basis, Debye):
    X=             -1.6789    Y=             -1.2238    Z=              1.3186  Tot=              2.4607
 Quadrupole moment (field-independent basis, Debye-Ang):
   XX=            -42.4010   YY=            -45.1091   ZZ=            -49.4400
   XY=             -2.6530   XZ=              5.2600   YZ=             -1.3309
 Traceless Quadrupole moment (field-independent basis, Debye-Ang):
   XX=              3.2491   YY=              0.5409   ZZ=             -3.7900
   XY=             -2.6530   XZ=              5.2600   YZ=             -1.3309
 Octapole moment (field-independent basis, Debye-Ang**2):
  XXX=             12.2304  YYY=             -6.9992  ZZZ=              1.0484  XYY=             -0.4163
  XXY=             -4.2445  XXZ=             19.9656  XZZ=             12.3826  YZZ=              0.3968
  YYZ=              1.2731  XYZ=             -5.1150
 Hexadecapole moment (field-independent basis, Debye-Ang**3):
 XXXX=           -845.3284 YYYY=           -359.5931 ZZZZ=            -54.3096 XXXY=            -21.0024
 XXXZ=             75.4690 YYYX=            -12.5977 YYYZ=             -1.5485 ZZZX=              4.9390
 ZZZY=             -1.3957 XXYY=           -203.2720 XXZZ=           -168.5975 YYZZ=            -77.3682
 XXYZ=            -18.4881 YYXZ=              5.2276 ZZXY=             -3.7073
 N-N= 3.576226221683D+02 E-N=-1.651099666769D+03  KE= 3.985361368131D+02
 No NMR shielding tensors so no spin-rotation constants.
 Leave Link  601 at Fri Aug 27 00:03:19 2021, MaxMem= 17179869184 cpu:        51.1
 (Enter /public3/home/sc51754/softwares/g09e01/l701.exe)
 Compute integral first derivatives.
 ... and contract with generalized density number  0.
 Leave Link  701 at Fri Aug 27 00:03:21 2021, MaxMem= 17179869184 cpu:        69.9
 (Enter /public3/home/sc51754/softwares/g09e01/l702.exe)
 L702 exits ... SP integral derivatives will be done elsewhere.
 Leave Link  702 at Fri Aug 27 00:03:21 2021, MaxMem= 17179869184 cpu:         0.3
 (Enter /public3/home/sc51754/softwares/g09e01/l703.exe)
 Compute integral first derivatives, UseDBF=F ICtDFT=           0.
 Integral derivatives from FoFJK, PRISM(SPDF).
 Calling FoFJK, ICntrl=      2527 FMM=F ISym2X=0 I1Cent= 0 IOpClX= 0 NMat=1 NMatS=1 NMatT=0.
 FoFJK:  IHMeth= 1 ICntrl=    2527 DoSepK=F KAlg= 0 I1Cent=   0 FoldK=F
 IRaf=         0 NMat=   1 IRICut=       1 DoRegI=T DoRafI=F ISym2E= 0.
 FoFCou: FMM=F IPFlag=           0 FMFlag=      100000 FMFlg1=         800
         NFxFlg=           0 DoJE=F BraDBF=F KetDBF=F FulRan=T
         wScrn=  0.000000 ICntrl=    2527 IOpCl=  0 I1Cent=           0 NGrid=           0
         NMat0=    1 NMatS0=      1 NMatT0=    0 NMatD0=    1 NMtDS0=    0 NMtDT0=    0
 Symmetry not used in FoFCou.
 Leave Link  703 at Fri Aug 27 00:03:24 2021, MaxMem= 17179869184 cpu:       187.6
 (Enter /public3/home/sc51754/softwares/g09e01/l716.exe)
 Dipole        =-6.60523255D-01-4.81476918D-01 5.18778517D-01
 ***** Axes restored to original set *****
 -------------------------------------------------------------------
 Center     Atomic                   Forces (Hartrees/Bohr)
 Number     Number              X              Y              Z
 -------------------------------------------------------------------
      1        8          -0.004405545    0.010550149    0.000015897
      2        7           0.007492811   -0.006212890    0.000012650
      3        6           0.001781264    0.003541929    0.000055069
      4        6           0.000039583    0.000672556   -0.000003620
      5        6           0.000233620   -0.000342424    0.000004130
      6        6          -0.000735900   -0.000843409    0.000022290
      7        6          -0.001442788    0.000728864    0.000000390
      8        1           0.008311513   -0.007831512    0.000082180
      9        1          -0.000482901    0.006197002    0.000019440
     10        1           0.001177390   -0.006286154   -0.000043716
     11        1          -0.005543216    0.002466929    0.000026128
     12        1          -0.004841359   -0.003800556   -0.000006154
     13        8           0.003883391    0.007289832   -0.007618191
     14        1           0.003438262   -0.002406093    0.006514805
     15        1          -0.008906125   -0.003724223    0.000918703
 -------------------------------------------------------------------
 Cartesian Forces:  Max     0.010550149 RMS     0.004244404
 Leave Link  716 at Fri Aug 27 00:03:24 2021, MaxMem= 17179869184 cpu:         0.5
 (Enter /public3/home/sc51754/softwares/g09e01/l103.exe)

 GradGradGradGradGradGradGradGradGradGradGradGradGradGradGradGradGradGrad
 Berny optimization.
 FormGI is forming the generalized inverse of G from B-inverse, IUseBI=4.
 Internal  Forces:  Max     0.010372503 RMS     0.003086650
 Search for a local minimum.
 Step number   1 out of a maximum of   88
 All quantities printed in internal units (Hartrees-Bohrs-Radians)
 RMS Force = .30867D-02 SwitMx=.10000D-02 MixMth= 1
 Mixed Optimization -- RFO/linear search
 Second derivative matrix not updated -- first step.
 ITU=  0
     Eigenvalues ---    0.00525   0.00832   0.01684   0.02094   0.02184
     Eigenvalues ---    0.02225   0.02239   0.02286   0.02319   0.02409
     Eigenvalues ---    0.02460   0.05224   0.06028   0.06507   0.08515
     Eigenvalues ---    0.13089   0.16000   0.16000   0.16000   0.16000
     Eigenvalues ---    0.19207   0.20418   0.22000   0.22270   0.23481
     Eigenvalues ---    0.35621   0.35778   0.36026   0.36038   0.41939
     Eigenvalues ---    0.43696   0.46841   0.47322   0.48462   0.48884
     Eigenvalues ---    0.52273   0.55339   0.55352   0.56565
 RFO step:  Lambda=-1.62788841D-03 EMin= 5.24515301D-03
 Linear search not attempted -- first point.
 Iteration  1 RMS(Cart)=  0.00925498 RMS(Int)=  0.00002958
 Iteration  2 RMS(Cart)=  0.00002147 RMS(Int)=  0.00000717
 Iteration  3 RMS(Cart)=  0.00000000 RMS(Int)=  0.00000717
 ITry= 1 IFail=0 DXMaxC= 3.07D-02 DCOld= 1.00D+10 DXMaxT= 3.00D-01 DXLimC= 3.00D+00 Rises=F
 Variable       Old X    -DE/DX   Delta X   Delta X   Delta X     New X
                                 (Linear)    (Quad)   (Total)
    R1        2.53090   0.00420   0.00000   0.00831   0.00832   2.53921
    R2        1.85517   0.01037   0.00000   0.02012   0.02013   1.87530
    R3        2.51733   0.00914   0.00000   0.01673   0.01672   2.53405
    R4        2.53185   0.00667   0.00000   0.01187   0.01187   2.54371
    R5        3.65357  -0.00083   0.00000  -0.02071  -0.02072   3.63285
    R6        2.64886   0.00656   0.00000   0.01461   0.01461   2.66347
    R7        2.60507   0.00711   0.00000   0.01405   0.01405   2.61912
    R8        2.04022   0.00621   0.00000   0.01717   0.01717   2.05739
    R9        2.60933   0.00752   0.00000   0.01516   0.01516   2.62449
   R10        2.04678   0.00640   0.00000   0.01787   0.01787   2.06466
   R11        2.63885   0.00601   0.00000   0.01246   0.01246   2.65131
   R12        2.04430   0.00607   0.00000   0.01688   0.01688   2.06118
   R13        2.04041   0.00616   0.00000   0.01701   0.01701   2.05742
   R14        3.46012  -0.00147   0.00000  -0.01385  -0.01387   3.44626
   R15        3.61122   0.00131   0.00000  -0.00057  -0.00054   3.61068
   R16        1.81521   0.00772   0.00000   0.01391   0.01391   1.82911
   R17        1.85250   0.00825   0.00000   0.01667   0.01667   1.86917
    A1        1.91487  -0.00220   0.00000  -0.00997  -0.00995   1.90492
    A2        2.06532  -0.00032   0.00000   0.00012   0.00012   2.06545
    A3        1.87270   0.00015   0.00000   0.00100   0.00099   1.87369
    A4        2.34514   0.00017   0.00000  -0.00113  -0.00112   2.34402
    A5        2.07766  -0.00015   0.00000   0.00208   0.00208   2.07974
    A6        2.06520   0.00046   0.00000  -0.00069  -0.00070   2.06450
    A7        2.14032  -0.00031   0.00000  -0.00138  -0.00138   2.13894
    A8        2.06244   0.00010   0.00000   0.00051   0.00052   2.06296
    A9        2.08413  -0.00000   0.00000   0.00003   0.00003   2.08416
   A10        2.13661  -0.00009   0.00000  -0.00054  -0.00055   2.13606
   A11        2.15286  -0.00008   0.00000   0.00034   0.00034   2.15320
   A12        2.02165  -0.00006   0.00000  -0.00077  -0.00077   2.02088
   A13        2.10868   0.00014   0.00000   0.00043   0.00043   2.10911
   A14        2.08831   0.00038   0.00000   0.00037   0.00036   2.08867
   A15        2.09381  -0.00023   0.00000  -0.00045  -0.00045   2.09336
   A16        2.10106  -0.00014   0.00000   0.00009   0.00009   2.10115
   A17        2.05711   0.00024   0.00000   0.00004   0.00004   2.05715
   A18        2.10400  -0.00009   0.00000   0.00015   0.00015   2.10415
   A19        2.12207  -0.00015   0.00000  -0.00019  -0.00019   2.12188
   A20        2.78431   0.00203   0.00000   0.00494   0.00495   2.78926
   A21        2.25759  -0.00033   0.00000  -0.00070  -0.00069   2.25690
   A22        2.11576  -0.00029   0.00000  -0.00323  -0.00321   2.11255
   A23        1.86403  -0.00051   0.00000  -0.00627  -0.00627   1.85777
   A24        1.30192   0.00254   0.00000   0.00760   0.00758   1.30951
   A25        2.52674   0.00027   0.00000  -0.00130  -0.00128   2.52546
    D1        0.00739   0.00009   0.00000  -0.00078  -0.00078   0.00661
    D2       -3.13430   0.00007   0.00000  -0.00048  -0.00047  -3.13477
    D3        0.07175   0.00044   0.00000   0.00431   0.00432   0.07607
    D4       -0.00835  -0.00016   0.00000   0.00179   0.00178  -0.00658
    D5       -3.13923  -0.00002   0.00000   0.00027   0.00027  -3.13896
    D6        0.00246   0.00000   0.00000  -0.00004  -0.00004   0.00242
    D7       -0.00357  -0.00001   0.00000  -0.00038  -0.00038  -0.00395
    D8        3.13812   0.00001   0.00000  -0.00070  -0.00069   3.13743
    D9       -0.00196   0.00001   0.00000  -0.00007  -0.00007  -0.00203
   D10        3.13867   0.00000   0.00000  -0.00027  -0.00027   3.13840
   D11       -3.13562  -0.00000   0.00000   0.00078   0.00078  -3.13484
   D12        0.00500  -0.00001   0.00000   0.00059   0.00059   0.00559
   D13       -0.00000  -0.00005   0.00000   0.00074   0.00074   0.00074
   D14       -0.09978  -0.00003   0.00000   0.00319   0.00319  -0.09658
   D15        3.13428  -0.00004   0.00000  -0.00005  -0.00005   3.13423
   D16        3.03451  -0.00002   0.00000   0.00240   0.00240   3.03691
   D17        3.14017   0.00002   0.00000  -0.00010  -0.00010   3.14007
   D18        0.00037   0.00002   0.00000  -0.00015  -0.00015   0.00022
   D19       -0.00152  -0.00001   0.00000   0.00021   0.00021  -0.00130
   D20       -3.14132  -0.00001   0.00000   0.00017   0.00017  -3.14115
   D21       -0.00000   0.00000   0.00000  -0.00026  -0.00026  -0.00027
   D22       -3.14062   0.00000   0.00000   0.00004   0.00004  -3.14059
   D23        3.13975   0.00000   0.00000  -0.00022  -0.00022   3.13953
   D24       -0.00088   0.00000   0.00000   0.00008   0.00008  -0.00079
   D25        0.00051  -0.00001   0.00000   0.00002   0.00001   0.00052
   D26        3.14103  -0.00000   0.00000  -0.00006  -0.00006   3.14097
   D27       -3.14007  -0.00000   0.00000   0.00022   0.00022  -3.13985
   D28        0.00046   0.00000   0.00000   0.00015   0.00015   0.00060
   D29        0.00048   0.00000   0.00000   0.00016   0.00016   0.00064
   D30       -3.14004  -0.00000   0.00000   0.00023   0.00023  -3.13980
   D31        3.14109   0.00000   0.00000  -0.00014  -0.00014   3.14095
   D32        0.00058  -0.00000   0.00000  -0.00007  -0.00007   0.00051
   D33       -1.92611   0.00019   0.00000   0.00252   0.00251  -1.92360
   D34        0.00552   0.00013   0.00000  -0.00165  -0.00165   0.00387
   D35        1.52863  -0.00051   0.00000  -0.00063  -0.00065   1.52798
   D36        2.18999  -0.00016   0.00000  -0.00426  -0.00428   2.18571
         Item               Value     Threshold  Converged?
 Maximum Force            0.010373     0.000450     NO 
 RMS     Force            0.003087     0.000300     NO 
 Maximum Displacement     0.030743     0.001800     NO 
 RMS     Displacement     0.009251     0.001200     NO 
 Predicted change in Energy=-8.174702D-04
 Lowest energy point so far.  Saving SCF results.
 GradGradGradGradGradGradGradGradGradGradGradGradGradGradGradGradGradGrad

 Leave Link  103 at Fri Aug 27 00:03:25 2021, MaxMem= 17179869184 cpu:        28.2
 (Enter /public3/home/sc51754/softwares/g09e01/l202.exe)
                          Input orientation:                          
 ---------------------------------------------------------------------
 Center     Atomic      Atomic             Coordinates (Angstroms)
 Number     Number       Type             X           Y           Z
 ---------------------------------------------------------------------
      1          8           0        1.224114    1.459286   -0.003702
      2          7           0        0.313384   -0.669135   -0.006100
      3          6           0        0.143274    0.660984   -0.000531
      4          6           0       -1.131341    1.262504    0.008321
      5          6           0       -0.780703   -1.453284   -0.005932
      6          6           0       -2.244934    0.437368    0.009721
      7          6           0       -2.077252   -0.955568    0.002070
      8          1           0        2.042796    0.898580   -0.016359
      9          1           0       -1.210117    2.348368    0.012134
     10          1           0       -0.593971   -2.529749   -0.013723
     11          1           0       -3.245020    0.872670    0.015546
     12          1           0       -2.930027   -1.632422    0.001263
     13          8           0        3.099828   -0.585830   -0.087224
     14          1           0        3.596327   -0.882503    0.688889
     15          1           0        2.206130   -1.005096   -0.024931
 ---------------------------------------------------------------------
                    Distance matrix (angstroms):
                    1          2          3          4          5
     1  O    0.000000
     2  N    2.315083   0.000000
     3  C    1.343693   1.340963   0.000000
     4  C    2.363691   2.412191   1.409450   0.000000
     5  C    3.535867   1.346075   2.307356   2.738366   0.000000
     6  C    3.616461   2.787399   2.398676   1.385980   2.391397
     7  C    4.090302   2.407749   2.746632   2.411354   1.388821
     8  H    0.992366   2.334245   1.914389   3.195027   3.674714
     9  H    2.591563   3.380342   2.163121   1.088724   3.825869
    10  H    4.383827   2.070082   3.274825   3.830200   1.092569
    11  H    4.507510   3.878127   3.394938   2.149339   3.388713
    12  H    5.178376   3.383445   3.834697   3.408213   2.156789
    13  O    2.776288   2.788868   3.209870   4.618252   3.977135
    14  H    3.404563   3.362477   3.844636   5.235941   4.468441
    15  H    2.652920   1.922423   2.651752   4.035075   3.020332
                    6          7          8          9         10
     6  C    0.000000
     7  C    1.403013   0.000000
     8  H    4.312542   4.518075   0.000000
     9  H    2.173194   3.415848   3.561480   0.000000
    10  H    3.395587   2.162965   4.325042   4.916943   0.000000
    11  H    1.090731   2.169405   5.287975   2.513667   4.313394
    12  H    2.180242   1.088741   5.579898   4.336461   2.502514
    13  O    5.442684   5.191034   1.823681   5.214883   4.174731
    14  H    6.026911   5.715467   2.466393   5.830817   4.556938
    15  H    4.679089   4.283754   1.910690   4.787258   3.188300
                   11         12         13         14         15
    11  H    0.000000
    12  H    2.524859   0.000000
    13  O    6.511134   6.120649   0.000000
    14  H    7.094931   6.605188   0.967925   0.000000
    15  H    5.765646   5.174392   0.989121   1.567551   0.000000
 Stoichiometry    C5H7NO2
 Framework group  C1[X(C5H7NO2)]
 Deg. of freedom    39
 Full point group                 C1      NOp   1
 RotChk:  IX=0 Diff= 2.01D-03
 Largest Abelian subgroup         C1      NOp   1
 Largest concise Abelian subgroup C1      NOp   1
                         Standard orientation:                         
 ---------------------------------------------------------------------
 Center     Atomic      Atomic             Coordinates (Angstroms)
 Number     Number       Type             X           Y           Z
 ---------------------------------------------------------------------
      1          8           0        1.224360    1.456177   -0.002801
      2          7           0        0.310703   -0.670989   -0.005589
      3          6           0        0.142422    0.659362   -0.000037
      4          6           0       -1.131368    1.262635    0.008387
      5          6           0       -0.784462   -1.453632   -0.005831
      6          6           0       -2.246095    0.439032    0.009368
      7          6           0       -2.080328   -0.954133    0.001731
      8          1           0        2.042274    0.894346   -0.015189
      9          1           0       -1.208652    2.348606    0.012208
     10          1           0       -0.599209   -2.530353   -0.013592
     11          1           0       -3.245584    0.875709    0.014856
     12          1           0       -2.934033   -1.629813    0.000602
     13          8           0        3.097287   -0.591515   -0.085731
     14          1           0        3.593105   -0.888896    0.690547
     15          1           0        2.202991   -1.009553   -0.023766
 ---------------------------------------------------------------------
 Rotational constants (GHZ):      3.9679822      1.4112882      1.0435250
 Leave Link  202 at Fri Aug 27 00:03:25 2021, MaxMem= 17179869184 cpu:         4.6
 (Enter /public3/home/sc51754/softwares/g09e01/l301.exe)
 Basis read from rwf:  (5D, 7F)
 No pseudopotential information found on rwf file.
 There are   385 symmetry adapted cartesian basis functions of A   symmetry.
 There are   338 symmetry adapted basis functions of A   symmetry.
   338 basis functions,   566 primitive gaussians,   385 cartesian basis functions
    30 alpha electrons       30 beta electrons
       nuclear repulsion energy       356.0107654592 Hartrees.
 IExCor= 1009 DFT=T Ex=PBE Corr=PBE ExCW=0 ScaHFX=  0.000000
 ScaDFX=  1.000000  1.000000  1.000000  1.000000 ScalE2=  1.000000  1.000000
 IRadAn=      0 IRanWt=     -1 IRanGd=            0 ICorTp=0 IEmpDi=  4
 NAtoms=   15 NActive=   15 NUniq=   15 SFac= 1.00D+00 NAtFMM=   60 NAOKFM=F Big=F
 Integral buffers will be    131072 words long.
 Raffenetti 2 integral format.
 Two-electron integral symmetry is turned on.
 No density basis found on file   724.
 Leave Link  301 at Fri Aug 27 00:03:25 2021, MaxMem= 17179869184 cpu:         0.9
 (Enter /public3/home/sc51754/softwares/g09e01/l302.exe)
 NPDir=0 NMtPBC=     1 NCelOv=     1 NCel=       1 NClECP=     1 NCelD=      1
         NCelK=      1 NCelE2=     1 NClLst=     1 CellRange=     0.0.
 One-electron integrals computed using PRISM.
 NBasis=   338 RedAO= T EigKep=  1.51D-04  NBF=   338
 NBsUse=   338 1.00D-06 EigRej= -1.00D+00 NBFU=   338
 Precomputing XC quadrature grid using
 IXCGrd= 4 IRadAn=           0 IRanWt=          -1 IRanGd=           0 AccXCQ= 0.00D+00.
 Generated NRdTot=       0 NPtTot=           0 NUsed=           0 NTot=          32
 NSgBfM=   384   384   384   384   385 MxSgAt=    15 MxSgA2=    15.
 Leave Link  302 at Fri Aug 27 00:03:26 2021, MaxMem= 17179869184 cpu:        42.4
 (Enter /public3/home/sc51754/softwares/g09e01/l303.exe)
 DipDrv:  MaxL=1.
 Leave Link  303 at Fri Aug 27 00:03:26 2021, MaxMem= 17179869184 cpu:        15.8
 (Enter /public3/home/sc51754/softwares/g09e01/l401.exe)
 Initial guess from the checkpoint file:  "HY_H2O_PBEPBE_PC2_OPT_FREQ.chk"
 B after Tr=     0.000000    0.000000   -0.000000
         Rot=    1.000000   -0.000029    0.000014    0.000517 Ang=  -0.06 deg.
 Guess basis will be translated and rotated to current coordinates.
 JPrj=2 DoOrth=T DoCkMO=T.
 Generating alternative initial guess.
 ExpMin= 7.41D-02 ExpMax= 1.48D+04 ExpMxC= 5.05D+02 IAcc=2 IRadAn=         4 AccDes= 0.00D+00
 Harris functional with IExCor= 1009 and IRadAn=       4 diagonalized for initial guess.
 HarFok:  IExCor= 1009 AccDes= 0.00D+00 IRadAn=         4 IDoV= 1 UseB2=F ITyADJ=14
 ICtDFT=  3500011 ScaDFX=  1.000000  1.000000  1.000000  1.000000
 FoFCou: FMM=F IPFlag=           0 FMFlag=      100000 FMFlg1=           0
         NFxFlg=           0 DoJE=T BraDBF=F KetDBF=T FulRan=T
         wScrn=  0.000000 ICntrl=     500 IOpCl=  0 I1Cent=   200000004 NGrid=           0
         NMat0=    1 NMatS0=      1 NMatT0=    0 NMatD0=    1 NMtDS0=    0 NMtDT0=    0
 Petite list used in FoFCou.
 Harris En= -399.794483915160    
 Leave Link  401 at Fri Aug 27 00:03:28 2021, MaxMem= 17179869184 cpu:        79.4
 (Enter /public3/home/sc51754/softwares/g09e01/l502.exe)
 Closed shell SCF:
 Using DIIS extrapolation, IDIIS=  1040.
 Integral symmetry usage will be decided dynamically.
 Keep J ints in memory in canonical form, NReq=1670404686.
 IVT=      490665 IEndB=      490665 NGot= 17179869184 MDV= 15538220534
 LenX= 15538220534 LenY= 15538071868
 Requested convergence on RMS density matrix=1.00D-08 within 128 cycles.
 Requested convergence on MAX density matrix=1.00D-06.
 Requested convergence on             energy=1.00D-06.
 No special actions if energy rises.
 FoFCou: FMM=F IPFlag=           0 FMFlag=           0 FMFlg1=           0
         NFxFlg=           0 DoJE=F BraDBF=F KetDBF=F FulRan=T
         wScrn=  0.000000 ICntrl=     600 IOpCl=  0 I1Cent=           0 NGrid=           0
         NMat0=    1 NMatS0=  57291 NMatT0=    0 NMatD0=    1 NMtDS0=    0 NMtDT0=    0
 Symmetry not used in FoFCou.
 Integral accuracy reduced to 1.0D-05 until final iterations.

 Cycle   1  Pass 0  IDiag  1:
 E= -399.672404841880    
 DIIS: error= 6.41D-04 at cycle   1 NSaved=   1.
 NSaved= 1 IEnMin= 1 EnMin= -399.672404841880     IErMin= 1 ErrMin= 6.41D-04
 ErrMax= 6.41D-04  0.00D+00 EMaxC= 1.00D-01 BMatC= 2.71D-04 BMatP= 2.71D-04
 IDIUse=3 WtCom= 9.94D-01 WtEn= 6.41D-03
 Coeff-Com:  0.100D+01
 Coeff-En:   0.100D+01
 Coeff:      0.100D+01
 Gap=     0.545 Goal=   None    Shift=    0.000
 RMSDP=5.60D-05 MaxDP=2.03D-03              OVMax= 3.45D-03

 Cycle   2  Pass 0  IDiag  1:
 E= -399.672595797749     Delta-E=       -0.000190955869 Rises=F Damp=F
 DIIS: error= 3.05D-04 at cycle   2 NSaved=   2.
 NSaved= 2 IEnMin= 2 EnMin= -399.672595797749     IErMin= 2 ErrMin= 3.05D-04
 ErrMax= 3.05D-04  0.00D+00 EMaxC= 1.00D-01 BMatC= 4.35D-05 BMatP= 2.71D-04
 IDIUse=3 WtCom= 9.97D-01 WtEn= 3.05D-03
 Coeff-Com:  0.217D+00 0.783D+00
 Coeff-En:   0.000D+00 0.100D+01
 Coeff:      0.216D+00 0.784D+00
 Gap=     0.147 Goal=   None    Shift=    0.000
 RMSDP=2.76D-05 MaxDP=1.23D-03 DE=-1.91D-04 OVMax= 1.97D-03

 Cycle   3  Pass 0  IDiag  1:
 E= -399.672600537033     Delta-E=       -0.000004739283 Rises=F Damp=F
 DIIS: error= 2.69D-04 at cycle   3 NSaved=   3.
 NSaved= 3 IEnMin= 3 EnMin= -399.672600537033     IErMin= 3 ErrMin= 2.69D-04
 ErrMax= 2.69D-04  0.00D+00 EMaxC= 1.00D-01 BMatC= 4.09D-05 BMatP= 4.35D-05
 IDIUse=3 WtCom= 9.97D-01 WtEn= 2.69D-03
 Coeff-Com:  0.451D-01 0.488D+00 0.467D+00
 Coeff-En:   0.000D+00 0.471D+00 0.529D+00
 Coeff:      0.449D-01 0.488D+00 0.467D+00
 Gap=     0.147 Goal=   None    Shift=    0.000
 RMSDP=1.42D-05 MaxDP=7.47D-04 DE=-4.74D-06 OVMax= 1.45D-03

 Cycle   4  Pass 0  IDiag  1:
 E= -399.672632070322     Delta-E=       -0.000031533290 Rises=F Damp=F
 DIIS: error= 8.00D-05 at cycle   4 NSaved=   4.
 NSaved= 4 IEnMin= 4 EnMin= -399.672632070322     IErMin= 4 ErrMin= 8.00D-05
 ErrMax= 8.00D-05  0.00D+00 EMaxC= 1.00D-01 BMatC= 2.90D-06 BMatP= 4.09D-05
 IDIUse=1 WtCom= 1.00D+00 WtEn= 0.00D+00
 Coeff-Com:  0.115D-01 0.244D+00 0.285D+00 0.460D+00
 Coeff:      0.115D-01 0.244D+00 0.285D+00 0.460D+00
 Gap=     0.147 Goal=   None    Shift=    0.000
 RMSDP=5.16D-06 MaxDP=2.35D-04 DE=-3.15D-05 OVMax= 9.32D-04

 Initial convergence to 1.0D-05 achieved.  Increase integral accuracy.
 Cycle   5  Pass 1  IDiag  1:
[...]
   A10        2.13625  -0.00001   0.00000  -0.00006  -0.00006   2.13619
   A11        2.15420   0.00000   0.00000   0.00001   0.00001   2.15421
   A12        2.01910  -0.00000   0.00000  -0.00002  -0.00002   2.01908
   A13        2.10988   0.00000   0.00000   0.00001   0.00001   2.10989
   A14        2.08948   0.00000   0.00000   0.00002   0.00002   2.08950
   A15        2.09250  -0.00000   0.00000  -0.00001  -0.00001   2.09248
   A16        2.10121  -0.00000   0.00000  -0.00001  -0.00001   2.10120
   A17        2.05708  -0.00000   0.00000  -0.00003  -0.00003   2.05705
   A18        2.10355   0.00001   0.00000   0.00006   0.00006   2.10361
   A19        2.12256  -0.00000   0.00000  -0.00004  -0.00004   2.12252
   A20        2.79753  -0.00001   0.00000   0.00016   0.00015   2.79768
   A21        2.23657  -0.00001   0.00000   0.00018   0.00018   2.23676
   A22        2.03710  -0.00003   0.00000  -0.00266  -0.00266   2.03444
   A23        1.84973  -0.00001   0.00000  -0.00020  -0.00020   1.84953
   A24        1.36318  -0.00001   0.00000  -0.00050  -0.00050   1.36268
   A25        2.55550  -0.00002   0.00000  -0.00115  -0.00115   2.55435
    D1        0.00494   0.00000   0.00000   0.00033   0.00033   0.00528
    D2       -3.13601   0.00000   0.00000   0.00030   0.00030  -3.13571
    D3        0.08494  -0.00000   0.00000  -0.00457  -0.00457   0.08037
    D4        0.00160  -0.00000   0.00000  -0.00190  -0.00190  -0.00031
    D5       -3.13851  -0.00000   0.00000  -0.00006  -0.00006  -3.13857
    D6        0.00242  -0.00000   0.00000  -0.00003  -0.00003   0.00239
    D7       -0.00826   0.00000   0.00000   0.00109   0.00109  -0.00717
    D8        3.13267   0.00000   0.00000   0.00112   0.00112   3.13379
    D9       -0.00199   0.00000   0.00000  -0.00002  -0.00002  -0.00201
   D10        3.13842   0.00000   0.00000  -0.00005  -0.00005   3.13837
   D11       -3.12810  -0.00000   0.00000  -0.00160  -0.00159  -3.12970
   D12        0.01230  -0.00000   0.00000  -0.00162  -0.00162   0.01068
   D13        0.00616  -0.00000   0.00000  -0.00133  -0.00133   0.00483
   D14       -0.07364  -0.00001   0.00000  -0.00199  -0.00199  -0.07562
   D15        3.13355   0.00000   0.00000   0.00011   0.00011   3.13366
   D16        3.05375  -0.00001   0.00000  -0.00055  -0.00055   3.05320
   D17        3.13953   0.00000   0.00000   0.00009   0.00009   3.13962
   D18       -0.00013   0.00000   0.00000   0.00007   0.00007  -0.00006
   D19       -0.00140   0.00000   0.00000   0.00006   0.00006  -0.00135
   D20       -3.14106   0.00000   0.00000   0.00004   0.00004  -3.14103
   D21       -0.00012   0.00000   0.00000  -0.00004  -0.00004  -0.00016
   D22       -3.14044  -0.00000   0.00000  -0.00005  -0.00005  -3.14049
   D23        3.13948   0.00000   0.00000  -0.00002  -0.00002   3.13946
   D24       -0.00085  -0.00000   0.00000  -0.00003  -0.00003  -0.00087
   D25        0.00053   0.00000   0.00000   0.00004   0.00004   0.00057
   D26        3.14093   0.00000   0.00000   0.00002   0.00002   3.14094
   D27       -3.13982   0.00000   0.00000   0.00007   0.00007  -3.13975
   D28        0.00058   0.00000   0.00000   0.00004   0.00004   0.00062
   D29        0.00053  -0.00000   0.00000  -0.00001  -0.00001   0.00052
   D30       -3.13985  -0.00000   0.00000   0.00002   0.00002  -3.13983
   D31        3.14085   0.00000   0.00000   0.00000   0.00000   3.14085
   D32        0.00047   0.00000   0.00000   0.00003   0.00003   0.00050
   D33       -1.91453  -0.00000   0.00000   0.00358   0.00358  -1.91094
   D34       -0.00523   0.00000   0.00000   0.00217   0.00217  -0.00306
   D35        1.49946   0.00001   0.00000   0.00010   0.00010   1.49956
   D36        2.09039  -0.00001   0.00000  -0.00189  -0.00189   2.08850
         Item               Value     Threshold  Converged?
 Maximum Force            0.000027     0.000450     YES
 RMS     Force            0.000007     0.000300     YES
 Maximum Displacement     0.004896     0.001800     NO 
 RMS     Displacement     0.000904     0.001200     YES
 Predicted change in Energy=-1.227297D-07
 GradGradGradGradGradGradGradGradGradGradGradGradGradGradGradGradGradGrad

 Leave Link  103 at Fri Aug 27 00:08:28 2021, MaxMem= 17179869184 cpu:       114.7
 (Enter /public3/home/sc51754/softwares/g09e01/l9999.exe)
 1\1\GINC-S1512\Freq\RPBEPBE\Gen\C5H7N1O2\SC51754\27-Aug-2021\0\\#P Geo
 m=AllCheck Guess=TCheck SCRF=Check GenChk RPBEPBE/ChkBas Freq\\HY_H2O_
 PBEPBE_PC2_OPT_FREQ\\0,1\O,1.2464018039,1.4427446142,-0.0073444317\N,0
 .3269782383,-0.6802932029,-0.0111941012\C,0.1608177452,0.6542462636,-0
 .0020679279\C,-1.1124509463,1.2567254428,0.0120635039\C,-0.7702327478,
 -1.4597113398,-0.0094125646\C,-2.2276815578,0.434617392,0.0149036134\C
 ,-2.0646840218,-0.9580476288,0.0036560342\H,2.061954279,0.8599638569,-
 0.022728446\H,-1.188335883,2.3427647472,0.018492059\H,-0.5861636529,-2
 .5365047441,-0.0201965215\H,-3.2263148967,0.873243404,0.0246618389\H,-
 2.9191525478,-1.6326348346,0.00389605\O,3.0544218692,-0.5683376871,-0.
 0982634477\H,3.5117552381,-0.824772777,0.7168651319\H,2.1451740807,-0.
 9778315064,-0.0438887905\\Version=EM64L-G09RevE.01\State=1-A\HF=-399.6
 730023\RMSD=4.939e-09\RMSF=1.532e-05\ZeroPoint=0.1151995\Thermal=0.123
 056\Dipole=-0.7041849,-0.4744701,0.5382686\DipoleDeriv=-1.5227777,-0.4
 32487,-0.0012461,-0.3484185,-0.6387379,0.0025584,-0.0033826,0.0049995,
 -0.307878,-0.863484,0.1038739,0.0008641,-0.3701763,-0.5476341,-0.00004
 04,-0.0111739,0.0028772,-0.2154115,1.4245077,0.6793824,-0.0051597,0.57
 42752,0.5911272,-0.0029137,-0.0082168,-0.0036573,0.1652823,-0.4974837,
 -0.3436531,-0.0006586,0.1144775,0.0255495,0.000135,0.0069894,0.0008806
 ,-0.1383472,0.4645383,-0.206585,-0.0041121,0.2223971,0.314489,0.007112
 ,-0.0022889,0.0064773,-0.0288787,0.2269792,0.0808134,-0.0017586,0.0446
 645,0.3648868,0.0028156,-0.0017801,0.0025,-0.0960293,-0.1998244,0.2625
 662,0.0012137,0.0425403,-0.3190809,-0.0020119,0.004063,-0.0024979,-0.1
 496054,0.8056124,-0.1868304,0.0002257,-0.4139535,0.4008417,-0.0081396,
 -0.0014351,-0.0119125,0.2465403,0.0677001,0.0043493,0.0002215,0.011255
 4,-0.0429177,-0.0011282,0.0010286,-0.0008425,0.1443268,0.058892,0.0269
 968,0.0000833,-0.0193824,-0.1016503,-0.0016946,-0.00127,-0.001396,0.10
 9196,-0.0522915,0.0603786,0.0014594,0.0624545,0.0579504,-0.0008999,0.0
 006842,-0.0007866,0.1231878,-0.0248164,-0.0725861,0.0001713,-0.0712512
 ,0.0068467,-0.0004327,0.0003162,-0.0007006,0.1480203,-1.2339451,0.1680
 361,-0.0081926,0.1682733,-0.5751733,-0.104199,0.0450018,-0.0857008,-0.
 3456831,0.3095512,-0.0162929,-0.0051115,0.0070364,0.2660323,0.0632353,
 -0.034086,0.0512929,0.1636839,1.0368419,-0.1279625,0.0220001,-0.024192
 3,0.1974706,0.0456036,0.0055503,0.0384667,0.1815958\Polar=104.4664699,
 2.4271025,87.8017705,0.9042141,-0.052879,45.3638838\PG=C01 [X(C5H7N1O2
 )]\NImag=0\\0.55178682,-0.02792856,0.38815399,-0.00677865,0.00307816,0
 .03952618,0.01267271,-0.04869008,-0.00011500,0.46285265,-0.02395661,-0
 .05783917,-0.00032110,0.11580512,0.58246418,0.00004913,0.00004332,0.00
 694468,-0.00147209,0.00264297,0.08453800,-0.24742955,-0.07718918,0.001
 98277,-0.14331147,0.02448402,0.00041146,0.71075687,-0.10921736,-0.1672
 5474,0.00073870,0.04408031,-0.28282163,-0.00171329,0.00997795,0.638479
 61,0.00104197,-0.00025925,-0.04932328,0.00083576,-0.00141114,-0.065285
 16,-0.00443818,0.00275658,0.17429437,-0.06283883,0.00640415,0.00052710
 ,0.02424478,0.06711612,0.00049289,-0.23808687,0.04482185,0.00160138,0.
 64355078,-0.02884847,0.01632449,0.00030278,0.03028290,-0.02870916,-0.0
 0052621,0.10209423,-0.15153435,-0.00135350,0.03164651,0.72493054,0.000
 59773,0.00018664,0.00888558,-0.00006770,-0.00073503,0.01665059,0.00200
 205,-0.00111259,-0.07041938,-0.00388273,0.00336612,0.11258571,-0.00798
 580,0.00839806,0.00010677,-0.25583937,-0.09543113,0.00090395,0.0398293
 1,-0.07082773,-0.00079915,-0.05700500,-0.00120829,0.00037326,0.6452190
 9,0.00058261,0.00010728,-0.00009269,-0.10968956,-0.18403350,-0.0001843
 0,-0.02711229,-0.06657566,-0.00013715,-0.00860356,0.00038515,0.0000745
 1,-0.02864024,0.71511814,0.00013293,-0.00008024,0.00947614,0.00055293,
 -0.00041453,-0.05658780,-0.00055190,0.00007134,-0.00366691,0.00030917,
 0.00007518,-0.00449541,-0.00374513,0.00490012,0.14226050,0.00243890,0.
 00319770,0.00006377,-0.00685725,-0.01967371,-0.00018904,-0.05311944,0.
 00442545,0.00048005,-0.27494216,-0.13834266,0.00072598,0.01495241,0.03
 496366,0.00024286,0.70879566,0.01504962,-0.00547445,-0.00010788,-0.028
 08177,-0.05150248,-0.00013573,-0.03728259,0.06230882,0.00067618,-0.088
 80425,-0.20312294,-0.00022448,0.07718309,-0.01528989,-0.00072315,-0.01
 453623,0.64499420,0.00009044,-0.00006959,0.00406473,-0.00013937,-0.000
 16387,-0.00697604,0.00015021,0.00038796,0.00169320,0.00099387,0.000052
 63,-0.05261397,0.00047060,-0.00039107,0.00758980,-0.00419923,0.0036054
 0,0.13115093,0.00300264,-0.00563621,-0.00004111,-0.06609946,-0.0467982
 8,0.00025422,-0.02493360,0.04137643,0.00035392,0.03718888,-0.02485169,
 -0.00035038,-0.29686467,0.10523666,0.00245019,-0.11948348,-0.00344919,
 0.00039078,0.69114038,-0.01036218,0.00054601,0.00003769,0.00178892,0.0
 4972689,0.00027728,0.02948405,-0.03613207,-0.00043679,-0.05507545,-0.0
 3561787,0.00012047,0.04944233,-0.15272184,-0.00113166,0.05013069,-0.31
 114174,-0.00219365,0.04334468,0.65731916,-0.00008683,0.00006299,-0.001
 39037,0.00046744,0.00054210,0.01995584,0.00033524,-0.00051495,-0.00825
 371,-0.00057438,-0.00015653,0.00666082,0.00203105,-0.00147414,-0.06158
 350,0.00075056,-0.00189144,-0.05739149,-0.00360198,0.00393859,0.111252
 25,-0.23060594,0.13044677,0.00390627,0.00068395,0.00985087,-0.00014724
 ,-0.05340243,0.00258634,0.00061436,0.00366940,-0.00237728,-0.00003373,
 0.00032838,0.00065725,-0.00001626,-0.00160316,-0.00103970,0.00003511,0
 .00040292,0.00185540,0.00003743,0.27197572,0.16162825,-0.16539120,-0.0
 0371646,0.00273100,-0.00326892,0.00007528,-0.01459363,0.02646430,0.000
 48098,-0.00856403,-0.00417268,0.00004899,-0.00164510,-0.00192405,-0.00
 002593,0.00038785,0.00353572,-0.00001164,0.00110012,-0.00215708,-0.000
 02377,-0.12688148,0.15150863,0.00556349,-0.00390182,-0.01947512,-0.000
 17464,0.00005088,-0.00271301,-0.00009355,-0.00013867,-0.00089088,0.000
 07981,-0.00001857,0.00384850,0.00001490,-0.00000253,-0.00070315,-0.000
 02208,-0.00003172,0.00150913,-0.00001807,0.00001044,0.00037942,-0.0045
 6557,0.00504359,0.02699357,0.00178288,-0.00069049,-0.00002934,-0.00574
 666,0.00461248,0.00009989,0.00409323,0.02665752,0.00012616,-0.05532339
 ,0.02121556,0.00031551,-0.00196870,-0.00126045,0.00000249,0.00628627,-
 0.02495972,-0.00017261,-0.00352323,-0.00256799,0.00007086,-0.00025366,
 0.00017160,-0.00001633,0.05258592,-0.00061791,0.00102776,0.00002285,0.
 00281377,-0.00007221,-0.00005506,-0.00339218,-0.01045320,-0.00002983,0
 .02289844,-0.32598262,-0.00178191,0.00057100,0.00101121,0.00001084,0.0
 0313706,-0.01221836,-0.00009931,-0.00341133,0.00108665,-0.00000739,0.0
 0026319,-0.00011070,0.00000601,-0.02223654,0.34535580,-0.00003279,0.00
 000075,-0.00169443,0.00011962,-0.00009317,0.00527173,-0.00006190,-0.00
 026223,0.00196179,0.00033669,-0.00168041,-0.03113480,0.00003296,0.0000
 2638,-0.00039823,-0.00002494,0.00006402,0.00156878,0.00004934,-0.00003
 027,0.00825824,-0.00000807,0.00000801,-0.00065894,-0.00034876,0.001919
 58,0.02217952,-0.00037218,-0.00123604,0.00000143,0.00163109,-0.0316931
 4,-0.00029676,-0.00243910,-0.00357636,0.00006101,-0.00062182,-0.000712
 60,-0.00000346,-0.06354296,0.05502780,0.00061802,-0.00537093,0.0013838
 9,0.00009610,0.00059945,0.02705191,0.00026450,0.00046915,-0.00021088,-
 0.00000382,0.00017978,-0.00001078,-0.00001362,0.06889534,-0.00025967,-
 0.00107041,-0.00000406,-0.00696053,-0.02054767,-0.00010112,-0.00214882
 ,0.00169640,-0.00008923,0.00000108,0.00044798,0.00001271,0.05359708,-0
 .30300249,-0.00266110,0.00249784,0.00076670,-0.00008034,-0.00049895,-0
 .00695121,-0.00010945,0.00036821,-0.00002424,-0.00000481,0.00009932,-0
 .00011661,0.00001431,-0.04691632,0.32894660,-0.00000122,-0.00000107,0.
 00038884,-0.00002150,0.00016368,-0.00338481,0.00009166,-0.00002479,0.0
 0940631,-0.00000525,0.00001979,-0.00069017,0.00057819,-0.00284615,-0.0
 3738645,0.00009155,-0.00004091,0.00697871,0.00005579,-0.00026780,0.005
 99861,-0.00001102,-0.00000019,-0.00018072,-0.00001509,0.00000695,-0.00
 160492,-0.00066836,0.00298363,0.02418828,-0.00165023,0.00077653,0.0000
 1960,0.00022388,-0.00059071,-0.00002563,-0.00100267,-0.00384939,0.0000
 4179,-0.01810116,0.01162554,0.00022739,0.00177456,0.00068799,0.0000349
 3,-0.27853984,0.09816556,0.00229860,0.00031436,-0.00066735,0.00001878,
 0.00004001,-0.00044143,-0.00000696,0.00107361,-0.00013463,-0.00003989,
 -0.00009997,-0.00013985,-0.00000315,0.29543727,-0.00092186,0.00059421,
 0.00001601,-0.00077547,-0.00028038,0.00002205,-0.00325564,-0.00166131,
 -0.00004581,-0.01708632,0.01050440,0.00015058,-0.00027265,-0.00618869,
 -0.00009408,0.09876815,-0.09815361,-0.00107120,0.02814302,-0.00648954,
 -0.00026050,-0.00018029,-0.00022166,0.00000298,0.00046593,0.00083393,0
 .00002899,0.00151892,-0.00045355,-0.00000857,-0.10585673,0.10035326,-0
 .00000937,-0.00001605,-0.00033632,-0.00000912,0.00002266,-0.00297335,0
 .00006104,-0.00002906,0.00946532,0.00006158,-0.00001675,0.00454625,0.0
 0003505,-0.00010924,0.00688944,0.00225766,-0.00105442,-0.03793050,0.00
 023263,-0.00008197,0.00420395,-0.00000581,0.00000138,-0.00045767,-0.00
 003786,0.00002463,-0.00436540,0.00000769,-0.00000017,-0.00036826,-0.00
 255229,0.00122299,0.02458745,0.00036496,-0.00037971,-0.00000997,-0.005
 02354,0.00248696,0.00010814,-0.00039722,0.00203372,0.00001437,0.001212
 58,0.00142769,0.00003521,-0.01549958,-0.02079711,-0.00007849,0.0067972
 8,0.00467786,-0.00000268,-0.22288756,-0.13275781,0.00023106,0.00002219
 ,0.00026508,-0.00000385,0.00024719,0.00038539,0.00000307,0.00063930,0.
 00030654,-0.00002035,0.00062488,-0.00048667,-0.00002654,0.23375902,-0.
 00030821,0.00042701,0.00001298,0.00317212,0.00063100,-0.00008338,0.001
 32863,-0.00131430,-0.00001801,0.00222542,-0.00461945,-0.00009722,0.009
 84254,0.01002557,0.00002502,-0.02456010,-0.01312634,0.00005178,-0.1333
 2311,-0.15796176,-0.00014664,0.00003900,-0.00013308,0.00000162,-0.0012
 4613,-0.00051898,0.00000207,-0.00053313,0.00044722,0.00003297,0.000276
 71,0.00109512,0.00003200,0.14312616,0.16491015,-0.00001737,0.00000173,
 -0.00125986,0.00011772,-0.00007687,0.00777370,0.00001335,-0.00001424,0
 .00025852,0.00005276,-0.00008125,0.00598431,0.00017311,0.00023738,-0.0
 0112775,-0.00021691,-0.00011613,0.00047571,0.00019136,-0.00020067,-0.0
 2866622,0.00000316,-0.00000293,-0.00002530,-0.00000919,-0.00000903,0.0
 0059684,-0.00003018,0.00003503,-0.00313593,-0.00002220,0.00003643,-0.0
 0321444,-0.00025334,0.00018557,0.02225044,-0.00882033,0.01319723,0.000
 14502,-0.02336837,-0.00355481,-0.00085440,-0.00140063,-0.00236513,0.00
 014899,-0.00033540,0.00093231,0.00014581,-0.00074033,0.00698070,0.0000
 6081,-0.00020964,-0.00034563,-0.00002292,-0.00224921,-0.00104512,0.000
 13215,-0.00276584,-0.00683399,-0.00011708,-0.00040145,0.00028106,0.000
 00052,-0.00024671,-0.00077613,-0.00006976,-0.00019112,0.00002271,-0.00
 001981,-0.00073582,0.00014621,0.00001301,0.47537397,0.02600977,-0.0082
 0510,0.00185728,-0.00367688,0.00833820,-0.00046574,-0.01277902,-0.0118
 7247,-0.00001169,0.00398896,0.00237109,-0.00018232,0.00111797,0.001092
 34,-0.00002442,-0.00052612,-0.00184939,-0.00002534,-0.00064010,0.00130
 288,0.00003658,-0.01372874,0.00555394,-0.00629120,-0.00059299,0.000253
 19,-0.00000174,0.00031455,0.00005933,-0.00000963,0.00017120,0.00009728
 ,0.00002546,-0.00011778,0.00011006,0.00000845,0.08544260,0.14058914,-0
 .00229737,0.00271908,0.00561599,-0.00169010,0.00009812,0.00684995,0.00
 026506,-0.00037920,-0.00052460,-0.00001178,0.00002911,-0.00081198,0.00
 005389,-0.00009245,0.00021150,-0.00000619,-0.00007336,0.00008141,-0.00
 002651,0.00008837,-0.00064371,0.00140372,-0.00369023,-0.01076938,0.000
 01046,-0.00000441,0.00003062,0.00003433,0.00001035,0.00023222,0.000009
 83,0.00000451,0.00010774,-0.00000784,-0.00000898,-0.00007157,0.1702863
 4,-0.13751234,0.39504436,0.00091364,0.00059391,0.00070922,-0.00200994,
 -0.00069546,0.00222224,-0.00069395,-0.00053528,-0.00030184,0.00015408,
 0.00006059,-0.00025740,-0.00053241,0.00026009,0.00002815,-0.00000049,-
 0.00005534,0.00003578,-0.00002872,-0.00011546,-0.00021788,-0.00162714,
 0.00038499,-0.00142570,0.00000548,0.00001365,0.00000200,-0.00005087,-0
 .00004246,0.00008197,0.00002004,-0.00000282,0.00003690,-0.00002592,0.0
 0001777,-0.00001823,-0.13124261,0.03472072,-0.16574911,0.14890084,0.00
 262378,-0.00262451,-0.00177357,-0.00127178,0.00030313,0.00043528,-0.00
 017689,-0.00054603,0.00003370,0.00010589,0.00008622,0.00011639,0.00005
 038,0.00037512,-0.00000613,0.00001535,-0.00002080,0.00001485,-0.000090
 63,-0.00006613,-0.00000969,-0.00128907,0.00337369,0.00512954,-0.000021
 65,0.00001269,0.00000399,-0.00005534,-0.00007387,-0.00002202,0.0000110
 6,-0.00000035,-0.00001957,-0.00003265,0.00000525,-0.00000063,0.0563105
 6,-0.05199002,0.12272469,-0.04812406,0.04741800,0.00276935,-0.00220685
 ,-0.00018779,0.00137149,-0.00003561,-0.00000428,-0.00063319,-0.0002124
 9,0.00002222,0.00015819,0.00001235,-0.00001131,-0.00002808,-0.00005054
 ,0.00001157,0.00000946,-0.00001260,-0.00000576,0.00007380,0.00001020,-
 0.00001262,-0.00218971,0.00317971,0.00033821,-0.00000041,0.00000167,0.
 00000689,-0.00002380,0.00002051,0.00001734,0.00000842,-0.00000234,0.00
 000699,0.00002428,0.00000863,0.00000622,-0.20649603,0.10743863,-0.3530
 6294,0.20039356,-0.11073525,0.35472605,-0.01325968,-0.00126408,-0.0004
 8788,0.00594699,-0.00196174,-0.00155677,0.01153752,0.01441168,0.000219
 42,-0.00276588,-0.00294434,0.00017247,-0.00212491,-0.00829355,-0.00004
 070,0.00085587,0.00209441,-0.00002469,0.00342131,-0.00050659,0.0001419
 8,0.01266644,-0.00749837,0.00078945,0.00096273,-0.00056019,-0.00001424
 ,0.00033043,0.00087265,-0.00008345,0.00007637,-0.00008026,-0.00003175,
 0.00090224,-0.00020388,0.00000296,-0.30266652,-0.11970416,-0.00227473,
 -0.01378202,-0.00805495,0.00456268,0.29789909,-0.00347319,0.00067884,-
 0.00005069,-0.00152808,-0.01238829,-0.00023134,0.01056135,0.00121664,-
 0.00015507,-0.00107480,-0.00129080,0.00005712,-0.00217731,0.00162131,0
 .00007875,0.00011507,0.00029458,-0.00000660,-0.00050143,-0.00074234,0.
 00001424,-0.00057048,-0.01303267,0.00014427,0.00035356,-0.00010853,-0.
 00000028,-0.00035248,-0.00012416,0.00001412,-0.00003449,-0.00002910,-0
 .00000191,-0.00013767,0.00002253,-0.00000284,-0.14839256,-0.08585046,0
 .01608673,0.01351916,0.00374759,0.00258397,0.13369336,0.10598486,-0.00
 102144,0.00044220,-0.00123497,0.00022455,-0.00026910,-0.01006005,0.000
 46588,0.00044692,0.00126219,-0.00013931,-0.00002474,0.00101526,-0.0002
 0139,0.00014186,-0.00048976,0.00003651,0.00006623,-0.00019464,-0.00001
 399,-0.00014023,0.00123248,0.00097737,-0.00136679,0.00280533,0.0000042
 3,-0.00000559,-0.00001768,-0.00004307,-0.00002627,-0.00045906,-0.00000
 922,-0.00000204,-0.00016120,-0.00001307,0.00000159,0.00015533,0.036647
 34,0.03515802,-0.04228963,-0.03553966,-0.01589158,-0.00185080,-0.00137
 474,-0.01853048,0.05028719\\0.00003637,0.00000563,-0.00001528,0.000012
 97,-0.00002366,0.00001368,-0.00001182,0.00000808,-0.00000082,0.0000034
 1,-0.00000380,0.00000049,-0.00000928,-0.00000416,-0.00000140,-0.000005
 65,0.00000195,0.00000169,0.00000108,0.00000906,-0.00000362,-0.00004136
 ,-0.00001261,0.00000688,0.00000885,0.00000064,0.00000017,-0.00000502,0
 .00000275,0.00000299,0.00000472,0.00000158,-0.00000095,0.00000164,-0.0
 0000034,-0.00000032,0.00001759,-0.00001083,0.00004208,0.00000530,-0.00
 001518,-0.00002182,-0.00001879,0.00004089,-0.00002377\\\@


 NEVER LISTEN TO CRITICISM
 OR YOU'LL BE DOIN' EVERYBODY ELSE'S THING BUT BUT YOUR OWN.

                                               -- ANDY CAPP
 Job cpu time:       0 days  0 hours 58 minutes 34.9 seconds.
 File lengths (MBytes):  RWF=    137 Int=      0 D2E=      0 Chk=      9 Scr=      1
 Normal termination of Gaussian 09 at Fri Aug 27 00:08:29 2021.
