 Entering Gaussian System, Link 0=g09
 AtFile(1): pc-2.gbs
            -H     0
            S    4   1.00
                  0.754230D+02           0.240650D-02
                  0.113500D+02           0.184870D-01
                  0.259930D+01           0.897420D-01
                  0.735130D+00           0.281110D+00
            S    1   1.00
                  0.231670D+00           0.100000D+01
            S    1   1.00
                  0.741470D-01           0.100000D+01
            P    1   1.00
                  0.160000D+01           0.100000D+01
            P    1   1.00
                  0.450000D+00           0.100000D+01
            D    1   1.00
                  0.125000D+01           0.100000D+01
            ****
            -C     0
            S    7   1.00
                  0.785710D+04           0.568250D-03
                  0.117870D+04           0.439150D-02
                  0.268320D+03           0.225040D-01
                  0.759480D+02           0.866530D-01
                  0.245590D+02           0.244050D+00
                  0.862120D+01           0.441480D+00
                  0.312780D+01           0.353320D+00
            S    7   1.00
                  0.117870D+04          -0.594920D-06
                  0.268320D+03          -0.627480D-04
                  0.759480D+02          -0.757730D-03
                  0.245590D+02          -0.733080D-02
                  0.862120D+01          -0.389320D-01
                  0.312780D+01          -0.889080D-01
                  0.822020D+00           0.216890D+00
            S    1   1.00
                  0.330170D+00           0.100000D+01
            S    1   1.00
                  0.114630D+00           0.100000D+01
            P    4   1.00
                  0.337750D+02           0.602940D-02
                  0.767660D+01           0.432280D-01
                  0.223570D+01           0.163010D+00
                  0.764470D+00           0.365040D+00
            P    1   1.00
                  0.262320D+00           0.100000D+01
            P    1   1.00
                  0.846380D-01           0.100000D+01
            D    1   1.00
                  0.140000D+01           0.100000D+01
            D    1   1.00
                  0.450000D+00           0.100000D+01
            F    1   1.00
                  0.950000D+00           0.100000D+01
            ****
            -N     0
            S    7   1.00
                  0.111010D+05           0.545700D-03
                  0.166530D+04           0.421810D-02
                  0.379080D+03           0.216450D-01
                  0.107300D+03           0.837760D-01
                  0.347470D+02           0.238810D+00
                  0.122490D+02           0.439940D+00
                  0.447430D+01           0.363640D+00
            S    7   1.00
                  0.166530D+04          -0.150060D-05
                  0.379080D+03          -0.587530D-04
                  0.107300D+03          -0.774530D-03
                  0.347470D+02          -0.721610D-02
                  0.122490D+02          -0.393380D-01
                  0.447430D+01          -0.906110D-01
                  0.124040D+01           0.198820D+00
            S    1   1.00
                  0.487430D+00           0.100000D+01
            S    1   1.00
                  0.164840D+00           0.100000D+01
            P    4   1.00
                  0.479340D+02           0.617060D-02
                  0.109990D+02           0.442600D-01
                  0.324720D+01           0.168250D+00
                  0.111140D+01           0.368480D+00
            P    1   1.00
                  0.379880D+00           0.100000D+01
            P    1   1.00
                  0.120680D+00           0.100000D+01
            D    1   1.00
                  0.180000D+01           0.100000D+01
            D    1   1.00
                  0.550000D+00           0.100000D+01
            F    1   1.00
                  0.102000D+01           0.100000D+01
            ****
            -O     0
            S    7   1.00
                  0.147820D+05           0.535190D-03
                  0.221730D+04           0.413750D-02
                  0.504740D+03           0.212450D-01
                  0.142870D+03           0.824530D-01
                  0.463000D+02           0.236710D+00
                  0.163370D+02           0.440390D+00
                  0.598280D+01           0.364650D+00
            S    7   1.00
                  0.221730D+04          -0.192750D-05
                  0.504740D+03          -0.579640D-04
                  0.142870D+03          -0.794940D-03
                  0.463000D+02          -0.731250D-02
                  0.163370D+02          -0.405740D-01
                  0.598280D+01          -0.915940D-01
                  0.167180D+01           0.209400D+00
            S    1   1.00
                  0.646620D+00           0.100000D+01
            S    1   1.00
                  0.216690D+00           0.100000D+01
            P    4   1.00
                  0.604240D+02           0.689490D-02
                  0.139350D+02           0.490050D-01
                  0.415310D+01           0.182550D+00
                  0.141580D+01           0.376330D+00
            P    1   1.00
                  0.475490D+00           0.100000D+01
            P    1   1.00
                  0.145290D+00           0.100000D+01
            D    1   1.00
                  0.220000D+01           0.100000D+01
            D    1   1.00
                  0.650000D+00           0.100000D+01
            F    1   1.00
                  0.110000D+01           0.100000D+01
            ****
 Initial command:
 /public3/home/sc51754/softwares/g09e01/l1.exe "./Gau-25919.inp" -scrdir="./"
 Entering Link 1 = /public3/home/sc51754/softwares/g09e01/l1.exe PID=     25920.
  
 Copyright (c) 1988,1990,1992,1993,1995,1998,2003,2009,2015,
            Gaussian, Inc.  All Rights Reserved.
  
 This is part of the Gaussian(R) 09 program.  It is based on
 the Gaussian(R) 03 system (copyright 2003, Gaussian, Inc.),
 the Gaussian(R) 98 system (copyright 1998, Gaussian, Inc.),
 the Gaussian(R) 94 system (copyright 1995, Gaussian, Inc.),
 the Gaussian 92(TM) system (copyright 1992, Gaussian, Inc.),
 the Gaussian 90(TM) system (copyright 1990, Gaussian, Inc.),
 the Gaussian 88(TM) system (copyright 1988, Gaussian, Inc.),
 the Gaussian 86(TM) system (copyright 1986, Carnegie Mellon
 University), and the Gaussian 82(TM) system (copyright 1983,
 Carnegie Mellon University). Gaussian is a federally registered
 trademark of Gaussian, Inc.
  
 This software contains proprietary and confidential information,
 including trade secrets, belonging to Gaussian, Inc.
  
 This software is provided under written license and may be
 used, copied, transmitted, or stored only in accord with that
 written license.
  
 The following legend is applicable only to US Government
 contracts under FAR:
  
                    RESTRICTED RIGHTS LEGEND
  
 Use, reproduction and disclosure by the US Government is
 subject to restrictions as set forth in subparagraphs (a)
 and (c) of the Commercial Computer Software - Restricted
 Rights clause in FAR 52.227-19.
  
 Gaussian, Inc.
 340 Quinnipiac St., Bldg. 40, Wallingford CT 06492
  
  
 ---------------------------------------------------------------
 Warning -- This program may not be used in any manner that
 competes with the business of Gaussian, Inc. or will provide
 assistance to any competitor of Gaussian, Inc.  The licensee
 of this program is prohibited from giving any competitor of
 Gaussian, Inc. access to this program.  By using this program,
 the user acknowledges that Gaussian, Inc. is engaged in the
 business of creating and licensing software in the field of
 computational chemistry and represents and warrants to the
 licensee that it is not a competitor of Gaussian, Inc. and that
 it will not use this program in any manner prohibited above.
 ---------------------------------------------------------------
  

 Cite this work as:
 Gaussian 09, Revision E.01,
 M. J. Frisch, G. W. Trucks, H. B. Schlegel, G. E. Scuseria, 
 M. A. Robb, J. R. Cheeseman, G. Scalmani, V. Barone, B. Mennucci, 
 G. A. Petersson, H. Nakatsuji, M. Caricato, X. Li, H. P. Hratchian, 
 A. F. Izmaylov, J. Bloino, G. Zheng, J. L. Sonnenberg, M. Hada, 
 M. Ehara, K. Toyota, R. Fukuda, J. Hasegawa, M. Ishida, T. Nakajima, 
 Y. Honda, O. Kitao, H. Nakai, T. Vreven, J. A. Montgomery, Jr., 
 J. E. Peralta, F. Ogliaro, M. Bearpark, J. J. Heyd, E. Brothers, 
 K. N. Kudin, V. N. Staroverov, T. Keith, R. Kobayashi, J. Normand, 
 K. Raghavachari, A. Rendell, J. C. Burant, S. S. Iyengar, J. Tomasi, 
 M. Cossi, N. Rega, J. M. Millam, M. Klene, J. E. Knox, J. B. Cross, 
 V. Bakken, C. Adamo, J. Jaramillo, R. Gomperts, R. E. Stratmann, 
 O. Yazyev, A. J. Austin, R. Cammi, C. Pomelli, J. W. Ochterski, 
 R. L. Martin, K. Morokuma, V. G. Zakrzewski, G. A. Voth, 
 P. Salvador, J. J. Dannenberg, S. Dapprich, A. D. Daniels, 
 O. Farkas, J. B. Foresman, J. V. Ortiz, J. Cioslowski, 
 and D. J. Fox, Gaussian, Inc., Wallingford CT, 2013.
 
 ******************************************
 Gaussian 09:  EM64L-G09RevE.01 30-Nov-2015
                27-Aug-2021 
 ******************************************
 %nprocshared=64
 Will use up to   64 processors via shared memory.
 %mem=128GB
 %chk=PY_H2O_PBEPBE_PC2_OPT_FREQ.chk
 ----------------------
 #p opt freq PBEPBE/gen
 ----------------------
 1/14=-1,18=20,19=15,26=3,38=1/1,3;
 2/9=110,12=2,17=6,18=5,40=1/2;
 3/5=7,11=2,16=1,25=1,30=1,71=1,74=1009/1,2,3;
 4//1;
 5/5=2,38=5/2;
 6/7=2,8=2,9=2,10=2,28=1/1;
 7//1,2,3,16;
 1/14=-1,18=20,19=15,26=3/3(2);
 2/9=110/2;
 99//99;
 2/9=110/2;
 3/5=7,6=1,11=2,16=1,25=1,30=1,71=1,74=1009,82=7/1,2,3;
 4/5=5,16=3,69=1/1;
 5/5=2,38=5/2;
 7//1,2,3,16;
 1/14=-1,18=20,19=15,26=3/3(-5);
 2/9=110/2;
 6/7=2,8=2,9=2,10=2,19=2,28=1/1;
 99/9=1/99;
 Leave Link    1 at Fri Aug 27 00:03:43 2021, MaxMem= 17179869184 cpu:         2.8
 (Enter /public3/home/sc51754/softwares/g09e01/l101.exe)
 --------------------------
 PY_H2O_PBEPBE_PC2_OPT_FREQ
 --------------------------
 Symbolic Z-matrix:
 Charge =  0 Multiplicity = 1
 O                     1.26148   1.38785   0.00541 
 N                     0.24943  -0.65888   0.01158 
 C                     0.21021   0.736     0.00592 
 C                    -1.11959   1.28763   0.00047 
 C                    -0.84358  -1.46082   0.0067 
 C                    -2.21816   0.48191  -0.00352 
 C                    -2.09559  -0.93059  -0.00106 
 H                     2.7014    0.27314  -0.04162 
 H                    -1.19683   2.36437  -0.00254 
 H                    -0.64999  -2.52343   0.00862 
 H                    -3.20534   0.92605  -0.00928 
 H                    -2.96087  -1.57362  -0.00584 
 O                     3.10667  -0.61979  -0.08598 
 H                     3.83344  -0.62425   0.54074 
 H                     1.18728  -1.05929   0.02234 
 
 Add virtual bond connecting atoms H8         and O1         Dist= 3.44D+00.
 Add virtual bond connecting atoms O13        and H15        Dist= 3.73D+00.
 NAtoms=     15 NQM=       15 NQMF=       0 NMMI=      0 NMMIF=      0
                NMic=       0 NMicF=      0.
                    Isotopes and Nuclear Properties:
 (Nuclear quadrupole moments (NQMom) in fm**2, nuclear magnetic moments (NMagM)
  in nuclear magnetons)

  Atom         1           2           3           4           5           6           7           8           9          10
 IAtWgt=          16          14          12          12          12          12          12           1           1           1
 AtmWgt=  15.9949146  14.0030740  12.0000000  12.0000000  12.0000000  12.0000000  12.0000000   1.0078250   1.0078250   1.0078250
 NucSpn=           0           2           0           0           0           0           0           1           1           1
 AtZEff=   0.0000000   0.0000000   0.0000000   0.0000000   0.0000000   0.0000000   0.0000000   0.0000000   0.0000000   0.0000000
 NQMom=    0.0000000   2.0440000   0.0000000   0.0000000   0.0000000   0.0000000   0.0000000   0.0000000   0.0000000   0.0000000
 NMagM=    0.0000000   0.4037610   0.0000000   0.0000000   0.0000000   0.0000000   0.0000000   2.7928460   2.7928460   2.7928460
 AtZNuc=   8.0000000   7.0000000   6.0000000   6.0000000   6.0000000   6.0000000   6.0000000   1.0000000   1.0000000   1.0000000

  Atom        11          12          13          14          15
 IAtWgt=           1           1          16           1           1
 AtmWgt=   1.0078250   1.0078250  15.9949146   1.0078250   1.0078250
 NucSpn=           1           1           0           1           1
 AtZEff=   0.0000000   0.0000000   0.0000000   0.0000000   0.0000000
 NQMom=    0.0000000   0.0000000   0.0000000   0.0000000   0.0000000
 NMagM=    2.7928460   2.7928460   0.0000000   2.7928460   2.7928460
 AtZNuc=   1.0000000   1.0000000   8.0000000   1.0000000   1.0000000
 Leave Link  101 at Fri Aug 27 00:03:43 2021, MaxMem= 17179869184 cpu:         9.3
 (Enter /public3/home/sc51754/softwares/g09e01/l103.exe)

 GradGradGradGradGradGradGradGradGradGradGradGradGradGradGradGradGradGrad
 Berny optimization.
 Initialization pass.
                           ----------------------------
                           !    Initial Parameters    !
                           ! (Angstroms and Degrees)  !
 --------------------------                            --------------------------
 ! Name  Definition              Value          Derivative Info.                !
 --------------------------------------------------------------------------------
 ! R1    R(1,3)                  1.237          estimate D2E/DX2                !
 ! R2    R(1,8)                  1.8216         estimate D2E/DX2                !
 ! R3    R(2,3)                  1.3954         estimate D2E/DX2                !
 ! R4    R(2,5)                  1.3556         estimate D2E/DX2                !
 ! R5    R(2,15)                 1.0198         estimate D2E/DX2                !
 ! R6    R(3,4)                  1.4397         estimate D2E/DX2                !
 ! R7    R(4,6)                  1.3624         estimate D2E/DX2                !
 ! R8    R(4,9)                  1.0795         estimate D2E/DX2                !
 ! R9    R(5,7)                  1.3597         estimate D2E/DX2                !
 ! R10   R(5,10)                 1.0801         estimate D2E/DX2                !
 ! R11   R(6,7)                  1.4178         estimate D2E/DX2                !
 ! R12   R(6,11)                 1.0825         estimate D2E/DX2                !
 ! R13   R(7,12)                 1.0781         estimate D2E/DX2                !
 ! R14   R(8,13)                 0.9816         estimate D2E/DX2                !
 ! R15   R(13,14)                0.9597         estimate D2E/DX2                !
 ! R16   R(13,15)                1.972          estimate D2E/DX2                !
 ! A1    A(3,1,8)              110.4468         estimate D2E/DX2                !
 ! A2    A(3,2,5)              124.6558         estimate D2E/DX2                !
 ! A3    A(3,2,15)             114.7312         estimate D2E/DX2                !
 ! A4    A(5,2,15)             120.6129         estimate D2E/DX2                !
 ! A5    A(1,3,2)              120.1911         estimate D2E/DX2                !
 ! A6    A(1,3,4)              125.6683         estimate D2E/DX2                !
 ! A7    A(2,3,4)              114.1406         estimate D2E/DX2                !
 ! A8    A(3,4,6)              121.2133         estimate D2E/DX2                !
 ! A9    A(3,4,9)              116.6328         estimate D2E/DX2                !
 ! A10   A(6,4,9)              122.1537         estimate D2E/DX2                !
 ! A11   A(2,5,7)              120.7801         estimate D2E/DX2                !
 ! A12   A(2,5,10)             115.9423         estimate D2E/DX2                !
 ! A13   A(7,5,10)             123.2776         estimate D2E/DX2                !
 ! A14   A(4,6,7)              121.2972         estimate D2E/DX2                !
 ! A15   A(4,6,11)             119.5197         estimate D2E/DX2                !
 ! A16   A(7,6,11)             119.1831         estimate D2E/DX2                !
 ! A17   A(5,7,6)              117.9124         estimate D2E/DX2                !
 ! A18   A(5,7,12)             120.4308         estimate D2E/DX2                !
 ! A19   A(6,7,12)             121.6568         estimate D2E/DX2                !
 ! A20   A(1,8,13)             152.1528         estimate D2E/DX2                !
 ! A21   A(8,13,14)            106.7015         estimate D2E/DX2                !
 ! A22   A(8,13,15)             78.3702         estimate D2E/DX2                !
 ! A23   A(14,13,15)           134.4412         estimate D2E/DX2                !
 ! A24   A(2,15,13)            143.8035         estimate D2E/DX2                !
 ! D1    D(8,1,3,2)              1.8252         estimate D2E/DX2                !
 ! D2    D(8,1,3,4)           -178.1461         estimate D2E/DX2                !
 ! D3    D(3,1,8,13)             2.218          estimate D2E/DX2                !
 ! D4    D(5,2,3,1)           -179.6964         estimate D2E/DX2                !
 ! D5    D(5,2,3,4)              0.278          estimate D2E/DX2                !
 ! D6    D(15,2,3,1)             0.4507         estimate D2E/DX2                !
 ! D7    D(15,2,3,4)          -179.5749         estimate D2E/DX2                !
 ! D8    D(3,2,5,7)             -0.1672         estimate D2E/DX2                !
 ! D9    D(3,2,5,10)           179.7881         estimate D2E/DX2                !
 ! D10   D(15,2,5,7)           179.6776         estimate D2E/DX2                !
 ! D11   D(15,2,5,10)           -0.3671         estimate D2E/DX2                !
 ! D12   D(3,2,15,13)           -6.1898         estimate D2E/DX2                !
 ! D13   D(5,2,15,13)          173.9508         estimate D2E/DX2                !
 ! D14   D(1,3,4,6)            179.7501         estimate D2E/DX2                !
 ! D15   D(1,3,4,9)             -0.1145         estimate D2E/DX2                !
 ! D16   D(2,3,4,6)             -0.2227         estimate D2E/DX2                !
 ! D17   D(2,3,4,9)            179.9126         estimate D2E/DX2                !
 ! D18   D(3,4,6,7)              0.0669         estimate D2E/DX2                !
 ! D19   D(3,4,6,11)          -179.8963         estimate D2E/DX2                !
 ! D20   D(9,4,6,7)            179.924          estimate D2E/DX2                !
 ! D21   D(9,4,6,11)            -0.0392         estimate D2E/DX2                !
 ! D22   D(2,5,7,6)             -0.0156         estimate D2E/DX2                !
 ! D23   D(2,5,7,12)           179.9426         estimate D2E/DX2                !
 ! D24   D(10,5,7,6)          -179.9675         estimate D2E/DX2                !
 ! D25   D(10,5,7,12)           -0.0093         estimate D2E/DX2                !
 ! D26   D(4,6,7,5)              0.0605         estimate D2E/DX2                !
 ! D27   D(4,6,7,12)          -179.8972         estimate D2E/DX2                !
 ! D28   D(11,6,7,5)          -179.9762         estimate D2E/DX2                !
 ! D29   D(11,6,7,12)            0.0661         estimate D2E/DX2                !
 ! D30   D(1,8,13,14)         -137.6226         estimate D2E/DX2                !
 ! D31   D(1,8,13,15)           -4.4198         estimate D2E/DX2                !
 ! D32   D(8,13,15,2)            7.3388         estimate D2E/DX2                !
 ! D33   D(14,13,15,2)         109.4095         estimate D2E/DX2                !
 --------------------------------------------------------------------------------
 Trust Radius=3.00D-01 FncErr=1.00D-07 GrdErr=1.00D-06
 Number of steps in this run=     83 maximum allowed number of steps=    100.
 GradGradGradGradGradGradGradGradGradGradGradGradGradGradGradGradGradGrad

 Leave Link  103 at Fri Aug 27 00:03:43 2021, MaxMem= 17179869184 cpu:         0.1
 (Enter /public3/home/sc51754/softwares/g09e01/l202.exe)
                          Input orientation:                          
 ---------------------------------------------------------------------
 Center     Atomic      Atomic             Coordinates (Angstroms)
 Number     Number       Type             X           Y           Z
 ---------------------------------------------------------------------
      1          8           0        1.261476    1.387852    0.005408
      2          7           0        0.249425   -0.658880    0.011581
      3          6           0        0.210209    0.735997    0.005920
      4          6           0       -1.119592    1.287625    0.000474
      5          6           0       -0.843575   -1.460822    0.006702
      6          6           0       -2.218160    0.481905   -0.003521
      7          6           0       -2.095586   -0.930593   -0.001061
      8          1           0        2.701404    0.273138   -0.041623
      9          1           0       -1.196826    2.364370   -0.002539
     10          1           0       -0.649991   -2.523426    0.008616
     11          1           0       -3.205344    0.926047   -0.009282
     12          1           0       -2.960874   -1.573618   -0.005843
     13          8           0        3.106669   -0.619787   -0.085978
     14          1           0        3.833439   -0.624251    0.540740
     15          1           0        1.187279   -1.059291    0.022340
 ---------------------------------------------------------------------
                    Distance matrix (angstroms):
                    1          2          3          4          5
     1  O    0.000000
     2  N    2.283286   0.000000
     3  C    1.236963   1.395440   0.000000
     4  C    2.383182   2.379751   1.439685   0.000000
     5  C    3.542059   1.355649   2.436488   2.762279   0.000000
     6  C    3.595648   2.718565   2.441645   1.362370   2.379869
     7  C    4.079840   2.360734   2.845042   2.423439   1.359682
     8  H    1.821590   2.623679   2.534275   3.953602   3.946622
     9  H    2.645165   3.351400   2.152073   1.079516   3.841480
    10  H    4.353368   2.070142   3.371022   3.839883   1.080095
    11  H    4.490653   3.801034   3.420870   2.116883   3.357879
    12  H    5.157390   3.338124   3.923038   3.402509   2.120339
    13  O    2.728315   2.859176   3.199387   4.637561   4.039846
    14  H    3.309098   3.623033   3.906930   5.336635   4.781162
    15  H    2.448326   1.019811   2.044014   3.290919   2.070227
                    6          7          8          9         10
     6  C    0.000000
     7  C    1.417809   0.000000
     8  H    4.924139   4.945880   0.000000
     9  H    2.141681   3.415341   4.423910   0.000000
    10  H    3.389884   2.151036   4.365220   4.918303   0.000000
    11  H    1.082510   2.163040   5.942811   2.470418   4.292903
    12  H    2.185590   1.078066   5.955937   4.315046   2.498504
    13  O    5.438228   5.212223   0.981592   5.237578   4.212515
    14  H    6.175893   5.961605   1.557548   5.876272   4.898078
    15  H    3.738043   3.285470   2.017928   4.172053   2.349349
                   11         12         13         14         15
    11  H    0.000000
    12  H    2.511594   0.000000
    13  O    6.498999   6.142580   0.000000
    14  H    7.228445   6.882059   0.959682   0.000000
    15  H    4.820550   4.180012   1.972043   2.731330   0.000000
 Stoichiometry    C5H7NO2
 Framework group  C1[X(C5H7NO2)]
 Deg. of freedom    39
 Full point group                 C1      NOp   1
 Largest Abelian subgroup         C1      NOp   1
 Largest concise Abelian subgroup C1      NOp   1
                         Standard orientation:                         
 ---------------------------------------------------------------------
 Center     Atomic      Atomic             Coordinates (Angstroms)
 Number     Number       Type             X           Y           Z
 ---------------------------------------------------------------------
      1          8           0        1.261476    1.387852    0.005408
      2          7           0        0.249425   -0.658880    0.011581
      3          6           0        0.210209    0.735997    0.005920
      4          6           0       -1.119592    1.287625    0.000474
      5          6           0       -0.843575   -1.460822    0.006702
      6          6           0       -2.218160    0.481905   -0.003521
      7          6           0       -2.095586   -0.930593   -0.001061
      8          1           0        2.701404    0.273138   -0.041623
      9          1           0       -1.196826    2.364370   -0.002539
     10          1           0       -0.649991   -2.523426    0.008616
     11          1           0       -3.205344    0.926047   -0.009282
     12          1           0       -2.960874   -1.573618   -0.005843
     13          8           0        3.106669   -0.619787   -0.085978
     14          1           0        3.833439   -0.624251    0.540740
     15          1           0        1.187279   -1.059291    0.022340
 ---------------------------------------------------------------------
 Rotational constants (GHZ):      4.0248921      1.3974909      1.0390436
 Leave Link  202 at Fri Aug 27 00:03:44 2021, MaxMem= 17179869184 cpu:         4.7
 (Enter /public3/home/sc51754/softwares/g09e01/l301.exe)
 General basis read from cards:  (5D, 7F)
 Centers:       8      9     10     11     12     14     15
 S 4 1.00
     Exponent=  7.5423000000D+01 Coefficients=  2.4065000000D-03
     Exponent=  1.1350000000D+01 Coefficients=  1.8487000000D-02
     Exponent=  2.5993000000D+00 Coefficients=  8.9742000000D-02
     Exponent=  7.3513000000D-01 Coefficients=  2.8111000000D-01
 S 1 1.00
     Exponent=  2.3167000000D-01 Coefficients=  1.0000000000D+00
 S 1 1.00
     Exponent=  7.4147000000D-02 Coefficients=  1.0000000000D+00
 P 1 1.00
     Exponent=  1.6000000000D+00 Coefficients=  1.0000000000D+00
 P 1 1.00
     Exponent=  4.5000000000D-01 Coefficients=  1.0000000000D+00
 D 1 1.00
     Exponent=  1.2500000000D+00 Coefficients=  1.0000000000D+00
 ****
 Centers:       3      4      5      6      7
 S 7 1.00
     Exponent=  7.8571000000D+03 Coefficients=  5.6825000000D-04
     Exponent=  1.1787000000D+03 Coefficients=  4.3915000000D-03
     Exponent=  2.6832000000D+02 Coefficients=  2.2504000000D-02
     Exponent=  7.5948000000D+01 Coefficients=  8.6653000000D-02
     Exponent=  2.4559000000D+01 Coefficients=  2.4405000000D-01
     Exponent=  8.6212000000D+00 Coefficients=  4.4148000000D-01
     Exponent=  3.1278000000D+00 Coefficients=  3.5332000000D-01
 S 7 1.00
     Exponent=  1.1787000000D+03 Coefficients= -5.9492000000D-07
     Exponent=  2.6832000000D+02 Coefficients= -6.2748000000D-05
     Exponent=  7.5948000000D+01 Coefficients= -7.5773000000D-04
     Exponent=  2.4559000000D+01 Coefficients= -7.3308000000D-03
     Exponent=  8.6212000000D+00 Coefficients= -3.8932000000D-02
     Exponent=  3.1278000000D+00 Coefficients= -8.8908000000D-02
     Exponent=  8.2202000000D-01 Coefficients=  2.1689000000D-01
 S 1 1.00
     Exponent=  3.3017000000D-01 Coefficients=  1.0000000000D+00
 S 1 1.00
     Exponent=  1.1463000000D-01 Coefficients=  1.0000000000D+00
 P 4 1.00
     Exponent=  3.3775000000D+01 Coefficients=  6.0294000000D-03
     Exponent=  7.6766000000D+00 Coefficients=  4.3228000000D-02
     Exponent=  2.2357000000D+00 Coefficients=  1.6301000000D-01
     Exponent=  7.6447000000D-01 Coefficients=  3.6504000000D-01
 P 1 1.00
     Exponent=  2.6232000000D-01 Coefficients=  1.0000000000D+00
 P 1 1.00
     Exponent=  8.4638000000D-02 Coefficients=  1.0000000000D+00
 D 1 1.00
     Exponent=  1.4000000000D+00 Coefficients=  1.0000000000D+00
 D 1 1.00
     Exponent=  4.5000000000D-01 Coefficients=  1.0000000000D+00
 F 1 1.00
     Exponent=  9.5000000000D-01 Coefficients=  1.0000000000D+00
 ****
 Centers:       2
 S 7 1.00
     Exponent=  1.1101000000D+04 Coefficients=  5.4570000000D-04
     Exponent=  1.6653000000D+03 Coefficients=  4.2181000000D-03
     Exponent=  3.7908000000D+02 Coefficients=  2.1645000000D-02
     Exponent=  1.0730000000D+02 Coefficients=  8.3776000000D-02
     Exponent=  3.4747000000D+01 Coefficients=  2.3881000000D-01
     Exponent=  1.2249000000D+01 Coefficients=  4.3994000000D-01
     Exponent=  4.4743000000D+00 Coefficients=  3.6364000000D-01
 S 7 1.00
     Exponent=  1.6653000000D+03 Coefficients= -1.5006000000D-06
     Exponent=  3.7908000000D+02 Coefficients= -5.8753000000D-05
     Exponent=  1.0730000000D+02 Coefficients= -7.7453000000D-04
     Exponent=  3.4747000000D+01 Coefficients= -7.2161000000D-03
     Exponent=  1.2249000000D+01 Coefficients= -3.9338000000D-02
     Exponent=  4.4743000000D+00 Coefficients= -9.0611000000D-02
     Exponent=  1.2404000000D+00 Coefficients=  1.9882000000D-01
 S 1 1.00
     Exponent=  4.8743000000D-01 Coefficients=  1.0000000000D+00
 S 1 1.00
     Exponent=  1.6484000000D-01 Coefficients=  1.0000000000D+00
 P 4 1.00
     Exponent=  4.7934000000D+01 Coefficients=  6.1706000000D-03
     Exponent=  1.0999000000D+01 Coefficients=  4.4260000000D-02
     Exponent=  3.2472000000D+00 Coefficients=  1.6825000000D-01
     Exponent=  1.1114000000D+00 Coefficients=  3.6848000000D-01
 P 1 1.00
     Exponent=  3.7988000000D-01 Coefficients=  1.0000000000D+00
 P 1 1.00
     Exponent=  1.2068000000D-01 Coefficients=  1.0000000000D+00
 D 1 1.00
     Exponent=  1.8000000000D+00 Coefficients=  1.0000000000D+00
 D 1 1.00
     Exponent=  5.5000000000D-01 Coefficients=  1.0000000000D+00
 F 1 1.00
     Exponent=  1.0200000000D+00 Coefficients=  1.0000000000D+00
 ****
 Centers:       1     13
 S 7 1.00
     Exponent=  1.4782000000D+04 Coefficients=  5.3519000000D-04
     Exponent=  2.2173000000D+03 Coefficients=  4.1375000000D-03
     Exponent=  5.0474000000D+02 Coefficients=  2.1245000000D-02
     Exponent=  1.4287000000D+02 Coefficients=  8.2453000000D-02
     Exponent=  4.6300000000D+01 Coefficients=  2.3671000000D-01
     Exponent=  1.6337000000D+01 Coefficients=  4.4039000000D-01
     Exponent=  5.9828000000D+00 Coefficients=  3.6465000000D-01
 S 7 1.00
     Exponent=  2.2173000000D+03 Coefficients= -1.9275000000D-06
     Exponent=  5.0474000000D+02 Coefficients= -5.7964000000D-05
     Exponent=  1.4287000000D+02 Coefficients= -7.9494000000D-04
     Exponent=  4.6300000000D+01 Coefficients= -7.3125000000D-03
     Exponent=  1.6337000000D+01 Coefficients= -4.0574000000D-02
     Exponent=  5.9828000000D+00 Coefficients= -9.1594000000D-02
     Exponent=  1.6718000000D+00 Coefficients=  2.0940000000D-01
 S 1 1.00
     Exponent=  6.4662000000D-01 Coefficients=  1.0000000000D+00
 S 1 1.00
     Exponent=  2.1669000000D-01 Coefficients=  1.0000000000D+00
 P 4 1.00
     Exponent=  6.0424000000D+01 Coefficients=  6.8949000000D-03
     Exponent=  1.3935000000D+01 Coefficients=  4.9005000000D-02
     Exponent=  4.1531000000D+00 Coefficients=  1.8255000000D-01
     Exponent=  1.4158000000D+00 Coefficients=  3.7633000000D-01
 P 1 1.00
     Exponent=  4.7549000000D-01 Coefficients=  1.0000000000D+00
 P 1 1.00
     Exponent=  1.4529000000D-01 Coefficients=  1.0000000000D+00
 D 1 1.00
     Exponent=  2.2000000000D+00 Coefficients=  1.0000000000D+00
 D 1 1.00
     Exponent=  6.5000000000D-01 Coefficients=  1.0000000000D+00
 F 1 1.00
     Exponent=  1.1000000000D+00 Coefficients=  1.0000000000D+00
 ****
 Ernie: Thresh=  0.10000D-02 Tol=  0.10000D-05 Strict=F.
 Ernie:  8 primitive shells out of 263 were deleted.
 There are   385 symmetry adapted cartesian basis functions of A   symmetry.
 There are   338 symmetry adapted basis functions of A   symmetry.
   338 basis functions,   566 primitive gaussians,   385 cartesian basis functions
    30 alpha electrons       30 beta electrons
       nuclear repulsion energy       356.8539014902 Hartrees.
 IExCor= 1009 DFT=T Ex=PBE Corr=PBE ExCW=0 ScaHFX=  0.000000
 ScaDFX=  1.000000  1.000000  1.000000  1.000000 ScalE2=  1.000000  1.000000
 IRadAn=      0 IRanWt=     -1 IRanGd=            0 ICorTp=0 IEmpDi=  4
 NAtoms=   15 NActive=   15 NUniq=   15 SFac= 1.00D+00 NAtFMM=   60 NAOKFM=F Big=F
 Integral buffers will be    131072 words long.
 Raffenetti 2 integral format.
 Two-electron integral symmetry is turned on.
 Leave Link  301 at Fri Aug 27 00:03:44 2021, MaxMem= 17179869184 cpu:         2.0
 (Enter /public3/home/sc51754/softwares/g09e01/l302.exe)
 NPDir=0 NMtPBC=     1 NCelOv=     1 NCel=       1 NClECP=     1 NCelD=      1
         NCelK=      1 NCelE2=     1 NClLst=     1 CellRange=     0.0.
 One-electron integrals computed using PRISM.
 NBasis=   338 RedAO= T EigKep=  1.57D-04  NBF=   338
 NBsUse=   338 1.00D-06 EigRej= -1.00D+00 NBFU=   338
 Precomputing XC quadrature grid using
 IXCGrd= 4 IRadAn=           0 IRanWt=          -1 IRanGd=           0 AccXCQ= 0.00D+00.
 Generated NRdTot=       0 NPtTot=           0 NUsed=           0 NTot=          32
 NSgBfM=   385   385   385   385   385 MxSgAt=    15 MxSgA2=    15.
 Leave Link  302 at Fri Aug 27 00:03:45 2021, MaxMem= 17179869184 cpu:        53.1
 (Enter /public3/home/sc51754/softwares/g09e01/l303.exe)
 DipDrv:  MaxL=1.
 Leave Link  303 at Fri Aug 27 00:03:45 2021, MaxMem= 17179869184 cpu:        14.2
 (Enter /public3/home/sc51754/softwares/g09e01/l401.exe)
 ExpMin= 7.41D-02 ExpMax= 1.48D+04 ExpMxC= 5.05D+02 IAcc=2 IRadAn=         4 AccDes= 0.00D+00
 Harris functional with IExCor= 1009 and IRadAn=       4 diagonalized for initial guess.
 HarFok:  IExCor= 1009 AccDes= 0.00D+00 IRadAn=         4 IDoV= 1 UseB2=F ITyADJ=14
 ICtDFT=  3500011 ScaDFX=  1.000000  1.000000  1.000000  1.000000
 FoFCou: FMM=F IPFlag=           0 FMFlag=      100000 FMFlg1=           0
         NFxFlg=           0 DoJE=T BraDBF=F KetDBF=T FulRan=T
         wScrn=  0.000000 ICntrl=     500 IOpCl=  0 I1Cent=   200000004 NGrid=           0
         NMat0=    1 NMatS0=      1 NMatT0=    0 NMatD0=    1 NMtDS0=    0 NMtDT0=    0
 Petite list used in FoFCou.
 Harris En= -399.816960565454    
 JPrj=0 DoOrth=F DoCkMO=F.
 Leave Link  401 at Fri Aug 27 00:03:46 2021, MaxMem= 17179869184 cpu:        54.4
 (Enter /public3/home/sc51754/softwares/g09e01/l502.exe)
 Closed shell SCF:
 Using DIIS extrapolation, IDIIS=  1040.
 Integral symmetry usage will be decided dynamically.
 Keep J ints in memory in canonical form, NReq=1670404686.
 IVT=      490665 IEndB=      490665 NGot= 17179869184 MDV= 15538220534
 LenX= 15538220534 LenY= 15538071868
 Requested convergence on RMS density matrix=1.00D-08 within 128 cycles.
 Requested convergence on MAX density matrix=1.00D-06.
 Requested convergence on             energy=1.00D-06.
 No special actions if energy rises.
 FoFCou: FMM=F IPFlag=           0 FMFlag=           0 FMFlg1=           0
         NFxFlg=           0 DoJE=F BraDBF=F KetDBF=F FulRan=T
         wScrn=  0.000000 ICntrl=     600 IOpCl=  0 I1Cent=           0 NGrid=           0
         NMat0=    1 NMatS0=  57291 NMatT0=    0 NMatD0=    1 NMtDS0=    0 NMtDT0=    0
 Symmetry not used in FoFCou.
 Integral accuracy reduced to 1.0D-05 until final iterations.

 Cycle   1  Pass 0  IDiag  1:
 E= -399.440209625159    
 DIIS: error= 2.51D-02 at cycle   1 NSaved=   1.
 NSaved= 1 IEnMin= 1 EnMin= -399.440209625159     IErMin= 1 ErrMin= 2.51D-02
 ErrMax= 2.51D-02  0.00D+00 EMaxC= 1.00D-01 BMatC= 2.77D-01 BMatP= 2.77D-01
 IDIUse=3 WtCom= 7.49D-01 WtEn= 2.51D-01
 Coeff-Com:  0.100D+01
 Coeff-En:   0.100D+01
 Coeff:      0.100D+01
 Gap=     0.093 Goal=   None    Shift=    0.000
 GapD=    0.093 DampG=0.500 DampE=0.500 DampFc=0.2500 IDamp=-1.
 Damping current iteration by 2.50D-01
 RMSDP=4.31D-03 MaxDP=1.64D-01              OVMax= 4.61D-01

 Cycle   2  Pass 0  IDiag  1:
 E= -399.512527987571     Delta-E=       -0.072318362412 Rises=F Damp=T
 DIIS: error= 9.85D-03 at cycle   2 NSaved=   2.
 NSaved= 2 IEnMin= 2 EnMin= -399.512527987571     IErMin= 2 ErrMin= 9.85D-03
 ErrMax= 9.85D-03  0.00D+00 EMaxC= 1.00D-01 BMatC= 3.24D-02 BMatP= 2.77D-01
 IDIUse=3 WtCom= 9.02D-01 WtEn= 9.85D-02
 Coeff-Com: -0.245D+00 0.124D+01
 Coeff-En:   0.120D+00 0.880D+00
 Coeff:     -0.209D+00 0.121D+01
 Gap=     0.168 Goal=   None    Shift=    0.000
 RMSDP=1.04D-03 MaxDP=4.31D-02 DE=-7.23D-02 OVMax= 4.52D-01

 Cycle   3  Pass 0  IDiag  1:
 E= -399.589366359629     Delta-E=       -0.076838372058 Rises=F Damp=F
 DIIS: error= 1.83D-02 at cycle   3 NSaved=   3.
 NSaved= 3 IEnMin= 3 EnMin= -399.589366359629     IErMin= 2 ErrMin= 9.85D-03
 ErrMax= 1.83D-02  0.00D+00 EMaxC= 1.00D-01 BMatC= 9.01D-02 BMatP= 3.24D-02
 IDIUse=2 WtCom= 0.00D+00 WtEn= 1.00D+00
 EnCoef did     6 forward-backward iterations
 Coeff-En:   0.159D-01 0.146D+00 0.838D+00
 Coeff:      0.159D-01 0.146D+00 0.838D+00
 Gap=     0.092 Goal=   None    Shift=    0.000
 RMSDP=2.55D-03 MaxDP=1.43D-01 DE=-7.68D-02 OVMax= 5.77D-01

 Cycle   4  Pass 0  IDiag  1:
 E= -398.980613440206     Delta-E=        0.608752919423 Rises=F Damp=F
 DIIS: error= 5.61D-02 at cycle   4 NSaved=   4.
 NSaved= 4 IEnMin= 3 EnMin= -399.589366359629     IErMin= 2 ErrMin= 9.85D-03
 ErrMax= 5.61D-02  0.00D+00 EMaxC= 1.00D-01 BMatC= 7.59D-01 BMatP= 3.24D-02
 IDIUse=2 WtCom= 0.00D+00 WtEn= 1.00D+00
 Coeff-En:   0.000D+00 0.000D+00 0.819D+00 0.181D+00
 Coeff:      0.000D+00 0.000D+00 0.819D+00 0.181D+00
 Gap=     0.093 Goal=   None    Shift=    0.000
 RMSDP=1.60D-03 MaxDP=8.42D-02 DE= 6.09D-01 OVMax= 3.54D-01

 Cycle   5  Pass 0  IDiag  1:
 E= -399.615042368259     Delta-E=       -0.634428928053 Rises=F Damp=F
 DIIS: error= 1.48D-02 at cycle   5 NSaved=   5.
 NSaved= 5 IEnMin= 5 EnMin= -399.615042368259     IErMin= 2 ErrMin= 9.85D-03
 ErrMax= 1.48D-02  0.00D+00 EMaxC= 1.00D-01 BMatC= 6.43D-02 BMatP= 3.24D-02
 IDIUse=2 WtCom= 0.00D+00 WtEn= 1.00D+00
 Coeff-En:   0.000D+00 0.000D+00 0.438D+00 0.000D+00 0.562D+00
 Coeff:      0.000D+00 0.000D+00 0.438D+00 0.000D+00 0.562D+00
 Gap=     0.144 Goal=   None    Shift=    0.000
 RMSDP=5.98D-04 MaxDP=3.26D-02 DE=-6.34D-01 OVMax= 1.43D-01

 Cycle   6  Pass 0  IDiag  1:
 E= -399.673245122079     Delta-E=       -0.058202753821 Rises=F Damp=F
 DIIS: error= 2.27D-03 at cycle   6 NSaved=   6.
 NSaved= 6 IEnMin= 6 EnMin= -399.673245122079     IErMin= 6 ErrMin= 2.27D-03
 ErrMax= 2.27D-03  0.00D+00 EMaxC= 1.00D-01 BMatC= 2.06D-03 BMatP= 3.24D-02
 IDIUse=3 WtCom= 9.77D-01 WtEn= 2.27D-02
 Coeff-Com: -0.119D-01 0.114D-01 0.188D+00-0.308D-01 0.358D+00 0.485D+00
 Coeff-En:   0.000D+00 0.000D+00 0.000D+00 0.000D+00 0.000D+00 0.100D+01
 Coeff:     -0.116D-01 0.112D-01 0.183D+00-0.301D-01 0.350D+00 0.497D+00
 Gap=     0.124 Goal=   None    Shift=    0.000
 RMSDP=1.22D-04 MaxDP=6.95D-03 DE=-5.82D-02 OVMax= 2.61D-02

 Cycle   7  Pass 0  IDiag  1:
 E= -399.674712642689     Delta-E=       -0.001467520610 Rises=F Damp=F
 DIIS: error= 1.17D-03 at cycle   7 NSaved=   7.
 NSaved= 7 IEnMin= 7 EnMin= -399.674712642689     IErMin= 7 ErrMin= 1.17D-03
 ErrMax= 1.17D-03  0.00D+00 EMaxC= 1.00D-01 BMatC= 3.62D-04 BMatP= 2.06D-03
 IDIUse=3 WtCom= 9.88D-01 WtEn= 1.17D-02
 Coeff-Com: -0.545D-02 0.891D-02 0.885D-01-0.216D-01 0.182D+00 0.329D+00
 Coeff-Com:  0.419D+00
 Coeff-En:   0.000D+00 0.000D+00 0.000D+00 0.000D+00 0.000D+00 0.174D+00
 Coeff-En:   0.826D+00
 Coeff:     -0.539D-02 0.880D-02 0.875D-01-0.213D-01 0.180D+00 0.327D+00
 Coeff:      0.424D+00
 Gap=     0.124 Goal=   None    Shift=    0.000
 RMSDP=4.89D-05 MaxDP=2.61D-03 DE=-1.47D-03 OVMax= 1.20D-02

 Cycle   8  Pass 0  IDiag  1:
 E= -399.675047856360     Delta-E=       -0.000335213670 Rises=F Damp=F
 DIIS: error= 3.39D-04 at cycle   8 NSaved=   8.
 NSaved= 8 IEnMin= 8 EnMin= -399.675047856360     IErMin= 8 ErrMin= 3.39D-04
 ErrMax= 3.39D-04  0.00D+00 EMaxC= 1.00D-01 BMatC= 3.73D-05 BMatP= 3.62D-04
 IDIUse=3 WtCom= 9.97D-01 WtEn= 3.39D-03
 Coeff-Com:  0.777D-03 0.404D-02 0.279D-01-0.688D-02 0.455D-01 0.117D+00
 Coeff-Com:  0.254D+00 0.558D+00
 Coeff-En:   0.000D+00 0.000D+00 0.000D+00 0.000D+00 0.000D+00 0.000D+00
 Coeff-En:   0.000D+00 0.100D+01
 Coeff:      0.774D-03 0.402D-02 0.278D-01-0.686D-02 0.454D-01 0.116D+00
 Coeff:      0.253D+00 0.559D+00
 Gap=     0.124 Goal=   None    Shift=    0.000
 RMSDP=1.63D-05 MaxDP=9.39D-04 DE=-3.35D-04 OVMax= 3.85D-03

 Cycle   9  Pass 0  IDiag  1:
 E= -399.675072747800     Delta-E=       -0.000024891440 Rises=F Damp=F
 DIIS: error= 2.40D-04 at cycle   9 NSaved=   9.
 NSaved= 9 IEnMin= 9 EnMin= -399.675072747800     IErMin= 9 ErrMin= 2.40D-04
 ErrMax= 2.40D-04  0.00D+00 EMaxC= 1.00D-01 BMatC= 8.85D-06 BMatP= 3.73D-05
 IDIUse=3 WtCom= 9.98D-01 WtEn= 2.40D-03
 Coeff-Com:  0.359D-02-0.351D-02 0.642D-02-0.131D-02 0.511D-02 0.422D-01
 Coeff-Com:  0.118D+00 0.393D+00 0.436D+00
 Coeff-En:   0.000D+00 0.000D+00 0.000D+00 0.000D+00 0.000D+00 0.000D+00
 Coeff-En:   0.000D+00 0.167D+00 0.833D+00
 Coeff:      0.358D-02-0.350D-02 0.641D-02-0.131D-02 0.510D-02 0.421D-01
 Coeff:      0.118D+00 0.392D+00 0.437D+00
 Gap=     0.124 Goal=   None    Shift=    0.000
 RMSDP=6.89D-06 MaxDP=4.40D-04 DE=-2.49D-05 OVMax= 1.64D-03

 Initial convergence to 1.0D-05 achieved.  Increase integral accuracy.
 Cycle  10  Pass 1  IDiag  1:
 E= -399.675149206557     Delta-E=       -0.000076458757 Rises=F Damp=F
 DIIS: error= 2.86D-05 at cycle   1 NSaved=   1.
 NSaved= 1 IEnMin= 1 EnMin= -399.675149206557     IErMin= 1 ErrMin= 2.86D-05
 ErrMax= 2.86D-05  0.00D+00 EMaxC= 1.00D-01 BMatC= 3.56D-07 BMatP= 3.56D-07
 IDIUse=1 WtCom= 1.00D+00 WtEn= 0.00D+00
 Coeff-Com:  0.100D+01
 Coeff:      0.100D+01
 Gap=     0.124 Goal=   None    Shift=    0.000
 RMSDP=6.89D-06 MaxDP=4.40D-04 DE=-7.65D-05 OVMax= 7.07D-04

 Cycle  11  Pass 1  IDiag  1:
 E= -399.675148325298     Delta-E=        0.000000881259 Rises=F Damp=F
 DIIS: error= 6.78D-05 at cycle   2 NSaved=   2.
 NSaved= 2 IEnMin= 1 EnMin= -399.675149206557     IErMin= 1 ErrMin= 2.86D-05
 ErrMax= 6.78D-05  0.00D+00 EMaxC= 1.00D-01 BMatC= 1.41D-06 BMatP= 3.56D-07
 IDIUse=1 WtCom= 1.00D+00 WtEn= 0.00D+00
 Coeff-Com:  0.686D+00 0.314D+00
 Coeff:      0.686D+00 0.314D+00
 Gap=     0.124 Goal=   None    Shift=    0.000
 RMSDP=2.55D-06 MaxDP=1.49D-04 DE= 8.81D-07 OVMax= 5.66D-04

 Cycle  12  Pass 1  IDiag  1:
 E= -399.675149522258     Delta-E=       -0.000001196961 Rises=F Damp=F
 DIIS: error= 1.30D-05 at cycle   3 NSaved=   3.
 NSaved= 3 IEnMin= 3 EnMin= -399.675149522258     IErMin= 3 ErrMin= 1.30D-05
 ErrMax= 1.30D-05  0.00D+00 EMaxC= 1.00D-01 BMatC= 6.37D-08 BMatP= 3.56D-07
 IDIUse=1 WtCom= 1.00D+00 WtEn= 0.00D+00
 Coeff-Com:  0.169D+00 0.182D+00 0.649D+00
 Coeff:      0.169D+00 0.182D+00 0.649D+00
 Gap=     0.124 Goal=   None    Shift=    0.000
 RMSDP=7.50D-07 MaxDP=4.17D-05 DE=-1.20D-06 OVMax= 1.50D-04

 Cycle  13  Pass 1  IDiag  1:
 E= -399.675149546811     Delta-E=       -0.000000024553 Rises=F Damp=F
 DIIS: error= 1.11D-05 at cycle   4 NSaved=   4.
 NSaved= 4 IEnMin= 4 EnMin= -399.675149546811     IErMin= 4 ErrMin= 1.11D-05
 ErrMax= 1.11D-05  0.00D+00 EMaxC= 1.00D-01 BMatC= 3.07D-08 BMatP= 6.37D-08
 IDIUse=1 WtCom= 1.00D+00 WtEn= 0.00D+00
 Coeff-Com:  0.300D-01 0.899D-01 0.485D+00 0.395D+00
 Coeff:      0.300D-01 0.899D-01 0.485D+00 0.395D+00
 Gap=     0.124 Goal=   None    Shift=    0.000
 RMSDP=4.95D-07 MaxDP=2.32D-05 DE=-2.46D-08 OVMax= 1.21D-04

 Cycle  14  Pass 1  IDiag  1:
 E= -399.675149572130     Delta-E=       -0.000000025319 Rises=F Damp=F
 DIIS: error= 5.47D-06 at cycle   5 NSaved=   5.
 NSaved= 5 IEnMin= 5 EnMin= -399.675149572130     IErMin= 5 ErrMin= 5.47D-06
 ErrMax= 5.47D-06  0.00D+00 EMaxC= 1.00D-01 BMatC= 3.79D-09 BMatP= 3.07D-08
 IDIUse=1 WtCom= 1.00D+00 WtEn= 0.00D+00
 Coeff-Com:  0.101D-02 0.427D-01 0.268D+00 0.290D+00 0.398D+00
 Coeff:      0.101D-02 0.427D-01 0.268D+00 0.290D+00 0.398D+00
 Gap=     0.124 Goal=   None    Shift=    0.000
 RMSDP=1.84D-07 MaxDP=8.32D-06 DE=-2.53D-08 OVMax= 4.68D-05

 Cycle  15  Pass 1  IDiag  1:
 E= -399.675149575933     Delta-E=       -0.000000003803 Rises=F Damp=F
 DIIS: error= 1.26D-06 at cycle   6 NSaved=   6.
 NSaved= 6 IEnMin= 6 EnMin= -399.675149575933     IErMin= 6 ErrMin= 1.26D-06
 ErrMax= 1.26D-06  0.00D+00 EMaxC= 1.00D-01 BMatC= 3.57D-10 BMatP= 3.79D-09
 IDIUse=1 WtCom= 1.00D+00 WtEn= 0.00D+00
 Coeff-Com: -0.285D-02 0.190D-01 0.130D+00 0.154D+00 0.279D+00 0.421D+00
 Coeff:     -0.285D-02 0.190D-01 0.130D+00 0.154D+00 0.279D+00 0.421D+00
 Gap=     0.124 Goal=   None    Shift=    0.000
 RMSDP=4.43D-08 MaxDP=2.64D-06 DE=-3.80D-09 OVMax= 8.84D-06

 Cycle  16  Pass 1  IDiag  1:
 E= -399.675149576278     Delta-E=       -0.000000000345 Rises=F Damp=F
 DIIS: error= 2.20D-07 at cycle   7 NSaved=   7.
 NSaved= 7 IEnMin= 7 EnMin= -399.675149576278     IErMin= 7 ErrMin= 2.20D-07
 ErrMax= 2.20D-07  0.00D+00 EMaxC= 1.00D-01 BMatC= 9.22D-12 BMatP= 3.57D-10
 IDIUse=1 WtCom= 1.00D+00 WtEn= 0.00D+00
 Coeff-Com: -0.157D-02 0.974D-02 0.674D-01 0.795D-01 0.152D+00 0.247D+00
 Coeff-Com:  0.446D+00
 Coeff:     -0.157D-02 0.974D-02 0.674D-01 0.795D-01 0.152D+00 0.247D+00
 Coeff:      0.446D+00
 Gap=     0.124 Goal=   None    Shift=    0.000
 RMSDP=1.05D-08 MaxDP=4.93D-07 DE=-3.45D-10 OVMax= 2.62D-06

 Cycle  17  Pass 1  IDiag  1:
 E= -399.675149576286     Delta-E=       -0.000000000008 Rises=F Damp=F
 DIIS: error= 8.95D-08 at cycle   8 NSaved=   8.
 NSaved= 8 IEnMin= 8 EnMin= -399.675149576286     IErMin= 8 ErrMin= 8.95D-08
 ErrMax= 8.95D-08  0.00D+00 EMaxC= 1.00D-01 BMatC= 2.34D-12 BMatP= 9.22D-12
 IDIUse=1 WtCom= 1.00D+00 WtEn= 0.00D+00
 Coeff-Com: -0.593D-03 0.321D-02 0.228D-01 0.263D-01 0.550D-01 0.932D-01
 Coeff-Com:  0.328D+00 0.472D+00
 Coeff:     -0.593D-03 0.321D-02 0.228D-01 0.263D-01 0.550D-01 0.932D-01
 Coeff:      0.328D+00 0.472D+00
 Gap=     0.124 Goal=   None    Shift=    0.000
 RMSDP=4.39D-09 MaxDP=1.85D-07 DE=-8.07D-12 OVMax= 1.02D-06

 SCF Done:  E(RPBE-PBE) =  -399.675149576     A.U. after   17 cycles
            NFock= 17  Conv=0.44D-08     -V/T= 2.0028
 KE= 3.985499540922D+02 PE=-1.649534811342D+03 EE= 4.944558061836D+02
 Leave Link  502 at Fri Aug 27 00:04:12 2021, MaxMem= 17179869184 cpu:       338.2
 (Enter /public3/home/sc51754/softwares/g09e01/l601.exe)
 Copying SCF densities to generalized density rwf, IOpCl= 0 IROHF=0.

 **********************************************************************

            Population analysis using the SCF density.

 **********************************************************************

 Orbital symmetries:
       Occupied  (A) (A) (A) (A) (A) (A) (A) (A) (A) (A) (A) (A)
                 (A) (A) (A) (A) (A) (A) (A) (A) (A) (A) (A) (A)
                 (A) (A) (A) (A) (A) (A)
       Virtual   (A) (A) (A) (A) (A) (A) (A) (A) (A) (A) (A) (A)
                 (A) (A) (A) (A) (A) (A) (A) (A) (A) (A) (A) (A)
                 (A) (A) (A) (A) (A) (A) (A) (A) (A) (A) (A) (A)
                 (A) (A) (A) (A) (A) (A) (A) (A) (A) (A) (A) (A)
                 (A) (A) (A) (A) (A) (A) (A) (A) (A) (A) (A) (A)
                 (A) (A) (A) (A) (A) (A) (A) (A) (A) (A) (A) (A)
                 (A) (A) (A) (A) (A) (A) (A) (A) (A) (A) (A) (A)
                 (A) (A) (A) (A) (A) (A) (A) (A) (A) (A) (A) (A)
                 (A) (A) (A) (A) (A) (A) (A) (A) (A) (A) (A) (A)
                 (A) (A) (A) (A) (A) (A) (A) (A) (A) (A) (A) (A)
                 (A) (A) (A) (A) (A) (A) (A) (A) (A) (A) (A) (A)
                 (A) (A) (A) (A) (A) (A) (A) (A) (A) (A) (A) (A)
                 (A) (A) (A) (A) (A) (A) (A) (A) (A) (A) (A) (A)
                 (A) (A) (A) (A) (A) (A) (A) (A) (A) (A) (A) (A)
                 (A) (A) (A) (A) (A) (A) (A) (A) (A) (A) (A) (A)
                 (A) (A) (A) (A) (A) (A) (A) (A) (A) (A) (A) (A)
                 (A) (A) (A) (A) (A) (A) (A) (A) (A) (A) (A) (A)
                 (A) (A) (A) (A) (A) (A) (A) (A) (A) (A) (A) (A)
                 (A) (A) (A) (A) (A) (A) (A) (A) (A) (A) (A) (A)
                 (A) (A) (A) (A) (A) (A) (A) (A) (A) (A) (A) (A)
                 (A) (A) (A) (A) (A) (A) (A) (A) (A) (A) (A) (A)
                 (A) (A) (A) (A) (A) (A) (A) (A) (A) (A) (A) (A)
                 (A) (A) (A) (A) (A) (A) (A) (A) (A) (A) (A) (A)
                 (A) (A) (A) (A) (A) (A) (A) (A) (A) (A) (A) (A)
                 (A) (A) (A) (A) (A) (A) (A) (A) (A) (A) (A) (A)
                 (A) (A) (A) (A) (A) (A) (A) (A)
 The electronic state is 1-A.
 Alpha  occ. eigenvalues --  -18.73616 -18.71614 -14.04333  -9.98356  -9.94863
 Alpha  occ. eigenvalues --   -9.91452  -9.90061  -9.89757  -0.95789  -0.91118
 Alpha  occ. eigenvalues --   -0.88382  -0.75442  -0.69691  -0.60094  -0.58570
 Alpha  occ. eigenvalues --   -0.51569  -0.47740  -0.46140  -0.43872  -0.42092
 Alpha  occ. eigenvalues --   -0.40485  -0.38893  -0.35173  -0.34173  -0.32552
 Alpha  occ. eigenvalues --   -0.31687  -0.28612  -0.25789  -0.22371  -0.20713
 Alpha virt. eigenvalues --   -0.08304  -0.03620  -0.00690   0.00881   0.02258
 Alpha virt. eigenvalues --    0.03948   0.06070   0.07665   0.08101   0.09821
 Alpha virt. eigenvalues --    0.11597   0.12721   0.14012   0.15414   0.16208
 Alpha virt. eigenvalues --    0.16660   0.17931   0.18288   0.19610   0.21981
 Alpha virt. eigenvalues --    0.23365   0.23557   0.24276   0.24951   0.25470
 Alpha virt. eigenvalues --    0.26911   0.27216   0.28339   0.30136   0.30460
 Alpha virt. eigenvalues --    0.31249   0.31716   0.33706   0.35591   0.36447
 Alpha virt. eigenvalues --    0.38123   0.39218   0.41354   0.42268   0.45010
 Alpha virt. eigenvalues --    0.46331   0.47603   0.49070   0.50617   0.52639
 Alpha virt. eigenvalues --    0.52999   0.56467   0.57615   0.58655   0.59217
 Alpha virt. eigenvalues --    0.61960   0.63901   0.66981   0.70143   0.70841
 Alpha virt. eigenvalues --    0.71408   0.73028   0.75925   0.77553   0.79626
 Alpha virt. eigenvalues --    0.82053   0.84714   0.86585   0.87577   0.87782
 Alpha virt. eigenvalues --    0.89877   0.92554   0.94328   0.96377   0.99317
 Alpha virt. eigenvalues --    1.00643   1.02666   1.04587   1.04973   1.07372
 Alpha virt. eigenvalues --    1.08440   1.09999   1.11557   1.12362   1.12438
 Alpha virt. eigenvalues --    1.15120   1.16830   1.18009   1.18650   1.19501
 Alpha virt. eigenvalues --    1.21182   1.22051   1.26112   1.27609   1.32208
 Alpha virt. eigenvalues --    1.33715   1.34525   1.36002   1.38469   1.39424
 Alpha virt. eigenvalues --    1.41468   1.42252   1.42693   1.44083   1.47272
 Alpha virt. eigenvalues --    1.49827   1.52222   1.54955   1.58000   1.58824
 Alpha virt. eigenvalues --    1.59284   1.62291   1.62864   1.66009   1.66846
 Alpha virt. eigenvalues --    1.71782   1.72287   1.74567   1.78706   1.79449
 Alpha virt. eigenvalues --    1.81259   1.81773   1.83662   1.86062   1.89702
 Alpha virt. eigenvalues --    1.92954   1.93529   1.94915   1.98208   1.98527
 Alpha virt. eigenvalues --    2.02038   2.04138   2.07087   2.08553   2.13109
 Alpha virt. eigenvalues --    2.13331   2.13928   2.16361   2.19379   2.22384
 Alpha virt. eigenvalues --    2.24026   2.32773   2.40244   2.43763   2.53832
 Alpha virt. eigenvalues --    2.59343   2.77039   2.80152   2.82951   2.85251
 Alpha virt. eigenvalues --    2.85485   2.91945   3.07971   3.08936   3.11244
 Alpha virt. eigenvalues --    3.12909   3.15047   3.15550   3.19223   3.21997
 Alpha virt. eigenvalues --    3.22707   3.26128   3.28837   3.32165   3.33096
 Alpha virt. eigenvalues --    3.36000   3.37610   3.41297   3.44957   3.45991
 Alpha virt. eigenvalues --    3.47654   3.49666   3.53590   3.54697   3.56531
 Alpha virt. eigenvalues --    3.58113   3.58392   3.61815   3.62262   3.66523
 Alpha virt. eigenvalues --    3.70012   3.74088   3.77110   3.80266   3.80817
 Alpha virt. eigenvalues --    3.83502   3.85106   3.86075   3.87283   3.90247
 Alpha virt. eigenvalues --    3.92962   3.94701   3.95881   3.97962   3.98603
 Alpha virt. eigenvalues --    4.00067   4.00944   4.03795   4.04411   4.06148
 Alpha virt. eigenvalues --    4.07764   4.08559   4.11260   4.11761   4.13006
 Alpha virt. eigenvalues --    4.14642   4.15429   4.17052   4.17852   4.19585
 Alpha virt. eigenvalues --    4.20261   4.22402   4.22965   4.24317   4.24977
 Alpha virt. eigenvalues --    4.26356   4.28043   4.30963   4.32161   4.34550
 Alpha virt. eigenvalues --    4.36153   4.37414   4.37983   4.38996   4.40085
 Alpha virt. eigenvalues --    4.41686   4.42654   4.45305   4.45961   4.48789
 Alpha virt. eigenvalues --    4.49882   4.49950   4.54012   4.54267   4.57222
 Alpha virt. eigenvalues --    4.59899   4.61114   4.63451   4.68855   4.73364
 Alpha virt. eigenvalues --    4.74665   4.76930   4.78281   4.79936   4.82220
 Alpha virt. eigenvalues --    4.82778   4.85596   4.86195   4.87661   4.88988
 Alpha virt. eigenvalues --    4.93370   4.97064   4.99523   5.04287   5.08832
 Alpha virt. eigenvalues --    5.10432   5.14706   5.16425   5.21535   5.22211
 Alpha virt. eigenvalues --    5.24031   5.25404   5.28508   5.30989   5.32874
 Alpha virt. eigenvalues --    5.36674   5.38013   5.44626   5.46599   5.47987
 Alpha virt. eigenvalues --    5.49643   5.54330   5.58421   5.61149   5.63010
 Alpha virt. eigenvalues --    5.65969   5.71025   5.75515   5.81355   5.85382
 Alpha virt. eigenvalues --    5.86193   5.87073   5.93194   5.98563   5.99182
 Alpha virt. eigenvalues --    6.01492   6.02582   6.10102   6.13132   6.16274
 Alpha virt. eigenvalues --    6.18584   6.22586   6.25973   6.31690   6.39631
 Alpha virt. eigenvalues --    6.40004   6.41920   6.50139   6.66969   6.77681
 Alpha virt. eigenvalues --    6.83360   6.87592   6.99184   7.12524   7.29723
 Alpha virt. eigenvalues --    9.40181  12.18565  13.04870  14.57958  15.25112
 Alpha virt. eigenvalues --   17.81274  18.16271  22.53834
          Condensed to atoms (all electrons):
               1          2          3          4          5          6
     1  O    8.084946  -0.109726   0.559585  -0.073696   0.009126   0.007159
     2  N   -0.109726   6.359970   0.349338  -0.040152   0.400862  -0.019207
     3  C    0.559585   0.349338   4.393605   0.459463  -0.035925  -0.040549
     4  C   -0.073696  -0.040152   0.459463   4.917419  -0.040638   0.538643
     5  C    0.009126   0.400862  -0.035925  -0.040638   4.630255  -0.075650
     6  C    0.007159  -0.019207  -0.040549   0.538643  -0.075650   4.743196
     7  C    0.001542  -0.059188  -0.025647  -0.063253   0.596775   0.471036
     8  H    0.047330   0.003083  -0.004795   0.000788   0.002986  -0.000335
     9  H    0.007589   0.007895  -0.040598   0.429798  -0.000463  -0.032251
    10  H   -0.001044  -0.032269   0.001880  -0.003175   0.418059   0.008253
    11  H   -0.000681  -0.002649   0.007544  -0.029394   0.008906   0.413569
    12  H    0.000040   0.006558  -0.000892   0.006513  -0.027899  -0.031847
    13  O   -0.038908  -0.033159   0.000133   0.000352  -0.006335   0.000060
    14  H    0.003774   0.000417   0.001050   0.000138   0.000049  -0.000018
    15  H    0.002356   0.382106  -0.026602   0.008462  -0.026494  -0.002602
               7          8          9         10         11         12
     1  O    0.001542   0.047330   0.007589  -0.001044  -0.000681   0.000040
     2  N   -0.059188   0.003083   0.007895  -0.032269  -0.002649   0.006558
     3  C   -0.025647  -0.004795  -0.040598   0.001880   0.007544  -0.000892
     4  C   -0.063253   0.000788   0.429798  -0.003175  -0.029394   0.006513
     5  C    0.596775   0.002986  -0.000463   0.418059   0.008906  -0.027899
     6  C    0.471036  -0.000335  -0.032251   0.008253   0.413569  -0.031847
     7  C    4.837797  -0.000090   0.007551  -0.035315  -0.038365   0.425466
     8  H   -0.000090   0.412929   0.000146   0.000192   0.000010  -0.000024
     9  H    0.007551   0.000146   0.574188   0.000394  -0.009163  -0.000280
    10  H   -0.035315   0.000192   0.000394   0.591742  -0.000739  -0.004164
    11  H   -0.038365   0.000010  -0.009163  -0.000739   0.597844  -0.006495
    12  H    0.425466  -0.000024  -0.000280  -0.004164  -0.006495   0.582856
    13  O   -0.000122   0.339220   0.000054  -0.000908  -0.000005   0.000030
    14  H    0.000038  -0.021280  -0.000010  -0.000082   0.000001   0.000000
    15  H    0.005388  -0.014010  -0.000563  -0.010225   0.000235   0.000123
              13         14         15
     1  O   -0.038908   0.003774   0.002356
     2  N   -0.033159   0.000417   0.382106
     3  C    0.000133   0.001050  -0.026602
     4  C    0.000352   0.000138   0.008462
     5  C   -0.006335   0.000049  -0.026494
     6  C    0.000060  -0.000018  -0.002602
     7  C   -0.000122   0.000038   0.005388
     8  H    0.339220  -0.021280  -0.014010
     9  H    0.000054  -0.000010  -0.000563
    10  H   -0.000908  -0.000082  -0.010225
    11  H   -0.000005   0.000001   0.000235
    12  H    0.000030   0.000000   0.000123
    13  O    7.776043   0.350740   0.067907
    14  H    0.350740   0.461991  -0.004293
    15  H    0.067907  -0.004293   0.458143
 Mulliken charges:
               1
     1  O   -0.499392
     2  N   -0.213879
     3  C    0.402410
     4  C   -0.111270
     5  C    0.146386
     6  C    0.020542
     7  C   -0.123612
     8  H    0.233851
     9  H    0.055714
    10  H    0.067403
    11  H    0.059382
    12  H    0.050015
    13  O   -0.455102
    14  H    0.207484
    15  H    0.160067
 Sum of Mulliken charges =  -0.00000
 Mulliken charges with hydrogens summed into heavy atoms:
               1
     1  O   -0.499392
     2  N   -0.053812
     3  C    0.402410
     4  C   -0.055556
     5  C    0.213789
     6  C    0.079924
     7  C   -0.073597
    13  O   -0.013766
 Electronic spatial extent (au):  <R**2>=           1080.4777
 Charge=             -0.0000 electrons
 Dipole moment (field-independent basis, Debye):
    X=             -2.3116    Y=             -2.0946    Z=              1.0943  Tot=              3.3058
 Quadrupole moment (field-independent basis, Debye-Ang):
   XX=            -41.7772   YY=            -45.8433   ZZ=            -49.8312
   XY=             -1.9667   XZ=              4.6809   YZ=             -0.8616
 Traceless Quadrupole moment (field-independent basis, Debye-Ang):
   XX=              4.0400   YY=             -0.0260   ZZ=             -4.0140
   XY=             -1.9667   XZ=              4.6809   YZ=             -0.8616
 Octapole moment (field-independent basis, Debye-Ang**2):
  XXX=             23.8385  YYY=            -11.2378  ZZZ=              0.7217  XYY=             -6.3587
  XXY=              0.2051  XXZ=             18.4801  XZZ=             11.0664  YZZ=              0.6719
  YYZ=              0.5942  XYZ=             -3.2444
 Hexadecapole moment (field-independent basis, Debye-Ang**3):
 XXXX=           -777.5483 YYYY=           -353.8033 ZZZZ=            -54.3145 XXXY=             -4.2589
 XXXZ=             74.9708 YYYX=            -12.4315 YYYZ=             -0.8376 ZZZX=              3.5395
 ZZZY=             -0.5405 XXYY=           -220.8928 XXZZ=           -176.5010 YYZZ=            -77.7675
 XXYZ=            -12.5117 YYXZ=              2.7667 ZZXY=             -2.0291
 N-N= 3.568539014902D+02 E-N=-1.649534805085D+03  KE= 3.985499540922D+02
 No NMR shielding tensors so no spin-rotation constants.
 Leave Link  601 at Fri Aug 27 00:04:13 2021, MaxMem= 17179869184 cpu:        52.9
 (Enter /public3/home/sc51754/softwares/g09e01/l701.exe)
 Compute integral first derivatives.
 ... and contract with generalized density number  0.
 Leave Link  701 at Fri Aug 27 00:04:15 2021, MaxMem= 17179869184 cpu:        66.8
 (Enter /public3/home/sc51754/softwares/g09e01/l702.exe)
 L702 exits ... SP integral derivatives will be done elsewhere.
 Leave Link  702 at Fri Aug 27 00:04:15 2021, MaxMem= 17179869184 cpu:         0.4
 (Enter /public3/home/sc51754/softwares/g09e01/l703.exe)
 Compute integral first derivatives, UseDBF=F ICtDFT=           0.
 Integral derivatives from FoFJK, PRISM(SPDF).
 Calling FoFJK, ICntrl=      2527 FMM=F ISym2X=0 I1Cent= 0 IOpClX= 0 NMat=1 NMatS=1 NMatT=0.
 FoFJK:  IHMeth= 1 ICntrl=    2527 DoSepK=F KAlg= 0 I1Cent=   0 FoldK=F
 IRaf=         0 NMat=   1 IRICut=       1 DoRegI=T DoRafI=F ISym2E= 0.
 FoFCou: FMM=F IPFlag=           0 FMFlag=      100000 FMFlg1=         800
         NFxFlg=           0 DoJE=F BraDBF=F KetDBF=F FulRan=T
         wScrn=  0.000000 ICntrl=    2527 IOpCl=  0 I1Cent=           0 NGrid=           0
         NMat0=    1 NMatS0=      1 NMatT0=    0 NMatD0=    1 NMtDS0=    0 NMtDT0=    0
 Symmetry not used in FoFCou.
 Leave Link  703 at Fri Aug 27 00:04:18 2021, MaxMem= 17179869184 cpu:       188.1
 (Enter /public3/home/sc51754/softwares/g09e01/l716.exe)
 Dipole        =-9.09452480D-01-8.24097900D-01 4.30517853D-01
 ***** Axes restored to original set *****
 -------------------------------------------------------------------
 Center     Atomic                   Forces (Hartrees/Bohr)
 Number     Number              X              Y              Z
 -------------------------------------------------------------------
      1        8           0.012307184    0.007678691   -0.000061854
      2        7          -0.004948261   -0.002480207   -0.000237566
      3        6          -0.006269533   -0.000018163    0.000109240
      4        6           0.003569695   -0.000554033    0.000031926
      5        6           0.003976815   -0.000702545    0.000096017
      6        6          -0.002459638   -0.004179878    0.000006607
      7        6          -0.003558792    0.004379733   -0.000043397
      8        1          -0.003866785    0.008058872    0.000722097
      9        1          -0.000252203    0.006127310   -0.000020744
     10        1           0.001233246   -0.006227673   -0.000011011
     11        1          -0.005696146    0.002395942   -0.000042879
     12        1          -0.004882370   -0.003639845   -0.000023332
     13        8          -0.003161256   -0.008455198   -0.006148389
     14        1           0.005518286    0.000339128    0.005340072
     15        1           0.008489759   -0.002722134    0.000283213
 -------------------------------------------------------------------
 Cartesian Forces:  Max     0.012307184 RMS     0.004363298
 Leave Link  716 at Fri Aug 27 00:04:18 2021, MaxMem= 17179869184 cpu:         0.4
 (Enter /public3/home/sc51754/softwares/g09e01/l103.exe)

 GradGradGradGradGradGradGradGradGradGradGradGradGradGradGradGradGradGrad
 Berny optimization.
 FormGI is forming the generalized inverse of G from B-inverse, IUseBI=4.
 Internal  Forces:  Max     0.013499759 RMS     0.003407302
 Search for a local minimum.
 Step number   1 out of a maximum of   83
 All quantities printed in internal units (Hartrees-Bohrs-Radians)
 RMS Force = .34073D-02 SwitMx=.10000D-02 MixMth= 1
 Mixed Optimization -- RFO/linear search
 Second derivative matrix not updated -- first step.
 ITU=  0
     Eigenvalues ---    0.00646   0.00900   0.01671   0.02019   0.02045
     Eigenvalues ---    0.02138   0.02190   0.02305   0.02392   0.02435
     Eigenvalues ---    0.02516   0.04986   0.06334   0.06909   0.09520
     Eigenvalues ---    0.16000   0.16000   0.16000   0.16000   0.19047
     Eigenvalues ---    0.20437   0.21968   0.22000   0.22256   0.23654
     Eigenvalues ---    0.35693   0.35983   0.36053   0.36229   0.38136
     Eigenvalues ---    0.40185   0.42590   0.44184   0.49041   0.49982
     Eigenvalues ---    0.52121   0.53321   0.55542   0.84771
 RFO step:  Lambda=-1.69065403D-03 EMin= 6.46442552D-03
 Linear search not attempted -- first point.
 Iteration  1 RMS(Cart)=  0.01005842 RMS(Int)=  0.00001499
 Iteration  2 RMS(Cart)=  0.00001991 RMS(Int)=  0.00000229
 Iteration  3 RMS(Cart)=  0.00000000 RMS(Int)=  0.00000229
 ITry= 1 IFail=0 DXMaxC= 3.33D-02 DCOld= 1.00D+10 DXMaxT= 3.00D-01 DXLimC= 3.00D+00 Rises=F
 Variable       Old X    -DE/DX   Delta X   Delta X   Delta X     New X
                                 (Linear)    (Quad)   (Total)
    R1        2.33752   0.01350   0.00000   0.01574   0.01574   2.35326
    R2        3.44231  -0.00059   0.00000  -0.00814  -0.00813   3.43417
    R3        2.63700   0.00791   0.00000   0.01757   0.01757   2.65457
    R4        2.56181   0.00462   0.00000   0.00868   0.00868   2.57048
    R5        1.92716   0.00829   0.00000   0.01819   0.01818   1.94535
    R6        2.72061   0.00440   0.00000   0.01094   0.01094   2.73155
    R7        2.57451   0.00928   0.00000   0.01750   0.01750   2.59201
    R8        2.03999   0.00613   0.00000   0.01692   0.01692   2.05691
    R9        2.56943   0.00960   0.00000   0.01814   0.01814   2.58757
   R10        2.04108   0.00635   0.00000   0.01756   0.01756   2.05864
   R11        2.67927   0.00322   0.00000   0.00746   0.00746   2.68673
   R12        2.04565   0.00618   0.00000   0.01723   0.01723   2.06287
   R13        2.03725   0.00609   0.00000   0.01673   0.01673   2.05398
   R14        1.85494   0.00884   0.00000   0.01705   0.01705   1.87199
   R15        1.81354   0.00766   0.00000   0.01376   0.01376   1.82729
   R16        3.72662  -0.00044   0.00000  -0.01745  -0.01745   3.70917
    A1        1.92766  -0.00202   0.00000  -0.00592  -0.00591   1.92175
    A2        2.17565   0.00062   0.00000   0.00292   0.00293   2.17858
    A3        2.00244  -0.00087   0.00000  -0.00392  -0.00393   1.99851
    A4        2.10509   0.00025   0.00000   0.00099   0.00100   2.10609
    A5        2.09773  -0.00029   0.00000   0.00197   0.00196   2.09969
    A6        2.19333   0.00106   0.00000   0.00256   0.00256   2.19588
    A7        1.99213  -0.00077   0.00000  -0.00453  -0.00452   1.98761
    A8        2.11557   0.00083   0.00000   0.00351   0.00351   2.11908
    A9        2.03563  -0.00060   0.00000  -0.00292  -0.00292   2.03270
   A10        2.13199  -0.00023   0.00000  -0.00058  -0.00059   2.13140
   A11        2.10801  -0.00036   0.00000  -0.00085  -0.00085   2.10716
   A12        2.02357   0.00008   0.00000  -0.00020  -0.00019   2.02338
   A13        2.15160   0.00028   0.00000   0.00105   0.00105   2.15265
   A14        2.11704  -0.00025   0.00000  -0.00119  -0.00119   2.11585
   A15        2.08601   0.00028   0.00000   0.00157   0.00157   2.08758
   A16        2.08014  -0.00003   0.00000  -0.00038  -0.00038   2.07976
   A17        2.05796  -0.00007   0.00000   0.00013   0.00013   2.05809
   A18        2.10191   0.00002   0.00000  -0.00014  -0.00014   2.10178
   A19        2.12331   0.00005   0.00000   0.00000   0.00000   2.12332
   A20        2.65557   0.00092   0.00000   0.00234   0.00235   2.65792
   A21        1.86229  -0.00107   0.00000  -0.00553  -0.00554   1.85676
   A22        1.36782   0.00173   0.00000   0.00471   0.00471   1.37253
   A23        2.34644  -0.00047   0.00000  -0.00321  -0.00320   2.34324
   A24        2.50984   0.00054   0.00000   0.00065   0.00064   2.51049
    D1        0.03186  -0.00013   0.00000  -0.00110  -0.00110   0.03075
    D2       -3.10924  -0.00009   0.00000   0.00007   0.00007  -3.10916
    D3        0.03871  -0.00002   0.00000   0.00068   0.00068   0.03939
    D4       -3.13629   0.00000   0.00000   0.00028   0.00028  -3.13601
    D5        0.00485  -0.00003   0.00000  -0.00076  -0.00076   0.00409
    D6        0.00787   0.00000   0.00000   0.00184   0.00184   0.00971
    D7       -3.13417  -0.00002   0.00000   0.00080   0.00080  -3.13337
    D8       -0.00292   0.00002   0.00000   0.00087   0.00087  -0.00205
    D9        3.13789  -0.00000   0.00000   0.00025   0.00025   3.13815
   D10        3.13597   0.00002   0.00000  -0.00079  -0.00079   3.13517
   D11       -0.00641  -0.00001   0.00000  -0.00141  -0.00141  -0.00782
   D12       -0.10803  -0.00002   0.00000  -0.00317  -0.00317  -0.11120
   D13        3.03601  -0.00002   0.00000  -0.00168  -0.00168   3.03433
   D14        3.13723  -0.00001   0.00000  -0.00081  -0.00081   3.13642
   D15       -0.00200  -0.00001   0.00000  -0.00060  -0.00060  -0.00260
   D16       -0.00389   0.00002   0.00000   0.00030   0.00030  -0.00359
   D17        3.14007   0.00002   0.00000   0.00051   0.00051   3.14058
   D18        0.00117  -0.00000   0.00000   0.00004   0.00004   0.00121
   D19       -3.13978   0.00000   0.00000   0.00022   0.00022  -3.13956
   D20        3.14027  -0.00000   0.00000  -0.00018  -0.00018   3.14009
   D21       -0.00068   0.00000   0.00000  -0.00000  -0.00000  -0.00069
   D22       -0.00027  -0.00000   0.00000  -0.00046  -0.00046  -0.00073
   D23        3.14059  -0.00001   0.00000  -0.00034  -0.00034   3.14025
   D24       -3.14103   0.00002   0.00000   0.00021   0.00021  -3.14082
   D25       -0.00016   0.00001   0.00000   0.00032   0.00032   0.00016
   D26        0.00106  -0.00000   0.00000   0.00003   0.00003   0.00108
   D27       -3.13980   0.00000   0.00000  -0.00009  -0.00009  -3.13989
   D28       -3.14118  -0.00001   0.00000  -0.00015  -0.00015  -3.14132
   D29        0.00115  -0.00000   0.00000  -0.00026  -0.00026   0.00089
   D30       -2.40197   0.00007   0.00000   0.00127   0.00128  -2.40069
   D31       -0.07714  -0.00005   0.00000  -0.00104  -0.00105  -0.07818
   D32        0.12809  -0.00003   0.00000   0.00233   0.00234   0.13042
   D33        1.90956   0.00012   0.00000  -0.00090  -0.00090   1.90866
         Item               Value     Threshold  Converged?
 Maximum Force            0.013500     0.000450     NO 
 RMS     Force            0.003407     0.000300     NO 
 Maximum Displacement     0.033270     0.001800     NO 
 RMS     Displacement     0.010056     0.001200     NO 
 Predicted change in Energy=-8.487159D-04
 Lowest energy point so far.  Saving SCF results.
 GradGradGradGradGradGradGradGradGradGradGradGradGradGradGradGradGradGrad

 Leave Link  103 at Fri Aug 27 00:04:19 2021, MaxMem= 17179869184 cpu:        42.2
 (Enter /public3/home/sc51754/softwares/g09e01/l202.exe)
                          Input orientation:                          
 ---------------------------------------------------------------------
 Center     Atomic      Atomic             Coordinates (Angstroms)
 Number     Number       Type             X           Y           Z
 ---------------------------------------------------------------------
      1          8           0        1.274585    1.398725    0.004197
      2          7           0        0.252768   -0.661670    0.010783
      3          6           0        0.216178    0.742583    0.005695
      4          6           0       -1.120335    1.293135    0.000653
      5          6           0       -0.843242   -1.467276    0.006561
      6          6           0       -2.227217    0.483093   -0.003209
      7          6           0       -2.104100   -0.933318   -0.000934
      8          1           0        2.704374    0.278011   -0.043070
      9          1           0       -1.197714    2.378847   -0.002403
     10          1           0       -0.646856   -2.538815    0.008142
     11          1           0       -3.222950    0.930453   -0.008900
     12          1           0       -2.976401   -1.581753   -0.005541
     13          8           0        3.110040   -0.624625   -0.087807
     14          1           0        3.840602   -0.627035    0.545667
     15          1           0        1.200220   -1.064088    0.022100
 ---------------------------------------------------------------------
                    Distance matrix (angstroms):
                    1          2          3          4          5
     1  O    0.000000
     2  N    2.299865   0.000000
     3  C    1.245291   1.404738   0.000000
     4  C    2.397250   2.388887   1.445476   0.000000
     5  C    3.563588   1.360242   2.450683   2.774291   0.000000
     6  C    3.619538   2.731485   2.457152   1.371631   2.391532
     7  C    4.105358   2.372500   2.862233   2.434110   1.369281
     8  H    1.817286   2.626075   2.531664   3.957372   3.953994
     9  H    2.659501   3.368800   2.162526   1.088470   3.862434
    10  H    4.381344   2.081587   3.392994   3.861099   1.089388
    11  H    4.521865   3.823069   3.444286   2.133686   3.378218
    12  H    5.191745   3.357730   3.949078   3.421987   2.136263
    13  O    2.733368   2.859212   3.201942   4.645611   4.043192
    14  H    3.313810   3.627651   3.912016   5.347429   4.789053
    15  H    2.464000   1.029433   2.057344   3.307860   2.082915
                    6          7          8          9         10
     6  C    0.000000
     7  C    1.421754   0.000000
     8  H    4.936015   4.958882   0.000000
     9  H    2.157258   3.433945   4.431868   0.000000
    10  H    3.410220   2.168239   4.378113   4.948430   0.000000
    11  H    1.091626   2.173829   5.963222   2.489873   4.321154
    12  H    2.196558   1.086921   5.977569   4.341669   2.518518
    13  O    5.451652   5.223992   0.990615   5.252131   4.217535
    14  H    6.192906   5.977630   1.567397   5.892396   4.907251
    15  H    3.760550   3.306986   2.016918   4.195770   2.363621
                   11         12         13         14         15
    11  H    0.000000
    12  H    2.524277   0.000000
    13  O    6.521599   6.161787   0.000000
    14  H    7.254452   6.905566   0.966962   0.000000
    15  H    4.852173   4.208669   1.962810   2.727042   0.000000
 Stoichiometry    C5H7NO2
 Framework group  C1[X(C5H7NO2)]
 Deg. of freedom    39
 Full point group                 C1      NOp   1
 RotChk:  IX=0 Diff= 1.55D-03
 Largest Abelian subgroup         C1      NOp   1
 Largest concise Abelian subgroup C1      NOp   1
                         Standard orientation:                         
 ---------------------------------------------------------------------
 Center     Atomic      Atomic             Coordinates (Angstroms)
 Number     Number       Type             X           Y           Z
 ---------------------------------------------------------------------
      1          8           0        1.274818    1.396599    0.004904
      2          7           0        0.250803   -0.662705    0.011266
      3          6           0        0.215711    0.741586    0.006152
      4          6           0       -1.120213    1.293563    0.000776
      5          6           0       -0.846064   -1.467142    0.006786
      6          6           0       -2.227957    0.484701   -0.003347
      7          6           0       -2.106350   -0.931840   -0.001024
      8          1           0        2.703422    0.274361   -0.041999
      9          1           0       -1.196433    2.379357   -0.002313
     10          1           0       -0.650821   -2.538890    0.008429
     11          1           0       -3.223210    0.933123   -0.009287
     12          1           0       -2.979341   -1.579344   -0.005836
     13          8           0        3.108137   -0.628707   -0.086625
     14          1           0        3.838541   -0.631888    0.547027
     15          1           0        1.197822   -1.066133    0.022820
 ---------------------------------------------------------------------
 Rotational constants (GHZ):      3.9799503      1.3891589      1.0314719
 Leave Link  202 at Fri Aug 27 00:04:19 2021, MaxMem= 17179869184 cpu:         3.0
 (Enter /public3/home/sc51754/softwares/g09e01/l301.exe)
 Basis read from rwf:  (5D, 7F)
 No pseudopotential information found on rwf file.
 There are   385 symmetry adapted cartesian basis functions of A   symmetry.
 There are   338 symmetry adapted basis functions of A   symmetry.
   338 basis functions,   566 primitive gaussians,   385 cartesian basis functions
    30 alpha electrons       30 beta electrons
       nuclear repulsion energy       355.1203330420 Hartrees.
 IExCor= 1009 DFT=T Ex=PBE Corr=PBE ExCW=0 ScaHFX=  0.000000
 ScaDFX=  1.000000  1.000000  1.000000  1.000000 ScalE2=  1.000000  1.000000
 IRadAn=      0 IRanWt=     -1 IRanGd=            0 ICorTp=0 IEmpDi=  4
 NAtoms=   15 NActive=   15 NUniq=   15 SFac= 1.00D+00 NAtFMM=   60 NAOKFM=F Big=F
 Integral buffers will be    131072 words long.
 Raffenetti 2 integral format.
 Two-electron integral symmetry is turned on.
 No density basis found on file   724.
 Leave Link  301 at Fri Aug 27 00:04:19 2021, MaxMem= 17179869184 cpu:         2.6
 (Enter /public3/home/sc51754/softwares/g09e01/l302.exe)
 NPDir=0 NMtPBC=     1 NCelOv=     1 NCel=       1 NClECP=     1 NCelD=      1
         NCelK=      1 NCelE2=     1 NClLst=     1 CellRange=     0.0.
 One-electron integrals computed using PRISM.
 NBasis=   338 RedAO= T EigKep=  1.63D-04  NBF=   338
 NBsUse=   338 1.00D-06 EigRej= -1.00D+00 NBFU=   338
 Precomputing XC quadrature grid using
 IXCGrd= 4 IRadAn=           0 IRanWt=          -1 IRanGd=           0 AccXCQ= 0.00D+00.
 Generated NRdTot=       0 NPtTot=           0 NUsed=           0 NTot=          32
 NSgBfM=   385   385   385   385   385 MxSgAt=    15 MxSgA2=    15.
 Leave Link  302 at Fri Aug 27 00:04:20 2021, MaxMem= 17179869184 cpu:        43.8
 (Enter /public3/home/sc51754/softwares/g09e01/l303.exe)
 DipDrv:  MaxL=1.
 Leave Link  303 at Fri Aug 27 00:04:20 2021, MaxMem= 17179869184 cpu:        10.0
 (Enter /public3/home/sc51754/softwares/g09e01/l401.exe)
 Initial guess from the checkpoint file:  "PY_H2O_PBEPBE_PC2_OPT_FREQ.chk"
 B after Tr=     0.000000   -0.000000   -0.000000
         Rot=    1.000000    0.000022   -0.000016    0.000764 Ang=   0.09 deg.
 Guess basis will be translated and rotated to current coordinates.
 JPrj=2 DoOrth=T DoCkMO=T.
 Generating alternative initial guess.
 ExpMin= 7.41D-02 ExpMax= 1.48D+04 ExpMxC= 5.05D+02 IAcc=2 IRadAn=         4 AccDes= 0.00D+00
 Harris functional with IExCor= 1009 and IRadAn=       4 diagonalized for initial guess.
 HarFok:  IExCor= 1009 AccDes= 0.00D+00 IRadAn=         4 IDoV= 1 UseB2=F ITyADJ=14
 ICtDFT=  3500011 ScaDFX=  1.000000  1.000000  1.000000  1.000000
 FoFCou: FMM=F IPFlag=           0 FMFlag=      100000 FMFlg1=           0
         NFxFlg=           0 DoJE=T BraDBF=F KetDBF=T FulRan=T
         wScrn=  0.000000 ICntrl=     500 IOpCl=  0 I1Cent=   200000004 NGrid=           0
         NMat0=    1 NMatS0=      1 NMatT0=    0 NMatD0=    1 NMtDS0=    0 NMtDT0=    0
 Petite list used in FoFCou.
 Harris En= -399.810202093312    
 Leave Link  401 at Fri Aug 27 00:04:22 2021, MaxMem= 17179869184 cpu:        84.7
 (Enter /public3/home/sc51754/softwares/g09e01/l502.exe)
 Closed shell SCF:
 Using DIIS extrapolation, IDIIS=  1040.
 Integral symmetry usage will be decided dynamically.
 Keep J ints in memory in canonical form, NReq=1670404686.
 IVT=      490665 IEndB=      490665 NGot= 17179869184 MDV= 15538220534
 LenX= 15538220534 LenY= 15538071868
 Requested convergence on RMS density matrix=1.00D-08 within 128 cycles.
 Requested convergence on MAX density matrix=1.00D-06.
 Requested convergence on             energy=1.00D-06.
 No special actions if energy rises.
 FoFCou: FMM=F IPFlag=           0 FMFlag=           0 FMFlg1=           0
         NFxFlg=           0 DoJE=F BraDBF=F KetDBF=F FulRan=T
         wScrn=  0.000000 ICntrl=     600 IOpCl=  0 I1Cent=           0 NGrid=           0
         NMat0=    1 NMatS0=  57291 NMatT0=    0 NMatD0=    1 NMtDS0=    0 NMtDT0=    0
 Symmetry not used in FoFCou.
 Integral accuracy reduced to 1.0D-05 until final iterations.

 Cycle   1  Pass 0  IDiag  1:
 E= -399.675739514633    
 DIIS: error= 6.79D-04 at cycle   1 NSaved=   1.
 NSaved= 1 IEnMin= 1 EnMin= -399.675739514633     IErMin= 1 ErrMin= 6.79D-04
 ErrMax= 6.79D-04  0.00D+00 EMaxC= 1.00D-01 BMatC= 2.66D-04 BMatP= 2.66D-04
 IDIUse=3 WtCom= 9.93D-01 WtEn= 6.79D-03
 Coeff-Com:  0.100D+01
 Coeff-En:   0.100D+01
 Coeff:      0.100D+01
 Gap=     0.509 Goal=   None    Shift=    0.000
 RMSDP=5.63D-05 MaxDP=2.00D-03              OVMax= 7.36D-03

 Cycle   2  Pass 0  IDiag  1:
 E= -399.675902527944     Delta-E=       -0.000163013311 Rises=F Damp=F
 DIIS: error= 5.10D-04 at cycle   2 NSaved=   2.
 NSaved= 2 IEnMin= 2 EnMin= -399.675902527944     IErMin= 2 ErrMin= 5.10D-04
 ErrMax= 5.10D-04  0.00D+00 EMaxC= 1.00D-01 BMatC= 7.05D-05 BMatP= 2.66D-04
 IDIUse=3 WtCom= 9.95D-01 WtEn= 5.10D-03
 Coeff-Com:  0.278D+00 0.722D+00
 Coeff-En:   0.000D+00 0.100D+01
 Coeff:      0.277D+00 0.723D+00
 Gap=     0.122 Goal=   None    Shift=    0.000
 RMSDP=4.39D-05 MaxDP=2.10D-03 DE=-1.63D-04 OVMax= 9.75D-03

 Cycle   3  Pass 0  IDiag  1:
 E= -399.675820624358     Delta-E=        0.000081903586 Rises=F Damp=F
[...]
 ! A12   A(2,5,10)             115.9901         -DE/DX =    0.0                 !
 ! A13   A(7,5,10)             123.2888         -DE/DX =    0.0                 !
 ! A14   A(4,6,7)              121.2716         -DE/DX =    0.0                 !
 ! A15   A(4,6,11)             119.4723         -DE/DX =    0.0                 !
 ! A16   A(7,6,11)             119.2561         -DE/DX =    0.0                 !
 ! A17   A(5,7,6)              117.9178         -DE/DX =    0.0                 !
 ! A18   A(5,7,12)             120.3158         -DE/DX =    0.0                 !
 ! A19   A(6,7,12)             121.7664         -DE/DX =    0.0                 !
 ! A20   A(1,8,13)             153.7567         -DE/DX =    0.0                 !
 ! A21   A(8,13,14)            105.847          -DE/DX =    0.0                 !
 ! A22   A(8,13,15)             78.6191         -DE/DX =    0.0                 !
 ! A23   A(14,13,15)           127.7302         -DE/DX =    0.0                 !
 ! A24   A(2,15,13)            144.6191         -DE/DX =    0.0                 !
 ! D1    D(8,1,3,2)              1.8605         -DE/DX =    0.0                 !
 ! D2    D(8,1,3,4)           -178.0414         -DE/DX =    0.0                 !
 ! D3    D(3,1,8,13)             1.5893         -DE/DX =    0.0                 !
 ! D4    D(5,2,3,1)           -179.6452         -DE/DX =    0.0                 !
 ! D5    D(5,2,3,4)              0.2678         -DE/DX =    0.0                 !
 ! D6    D(15,2,3,1)             0.682          -DE/DX =    0.0                 !
 ! D7    D(15,2,3,4)          -179.4051         -DE/DX =    0.0                 !
 ! D8    D(3,2,5,7)             -0.126          -DE/DX =    0.0                 !
 ! D9    D(3,2,5,10)           179.7616         -DE/DX =    0.0                 !
 ! D10   D(15,2,5,7)           179.5238         -DE/DX =    0.0                 !
 ! D11   D(15,2,5,10)           -0.5886         -DE/DX =    0.0                 !
 ! D12   D(3,2,15,13)           -6.9467         -DE/DX =    0.0                 !
 ! D13   D(5,2,15,13)          173.3682         -DE/DX =    0.0                 !
 ! D14   D(1,3,4,6)            179.6668         -DE/DX =    0.0                 !
 ! D15   D(1,3,4,9)             -0.1639         -DE/DX =    0.0                 !
 ! D16   D(2,3,4,6)             -0.2402         -DE/DX =    0.0                 !
 ! D17   D(2,3,4,9)            179.9291         -DE/DX =    0.0                 !
 ! D18   D(3,4,6,7)              0.0826         -DE/DX =    0.0                 !
 ! D19   D(3,4,6,11)          -179.8613         -DE/DX =    0.0                 !
 ! D20   D(9,4,6,7)            179.9041         -DE/DX =    0.0                 !
 ! D21   D(9,4,6,11)            -0.0399         -DE/DX =    0.0                 !
 ! D22   D(2,5,7,6)             -0.0574         -DE/DX =    0.0                 !
 ! D23   D(2,5,7,12)           179.9041         -DE/DX =    0.0                 !
 ! D24   D(10,5,7,6)          -179.9365         -DE/DX =    0.0                 !
 ! D25   D(10,5,7,12)            0.025          -DE/DX =    0.0                 !
 ! D26   D(4,6,7,5)              0.0751         -DE/DX =    0.0                 !
 ! D27   D(4,6,7,12)          -179.8858         -DE/DX =    0.0                 !
 ! D28   D(11,6,7,5)          -179.9809         -DE/DX =    0.0                 !
 ! D29   D(11,6,7,12)            0.0583         -DE/DX =    0.0                 !
 ! D30   D(1,8,13,14)         -130.3661         -DE/DX =    0.0                 !
 ! D31   D(1,8,13,15)           -4.0854         -DE/DX =    0.0                 !
 ! D32   D(8,13,15,2)            7.7342         -DE/DX =    0.0                 !
 ! D33   D(14,13,15,2)         109.0635         -DE/DX =    0.0                 !
 --------------------------------------------------------------------------------
 GradGradGradGradGradGradGradGradGradGradGradGradGradGradGradGradGradGrad

 Leave Link  103 at Fri Aug 27 00:09:47 2021, MaxMem= 17179869184 cpu:        51.7
 (Enter /public3/home/sc51754/softwares/g09e01/l9999.exe)
 1\1\GINC-T1413\Freq\RPBEPBE\Gen\C5H7N1O2\SC51754\27-Aug-2021\0\\#P Geo
 m=AllCheck Guess=TCheck SCRF=Check GenChk RPBEPBE/ChkBas Freq\\PY_H2O_
 PBEPBE_PC2_OPT_FREQ\\0,1\O,1.288892009,1.4049526642,-0.0082384167\N,0.
 2710908072,-0.6580381211,0.0033462715\C,0.2276344383,0.7467311623,-0.0
 008519263\C,-1.1057817346,1.2936855885,0.0021105162\C,-0.8201352489,-1
 .4651913357,0.0044417392\C,-2.2107884866,0.4790075399,0.0035732815\C,-
 2.0839592867,-0.9342021262,0.0039744894\H,2.6506461454,0.2832769482,-0
 .0658154181\H,-1.188309539,2.3790764738,0.00024214\H,-0.6216158194,-2.
 5363767502,0.0037628881\H,-3.2069782735,0.9252048908,0.0035160563\H,-2
 .9532338313,-1.5867476854,0.0032874448\O,3.0603046607,-0.6254344505,-0
 .109354083\H,3.7220725937,-0.6512254839,0.5969047922\H,1.2301145655,-1
 .0484533148,0.011034225\\Version=EM64L-G09RevE.01\State=1-A\HF=-399.67
 62767\RMSD=3.066e-09\RMSF=1.712e-05\ZeroPoint=0.1152686\Thermal=0.1233
 099\Dipole=-0.958189,-0.8473827,0.4807113\DipoleDeriv=-1.6643473,-0.49
 19227,-0.0009966,-0.3965289,-0.7449056,-0.0006463,0.0006862,-0.0025427
 ,-0.3613673,-0.8054891,0.2298507,0.0019819,-0.5665109,-0.4658741,0.002
 1257,-0.0139994,0.0011123,-0.1365843,1.6395493,0.7017848,-0.0019073,0.
 7718556,0.7614408,-0.0013981,-0.0098629,-0.0089742,0.1924878,-0.616677
 6,-0.3857445,-0.0004467,0.0815703,0.0201257,-0.0010866,0.0071246,0.000
 1103,-0.1557711,0.6259933,-0.2952054,0.0001119,0.2513322,0.1012158,0.0
 016491,-0.0020112,0.0031051,-0.0203449,0.2417615,0.0713311,0.0000123,0
 .112284,0.5050635,-0.0001527,-0.0017822,-0.0012252,-0.084535,-0.234704
 3,0.3061903,-0.0000422,0.0174314,-0.3993401,0.000709,0.0040935,0.00090
 81,-0.1886879,0.8023473,-0.1700505,-0.0230841,-0.4939169,0.358198,-0.0
 451871,-0.0366568,-0.0294383,0.2092276,0.0634119,-0.009993,-0.0000598,
 0.0092122,-0.0242854,0.0001695,0.0006094,0.000594,0.1431813,0.0616376,
 0.0207449,-0.0002498,-0.0028753,-0.0385988,0.0004628,-0.0015317,-0.000
 6915,0.1389106,-0.06383,0.0630907,-0.0000053,0.0636502,0.0559707,-0.00
 00254,-0.0010332,0.0000565,0.1233544,0.006244,-0.058516,-0.0001175,-0.
 059163,0.0139527,0.0000027,-0.000282,-0.0001294,0.1565715,-1.090572,0.
 1246388,0.09946,0.3362294,-0.5766609,0.0907117,0.1261912,0.0484824,-0.
 4341035,0.2575553,0.0022726,-0.0763811,-0.0487128,0.2689928,-0.0490687
 ,-0.0819064,-0.0193098,0.201343,0.7771203,-0.1084719,0.0017242,-0.0758
 575,0.1647049,0.0017344,0.0103608,0.0079426,0.2163179\Polar=106.709537
 4,5.6815434,87.888056,0.8515174,-0.3763907,45.1356442\PG=C01 [X(C5H7N1
 O2)]\NImag=0\\0.49364120,0.24318776,0.26627946,-0.00294436,-0.00215817
 ,0.03464373,0.01212687,-0.06099191,0.00034450,0.79416656,-0.03899200,-
 0.06068077,0.00042036,0.00387349,0.59677659,0.00074706,0.00043620,0.01
 602732,0.00199604,-0.00203942,0.08169097,-0.42342488,-0.19217534,0.002
 23881,-0.15542993,0.00994040,-0.00065895,0.80063884,-0.18710478,-0.206
 18419,0.00128123,0.05080505,-0.17784471,-0.00007366,0.10693415,0.55104
 570,0.00208692,0.00113059,-0.06585071,-0.00018539,0.00028423,-0.057800
 30,-0.00233952,-0.00135595,0.18256594,-0.06939589,-0.00460123,0.000499
 44,0.02214785,0.04554339,0.00006593,-0.19916241,0.04400644,0.00016305,
 0.62873641,-0.02739768,0.01949555,0.00020131,0.03568562,-0.02348689,0.
 00011232,0.07073355,-0.13967805,-0.00023466,0.06444961,0.72122308,0.00
 040443,0.00036710,0.01836084,-0.00015034,0.00004857,0.00545792,0.00031
 016,-0.00028893,-0.07110520,-0.00100677,-0.00086678,0.10795624,-0.0123
 0489,0.01220653,-0.00006059,-0.26027491,-0.06903120,0.00005966,0.04186
 363,-0.06700719,0.00007732,-0.04317706,-0.00430792,0.00003694,0.702496
 60,-0.00332122,-0.00188689,0.00004430,-0.11196374,-0.20330358,0.000535
 83,-0.01764668,-0.03805825,0.00003174,-0.00364005,-0.00051514,0.000012
 89,-0.06042889,0.72013023,0.00001614,0.00003602,0.00534227,0.00004244,
 0.00022951,-0.04353672,-0.00001360,0.00016433,-0.00285903,0.00003623,0
 .00000875,-0.00024233,0.00018873,-0.00024359,0.12791070,0.00228909,0.0
 0453028,-0.00002046,-0.00708997,-0.00773167,0.00000823,-0.04199921,-0.
 00765150,0.00005042,-0.29836000,-0.14986788,0.00037623,0.01065655,0.03
 265911,-0.00001782,0.71581840,0.01815598,-0.00416079,-0.00006931,-0.03
 099964,-0.03435476,0.00002252,-0.02601852,0.05117792,-0.00000179,-0.10
 987142,-0.21433118,0.00032973,0.06730722,-0.02186479,-0.00001963,0.008
 92341,0.63205115,-0.00001200,-0.00000903,0.00410156,0.00006413,0.00004
 128,-0.00468255,0.00008413,-0.00001938,-0.00007237,0.00018028,0.000218
 07,-0.05062431,-0.00006608,0.00002523,0.00702549,-0.00031684,-0.000306
 64,0.13012910,0.00582993,-0.00567225,-0.00000369,-0.07233784,-0.027456
 19,-0.00007261,-0.01802729,0.03186085,-0.00001349,0.03041189,-0.024294
 65,-0.00000567,-0.33698446,0.11907715,-0.00014677,-0.11403640,-0.00751
 667,0.00001614,0.73603725,-0.01145051,0.00085972,0.00002647,0.00071897
 ,0.03876000,-0.00008878,0.02136284,-0.02587055,0.00000963,-0.04474172,
 -0.03581291,0.00002036,0.07928917,-0.15767445,0.00010476,0.03910879,-0
 .28393215,0.00005558,0.03019685,0.63082313,0.00000636,0.00004257,-0.00
 035996,-0.00000865,-0.00001897,0.01117728,-0.00001777,-0.00002779,-0.0
 0697572,0.00005926,-0.00000097,0.00653352,-0.00017641,0.00012305,-0.05
 766355,-0.00002599,-0.00001843,-0.05569526,0.00028445,-0.00002646,0.10
 531145,0.01602935,-0.00392957,-0.00140912,-0.00283079,0.00648606,-0.00
 049106,-0.02088388,-0.01279091,0.00034742,0.00518376,0.00164690,0.0001
 7689,0.00044263,0.00019605,-0.00003549,-0.00039858,-0.00244468,0.00001
 404,-0.00014018,0.00184098,0.00004169,0.09134863,-0.01867240,-0.011829
 27,0.00131973,0.00286458,-0.00481895,0.00049925,0.01242627,0.01975001,
 -0.00008899,-0.00645811,-0.00272404,-0.00018433,-0.00217210,-0.0025889
 7,-0.00001177,0.00046995,0.00368033,-0.00001999,0.00149485,-0.00235801
 ,-0.00003416,-0.11446236,0.32439941,-0.00012635,0.00004301,-0.00966403
 ,-0.00074276,-0.00021068,-0.00070852,0.00002093,0.00001134,0.00054589,
 0.00000317,-0.00001534,0.00134324,0.00006984,0.00019081,-0.00025274,-0
 .00005598,-0.00008080,0.00015332,-0.00013998,0.00003726,0.00012418,0.0
 1543425,0.01360069,0.04322980,0.00183585,-0.00221492,-0.00002360,-0.00
 582502,0.00333447,-0.00000939,0.00300337,0.02798242,-0.00005937,-0.054
 40267,0.02359836,0.00003112,-0.00198050,-0.00087147,-0.00000052,0.0055
 8900,-0.02539287,0.00004153,-0.00337988,-0.00240015,0.00001608,-0.0002
 4081,0.00032443,-0.00000674,0.05336967,-0.00005442,0.00164657,-0.00000
 610,0.00247792,-0.00041800,0.00001072,-0.00352814,-0.00967360,0.000058
 48,0.02536819,-0.32728111,0.00045089,0.00074774,0.00094010,0.00000229,
 0.00318630,-0.01243764,0.00002759,-0.00340750,0.00121060,0.00001923,0.
 00008846,-0.00011465,0.00000831,-0.02463319,0.34622642,0.00000284,-0.0
 0002053,-0.00219356,0.00001427,-0.00000768,0.00476288,-0.00003064,-0.0
 0000018,0.00244901,0.00003397,0.00054735,-0.03113071,0.00001945,0.0000
 0837,-0.00066496,-0.00002830,0.00000649,0.00215415,-0.00000095,0.00000
 464,0.00855747,-0.00001738,0.00000853,-0.00003846,-0.00000125,-0.00052
 843,0.02228040,-0.00101397,-0.00210408,0.00001982,0.00444954,-0.033125
 34,0.00000990,-0.00332502,0.00160118,-0.00000409,-0.00011579,-0.000611
 22,-0.00000083,-0.06619223,0.05695488,0.00001575,-0.00538692,0.0010783
 5,-0.00000697,0.00234208,0.02626730,0.00000821,0.00042050,-0.00036943,
 0.00000570,0.00016214,0.00001421,-0.00000156,0.06696012,-0.00068452,-0
 .00188052,0.00002509,0.00054671,-0.02024074,-0.00001312,-0.00262087,0.
 00506518,-0.00004668,0.00032136,0.00056834,-0.00000211,0.05116831,-0.3
 1525452,-0.00009852,0.00242330,0.00053314,-0.00000142,-0.00072086,-0.0
 0549026,-0.00002030,0.00035099,-0.00025292,-0.00001444,0.00003273,-0.0
 0009075,-0.00000015,-0.05086083,0.33627112,-0.00000486,-0.00001228,-0.
 00019701,0.00009030,0.00013522,0.00209252,0.00000810,-0.00001633,0.005
 68353,0.00000894,0.00001610,-0.00004942,-0.00005147,-0.00030387,-0.034
 20418,-0.00002743,0.00000740,0.00714823,0.00003062,0.00002877,0.005465
 25,-0.00003159,0.00001084,-0.00004860,-0.00000498,-0.00000140,-0.00122
 833,-0.00002169,0.00015040,0.02251653,-0.00216266,0.00038240,0.0000191
 9,0.00032327,-0.00033237,0.00000042,0.00008123,-0.00409560,-0.00000709
 ,-0.01938682,0.01157805,-0.00001720,0.00144456,0.00053245,0.00000022,-
 0.27488046,0.09953052,0.00002087,0.00078595,-0.00093695,-0.00001460,0.
 00032259,-0.00033261,-0.00001617,0.00111484,-0.00017209,0.00000115,-0.
 00001287,-0.00009380,0.00000110,0.29202126,-0.00092189,0.00052875,0.00
 000849,-0.00105274,0.00017909,-0.00000008,-0.00266105,-0.00242490,0.00
 001270,-0.01743815,0.01068400,-0.00000232,-0.00019860,-0.00620682,0.00
 000354,0.09977496,-0.09928152,0.00000186,0.02769702,-0.00738559,-0.000
 00040,0.00006420,-0.00012494,-0.00000321,0.00031436,0.00081728,-0.0000
 0685,0.00150406,-0.00041791,0.00000544,-0.10661159,0.10234509,-0.00001
 192,-0.00004144,-0.00198862,0.00001102,-0.00000542,-0.00089462,0.00001
 262,0.00002592,0.01099350,0.00007068,0.00005069,0.00591458,-0.00000084
 ,-0.00001325,0.00494490,-0.00004474,-0.00001982,-0.03862983,-0.0000110
 8,0.00001289,0.00390273,-0.00002894,0.00002886,-0.00018500,-0.00001006
 ,-0.00001717,-0.00517316,-0.00000070,0.00000157,-0.00037626,-0.0000073
 6,-0.00001556,0.02448639,0.00024215,-0.00023425,0.00000194,-0.00367134
 ,0.00401747,-0.00001937,-0.00011157,0.00102659,-0.00001482,0.00087341,
 0.00132141,-0.00000191,-0.01713350,-0.01929884,-0.00002943,0.00663605,
 0.00421919,-0.00000305,-0.23232150,-0.13300193,-0.00012597,0.00002897,
 0.00014435,-0.00002223,0.00020660,0.00029554,-0.00000189,0.00070320,0.
 00016480,0.00000819,0.00053252,-0.00044299,0.00000475,0.24435877,-0.00
 041336,0.00045672,0.00000277,0.00360206,-0.00021828,0.00001227,0.00114
 584,-0.00119619,-0.00000544,0.00234399,-0.00464602,0.00000438,0.011068
 66,0.01018144,-0.00000695,-0.02464640,-0.01230625,-0.00002593,-0.13516
 815,-0.15286523,-0.00009374,0.00007056,-0.00015327,0.00000782,-0.00120
 841,-0.00055637,0.00000226,-0.00045824,0.00054695,0.00000198,0.0002726
 8,0.00110969,0.00000344,0.14295931,0.15902906,0.00000807,-0.00001963,-
 0.00059309,-0.00002866,-0.00001399,0.00716299,-0.00000823,0.00001421,-
 0.00030880,0.00000233,0.00000610,0.00422512,-0.00000036,-0.00002087,-0
 .00156193,0.00001473,0.00002564,-0.00034601,-0.00016465,-0.00013141,-0
 .02548459,0.00000661,-0.00000309,0.00002136,-0.00000202,0.00000325,0.0
 0060214,0.00000378,0.00000546,-0.00410323,0.00000304,-0.00000010,-0.00
 235502,0.00016319,0.00010943,0.02123814,-0.01281388,0.01280734,0.00012
 547,-0.01647442,-0.00403677,-0.00081910,0.00335986,0.00213102,0.000211
 34,-0.00112939,-0.00012908,0.00012624,0.00120907,0.00481531,-0.0000683
 9,-0.00018661,-0.00016513,-0.00003644,-0.00200853,-0.00058852,0.000094
 29,-0.08123696,0.14071588,-0.00074074,-0.00011700,0.00012499,0.0000121
 7,-0.00007927,-0.00036629,-0.00002860,-0.00023902,-0.00000801,-0.00001
 747,-0.00041873,0.00012475,0.00002062,0.33882667,0.02727472,-0.0044726
 9,0.00040641,-0.00298459,0.00646586,-0.00129276,-0.01217311,-0.0156725
 8,0.00018185,0.00481747,0.00246341,-0.00012137,0.00174396,0.00128436,-
 0.00006485,-0.00028525,-0.00272548,0.00000820,-0.00093258,0.00185952,0
 .00004298,0.10340746,-0.32131690,-0.04474681,-0.00034957,0.00012335,-0
 .00000932,0.00043561,0.00025763,0.00001940,0.00026793,0.00011514,0.000
 02235,-0.00005683,0.00010827,0.00003581,-0.15409797,0.37306995,-0.0008
 6583,0.00122590,0.00623885,-0.00344549,0.00022973,0.00370758,0.0005066
 0,-0.00023864,-0.00033073,-0.00013061,0.00007340,-0.00088568,-0.000249
 05,0.00022608,0.00036469,0.00007721,0.00002511,0.00004236,-0.00000701,
 -0.00016363,-0.00027627,-0.01561513,-0.01027748,-0.03485934,0.00001413
 ,-0.00000526,0.00000367,-0.00002170,-0.00007325,0.00003139,0.00001407,
 0.00000444,0.00011940,-0.00003128,0.00000085,-0.00009304,0.25270291,0.
 02424882,0.29933715,0.00042631,0.00118022,0.00112756,-0.00157042,-0.00
 050440,0.00087664,-0.00050474,-0.00043977,-0.00020125,0.00011121,0.000
 09344,-0.00023733,-0.00027491,0.00037191,0.00007161,0.00000681,-0.0000
 7926,0.00001939,-0.00007385,-0.00010933,-0.00007223,-0.01190184,-0.004
 78931,-0.01517089,-0.00000080,0.00001752,-0.00000511,-0.00002356,-0.00
 007433,0.00000184,0.00001154,-0.00000485,0.00003256,-0.00003235,0.0000
 1919,-0.00002257,-0.23415967,0.02851840,-0.23627570,0.24728748,0.00233
 509,-0.00215709,-0.00146641,-0.00248143,0.00058743,0.00065489,-0.00084
 474,-0.00101743,-0.00008745,0.00017261,0.00016153,0.00019973,0.0001717
 4,0.00058587,0.00002045,0.00001085,-0.00010997,0.00000450,-0.00025635,
 -0.00003660,-0.00000783,0.02580827,0.00192767,0.03051615,-0.00003609,0
 .00002303,-0.00000021,-0.00000631,-0.00005128,-0.00003745,0.00000382,0
 .00000335,-0.00003258,-0.00005407,0.00002046,-0.00001788,-0.00287320,-
 0.03699594,-0.01608672,-0.02516435,0.03708589,0.00092457,-0.00096725,-
 0.00000952,0.00323920,-0.00011043,-0.00000346,-0.00020199,0.00022010,-
 0.00001846,0.00005268,-0.00005684,-0.00002705,0.00007929,-0.00038446,-
 0.00000362,0.00000565,0.00005126,-0.00000305,0.00016285,0.00007414,-0.
 00001071,0.00105482,-0.00454179,-0.00181689,0.00000693,-0.00000492,0.0
 0001074,-0.00000270,0.00006095,0.00002998,0.00000340,-0.00000321,0.000
 01047,0.00004742,-0.00000917,0.00000622,-0.25389746,0.01805536,-0.2667
 6855,0.25192037,-0.01183762,0.26842967,-0.01130457,-0.00237099,0.00008
 510,-0.30770945,0.10801466,-0.00169340,0.01392200,0.01274206,-0.000111
 44,-0.00233449,-0.00249852,-0.00004196,-0.01979057,0.00256403,-0.00005
 911,0.00134226,0.00327353,0.00000087,0.00390281,-0.00555579,-0.0000687
 3,0.00385661,-0.01118400,0.00148797,0.00066520,-0.00052553,0.00000323,
 0.00111205,0.00041330,0.00002154,0.00004406,-0.00001473,0.00000150,0.0
 0010735,0.00028751,0.00000411,0.00546789,0.00441434,0.00332687,0.00069
 880,0.00321417,-0.00339503,0.31002006,-0.00194076,0.00398544,-0.000036
 18,0.10989964,-0.11740230,0.00122383,0.03512542,-0.00941838,0.00011172
 ,-0.00027238,-0.00612058,0.00003220,-0.02055743,0.01423140,-0.00012432
 ,-0.00090428,-0.00193800,0.00000007,-0.00490151,-0.00208723,0.00002124
 ,-0.00633240,-0.00347550,0.00065588,0.00151989,-0.00041523,-0.00000431
 ,-0.00032015,0.00043654,-0.00000425,0.00000716,0.00005930,-0.00000048,
 -0.00105976,0.00048900,0.00000707,0.00154569,-0.00456391,0.00081066,0.
 00096493,-0.00002691,-0.00054614,-0.11277405,0.12624637,-0.00023107,-0
 .00005307,-0.00385807,-0.00124059,0.00101769,-0.02445331,0.00008936,0.
 00030373,0.00308345,-0.00003857,-0.00005950,0.00427324,0.00007357,-0.0
 0023226,-0.00459899,0.00000509,0.00004827,-0.00070083,0.00007185,0.000
 03576,0.00539418,0.00055300,-0.00030630,0.00215579,0.00000814,-0.00001
 748,-0.00039130,-0.00000291,0.00002652,-0.00276040,-0.00000106,-0.0000
 0473,-0.00076945,0.00002445,-0.00000398,0.00158975,0.00231515,0.003213
 92,-0.00663148,-0.00206489,-0.00182157,0.00017424,0.00043849,-0.002146
 99,0.02749319\\-0.00001283,-0.00001930,-0.00001171,-0.00001683,-0.0000
 4434,-0.00000552,0.00002451,0.00006255,0.00001008,0.00001099,-0.000002
 99,-0.00000027,0.00002934,0.00001020,-0.00000471,-0.00000577,-0.000013
 04,-0.00000478,-0.00001512,0.00000568,0.00000318,-0.00003187,-0.000029
 04,0.00001589,-0.00000623,-0.00000044,0.00000222,-0.00000267,-0.000002
 98,-0.00000156,0.00000098,0.00000216,0.00000194,0.00000263,-0.00000288
 ,-0.00000044,0.00003019,0.00002600,-0.00000218,-0.00000301,-0.00000198
 ,-0.00000736,-0.00000431,0.00001038,0.00000522\\\@


 THE MORE PROGRESS PHYSICAL SCIENCES MAKE, THE MORE THEY TEND TO ENTER
 THE DOMAIN OF MATHEMATICS, WHICH IS A KIND OF CENTRE TO WHICH THEY ALL
 CONVERGE.  WE MAY EVEN JUDGE THE DEGREE OF PERFECTION TO WHICH A 
 SCIENCE HAS ARRIVED BY THE FACILITY WITH WHICH IT MAY BE SUBMITTED
 TO CALCULATION.

                               -- ADOLPHE QUETELET, 1796-1874
 Job cpu time:       0 days  0 hours 59 minutes  8.0 seconds.
 File lengths (MBytes):  RWF=    137 Int=      0 D2E=      0 Chk=      9 Scr=      1
 Normal termination of Gaussian 09 at Fri Aug 27 00:09:47 2021.
