 Entering Gaussian System, Link 0=g09
 AtFile(1): pc-2.gbs
            -H     0
            S    4   1.00
                  0.754230D+02           0.240650D-02
                  0.113500D+02           0.184870D-01
                  0.259930D+01           0.897420D-01
                  0.735130D+00           0.281110D+00
            S    1   1.00
                  0.231670D+00           0.100000D+01
            S    1   1.00
                  0.741470D-01           0.100000D+01
            P    1   1.00
                  0.160000D+01           0.100000D+01
            P    1   1.00
                  0.450000D+00           0.100000D+01
            D    1   1.00
                  0.125000D+01           0.100000D+01
            ****
            -C     0
            S    7   1.00
                  0.785710D+04           0.568250D-03
                  0.117870D+04           0.439150D-02
                  0.268320D+03           0.225040D-01
                  0.759480D+02           0.866530D-01
                  0.245590D+02           0.244050D+00
                  0.862120D+01           0.441480D+00
                  0.312780D+01           0.353320D+00
            S    7   1.00
                  0.117870D+04          -0.594920D-06
                  0.268320D+03          -0.627480D-04
                  0.759480D+02          -0.757730D-03
                  0.245590D+02          -0.733080D-02
                  0.862120D+01          -0.389320D-01
                  0.312780D+01          -0.889080D-01
                  0.822020D+00           0.216890D+00
            S    1   1.00
                  0.330170D+00           0.100000D+01
            S    1   1.00
                  0.114630D+00           0.100000D+01
            P    4   1.00
                  0.337750D+02           0.602940D-02
                  0.767660D+01           0.432280D-01
                  0.223570D+01           0.163010D+00
                  0.764470D+00           0.365040D+00
            P    1   1.00
                  0.262320D+00           0.100000D+01
            P    1   1.00
                  0.846380D-01           0.100000D+01
            D    1   1.00
                  0.140000D+01           0.100000D+01
            D    1   1.00
                  0.450000D+00           0.100000D+01
            F    1   1.00
                  0.950000D+00           0.100000D+01
            ****
            -N     0
            S    7   1.00
                  0.111010D+05           0.545700D-03
                  0.166530D+04           0.421810D-02
                  0.379080D+03           0.216450D-01
                  0.107300D+03           0.837760D-01
                  0.347470D+02           0.238810D+00
                  0.122490D+02           0.439940D+00
                  0.447430D+01           0.363640D+00
            S    7   1.00
                  0.166530D+04          -0.150060D-05
                  0.379080D+03          -0.587530D-04
                  0.107300D+03          -0.774530D-03
                  0.347470D+02          -0.721610D-02
                  0.122490D+02          -0.393380D-01
                  0.447430D+01          -0.906110D-01
                  0.124040D+01           0.198820D+00
            S    1   1.00
                  0.487430D+00           0.100000D+01
            S    1   1.00
                  0.164840D+00           0.100000D+01
            P    4   1.00
                  0.479340D+02           0.617060D-02
                  0.109990D+02           0.442600D-01
                  0.324720D+01           0.168250D+00
                  0.111140D+01           0.368480D+00
            P    1   1.00
                  0.379880D+00           0.100000D+01
            P    1   1.00
                  0.120680D+00           0.100000D+01
            D    1   1.00
                  0.180000D+01           0.100000D+01
            D    1   1.00
                  0.550000D+00           0.100000D+01
            F    1   1.00
                  0.102000D+01           0.100000D+01
            ****
            -O     0
            S    7   1.00
                  0.147820D+05           0.535190D-03
                  0.221730D+04           0.413750D-02
                  0.504740D+03           0.212450D-01
                  0.142870D+03           0.824530D-01
                  0.463000D+02           0.236710D+00
                  0.163370D+02           0.440390D+00
                  0.598280D+01           0.364650D+00
            S    7   1.00
                  0.221730D+04          -0.192750D-05
                  0.504740D+03          -0.579640D-04
                  0.142870D+03          -0.794940D-03
                  0.463000D+02          -0.731250D-02
                  0.163370D+02          -0.405740D-01
                  0.598280D+01          -0.915940D-01
                  0.167180D+01           0.209400D+00
            S    1   1.00
                  0.646620D+00           0.100000D+01
            S    1   1.00
                  0.216690D+00           0.100000D+01
            P    4   1.00
                  0.604240D+02           0.689490D-02
                  0.139350D+02           0.490050D-01
                  0.415310D+01           0.182550D+00
                  0.141580D+01           0.376330D+00
            P    1   1.00
                  0.475490D+00           0.100000D+01
            P    1   1.00
                  0.145290D+00           0.100000D+01
            D    1   1.00
                  0.220000D+01           0.100000D+01
            D    1   1.00
                  0.650000D+00           0.100000D+01
            F    1   1.00
                  0.110000D+01           0.100000D+01
            ****
 Initial command:
 /public3/home/sc51754/softwares/g09e01/l1.exe "./Gau-36613.inp" -scrdir="./"
 Entering Link 1 = /public3/home/sc51754/softwares/g09e01/l1.exe PID=     36615.
  
 Copyright (c) 1988,1990,1992,1993,1995,1998,2003,2009,2015,
            Gaussian, Inc.  All Rights Reserved.
  
 This is part of the Gaussian(R) 09 program.  It is based on
 the Gaussian(R) 03 system (copyright 2003, Gaussian, Inc.),
 the Gaussian(R) 98 system (copyright 1998, Gaussian, Inc.),
 the Gaussian(R) 94 system (copyright 1995, Gaussian, Inc.),
 the Gaussian 92(TM) system (copyright 1992, Gaussian, Inc.),
 the Gaussian 90(TM) system (copyright 1990, Gaussian, Inc.),
 the Gaussian 88(TM) system (copyright 1988, Gaussian, Inc.),
 the Gaussian 86(TM) system (copyright 1986, Carnegie Mellon
 University), and the Gaussian 82(TM) system (copyright 1983,
 Carnegie Mellon University). Gaussian is a federally registered
 trademark of Gaussian, Inc.
  
 This software contains proprietary and confidential information,
 including trade secrets, belonging to Gaussian, Inc.
  
 This software is provided under written license and may be
 used, copied, transmitted, or stored only in accord with that
 written license.
  
 The following legend is applicable only to US Government
 contracts under FAR:
  
                    RESTRICTED RIGHTS LEGEND
  
 Use, reproduction and disclosure by the US Government is
 subject to restrictions as set forth in subparagraphs (a)
 and (c) of the Commercial Computer Software - Restricted
 Rights clause in FAR 52.227-19.
  
 Gaussian, Inc.
 340 Quinnipiac St., Bldg. 40, Wallingford CT 06492
  
  
 ---------------------------------------------------------------
 Warning -- This program may not be used in any manner that
 competes with the business of Gaussian, Inc. or will provide
 assistance to any competitor of Gaussian, Inc.  The licensee
 of this program is prohibited from giving any competitor of
 Gaussian, Inc. access to this program.  By using this program,
 the user acknowledges that Gaussian, Inc. is engaged in the
 business of creating and licensing software in the field of
 computational chemistry and represents and warrants to the
 licensee that it is not a competitor of Gaussian, Inc. and that
 it will not use this program in any manner prohibited above.
 ---------------------------------------------------------------
  

 Cite this work as:
 Gaussian 09, Revision E.01,
 M. J. Frisch, G. W. Trucks, H. B. Schlegel, G. E. Scuseria, 
 M. A. Robb, J. R. Cheeseman, G. Scalmani, V. Barone, B. Mennucci, 
 G. A. Petersson, H. Nakatsuji, M. Caricato, X. Li, H. P. Hratchian, 
 A. F. Izmaylov, J. Bloino, G. Zheng, J. L. Sonnenberg, M. Hada, 
 M. Ehara, K. Toyota, R. Fukuda, J. Hasegawa, M. Ishida, T. Nakajima, 
 Y. Honda, O. Kitao, H. Nakai, T. Vreven, J. A. Montgomery, Jr., 
 J. E. Peralta, F. Ogliaro, M. Bearpark, J. J. Heyd, E. Brothers, 
 K. N. Kudin, V. N. Staroverov, T. Keith, R. Kobayashi, J. Normand, 
 K. Raghavachari, A. Rendell, J. C. Burant, S. S. Iyengar, J. Tomasi, 
 M. Cossi, N. Rega, J. M. Millam, M. Klene, J. E. Knox, J. B. Cross, 
 V. Bakken, C. Adamo, J. Jaramillo, R. Gomperts, R. E. Stratmann, 
 O. Yazyev, A. J. Austin, R. Cammi, C. Pomelli, J. W. Ochterski, 
 R. L. Martin, K. Morokuma, V. G. Zakrzewski, G. A. Voth, 
 P. Salvador, J. J. Dannenberg, S. Dapprich, A. D. Daniels, 
 O. Farkas, J. B. Foresman, J. V. Ortiz, J. Cioslowski, 
 and D. J. Fox, Gaussian, Inc., Wallingford CT, 2013.
 
 ******************************************
 Gaussian 09:  EM64L-G09RevE.01 30-Nov-2015
                28-Aug-2021 
 ******************************************
 %nprocshared=64
 Will use up to   64 processors via shared memory.
 %mem=128GB
 %chk=TST_H2O_PBEPBE.chk
 ----------------------------------------------------------------------
 #p opt=(calcfc,qst3,maxcycle=200,cartesian) freq pbepbe/gen geom=conne
 ctivity
 ----------------------------------------------------------------------
 1/5=1,6=200,10=4,14=-1,18=20,26=3,27=203,38=1,57=2/1,3;
 2/9=110,12=2,17=6,18=5,40=1/2;
 3/5=7,11=2,16=1,25=1,30=1,71=2,74=1009,140=1/1,2,3;
 4//1;
 5/5=2,38=5/2;
 8/6=4,10=90,11=11/1;
 11/6=1,8=1,9=11,15=111,16=1/1,2,10;
 10/6=1,13=1/2;
 6/7=2,8=2,9=2,10=2,28=1/1;
 7/10=1,18=20,25=1/1,2,3,16;
 1/5=1,6=200,10=4,14=-1,18=20,26=3,27=203/3(2);
 2/9=110/2;
 99//99;
 2/9=110/2;
 3/5=7,6=1,11=2,16=1,25=1,30=1,71=1,74=1009,82=7/1,2,3;
 4/5=5,16=3,69=1/1;
 5/5=2,38=5/2;
 7//1,2,3,16;
 1/5=1,6=200,14=-1,18=20,26=3,27=203/3(-5);
 2/9=110/2;
 6/7=2,8=2,9=2,10=2,19=2,28=1/1;
 99/9=1/99;
 Leave Link    1 at Sat Aug 28 23:57:34 2021, MaxMem= 17179869184 cpu:         8.3
 (Enter /public3/home/sc51754/softwares/g09e01/l101.exe)
 --------------------------
 HY_H2O_PBEPBE_PC2_OPT_FREQ
 --------------------------
 Symbolic Z-matrix:
 Charge =  0 Multiplicity = 1
 O                     1.25599   1.4301   -0.00485 
 N                     0.31242  -0.68232  -0.0068 
 C                     0.16147   0.65404  -0.00081 
 C                    -1.10488   1.27102   0.00879 
 C                    -0.79361  -1.44918  -0.0063 
 C                    -2.22941   0.46169   0.01038 
 C                    -2.08228  -0.93276   0.00238 
 H                     2.06488   0.83803  -0.01692 
 H                    -1.16839   2.35787   0.01282 
 H                    -0.6218   -2.52802  -0.01443 
 H                    -3.223     0.91169   0.01665 
 H                    -2.94439  -1.59756   0.00175 
 O                     3.04118  -0.60165  -0.08698 
 H                     3.49345  -0.86161   0.72986 
 H                     2.12718  -1.00064  -0.03415 
 
 Add virtual bond connecting atoms O13        and H8         Dist= 3.29D+00.
 Add virtual bond connecting atoms H15        and N2         Dist= 3.48D+00.
 Add virtual bond connecting atoms H15        and H8         Dist= 3.48D+00.
 Add atom     13 valence  3 ND=      2 dihedral       8     13     14     15
 --------------------------
 PY_H2O_PBEPBE_PC2_OPT_FREQ
 --------------------------
 Symbolic Z-matrix:
 Charge =  0 Multiplicity = 1
 O                     1.28726   1.39895   0.00254 
 N                     0.26286  -0.6608    0.00898 
 C                     0.22389   0.74411   0.00513 
 C                    -1.10778   1.29531   0.00258 
 C                    -0.83093  -1.46447   0.0051 
 C                    -2.21537   0.48415  -0.001 
 C                    -2.09304  -0.92946  -0.00059 
 H                     2.64567   0.27296  -0.04963 
 H                    -1.18684   2.38095   0.00077 
 H                    -0.63582  -2.53628   0.00486 
 H                    -3.21012   0.93352  -0.00516 
 H                    -2.96438  -1.57923  -0.00525 
 O                     3.05262  -0.63704  -0.09175 
 H                     3.71127  -0.66519   0.61733 
 H                     1.22059  -1.05427   0.02063 
 
 Add virtual bond connecting atoms H8         and O1         Dist= 3.34D+00.
 Add virtual bond connecting atoms O13        and H15        Dist= 3.56D+00.
 --------------
 TST_H2O_PBEPBE
 --------------
 Symbolic Z-matrix:
 Charge =  0 Multiplicity = 1
 O                     1.28865   1.44791  -0.01464 
 N                     0.34508  -0.66451  -0.01659 
 C                     0.19413   0.67185  -0.0106 
 C                    -1.07222   1.28884  -0.00101 
 C                    -0.76095  -1.43136  -0.01609 
 C                    -2.19676   0.4795    0.00059 
 C                    -2.04962  -0.91495  -0.00742 
 H                     2.24787   0.62086  -0.02065 
 H                    -1.13573   2.37568   0.00303 
 H                    -0.58915  -2.5102   -0.02422 
 H                    -3.19034   0.9295    0.00685 
 H                    -2.91173  -1.57975  -0.00804 
 O                     2.6066   -0.41791  -0.06815 
 H                     3.05887  -0.67787   0.74869 
 H                     1.59988  -0.85738  -0.00996 
 
 NAtoms=     15 NQM=       15 NQMF=       0 NMMI=      0 NMMIF=      0
                NMic=       0 NMicF=      0.
                    Isotopes and Nuclear Properties:
 (Nuclear quadrupole moments (NQMom) in fm**2, nuclear magnetic moments (NMagM)
  in nuclear magnetons)

  Atom         1           2           3           4           5           6           7           8           9          10
 IAtWgt=          16          14          12          12          12          12          12           1           1           1
 AtmWgt=  15.9949146  14.0030740  12.0000000  12.0000000  12.0000000  12.0000000  12.0000000   1.0078250   1.0078250   1.0078250
 NucSpn=           0           2           0           0           0           0           0           1           1           1
 AtZEff=   0.0000000   0.0000000   0.0000000   0.0000000   0.0000000   0.0000000   0.0000000   0.0000000   0.0000000   0.0000000
 NQMom=    0.0000000   2.0440000   0.0000000   0.0000000   0.0000000   0.0000000   0.0000000   0.0000000   0.0000000   0.0000000
 NMagM=    0.0000000   0.4037610   0.0000000   0.0000000   0.0000000   0.0000000   0.0000000   2.7928460   2.7928460   2.7928460
 AtZNuc=   8.0000000   7.0000000   6.0000000   6.0000000   6.0000000   6.0000000   6.0000000   1.0000000   1.0000000   1.0000000

  Atom        11          12          13          14          15
 IAtWgt=           1           1          16           1           1
 AtmWgt=   1.0078250   1.0078250  15.9949146   1.0078250   1.0078250
 NucSpn=           1           1           0           1           1
 AtZEff=   0.0000000   0.0000000   0.0000000   0.0000000   0.0000000
 NQMom=    0.0000000   0.0000000   0.0000000   0.0000000   0.0000000
 NMagM=    2.7928460   2.7928460   0.0000000   2.7928460   2.7928460
 AtZNuc=   1.0000000   1.0000000   8.0000000   1.0000000   1.0000000
 Leave Link  101 at Sat Aug 28 23:57:34 2021, MaxMem= 17179869184 cpu:        15.3
 (Enter /public3/home/sc51754/softwares/g09e01/l103.exe)

 GradGradGradGradGradGradGradGradGradGradGradGradGradGradGradGradGradGrad
 Berny optimization.
 Initialization pass.
                           ----------------------------
                           !    Initial Parameters    !
                           ! (Angstroms and Degrees)  !
 --------------------------                            --------------------------
 ! Name  Definition        TS        Reactant  Product Derivative Info.         !
 --------------------------------------------------------------------------------
 ! R1    R(1,3)             1.3417    1.3417    1.2488 calculate D2E/DX2 analyti!
 ! R2    R(1,8)             1.2665    1.0025    1.7652 calculate D2E/DX2 analyti!
 ! R3    R(2,3)             1.3449    1.3449    1.4054 calculate D2E/DX2 analyti!
 ! R4    R(2,5)             1.3459    1.3459    1.3573 calculate D2E/DX2 analyti!
 ! R5    R(2,15)            1.2696    1.8427    1.0355 calculate D2E/DX2 analyti!
 ! R6    R(3,4)             1.4087    1.4087    1.4412 calculate D2E/DX2 analyti!
 ! R7    R(4,6)             1.3855    1.3855    1.3729 calculate D2E/DX2 analyti!
 ! R8    R(4,9)             1.0887    1.0887    1.0885 calculate D2E/DX2 analyti!
 ! R9    R(5,7)             1.3883    1.3883    1.3708 calculate D2E/DX2 analyti!
 ! R10   R(5,10)            1.0925    1.0925    1.0894 calculate D2E/DX2 analyti!
 ! R11   R(6,7)             1.4022    1.4022    1.4189 calculate D2E/DX2 analyti!
 ! R12   R(6,11)            1.0908    1.0908    1.0916 calculate D2E/DX2 analyti!
 ! R13   R(7,12)            1.0887    1.0887    1.0869 calculate D2E/DX2 analyti!
 ! R14   R(8,13)            1.1       1.7409    0.9977 calculate D2E/DX2 analyti!
 ! R15   R(8,15)            1.6141    1.8398    1.9487 calculate D2E/DX2 analyti!
 ! R16   R(13,14)           0.9692    0.9692    0.9682 calculate D2E/DX2 analyti!
 ! R17   R(13,15)           1.1       0.9987    1.8823 calculate D2E/DX2 analyti!
 ! A1    A(3,1,8)         103.8941  108.46    108.7144 calculate D2E/DX2 analyti!
 ! A2    A(3,2,5)         118.29    118.29    124.7175 calculate D2E/DX2 analyti!
 ! A3    A(3,2,15)        105.1811  106.3952  113.9235 calculate D2E/DX2 analyti!
 ! A4    A(5,2,15)        136.5257  135.3104  121.3582 calculate D2E/DX2 analyti!
 ! A5    A(1,3,2)         118.8923  118.8923  120.0369 calculate D2E/DX2 analyti!
 ! A6    A(1,3,4)         118.6862  118.6862  125.8887 calculate D2E/DX2 analyti!
 ! A7    A(2,3,4)         122.4215  122.4215  114.0743 calculate D2E/DX2 analyti!
 ! A8    A(3,4,6)         118.2811  118.2811  121.2972 calculate D2E/DX2 analyti!
 ! A9    A(3,4,9)         119.321   119.321   116.6508 calculate D2E/DX2 analyti!
 ! A10   A(6,4,9)         122.3979  122.3979  122.0518 calculate D2E/DX2 analyti!
 ! A11   A(2,5,7)         123.4267  123.4267  120.7211 calculate D2E/DX2 analyti!
 ! A12   A(2,5,10)        115.6859  115.6859  115.99   calculate D2E/DX2 analyti!
 ! A13   A(7,5,10)        120.8873  120.8873  123.2888 calculate D2E/DX2 analyti!
 ! A14   A(4,6,7)         119.7186  119.7186  121.2716 calculate D2E/DX2 analyti!
 ! A15   A(4,6,11)        119.8912  119.8912  119.4723 calculate D2E/DX2 analyti!
 ! A16   A(7,6,11)        120.3902  120.3902  119.2561 calculate D2E/DX2 analyti!
 ! A17   A(5,7,6)         117.8619  117.8619  117.9178 calculate D2E/DX2 analyti!
 ! A18   A(5,7,12)        120.5244  120.5244  120.3158 calculate D2E/DX2 analyti!
 ! A19   A(6,7,12)        121.6136  121.6136  121.7664 calculate D2E/DX2 analyti!
 ! A20   A(1,8,13)        149.7506  160.2864  153.7567 calculate D2E/DX2 analyti!
 ! A21   A(1,8,15)        107.0955  128.1463   82.5656 calculate D2E/DX2 analyti!
 ! A22   A(8,13,14)       111.659   116.7174  105.8471 calculate D2E/DX2 analyti!
 ! A23   A(8,13,15)        94.389    79.3395   78.6191 calculate D2E/DX2 analyti!
 ! A24   A(14,13,15)      105.9817  105.9817  127.7302 calculate D2E/DX2 analyti!
 ! A25   A(2,15,8)        104.9294   78.1042  114.6573 calculate D2E/DX2 analyti!
 ! A26   A(2,15,13)       147.5217  146.4195  144.6191 calculate D2E/DX2 analyti!
 ! D1    D(8,1,3,2)        -0.1495    0.2833    1.8605 calculate D2E/DX2 analyti!
 ! D2    D(8,1,3,4)       179.8871 -179.6801 -178.0414 calculate D2E/DX2 analyti!
 ! D3    D(3,1,8,13)        4.5599    4.8666    1.5893 calculate D2E/DX2 analyti!
 ! D4    D(3,1,8,15)       -0.3702    0.0914   -2.3118 calculate D2E/DX2 analyti!
 ! D5    D(5,2,3,1)      -179.8234 -179.8234 -179.6452 calculate D2E/DX2 analyti!
 ! D6    D(5,2,3,4)         0.1386    0.1386    0.2678 calculate D2E/DX2 analyti!
 ! D7    D(15,2,3,1)        0.7176   -0.4734    0.682  calculate D2E/DX2 analyti!
 ! D8    D(15,2,3,4)     -179.3205  179.4886 -179.405  calculate D2E/DX2 analyti!
 ! D9    D(3,2,5,7)        -0.1139   -0.1139   -0.126  calculate D2E/DX2 analyti!
 ! D10   D(3,2,5,10)      179.8183  179.8183  179.7615 calculate D2E/DX2 analyti!
 ! D11   D(15,2,5,7)      179.1273 -179.2272  179.5238 calculate D2E/DX2 analyti!
 ! D12   D(15,2,5,10)      -0.9405    0.705    -0.5887 calculate D2E/DX2 analyti!
 ! D13   D(3,2,15,8)       -0.8185    0.3532   -2.6841 calculate D2E/DX2 analyti!
 ! D14   D(3,2,15,13)      -6.4725   -4.2191   -6.9467 calculate D2E/DX2 analyti!
 ! D15   D(5,2,15,8)      179.8738  179.5393  177.6308 calculate D2E/DX2 analyti!
 ! D16   D(5,2,15,13)     174.2199  174.967   173.3682 calculate D2E/DX2 analyti!
 ! D17   D(1,3,4,6)       179.8818  179.8818  179.6668 calculate D2E/DX2 analyti!
 ! D18   D(1,3,4,9)        -0.0076   -0.0076   -0.1639 calculate D2E/DX2 analyti!
 ! D19   D(2,3,4,6)        -0.0803   -0.0803   -0.2403 calculate D2E/DX2 analyti!
 ! D20   D(2,3,4,9)      -179.9697 -179.9697  179.9291 calculate D2E/DX2 analyti!
 ! D21   D(3,4,6,7)        -0.0068   -0.0068    0.0826 calculate D2E/DX2 analyti!
 ! D22   D(3,4,6,11)     -179.9342 -179.9342 -179.8613 calculate D2E/DX2 analyti!
 ! D23   D(9,4,6,7)       179.879   179.879   179.9041 calculate D2E/DX2 analyti!
 ! D24   D(9,4,6,11)       -0.0484   -0.0484   -0.0399 calculate D2E/DX2 analyti!
 ! D25   D(2,5,7,6)         0.0304    0.0304   -0.0574 calculate D2E/DX2 analyti!
 ! D26   D(2,5,7,12)      179.9618  179.9618  179.904  calculate D2E/DX2 analyti!
 ! D27   D(10,5,7,6)     -179.8983 -179.8983 -179.9365 calculate D2E/DX2 analyti!
 ! D28   D(10,5,7,12)       0.033     0.033     0.025  calculate D2E/DX2 analyti!
 ! D29   D(4,6,7,5)         0.0305    0.0305    0.0751 calculate D2E/DX2 analyti!
 ! D30   D(4,6,7,12)     -179.9001 -179.9001 -179.8857 calculate D2E/DX2 analyti!
 ! D31   D(11,6,7,5)      179.9575  179.9575 -179.9808 calculate D2E/DX2 analyti!
 ! D32   D(11,6,7,12)       0.027     0.027     0.0583 calculate D2E/DX2 analyti!
 ! D33   D(1,8,13,14)    -116.0662 -109.6942 -130.3661 calculate D2E/DX2 analyti!
 ! D34   D(1,8,13,15)      -6.9432   -7.0494   -4.0854 calculate D2E/DX2 analyti!
 ! D35   D(1,8,15,2)        0.8123   -0.2997    3.098  calculate D2E/DX2 analyti!
 ! D36   D(8,13,14,15)    101.5011   85.9128   87.7231 calculate D2E/DX2 analyti!
 ! D37   D(8,13,15,2)       8.0532    4.8118    7.7342 calculate D2E/DX2 analyti!
 ! D38   D(14,13,15,2)    122.0717  119.7707  109.0635 calculate D2E/DX2 analyti!
 --------------------------------------------------------------------------------
 Trust Radius=3.00D-01 FncErr=1.00D-07 GrdErr=1.00D-06
 Number of steps in this run=    100 maximum allowed number of steps=    100.
 Search for a saddle point of order  1.
 GradGradGradGradGradGradGradGradGradGradGradGradGradGradGradGradGradGrad

 Leave Link  103 at Sat Aug 28 23:57:34 2021, MaxMem= 17179869184 cpu:         0.8
 (Enter /public3/home/sc51754/softwares/g09e01/l202.exe)
                          Input orientation:                          
 ---------------------------------------------------------------------
 Center     Atomic      Atomic             Coordinates (Angstroms)
 Number     Number       Type             X           Y           Z
 ---------------------------------------------------------------------
      1          8           0        1.288646    1.447912   -0.014639
      2          7           0        0.345081   -0.664510   -0.016591
      3          6           0        0.194129    0.671853   -0.010598
      4          6           0       -1.072218    1.288836   -0.001007
      5          6           0       -0.760949   -1.431364   -0.016095
      6          6           0       -2.196756    0.479503    0.000588
      7          6           0       -2.049624   -0.914950   -0.007417
      8          1           0        2.247865    0.620864   -0.020649
      9          1           0       -1.135727    2.375681    0.003027
     10          1           0       -0.589146   -2.510205   -0.024220
     11          1           0       -3.190343    0.929504    0.006854
     12          1           0       -2.911729   -1.579750   -0.008041
     13          8           0        2.606598   -0.417912   -0.068146
     14          1           0        3.058868   -0.677870    0.748689
     15          1           0        1.599878   -0.857377   -0.009956
 ---------------------------------------------------------------------
                    Distance matrix (angstroms):
                    1          2          3          4          5
     1  O    0.000000
     2  N    2.313578   0.000000
     3  C    1.341734   1.344875   0.000000
     4  C    2.366257   2.413408   1.408685   0.000000
     5  C    3.534271   1.345871   2.309919   2.737993   0.000000
     6  C    3.617468   2.787471   2.398636   1.385499   2.390237
     7  C    4.089892   2.407782   2.748160   2.410817   1.388323
     8  H    1.266549   2.296256   2.054394   3.386669   3.642063
     9  H    2.595891   3.381706   2.161419   1.088706   3.825496
    10  H    4.380968   2.068678   3.277072   3.829701   1.092465
    11  H    4.508941   3.878228   3.394310   2.148403   3.387651
    12  H    5.177831   3.382979   3.836154   3.407732   2.155908
    13  O    2.284986   2.275506   2.647812   4.056006   3.517125
    14  H    2.869722   2.819658   3.256532   4.636362   3.967827
    15  H    2.326209   1.269551   2.077180   3.427304   2.429610
                    6          7          8          9         10
     6  C    0.000000
     7  C    1.402216   0.000000
     8  H    4.446920   4.563695   0.000000
     9  H    2.172851   3.415197   3.811646   0.000000
    10  H    3.394610   2.162895   4.225191   4.916439   0.000000
    11  H    1.090759   2.168745   5.447029   2.512546   4.312631
    12  H    2.179859   1.088662   5.609302   4.335867   2.502079
    13  O    4.886951   4.683069   1.100000   4.670570   3.820000
    14  H    5.433300   5.169584   1.713568   5.241642   4.154858
    15  H    4.025145   3.649958   1.614062   4.235136   2.742968
                   11         12         13         14         15
    11  H    0.000000
    12  H    2.524718   0.000000
    13  O    5.951948   5.639629   0.000000
    14  H    6.495122   6.085561   0.969198   0.000000
    15  H    5.112676   4.569073   1.100000   1.654211   0.000000
 Stoichiometry    C5H7NO2
 Framework group  C1[X(C5H7NO2)]
 Deg. of freedom    39
 Full point group                 C1      NOp   1
 Largest Abelian subgroup         C1      NOp   1
 Largest concise Abelian subgroup C1      NOp   1
                         Standard orientation:                         
 ---------------------------------------------------------------------
 Center     Atomic      Atomic             Coordinates (Angstroms)
 Number     Number       Type             X           Y           Z
 ---------------------------------------------------------------------
      1          8           0        1.427026    1.311456   -0.012291
      2          7           0        0.339529   -0.730598   -0.015403
      3          6           0        0.281453    0.612984   -0.005219
      4          6           0       -0.939103    1.316082    0.011838
      5          6           0       -0.816908   -1.419080   -0.011798
      6          6           0       -2.116938    0.586500    0.016515
      7          6           0       -2.066702   -0.814762    0.004186
      8          1           0        2.326672    0.420038   -0.024896
      9          1           0       -0.927223    2.404700    0.019006
     10          1           0       -0.720219   -2.507195   -0.023537
     11          1           0       -3.076962    1.104154    0.028550
     12          1           0       -2.972744   -1.418310    0.005809
     13          8           0        2.612439   -0.640926   -0.076766
     14          1           0        3.049248   -0.933946    0.737287
     15          1           0        1.577987   -1.009847   -0.015072
 ---------------------------------------------------------------------
 Rotational constants (GHZ):      4.1708623      1.6526910      1.1872067
 Leave Link  202 at Sat Aug 28 23:57:35 2021, MaxMem= 17179869184 cpu:         5.6
 (Enter /public3/home/sc51754/softwares/g09e01/l301.exe)
 General basis read from cards:  (5D, 7F)
 Centers:       8      9     10     11     12     14     15
 S 4 1.00
     Exponent=  7.5423000000D+01 Coefficients=  2.4065000000D-03
     Exponent=  1.1350000000D+01 Coefficients=  1.8487000000D-02
     Exponent=  2.5993000000D+00 Coefficients=  8.9742000000D-02
     Exponent=  7.3513000000D-01 Coefficients=  2.8111000000D-01
 S 1 1.00
     Exponent=  2.3167000000D-01 Coefficients=  1.0000000000D+00
 S 1 1.00
     Exponent=  7.4147000000D-02 Coefficients=  1.0000000000D+00
 P 1 1.00
     Exponent=  1.6000000000D+00 Coefficients=  1.0000000000D+00
 P 1 1.00
     Exponent=  4.5000000000D-01 Coefficients=  1.0000000000D+00
 D 1 1.00
     Exponent=  1.2500000000D+00 Coefficients=  1.0000000000D+00
 ****
 Centers:       3      4      5      6      7
 S 7 1.00
     Exponent=  7.8571000000D+03 Coefficients=  5.6825000000D-04
     Exponent=  1.1787000000D+03 Coefficients=  4.3915000000D-03
     Exponent=  2.6832000000D+02 Coefficients=  2.2504000000D-02
     Exponent=  7.5948000000D+01 Coefficients=  8.6653000000D-02
     Exponent=  2.4559000000D+01 Coefficients=  2.4405000000D-01
     Exponent=  8.6212000000D+00 Coefficients=  4.4148000000D-01
     Exponent=  3.1278000000D+00 Coefficients=  3.5332000000D-01
 S 7 1.00
     Exponent=  1.1787000000D+03 Coefficients= -5.9492000000D-07
     Exponent=  2.6832000000D+02 Coefficients= -6.2748000000D-05
     Exponent=  7.5948000000D+01 Coefficients= -7.5773000000D-04
     Exponent=  2.4559000000D+01 Coefficients= -7.3308000000D-03
     Exponent=  8.6212000000D+00 Coefficients= -3.8932000000D-02
     Exponent=  3.1278000000D+00 Coefficients= -8.8908000000D-02
     Exponent=  8.2202000000D-01 Coefficients=  2.1689000000D-01
 S 1 1.00
     Exponent=  3.3017000000D-01 Coefficients=  1.0000000000D+00
 S 1 1.00
     Exponent=  1.1463000000D-01 Coefficients=  1.0000000000D+00
 P 4 1.00
     Exponent=  3.3775000000D+01 Coefficients=  6.0294000000D-03
     Exponent=  7.6766000000D+00 Coefficients=  4.3228000000D-02
     Exponent=  2.2357000000D+00 Coefficients=  1.6301000000D-01
     Exponent=  7.6447000000D-01 Coefficients=  3.6504000000D-01
 P 1 1.00
     Exponent=  2.6232000000D-01 Coefficients=  1.0000000000D+00
 P 1 1.00
     Exponent=  8.4638000000D-02 Coefficients=  1.0000000000D+00
 D 1 1.00
     Exponent=  1.4000000000D+00 Coefficients=  1.0000000000D+00
 D 1 1.00
     Exponent=  4.5000000000D-01 Coefficients=  1.0000000000D+00
 F 1 1.00
     Exponent=  9.5000000000D-01 Coefficients=  1.0000000000D+00
 ****
 Centers:       2
 S 7 1.00
     Exponent=  1.1101000000D+04 Coefficients=  5.4570000000D-04
     Exponent=  1.6653000000D+03 Coefficients=  4.2181000000D-03
     Exponent=  3.7908000000D+02 Coefficients=  2.1645000000D-02
     Exponent=  1.0730000000D+02 Coefficients=  8.3776000000D-02
     Exponent=  3.4747000000D+01 Coefficients=  2.3881000000D-01
     Exponent=  1.2249000000D+01 Coefficients=  4.3994000000D-01
     Exponent=  4.4743000000D+00 Coefficients=  3.6364000000D-01
 S 7 1.00
     Exponent=  1.6653000000D+03 Coefficients= -1.5006000000D-06
     Exponent=  3.7908000000D+02 Coefficients= -5.8753000000D-05
     Exponent=  1.0730000000D+02 Coefficients= -7.7453000000D-04
     Exponent=  3.4747000000D+01 Coefficients= -7.2161000000D-03
     Exponent=  1.2249000000D+01 Coefficients= -3.9338000000D-02
     Exponent=  4.4743000000D+00 Coefficients= -9.0611000000D-02
     Exponent=  1.2404000000D+00 Coefficients=  1.9882000000D-01
 S 1 1.00
     Exponent=  4.8743000000D-01 Coefficients=  1.0000000000D+00
 S 1 1.00
     Exponent=  1.6484000000D-01 Coefficients=  1.0000000000D+00
 P 4 1.00
     Exponent=  4.7934000000D+01 Coefficients=  6.1706000000D-03
     Exponent=  1.0999000000D+01 Coefficients=  4.4260000000D-02
     Exponent=  3.2472000000D+00 Coefficients=  1.6825000000D-01
     Exponent=  1.1114000000D+00 Coefficients=  3.6848000000D-01
 P 1 1.00
     Exponent=  3.7988000000D-01 Coefficients=  1.0000000000D+00
 P 1 1.00
     Exponent=  1.2068000000D-01 Coefficients=  1.0000000000D+00
 D 1 1.00
     Exponent=  1.8000000000D+00 Coefficients=  1.0000000000D+00
 D 1 1.00
     Exponent=  5.5000000000D-01 Coefficients=  1.0000000000D+00
 F 1 1.00
     Exponent=  1.0200000000D+00 Coefficients=  1.0000000000D+00
 ****
 Centers:       1     13
 S 7 1.00
     Exponent=  1.4782000000D+04 Coefficients=  5.3519000000D-04
     Exponent=  2.2173000000D+03 Coefficients=  4.1375000000D-03
     Exponent=  5.0474000000D+02 Coefficients=  2.1245000000D-02
     Exponent=  1.4287000000D+02 Coefficients=  8.2453000000D-02
     Exponent=  4.6300000000D+01 Coefficients=  2.3671000000D-01
     Exponent=  1.6337000000D+01 Coefficients=  4.4039000000D-01
     Exponent=  5.9828000000D+00 Coefficients=  3.6465000000D-01
 S 7 1.00
     Exponent=  2.2173000000D+03 Coefficients= -1.9275000000D-06
     Exponent=  5.0474000000D+02 Coefficients= -5.7964000000D-05
     Exponent=  1.4287000000D+02 Coefficients= -7.9494000000D-04
     Exponent=  4.6300000000D+01 Coefficients= -7.3125000000D-03
     Exponent=  1.6337000000D+01 Coefficients= -4.0574000000D-02
     Exponent=  5.9828000000D+00 Coefficients= -9.1594000000D-02
     Exponent=  1.6718000000D+00 Coefficients=  2.0940000000D-01
 S 1 1.00
     Exponent=  6.4662000000D-01 Coefficients=  1.0000000000D+00
 S 1 1.00
     Exponent=  2.1669000000D-01 Coefficients=  1.0000000000D+00
 P 4 1.00
     Exponent=  6.0424000000D+01 Coefficients=  6.8949000000D-03
     Exponent=  1.3935000000D+01 Coefficients=  4.9005000000D-02
     Exponent=  4.1531000000D+00 Coefficients=  1.8255000000D-01
     Exponent=  1.4158000000D+00 Coefficients=  3.7633000000D-01
 P 1 1.00
     Exponent=  4.7549000000D-01 Coefficients=  1.0000000000D+00
 P 1 1.00
     Exponent=  1.4529000000D-01 Coefficients=  1.0000000000D+00
 D 1 1.00
     Exponent=  2.2000000000D+00 Coefficients=  1.0000000000D+00
 D 1 1.00
     Exponent=  6.5000000000D-01 Coefficients=  1.0000000000D+00
 F 1 1.00
     Exponent=  1.1000000000D+00 Coefficients=  1.0000000000D+00
 ****
 Ernie: Thresh=  0.10000D-02 Tol=  0.10000D-05 Strict=F.
 Ernie:  8 primitive shells out of 263 were deleted.
 There are   385 symmetry adapted cartesian basis functions of A   symmetry.
 There are   338 symmetry adapted basis functions of A   symmetry.
   338 basis functions,   566 primitive gaussians,   385 cartesian basis functions
    30 alpha electrons       30 beta electrons
       nuclear repulsion energy       368.9540426593 Hartrees.
 IExCor= 1009 DFT=T Ex=PBE Corr=PBE ExCW=0 ScaHFX=  0.000000
 ScaDFX=  1.000000  1.000000  1.000000  1.000000 ScalE2=  1.000000  1.000000
 IRadAn=      0 IRanWt=     -1 IRanGd=            0 ICorTp=0 IEmpDi=  4
 NAtoms=   15 NActive=   15 NUniq=   15 SFac= 1.00D+00 NAtFMM=   60 NAOKFM=F Big=F
 Integral buffers will be    131072 words long.
 Raffenetti 2 integral format.
 Two-electron integral symmetry is turned on.
 Leave Link  301 at Sat Aug 28 23:57:35 2021, MaxMem= 17179869184 cpu:         4.1
 (Enter /public3/home/sc51754/softwares/g09e01/l302.exe)
 NPDir=0 NMtPBC=     1 NCelOv=     1 NCel=       1 NClECP=     1 NCelD=      1
         NCelK=      1 NCelE2=     1 NClLst=     1 CellRange=     0.0.
 One-electron integrals computed using PRISM.
 NBasis=   338 RedAO= T EigKep=  1.53D-04  NBF=   338
 NBsUse=   338 1.00D-06 EigRej= -1.00D+00 NBFU=   338
 Precomputing XC quadrature grid using
 IXCGrd= 4 IRadAn=           0 IRanWt=          -1 IRanGd=           0 AccXCQ= 0.00D+00.
 Generated NRdTot=       0 NPtTot=           0 NUsed=           0 NTot=          32
 NSgBfM=   385   385   385   385   385 MxSgAt=    15 MxSgA2=    15.
 Leave Link  302 at Sat Aug 28 23:57:36 2021, MaxMem= 17179869184 cpu:        54.0
 (Enter /public3/home/sc51754/softwares/g09e01/l303.exe)
 DipDrv:  MaxL=1.
 Leave Link  303 at Sat Aug 28 23:57:36 2021, MaxMem= 17179869184 cpu:         3.5
 (Enter /public3/home/sc51754/softwares/g09e01/l401.exe)
 ExpMin= 7.41D-02 ExpMax= 1.48D+04 ExpMxC= 5.05D+02 IAcc=2 IRadAn=         4 AccDes= 0.00D+00
 Harris functional with IExCor= 1009 and IRadAn=       4 diagonalized for initial guess.
 HarFok:  IExCor= 1009 AccDes= 0.00D+00 IRadAn=         4 IDoV= 1 UseB2=F ITyADJ=14
 ICtDFT=  3500011 ScaDFX=  1.000000  1.000000  1.000000  1.000000
 FoFCou: FMM=F IPFlag=           0 FMFlag=      100000 FMFlg1=           0
         NFxFlg=           0 DoJE=T BraDBF=F KetDBF=T FulRan=T
         wScrn=  0.000000 ICntrl=     500 IOpCl=  0 I1Cent=   200000004 NGrid=           0
         NMat0=    1 NMatS0=      1 NMatT0=    0 NMatD0=    1 NMtDS0=    0 NMtDT0=    0
 Petite list used in FoFCou.
 Harris En= -399.768721568555    
 JPrj=0 DoOrth=F DoCkMO=F.
 Leave Link  401 at Sat Aug 28 23:57:38 2021, MaxMem= 17179869184 cpu:        61.7
 (Enter /public3/home/sc51754/softwares/g09e01/l502.exe)
 Closed shell SCF:
 Using DIIS extrapolation, IDIIS=  1040.
 Integral symmetry usage will be decided dynamically.
 Keep J ints in memory in canonical form, NReq=1670404686.
 IVT=      490665 IEndB=      490665 NGot= 17179869184 MDV= 15538220534
 LenX= 15538220534 LenY= 15538071868
 Requested convergence on RMS density matrix=1.00D-08 within 128 cycles.
 Requested convergence on MAX density matrix=1.00D-06.
 Requested convergence on             energy=1.00D-06.
 No special actions if energy rises.
 FoFCou: FMM=F IPFlag=           0 FMFlag=           0 FMFlg1=           0
         NFxFlg=           0 DoJE=F BraDBF=F KetDBF=F FulRan=T
         wScrn=  0.000000 ICntrl=     600 IOpCl=  0 I1Cent=           0 NGrid=           0
         NMat0=    1 NMatS0=  57291 NMatT0=    0 NMatD0=    1 NMtDS0=    0 NMtDT0=    0
 Symmetry not used in FoFCou.
 Integral accuracy reduced to 1.0D-05 until final iterations.

 Cycle   1  Pass 0  IDiag  1:
 E= -399.442757203854    
 DIIS: error= 2.24D-02 at cycle   1 NSaved=   1.
 NSaved= 1 IEnMin= 1 EnMin= -399.442757203854     IErMin= 1 ErrMin= 2.24D-02
 ErrMax= 2.24D-02  0.00D+00 EMaxC= 1.00D-01 BMatC= 2.34D-01 BMatP= 2.34D-01
 IDIUse=3 WtCom= 7.76D-01 WtEn= 2.24D-01
 Coeff-Com:  0.100D+01
 Coeff-En:   0.100D+01
 Coeff:      0.100D+01
 Gap=     0.094 Goal=   None    Shift=    0.000
 GapD=    0.094 DampG=0.500 DampE=0.500 DampFc=0.2500 IDamp=-1.
 Damping current iteration by 2.50D-01
 RMSDP=3.73D-03 MaxDP=1.35D-01              OVMax= 3.86D-01

 Cycle   2  Pass 0  IDiag  1:
 E= -399.507172856203     Delta-E=       -0.064415652348 Rises=F Damp=T
 DIIS: error= 1.07D-02 at cycle   2 NSaved=   2.
 NSaved= 2 IEnMin= 2 EnMin= -399.507172856203     IErMin= 2 ErrMin= 1.07D-02
 ErrMax= 1.07D-02  0.00D+00 EMaxC= 1.00D-01 BMatC= 3.20D-02 BMatP= 2.34D-01
 IDIUse=3 WtCom= 8.93D-01 WtEn= 1.07D-01
 Coeff-Com: -0.320D+00 0.132D+01
 Coeff-En:   0.393D-01 0.961D+00
 Coeff:     -0.282D+00 0.128D+01
 Gap=     0.188 Goal=   None    Shift=    0.000
 RMSDP=1.01D-03 MaxDP=3.94D-02 DE=-6.44D-02 OVMax= 3.61D-01

 Cycle   3  Pass 0  IDiag  1:
 E= -399.567601565513     Delta-E=       -0.060428709310 Rises=F Damp=F
 DIIS: error= 1.12D-02 at cycle   3 NSaved=   3.
 NSaved= 3 IEnMin= 3 EnMin= -399.567601565513     IErMin= 2 ErrMin= 1.07D-02
 ErrMax= 1.12D-02  0.00D+00 EMaxC= 1.00D-01 BMatC= 8.16D-02 BMatP= 3.20D-02
 IDIUse=2 WtCom= 0.00D+00 WtEn= 1.00D+00
 Coeff-En:   0.000D+00 0.196D+00 0.804D+00
 Coeff:      0.000D+00 0.196D+00 0.804D+00
 Gap=     0.093 Goal=   None    Shift=    0.000
 RMSDP=2.33D-03 MaxDP=1.39D-01 DE=-6.04D-02 OVMax= 5.58D-01

 Cycle   4  Pass 0  IDiag  1:
 E= -399.029464960535     Delta-E=        0.538136604978 Rises=F Damp=F
 DIIS: error= 4.33D-02 at cycle   4 NSaved=   4.
 NSaved= 4 IEnMin= 3 EnMin= -399.567601565513     IErMin= 2 ErrMin= 1.07D-02
 ErrMax= 4.33D-02  0.00D+00 EMaxC= 1.00D-01 BMatC= 6.67D-01 BMatP= 3.20D-02
 IDIUse=2 WtCom= 0.00D+00 WtEn= 1.00D+00
 Coeff-En:   0.000D+00 0.000D+00 0.816D+00 0.184D+00
 Coeff:      0.000D+00 0.000D+00 0.816D+00 0.184D+00
 Gap=     0.113 Goal=   None    Shift=    0.000
 RMSDP=1.41D-03 MaxDP=8.59D-02 DE= 5.38D-01 OVMax= 3.66D-01

 Cycle   5  Pass 0  IDiag  1:
 E= -399.591266478972     Delta-E=       -0.561801518438 Rises=F Damp=F
 DIIS: error= 9.73D-03 at cycle   5 NSaved=   5.
 NSaved= 5 IEnMin= 5 EnMin= -399.591266478972     IErMin= 5 ErrMin= 9.73D-03
 ErrMax= 9.73D-03  0.00D+00 EMaxC= 1.00D-01 BMatC= 5.65D-02 BMatP= 3.20D-02
 IDIUse=3 WtCom= 9.20D-02 WtEn= 9.08D-01
 Coeff-Com: -0.125D+00 0.320D+00 0.395D+00-0.225D-01 0.432D+00
 Coeff-En:   0.000D+00 0.000D+00 0.436D+00 0.000D+00 0.564D+00
 Coeff:     -0.115D-01 0.295D-01 0.432D+00-0.207D-02 0.552D+00
 Gap=     0.127 Goal=   None    Shift=    0.000
 RMSDP=5.76D-04 MaxDP=3.21D-02 DE=-5.62D-01 OVMax= 1.31D-01

 Cycle   6  Pass 0  IDiag  1:
 E= -399.640947224988     Delta-E=       -0.049680746015 Rises=F Damp=F
 DIIS: error= 3.17D-03 at cycle   6 NSaved=   6.
 NSaved= 6 IEnMin= 6 EnMin= -399.640947224988     IErMin= 6 ErrMin= 3.17D-03
 ErrMax= 3.17D-03  0.00D+00 EMaxC= 1.00D-01 BMatC= 2.77D-03 BMatP= 3.20D-02
 IDIUse=3 WtCom= 9.68D-01 WtEn= 3.17D-02
 Coeff-Com: -0.406D-01 0.753D-01 0.213D+00-0.388D-01 0.386D+00 0.405D+00
 Coeff-En:   0.000D+00 0.000D+00 0.000D+00 0.000D+00 0.000D+00 0.100D+01
 Coeff:     -0.394D-01 0.729D-01 0.206D+00-0.376D-01 0.374D+00 0.424D+00
 Gap=     0.126 Goal=   None    Shift=    0.000
 RMSDP=1.35D-04 MaxDP=7.79D-03 DE=-4.97D-02 OVMax= 2.38D-02

 Cycle   7  Pass 0  IDiag  1:
 E= -399.643257878912     Delta-E=       -0.002310653924 Rises=F Damp=F
 DIIS: error= 9.58D-04 at cycle   7 NSaved=   7.
 NSaved= 7 IEnMin= 7 EnMin= -399.643257878912     IErMin= 7 ErrMin= 9.58D-04
 ErrMax= 9.58D-04  0.00D+00 EMaxC= 1.00D-01 BMatC= 2.67D-04 BMatP= 2.77D-03
 IDIUse=3 WtCom= 9.90D-01 WtEn= 9.58D-03
 Coeff-Com: -0.179D-01 0.333D-01 0.104D+00-0.238D-01 0.194D+00 0.273D+00
 Coeff-Com:  0.437D+00
 Coeff-En:   0.000D+00 0.000D+00 0.000D+00 0.000D+00 0.000D+00 0.841D-01
 Coeff-En:   0.916D+00
 Coeff:     -0.177D-01 0.330D-01 0.103D+00-0.236D-01 0.192D+00 0.271D+00
 Coeff:      0.442D+00
 Gap=     0.126 Goal=   None    Shift=    0.000
 RMSDP=4.34D-05 MaxDP=2.38D-03 DE=-2.31D-03 OVMax= 1.04D-02

 Cycle   8  Pass 0  IDiag  1:
 E= -399.643495826231     Delta-E=       -0.000237947319 Rises=F Damp=F
 DIIS: error= 3.23D-04 at cycle   8 NSaved=   8.
 NSaved= 8 IEnMin= 8 EnMin= -399.643495826231     IErMin= 8 ErrMin= 3.23D-04
 ErrMax= 3.23D-04  0.00D+00 EMaxC= 1.00D-01 BMatC= 3.86D-05 BMatP= 2.67D-04
 IDIUse=3 WtCom= 9.97D-01 WtEn= 3.23D-03
 Coeff-Com:  0.127D-02 0.123D-02 0.201D-01-0.408D-02 0.221D-01 0.672D-01
 Coeff-Com:  0.296D+00 0.597D+00
 Coeff-En:   0.000D+00 0.000D+00 0.000D+00 0.000D+00 0.000D+00 0.000D+00
 Coeff-En:   0.480D-01 0.952D+00
 Coeff:      0.127D-02 0.122D-02 0.200D-01-0.406D-02 0.220D-01 0.669D-01
 Coeff:      0.295D+00 0.598D+00
 Gap=     0.126 Goal=   None    Shift=    0.000
 RMSDP=1.64D-05 MaxDP=8.99D-04 DE=-2.38D-04 OVMax= 3.92D-03

 Cycle   9  Pass 0  IDiag  1:
 E= -399.643528056092     Delta-E=       -0.000032229861 Rises=F Damp=F
 DIIS: error= 1.63D-04 at cycle   9 NSaved=   9.
 NSaved= 9 IEnMin= 9 EnMin= -399.643528056092     IErMin= 9 ErrMin= 1.63D-04
 ErrMax= 1.63D-04  0.00D+00 EMaxC= 1.00D-01 BMatC= 4.63D-06 BMatP= 3.86D-05
 IDIUse=3 WtCom= 9.98D-01 WtEn= 1.63D-03
 Coeff-Com:  0.339D-02-0.455D-02 0.673D-02-0.104D-02 0.273D-02 0.309D-01
 Coeff-Com:  0.169D+00 0.399D+00 0.394D+00
 Coeff-En:   0.000D+00 0.000D+00 0.000D+00 0.000D+00 0.000D+00 0.000D+00
 Coeff-En:   0.000D+00 0.308D-01 0.969D+00
 Coeff:      0.339D-02-0.454D-02 0.671D-02-0.103D-02 0.272D-02 0.308D-01
 Coeff:      0.169D+00 0.398D+00 0.395D+00
 Gap=     0.126 Goal=   None    Shift=    0.000
 RMSDP=5.04D-06 MaxDP=3.51D-04 DE=-3.22D-05 OVMax= 9.89D-04

 Initial convergence to 1.0D-05 achieved.  Increase integral accuracy.
 Cycle  10  Pass 1  IDiag  1:
 E= -399.643390214508     Delta-E=        0.000137841584 Rises=F Damp=F
 DIIS: error= 4.01D-05 at cycle   1 NSaved=   1.
 NSaved= 1 IEnMin= 1 EnMin= -399.643390214508     IErMin= 1 ErrMin= 4.01D-05
 ErrMax= 4.01D-05  0.00D+00 EMaxC= 1.00D-01 BMatC= 3.56D-07 BMatP= 3.56D-07
 IDIUse=1 WtCom= 1.00D+00 WtEn= 0.00D+00
 Coeff-Com:  0.100D+01
 Coeff:      0.100D+01
 Gap=     0.126 Goal=   None    Shift=    0.000
 RMSDP=5.04D-06 MaxDP=3.51D-04 DE= 1.38D-04 OVMax= 5.63D-04

 Cycle  11  Pass 1  IDiag  1:
 E= -399.643390037380     Delta-E=        0.000000177128 Rises=F Damp=F
 DIIS: error= 4.52D-05 at cycle   2 NSaved=   2.
 NSaved= 2 IEnMin= 1 EnMin= -399.643390214508     IErMin= 1 ErrMin= 4.01D-05
 ErrMax= 4.52D-05  0.00D+00 EMaxC= 1.00D-01 BMatC= 6.55D-07 BMatP= 3.56D-07
 IDIUse=1 WtCom= 1.00D+00 WtEn= 0.00D+00
 Coeff-Com:  0.598D+00 0.402D+00
 Coeff:      0.598D+00 0.402D+00
 Gap=     0.126 Goal=   None    Shift=    0.000
 RMSDP=2.25D-06 MaxDP=1.01D-04 DE= 1.77D-07 OVMax= 5.14D-04

 Cycle  12  Pass 1  IDiag  1:
 E= -399.643390513537     Delta-E=       -0.000000476157 Rises=F Damp=F
 DIIS: error= 2.21D-05 at cycle   3 NSaved=   3.
 NSaved= 3 IEnMin= 3 EnMin= -399.643390513537     IErMin= 3 ErrMin= 2.21D-05
 ErrMax= 2.21D-05  0.00D+00 EMaxC= 1.00D-01 BMatC= 1.40D-07 BMatP= 3.56D-07
 IDIUse=1 WtCom= 1.00D+00 WtEn= 0.00D+00
 Coeff-Com:  0.576D-01 0.308D+00 0.634D+00
 Coeff:      0.576D-01 0.308D+00 0.634D+00
 Gap=     0.126 Goal=   None    Shift=    0.000
 RMSDP=8.52D-07 MaxDP=4.37D-05 DE=-4.76D-07 OVMax= 1.76D-04

 Cycle  13  Pass 1  IDiag  1:
 E= -399.643390624914     Delta-E=       -0.000000111376 Rises=F Damp=F
 DIIS: error= 6.92D-06 at cycle   4 NSaved=   4.
 NSaved= 4 IEnMin= 4 EnMin= -399.643390624914     IErMin= 4 ErrMin= 6.92D-06
 ErrMax= 6.92D-06  0.00D+00 EMaxC= 1.00D-01 BMatC= 1.79D-08 BMatP= 1.40D-07
 IDIUse=1 WtCom= 1.00D+00 WtEn= 0.00D+00
 Coeff-Com: -0.648D-05 0.179D+00 0.421D+00 0.400D+00
 Coeff:     -0.648D-05 0.179D+00 0.421D+00 0.400D+00
 Gap=     0.126 Goal=   None    Shift=    0.000
 RMSDP=3.35D-07 MaxDP=2.06D-05 DE=-1.11D-07 OVMax= 5.54D-05

 Cycle  14  Pass 1  IDiag  1:
 E= -399.643390640869     Delta-E=       -0.000000015956 Rises=F Damp=F
 DIIS: error= 2.55D-06 at cycle   5 NSaved=   5.
 NSaved= 5 IEnMin= 5 EnMin= -399.643390640869     IErMin= 5 ErrMin= 2.55D-06
 ErrMax= 2.55D-06  0.00D+00 EMaxC= 1.00D-01 BMatC= 1.40D-09 BMatP= 1.79D-08
 IDIUse=1 WtCom= 1.00D+00 WtEn= 0.00D+00
 Coeff-Com: -0.368D-02 0.977D-01 0.233D+00 0.270D+00 0.403D+00
 Coeff:     -0.368D-02 0.977D-01 0.233D+00 0.270D+00 0.403D+00
 Gap=     0.126 Goal=   None    Shift=    0.000
 RMSDP=1.10D-07 MaxDP=4.84D-06 DE=-1.60D-08 OVMax= 2.71D-05

 Cycle  15  Pass 1  IDiag  1:
 E= -399.643390642017     Delta-E=       -0.000000001148 Rises=F Damp=F
 DIIS: error= 9.33D-07 at cycle   6 NSaved=   6.
 NSaved= 6 IEnMin= 6 EnMin= -399.643390642017     IErMin= 6 ErrMin= 9.33D-07
 ErrMax= 9.33D-07  0.00D+00 EMaxC= 1.00D-01 BMatC= 1.98D-10 BMatP= 1.40D-09
 IDIUse=1 WtCom= 1.00D+00 WtEn= 0.00D+00
 Coeff-Com: -0.264D-02 0.495D-01 0.118D+00 0.151D+00 0.297D+00 0.386D+00
 Coeff:     -0.264D-02 0.495D-01 0.118D+00 0.151D+00 0.297D+00 0.386D+00
 Gap=     0.126 Goal=   None    Shift=    0.000
 RMSDP=4.09D-08 MaxDP=2.17D-06 DE=-1.15D-09 OVMax= 9.98D-06

 Cycle  16  Pass 1  IDiag  1:
 E= -399.643390642261     Delta-E=       -0.000000000244 Rises=F Damp=F
 DIIS: error= 1.43D-07 at cycle   7 NSaved=   7.
 NSaved= 7 IEnMin= 7 EnMin= -399.643390642261     IErMin= 7 ErrMin= 1.43D-07
 ErrMax= 1.43D-07  0.00D+00 EMaxC= 1.00D-01 BMatC= 1.28D-11 BMatP= 1.98D-10
 IDIUse=1 WtCom= 1.00D+00 WtEn= 0.00D+00
 Coeff-Com: -0.126D-02 0.221D-01 0.523D-01 0.702D-01 0.147D+00 0.247D+00
 Coeff-Com:  0.462D+00
 Coeff:     -0.126D-02 0.221D-01 0.523D-01 0.702D-01 0.147D+00 0.247D+00
 Coeff:      0.462D+00
 Gap=     0.126 Goal=   None    Shift=    0.000
 RMSDP=9.74D-09 MaxDP=4.13D-07 DE=-2.44D-10 OVMax= 2.06D-06

 SCF Done:  E(RPBE-PBE) =  -399.643390642     A.U. after   16 cycles
            NFock= 16  Conv=0.97D-08     -V/T= 2.0025
 KE= 3.986344428787D+02 PE=-1.674035098702D+03 EE= 5.068032225220D+02
 Leave Link  502 at Sat Aug 28 23:58:04 2021, MaxMem= 17179869184 cpu:       357.4
 (Enter /public3/home/sc51754/softwares/g09e01/l801.exe)
 Range of M.O.s used for correlation:     1   338
 NBasis=   338 NAE=    30 NBE=    30 NFC=     0 NFV=     0
 NROrb=    338 NOA=    30 NOB=    30 NVA=   308 NVB=   308

 **** Warning!!: The largest alpha MO coefficient is  0.14640366D+02

 Leave Link  801 at Sat Aug 28 23:58:05 2021, MaxMem= 17179869184 cpu:         2.3
 (Enter /public3/home/sc51754/softwares/g09e01/l1101.exe)
 Using compressed storage, NAtomX=    15.
 Will process     16 centers per pass.
 Leave Link 1101 at Sat Aug 28 23:58:08 2021, MaxMem= 17179869184 cpu:       117.2
 (Enter /public3/home/sc51754/softwares/g09e01/l1102.exe)
 Symmetrizing basis deriv contribution to polar:
 IMax=3 JMax=2 DiffMx= 0.00D+00
 Leave Link 1102 at Sat Aug 28 23:58:08 2021, MaxMem= 17179869184 cpu:         6.9
 (Enter /public3/home/sc51754/softwares/g09e01/l1110.exe)
 Forming Gx(P) for the SCF density, NAtomX=    15.
 Integral derivatives from FoFJK, PRISM(SPDF).
 Do as many integral derivatives as possible in FoFJK.
 G2DrvN: MDV=   17179868960.
 G2DrvN: will do    16 centers at a time, making    1 passes.
 Calling FoFCou, ICntrl=  3507 FMM=F I1Cent=   0 AccDes= 0.00D+00.
 FoFJK:  IHMeth= 1 ICntrl=    3507 DoSepK=F KAlg= 0 I1Cent=   0 FoldK=F
 IRaf=         0 NMat=   1 IRICut=       1 DoRegI=T DoRafI=F ISym2E= 0.
 FoFCou: FMM=F IPFlag=           0 FMFlag=      100000 FMFlg1=           0
         NFxFlg=           0 DoJE=F BraDBF=F KetDBF=F FulRan=T
         wScrn=  0.000000 ICntrl=    3507 IOpCl=  0 I1Cent=           0 NGrid=           0
         NMat0=    1 NMatS0=      1 NMatT0=    0 NMatD0=    1 NMtDS0=    0 NMtDT0=    0
 Symmetry not used in FoFCou.
 End of G2Drv F.D. properties file   721 does not exist.
 End of G2Drv F.D. properties file   722 does not exist.
 End of G2Drv F.D. properties file   788 does not exist.
 Leave Link 1110 at Sat Aug 28 23:58:17 2021, MaxMem= 17179869184 cpu:       564.5
 (Enter /public3/home/sc51754/softwares/g09e01/l1002.exe)
 Minotr:  Closed shell wavefunction.
          IDoAtm=111111111111111
          Direct CPHF calculation.
          Differentiating once with respect to nuclear coordinates.
          Requested convergence is 1.0D-08 RMS, and 1.0D-07 maximum.
          Secondary convergence is 1.0D-12 RMS, and 1.0D-12 maximum.
          NewPWx=T KeepS1=F KeepF1=F KeepIn=T MapXYZ=F SortEE=F KeepMc=T.
          MDV=   17179868692 using IRadAn=       2.
 Generate precomputed XC quadrature information.
 Keep J ints in memory in canonical form, NReq=1669919891.
 FoFCou: FMM=F IPFlag=           0 FMFlag=           0 FMFlg1=           0
         NFxFlg=           0 DoJE=F BraDBF=F KetDBF=F FulRan=T
         wScrn=  0.000000 ICntrl=     600 IOpCl=  0 I1Cent=           0 NGrid=           0
         NMat0=    1 NMatS0=  57291 NMatT0=    0 NMatD0=    1 NMtDS0=    0 NMtDT0=    0
 Symmetry not used in FoFCou.
          Solving linear equations simultaneously, MaxMat=       0.
          There are    48 degrees of freedom in the 1st order CPHF.  IDoFFX=6 NUNeed=     0.
     42 vectors produced by pass  0 Test12= 1.92D-14 2.08D-09 XBig12= 1.74D-01 1.40D-01.
 AX will form    42 AO Fock derivatives at one time.
     42 vectors produced by pass  1 Test12= 1.92D-14 2.08D-09 XBig12= 7.36D-02 6.67D-02.
     42 vectors produced by pass  2 Test12= 1.92D-14 2.08D-09 XBig12= 3.69D-04 1.89D-03.
     42 vectors produced by pass  3 Test12= 1.92D-14 2.08D-09 XBig12= 8.14D-07 9.37D-05.
     42 vectors produced by pass  4 Test12= 1.92D-14 2.08D-09 XBig12= 1.03D-09 3.37D-06.
     20 vectors produced by pass  5 Test12= 1.92D-14 2.08D-09 XBig12= 3.78D-13 6.33D-08.
      2 vectors produced by pass  6 Test12= 1.92D-14 2.08D-09 XBig12= 1.06D-15 4.49D-09.
 InvSVY:  IOpt=1 It=  1 EMax= 1.44D-15
 Solved reduced A of dimension   232 with    42 vectors.
 End of Minotr F.D. properties file   721 does not exist.
 End of Minotr F.D. properties file   722 does not exist.
 End of Minotr F.D. properties file   788 does not exist.
 Leave Link 1002 at Sat Aug 28 23:58:34 2021, MaxMem= 17179869184 cpu:      1059.8
 (Enter /public3/home/sc51754/softwares/g09e01/l601.exe)
 Copying SCF densities to generalized density rwf, IOpCl= 0 IROHF=0.

 **********************************************************************

            Population analysis using the SCF density.

 **********************************************************************

 Orbital symmetries:
       Occupied  (A) (A) (A) (A) (A) (A) (A) (A) (A) (A) (A) (A)
                 (A) (A) (A) (A) (A) (A) (A) (A) (A) (A) (A) (A)
                 (A) (A) (A) (A) (A) (A)
       Virtual   (A) (A) (A) (A) (A) (A) (A) (A) (A) (A) (A) (A)
                 (A) (A) (A) (A) (A) (A) (A) (A) (A) (A) (A) (A)
                 (A) (A) (A) (A) (A) (A) (A) (A) (A) (A) (A) (A)
                 (A) (A) (A) (A) (A) (A) (A) (A) (A) (A) (A) (A)
                 (A) (A) (A) (A) (A) (A) (A) (A) (A) (A) (A) (A)
                 (A) (A) (A) (A) (A) (A) (A) (A) (A) (A) (A) (A)
                 (A) (A) (A) (A) (A) (A) (A) (A) (A) (A) (A) (A)
                 (A) (A) (A) (A) (A) (A) (A) (A) (A) (A) (A) (A)
                 (A) (A) (A) (A) (A) (A) (A) (A) (A) (A) (A) (A)
                 (A) (A) (A) (A) (A) (A) (A) (A) (A) (A) (A) (A)
                 (A) (A) (A) (A) (A) (A) (A) (A) (A) (A) (A) (A)
                 (A) (A) (A) (A) (A) (A) (A) (A) (A) (A) (A) (A)
                 (A) (A) (A) (A) (A) (A) (A) (A) (A) (A) (A) (A)
                 (A) (A) (A) (A) (A) (A) (A) (A) (A) (A) (A) (A)
                 (A) (A) (A) (A) (A) (A) (A) (A) (A) (A) (A) (A)
                 (A) (A) (A) (A) (A) (A) (A) (A) (A) (A) (A) (A)
                 (A) (A) (A) (A) (A) (A) (A) (A) (A) (A) (A) (A)
                 (A) (A) (A) (A) (A) (A) (A) (A) (A) (A) (A) (A)
                 (A) (A) (A) (A) (A) (A) (A) (A) (A) (A) (A) (A)
                 (A) (A) (A) (A) (A) (A) (A) (A) (A) (A) (A) (A)
                 (A) (A) (A) (A) (A) (A) (A) (A) (A) (A) (A) (A)
                 (A) (A) (A) (A) (A) (A) (A) (A) (A) (A) (A) (A)
                 (A) (A) (A) (A) (A) (A) (A) (A) (A) (A) (A) (A)
                 (A) (A) (A) (A) (A) (A) (A) (A) (A) (A) (A) (A)
                 (A) (A) (A) (A) (A) (A) (A) (A) (A) (A) (A) (A)
                 (A) (A) (A) (A) (A) (A) (A) (A)
 The electronic state is 1-A.
 Alpha  occ. eigenvalues --  -18.76345 -18.71496 -14.00433  -9.97191  -9.93660
 Alpha  occ. eigenvalues --   -9.90963  -9.89593  -9.89335  -0.97688  -0.91466
 Alpha  occ. eigenvalues --   -0.85981  -0.74151  -0.68348  -0.59515  -0.56415
 Alpha  occ. eigenvalues --   -0.51626  -0.50013  -0.45217  -0.43745  -0.41474
 Alpha  occ. eigenvalues --   -0.39415  -0.38283  -0.35771  -0.34153  -0.32576
 Alpha  occ. eigenvalues --   -0.29592  -0.27404  -0.26482  -0.22567  -0.20011
 Alpha virt. eigenvalues --   -0.07393  -0.03695  -0.00979   0.00685   0.02700
 Alpha virt. eigenvalues --    0.04442   0.06480   0.08367   0.08879   0.10158
 Alpha virt. eigenvalues --    0.12226   0.13529   0.14827   0.15777   0.16416
 Alpha virt. eigenvalues --    0.17172   0.18418   0.18771   0.20986   0.22137
 Alpha virt. eigenvalues --    0.23823   0.24846   0.25793   0.25872   0.27242
 Alpha virt. eigenvalues --    0.27352   0.28222   0.28367   0.30118   0.30594
 Alpha virt. eigenvalues --    0.32096   0.33222   0.35079   0.35905   0.37016
 Alpha virt. eigenvalues --    0.38470   0.40335   0.40948   0.41923   0.43878
 Alpha virt. eigenvalues --    0.46986   0.48894   0.49940   0.51324   0.53305
 Alpha virt. eigenvalues --    0.54408   0.57548   0.58039   0.59287   0.59952
 Alpha virt. eigenvalues --    0.60936   0.62720   0.64926   0.66826   0.70818
 Alpha virt. eigenvalues --    0.72138   0.73926   0.76183   0.77903   0.79748
 Alpha virt. eigenvalues --    0.83431   0.86036   0.86914   0.88050   0.88627
 Alpha virt. eigenvalues --    0.91602   0.92666   0.95720   0.97830   1.01147
 Alpha virt. eigenvalues --    1.02127   1.04150   1.05307   1.07379   1.09242
 Alpha virt. eigenvalues --    1.09894   1.10455   1.11724   1.12985   1.15247
 Alpha virt. eigenvalues --    1.16298   1.18783   1.19754   1.20254   1.21437
 Alpha virt. eigenvalues --    1.24484   1.25192   1.27795   1.31437   1.35658
 Alpha virt. eigenvalues --    1.36208   1.38383   1.40362   1.42525   1.44005
 Alpha virt. eigenvalues --    1.44848   1.46594   1.47731   1.51841   1.52705
 Alpha virt. eigenvalues --    1.54681   1.55212   1.57307   1.60193   1.61716
 Alpha virt. eigenvalues --    1.62412   1.64332   1.66665   1.69291   1.71478
 Alpha virt. eigenvalues --    1.74395   1.76977   1.78114   1.79169   1.80770
 Alpha virt. eigenvalues --    1.81875   1.83260   1.87221   1.90461   1.93441
 Alpha virt. eigenvalues --    1.94696   1.97925   1.98178   1.99771   2.02598
 Alpha virt. eigenvalues --    2.04512   2.08300   2.09137   2.12290   2.13746
 Alpha virt. eigenvalues --    2.15279   2.17898   2.20048   2.21470   2.25283
 Alpha virt. eigenvalues --    2.27565   2.36969   2.49152   2.54232   2.66132
 Alpha virt. eigenvalues --    2.74774   2.77964   2.81441   2.86185   2.86747
 Alpha virt. eigenvalues --    3.02590   3.06494   3.07038   3.08071   3.11443
 Alpha virt. eigenvalues --    3.13769   3.15100   3.17018   3.21473   3.22522
 Alpha virt. eigenvalues --    3.25737   3.26808   3.31899   3.32973   3.35484
 Alpha virt. eigenvalues --    3.35713   3.39102   3.41007   3.45977   3.48020
 Alpha virt. eigenvalues --    3.48436   3.50790   3.51587   3.54008   3.54598
 Alpha virt. eigenvalues --    3.54891   3.58720   3.61120   3.63514   3.67225
 Alpha virt. eigenvalues --    3.69072   3.69398   3.74398   3.78198   3.80560
 Alpha virt. eigenvalues --    3.84493   3.84803   3.87653   3.88518   3.94197
 Alpha virt. eigenvalues --    3.94775   3.96693   3.97230   3.98368   4.00305
 Alpha virt. eigenvalues --    4.01066   4.01580   4.04379   4.05557   4.07049
 Alpha virt. eigenvalues --    4.08060   4.09436   4.11413   4.11909   4.12338
 Alpha virt. eigenvalues --    4.13935   4.15740   4.17285   4.18793   4.21607
 Alpha virt. eigenvalues --    4.22109   4.23099   4.24549   4.25048   4.25594
 Alpha virt. eigenvalues --    4.27544   4.30513   4.31951   4.32462   4.34251
 Alpha virt. eigenvalues --    4.36365   4.36659   4.38096   4.38718   4.40430
 Alpha virt. eigenvalues --    4.42288   4.43782   4.46474   4.46594   4.49418
 Alpha virt. eigenvalues --    4.52360   4.53483   4.56560   4.59415   4.64805
 Alpha virt. eigenvalues --    4.65780   4.68906   4.72102   4.73741   4.76059
 Alpha virt. eigenvalues --    4.77299   4.79719   4.82588   4.84060   4.87099
 Alpha virt. eigenvalues --    4.90502   4.93490   4.94133   4.95964   4.99796
 Alpha virt. eigenvalues --    5.02322   5.05702   5.08185   5.10348   5.13574
 Alpha virt. eigenvalues --    5.15436   5.17651   5.21068   5.23808   5.25506
 Alpha virt. eigenvalues --    5.26393   5.31097   5.31266   5.32380   5.37453
 Alpha virt. eigenvalues --    5.39118   5.41173   5.42012   5.44569   5.46639
 Alpha virt. eigenvalues --    5.50714   5.51812   5.52924   5.58157   5.63701
 Alpha virt. eigenvalues --    5.64523   5.70169   5.70324   5.82286   5.85820
 Alpha virt. eigenvalues --    5.89738   5.95092   5.99410   6.00107   6.04550
 Alpha virt. eigenvalues --    6.15040   6.15765   6.20774   6.22927   6.32081
 Alpha virt. eigenvalues --    6.33740   6.35886   6.40023   6.48520   6.50742
 Alpha virt. eigenvalues --    6.51638   6.58003   6.64098   6.72346   6.91604
 Alpha virt. eigenvalues --    6.97296   7.03134   7.15633   7.37136   7.69419
 Alpha virt. eigenvalues --    9.22007  11.89798  12.91439  15.07101  16.79066
 Alpha virt. eigenvalues --   18.28030  18.36472  22.39219
          Condensed to atoms (all electrons):
               1          2          3          4          5          6
     1  O    8.212506  -0.100752   0.409721  -0.071092   0.005330   0.008348
     2  N   -0.100752   6.727402   0.384070  -0.017024   0.473240  -0.027848
     3  C    0.409721   0.384070   4.457453   0.524705  -0.063891  -0.056929
     4  C   -0.071092  -0.017024   0.524705   4.833983  -0.045570   0.526626
     5  C    0.005330   0.473240  -0.063891  -0.045570   4.617939  -0.068064
     6  C    0.008348  -0.027848  -0.056929   0.526626  -0.068064   4.749547
     7  C    0.001062  -0.039405  -0.033419  -0.056800   0.547246   0.489403
     8  H    0.197789   0.005998  -0.014590   0.004684  -0.000337  -0.001146
     9  H    0.007435   0.008261  -0.037685   0.426964  -0.001216  -0.033223
    10  H   -0.000936  -0.041727   0.002889  -0.002165   0.428933   0.008435
    11  H   -0.000688  -0.001794   0.009075  -0.031248   0.007916   0.416670
    12  H    0.000069   0.006134  -0.001364   0.007041  -0.024672  -0.033926
    13  O   -0.146759  -0.181734  -0.002356   0.000130  -0.002604   0.000587
    14  H    0.008810   0.007955   0.001419   0.000478  -0.000400  -0.000101
    15  H    0.007572   0.173723  -0.016502   0.002959  -0.003764  -0.001522
               7          8          9         10         11         12
     1  O    0.001062   0.197789   0.007435  -0.000936  -0.000688   0.000069
     2  N   -0.039405   0.005998   0.008261  -0.041727  -0.001794   0.006134
     3  C   -0.033419  -0.014590  -0.037685   0.002889   0.009075  -0.001364
     4  C   -0.056800   0.004684   0.426964  -0.002165  -0.031248   0.007041
     5  C    0.547246  -0.000337  -0.001216   0.428933   0.007916  -0.024672
     6  C    0.489403  -0.001146  -0.033223   0.008435   0.416670  -0.033926
     7  C    4.890674   0.000587   0.007700  -0.053330  -0.039811   0.418333
     8  H    0.000587   0.357866   0.000429  -0.000000   0.000016  -0.000035
     9  H    0.007700   0.000429   0.570137   0.000351  -0.007780  -0.000285
    10  H   -0.053330  -0.000000   0.000351   0.606439  -0.000630  -0.002961
    11  H   -0.039811   0.000016  -0.007780  -0.000630   0.596836  -0.006945
    12  H    0.418333  -0.000035  -0.000285  -0.002961  -0.006945   0.590419
    13  O   -0.001973   0.225192   0.000433   0.000856  -0.000034   0.000082
    14  H    0.000303  -0.012339  -0.000072  -0.000378   0.000008  -0.000012
    15  H    0.002476  -0.020897  -0.000420  -0.003975   0.000148  -0.000041
              13         14         15
     1  O   -0.146759   0.008810   0.007572
     2  N   -0.181734   0.007955   0.173723
     3  C   -0.002356   0.001419  -0.016502
     4  C    0.000130   0.000478   0.002959
     5  C   -0.002604  -0.000400  -0.003764
     6  C    0.000587  -0.000101  -0.001522
     7  C   -0.001973   0.000303   0.002476
     8  H    0.225192  -0.012339  -0.020897
     9  H    0.000433  -0.000072  -0.000420
    10  H    0.000856  -0.000378  -0.003975
    11  H   -0.000034   0.000008   0.000148
    12  H    0.000082  -0.000012  -0.000041
    13  O    7.876769   0.342032   0.255037
    14  H    0.342032   0.449209  -0.012222
    15  H    0.255037  -0.012222   0.386285
 Mulliken charges:
               1
     1  O   -0.538415
     2  N   -0.376501
     3  C    0.437404
     4  C   -0.103673
     5  C    0.129914
     6  C    0.023143
     7  C   -0.133048
     8  H    0.256784
     9  H    0.058970
    10  H    0.058200
    11  H    0.058260
    12  H    0.048164
    13  O   -0.365657
    14  H    0.215312
    15  H    0.231143
 Sum of Mulliken charges =  -0.00000
 Mulliken charges with hydrogens summed into heavy atoms:
               1
     1  O   -0.538415
     2  N   -0.376501
     3  C    0.437404
     4  C   -0.044703
     5  C    0.188113
     6  C    0.081403
     7  C   -0.084884
    13  O    0.337582
 APT charges:
               1
     1  O   -0.369990
     2  N   -0.410998
     3  C    0.008403
     4  C   -0.495102
     5  C   -0.349088
     6  C   -0.383098
     7  C   -0.482475
     8  H    0.267386
     9  H    0.465781
    10  H    0.448037
    11  H    0.589475
    12  H    0.603186
    13  O   -0.693549
    14  H    0.650525
    15  H    0.151508
 Sum of APT charges =  -0.00000
 APT charges with hydrogens summed into heavy atoms:
               1
     1  O   -0.369990
     2  N   -0.410998
     3  C    0.008403
     4  C   -0.029321
     5  C    0.098948
     6  C    0.206377
     7  C    0.120711
    13  O    0.375870
 Electronic spatial extent (au):  <R**2>=            960.4919
 Charge=             -0.0000 electrons
 Dipole moment (field-independent basis, Debye):
    X=             -1.3950    Y=             -2.2954    Z=              1.3658  Tot=              3.0133
 Quadrupole moment (field-independent basis, Debye-Ang):
   XX=            -42.0100   YY=            -45.9495   ZZ=            -49.2695
   XY=             -4.5972   XZ=              4.6488   YZ=             -1.4592
 Traceless Quadrupole moment (field-independent basis, Debye-Ang):
   XX=              3.7330   YY=             -0.2065   ZZ=             -3.5265
   XY=             -4.5972   XZ=              4.6488   YZ=             -1.4592
 Octapole moment (field-independent basis, Debye-Ang**2):
  XXX=             15.1698  YYY=             -9.4829  ZZZ=              1.1226  XYY=             -3.4398
  XXY=             -6.6597  XXZ=             15.1305  XZZ=             12.7765  YZZ=             -0.9175
  YYZ=              1.5309  XYZ=             -4.9347
 Hexadecapole moment (field-independent basis, Debye-Ang**3):
 XXXX=           -732.1361 YYYY=           -348.0454 ZZZZ=            -54.4498 XXXY=            -18.5554
 XXXZ=             48.4851 YYYX=            -17.7626 YYYZ=             -1.6658 ZZZX=              4.7854
 ZZZY=             -1.7252 XXYY=           -190.7404 XXZZ=           -147.8030 YYZZ=            -76.0690
 XXYZ=            -15.0420 YYXZ=              5.2733 ZZXY=             -4.7892
 N-N= 3.689540426593D+02 E-N=-1.674035067361D+03  KE= 3.986344428787D+02
  Exact polarizability:   0.000   0.000   0.000   0.000   0.000   0.000
 Approx polarizability: 205.622  17.531 183.520   1.304  -0.868  76.405
 No NMR shielding tensors so no spin-rotation constants.
 Leave Link  601 at Sat Aug 28 23:58:35 2021, MaxMem= 17179869184 cpu:        53.4
 (Enter /public3/home/sc51754/softwares/g09e01/l701.exe)
 Compute integral second derivatives.
 ... and contract with generalized density number  0.
 Leave Link  701 at Sat Aug 28 23:58:37 2021, MaxMem= 17179869184 cpu:        88.0
 (Enter /public3/home/sc51754/softwares/g09e01/l702.exe)
 L702 exits ... SP integral derivatives will be done elsewhere.
 Leave Link  702 at Sat Aug 28 23:58:37 2021, MaxMem= 17179869184 cpu:         0.5
 (Enter /public3/home/sc51754/softwares/g09e01/l703.exe)
 Compute integral second derivatives, UseDBF=F ICtDFT=           0.
 Integral derivatives from FoFJK, PRISM(SPDF).
 Calling FoFJK, ICntrl=    100547 FMM=F ISym2X=0 I1Cent= 0 IOpClX= 0 NMat=1 NMatS=1 NMatT=0.
 FoFJK:  IHMeth= 1 ICntrl=  100547 DoSepK=F KAlg= 0 I1Cent=   0 FoldK=F
 IRaf=         0 NMat=   1 IRICut=       1 DoRegI=T DoRafI=F ISym2E= 0.
 FoFCou: FMM=F IPFlag=           0 FMFlag=      100000 FMFlg1=         800
         NFxFlg=           0 DoJE=F BraDBF=F KetDBF=F FulRan=T
         wScrn=  0.000000 ICntrl=  100547 IOpCl=  0 I1Cent=           0 NGrid=           0
         NMat0=    1 NMatS0=      1 NMatT0=    0 NMatD0=    1 NMtDS0=    0 NMtDT0=    0
 Symmetry not used in FoFCou.
 Leave Link  703 at Sat Aug 28 23:58:54 2021, MaxMem= 17179869184 cpu:      1037.6
 (Enter /public3/home/sc51754/softwares/g09e01/l716.exe)
 Dipole        =-5.48822071D-01-9.03078679D-01 5.37332828D-01
 Polarizability= 0.00000000D+00 0.00000000D+00 0.00000000D+00
                 0.00000000D+00 0.00000000D+00 0.00000000D+00
 ***** Axes restored to original set *****
 -------------------------------------------------------------------
 Center     Atomic                   Forces (Hartrees/Bohr)
 Number     Number              X              Y              Z
 -------------------------------------------------------------------
      1        8          -0.028716098   -0.008029672    0.000274937
      2        7          -0.038489235   -0.012757525    0.001101973
      3        6           0.038126359    0.050429356   -0.000076088
      4        6          -0.015337799   -0.006820348   -0.000052369
      5        6          -0.007866918   -0.008432819    0.000113427
      6        6           0.002545524    0.008376562   -0.000020011
      7        6           0.005179594   -0.006364402   -0.000118722
      8        1          -0.018604834    0.020027872    0.001143742
      9        1           0.001675396   -0.001029244    0.000007434
     10        1          -0.000173082    0.000184316   -0.000024648
     11        1          -0.000575177   -0.000222973    0.000009792
     12        1           0.000840621   -0.000388114   -0.000027289
     13        8           0.069232954   -0.030095123    0.001516562
     14        1           0.006677925    0.001814759    0.000133750
     15        1          -0.014515231   -0.006692645   -0.003982492
 -------------------------------------------------------------------
 Cartesian Forces:  Max     0.069232954 RMS     0.017552637
 FormGI is forming the generalized inverse of G from B-inverse, IUseBI=4.
 Leave Link  716 at Sat Aug 28 23:58:54 2021, MaxMem= 17179869184 cpu:         8.5
 (Enter /public3/home/sc51754/softwares/g09e01/l103.exe)

 GradGradGradGradGradGradGradGradGradGradGradGradGradGradGradGradGradGrad
 Berny optimization.
 Red2BG is reusing G-inverse.
 Internal  Forces:  Max     0.034091465 RMS     0.009077082
 Search for a saddle point.
 Step number   1 out of a maximum of  100
 All quantities printed in internal units (Hartrees-Bohrs-Radians)
 Second derivative matrix not updated -- analytic derivatives used.
 ITU=  0
 LST/QST climbing along tangent vector
     Eigenvalues ---    0.00202   0.00384   0.00531   0.01061   0.01112
     Eigenvalues ---    0.01147   0.01573   0.01717   0.01960   0.02172
     Eigenvalues ---    0.02525   0.02879   0.03180   0.04688   0.05149
     Eigenvalues ---    0.05650   0.07291   0.09721   0.10225   0.11363
     Eigenvalues ---    0.12374   0.14230   0.18500   0.18888   0.20263
     Eigenvalues ---    0.23932   0.26958   0.29293   0.33030   0.33641
     Eigenvalues ---    0.34308   0.34835   0.35012   0.39932   0.41404
     Eigenvalues ---    0.43919   0.46100   0.50584   0.513691000.00000
     Eigenvalues --- 1000.000001000.000001000.000001000.000001000.00000
     Eigenvalues --- 1000.000001000.000001000.000001000.000001000.00000
     Eigenvalues --- 1000.000001000.000001000.000001000.000001000.00000
     Eigenvalues --- 1000.000001000.000001000.000001000.000001000.00000
     Eigenvalues --- 1000.000001000.000001000.000001000.000001000.00000
     Eigenvalues --- 1000.000001000.000001000.000001000.000001000.00000
     Eigenvalues --- 1000.000001000.000001000.000001000.000001000.00000
     Eigenvalues --- 1000.000001000.000001000.000001000.000001000.00000
     Eigenvalues --- 1000.00000
 Eigenvectors required to have negative eigenvalues:
                          D33       D38       D34       D3        D36
   1                    0.59642  -0.46626   0.34335  -0.31626  -0.20887
                          A22       D37       A24       D14       D16
   1                   -0.20483  -0.19643  -0.17055   0.10626   0.08657
 Eigenvalue     1 is   2.02D-03 should be less than     0.000000 Eigenvector:
                          D33       D38       D34       D3        D36
   1                    0.59642  -0.46626   0.34335  -0.31626  -0.20887
                          A22       D37       A24       D14       D16
   1                   -0.20483  -0.19643  -0.17055   0.10626   0.08657
 QST in optimization variable space.
 Eigenvectors 1 and   5 swapped, overlap=  1.0000
                        Tangent   TS vect  // Eig F  Eigenval
   1         R1        -0.05621   0.05621   0.00232   0.01112
   2         R2         0.42306  -0.42306  -0.00002   0.00384
   3         R3         0.02867  -0.02867   0.00011   0.00531
   4         R4         0.00650  -0.00650   0.00058   0.01061
   5         R5        -0.48064   0.48064   0.00023   0.00202
   6         R6         0.01622  -0.01622  -0.00083   0.01147
   7         R7        -0.00712   0.00712   0.00002   0.01573
   8         R8        -0.00009   0.00009   0.00005   0.01717
   9         R9        -0.00841   0.00841   0.00001   0.01960
  10         R10       -0.00157   0.00157  -0.00002   0.02172
  11         R11        0.00864  -0.00864   0.00002   0.02525
  12         R12        0.00041  -0.00041  -0.00015   0.02879
  13         R13       -0.00089   0.00089   0.00028   0.03180
  14         R14       -0.46039   0.46039  -0.00242   0.04688
  15         R15        0.02958  -0.02958   0.00730   0.05149
  16         R16       -0.00052   0.00052   0.00058   0.05650
  17         R17        0.47382  -0.47382   0.00175   0.07291
  18         A1        -0.01758   0.01758  -0.00029   0.09721
  19         A2         0.02773  -0.02773   0.00079   0.10225
  20         A3         0.04133  -0.04133  -0.00064   0.11363
  21         A4        -0.06911   0.06911   0.00031   0.12374
  22         A5        -0.00067   0.00067  -0.00876   0.14230
  23         A6         0.03783  -0.03783  -0.00505   0.18500
  24         A7        -0.03716   0.03716   0.00953   0.18888
  25         A8         0.01324  -0.01324   0.00142   0.20263
  26         A9        -0.01217   0.01217   0.01465   0.23932
  27         A10       -0.00108   0.00108   0.02815   0.26958
  28         A11       -0.01168   0.01168  -0.01371   0.29293
  29         A12        0.00084  -0.00084  -0.00623   0.33030
  30         A13        0.01084  -0.01084  -0.00154   0.33641
  31         A14        0.00690  -0.00690  -0.00170   0.34308
  32         A15       -0.00174   0.00174  -0.00073   0.34835
  33         A16       -0.00516   0.00516   0.00190   0.35012
  34         A17        0.00097  -0.00097  -0.00722   0.39932
  35         A18       -0.00135   0.00135  -0.00100   0.41404
  36         A19        0.00038  -0.00038   0.00824   0.43919
  37         A20       -0.03926   0.03926   0.00221   0.46100
  38         A21       -0.24037   0.24037   0.00208   0.50584
  39         A22       -0.07386   0.07386   0.00581   0.51369
  40         A23        0.01397  -0.01397   0.000001000.00000
  41         A24        0.10706  -0.10706  -0.000001000.00000
  42         A25        0.21700  -0.21700   0.000001000.00000
  43         A26        0.00172  -0.00172  -0.000001000.00000
  44         D1         0.00729  -0.00729  -0.000001000.00000
  45         D2         0.00774  -0.00774  -0.000001000.00000
  46         D3        -0.00920   0.00920  -0.000001000.00000
  47         D4        -0.01291   0.01291  -0.000001000.00000
  48         D5         0.00160  -0.00160   0.000001000.00000
  49         D6         0.00117  -0.00117  -0.000001000.00000
  50         D7         0.00705  -0.00705   0.000001000.00000
  51         D8         0.00662  -0.00662  -0.000001000.00000
  52         D9        -0.00064   0.00064  -0.000001000.00000
  53         D10       -0.00076   0.00076   0.000001000.00000
  54         D11       -0.00717   0.00717   0.000001000.00000
  55         D12       -0.00729   0.00729  -0.000001000.00000
  56         D13       -0.01615   0.01615   0.000001000.00000
  57         D14       -0.00993   0.00993  -0.000001000.00000
  58         D15       -0.01024   0.01024  -0.000001000.00000
  59         D16       -0.00402   0.00402  -0.000001000.00000
  60         D17       -0.00140   0.00140   0.000001000.00000
  61         D18       -0.00103   0.00103   0.000001000.00000
  62         D19       -0.00096   0.00096  -0.000001000.00000
  63         D20       -0.00059   0.00059  -0.000001000.00000
  64         D21        0.00021  -0.00021   0.000001000.00000
  65         D22        0.00035  -0.00035   0.000001000.00000
  66         D23       -0.00018   0.00018   0.000001000.00000
  67         D24       -0.00005   0.00005  -0.000001000.00000
  68         D25       -0.00013   0.00013   0.000001000.00000
  69         D26       -0.00010   0.00010   0.000001000.00000
  70         D27        0.00000  -0.00000  -0.000001000.00000
  71         D28        0.00003  -0.00003  -0.000001000.00000
  72         D29        0.00032  -0.00032   0.000001000.00000
  73         D30        0.00029  -0.00029  -0.000001000.00000
  74         D31        0.00019  -0.00019  -0.000001000.00000
  75         D32        0.00016  -0.00016  -0.000001000.00000
  76         D33       -0.09542   0.09542  -0.000001000.00000
  77         D34        0.01221  -0.01221   0.000001000.00000
  78         D35        0.01985  -0.01985  -0.000001000.00000
  79         D36        0.03798  -0.03798  -0.000001000.00000
  80         D37        0.01580  -0.01580  -0.000001000.00000
  81         D38       -0.03509   0.03509  -0.000001000.00000
 RFO step:  Lambda0=1.159025965D-02 Lambda=-7.12559928D-03.
 Linear search not attempted -- option 19 set.
 Maximum step size (   0.300) exceeded in Quadratic search.
    -- Step size scaled by   0.061
 Iteration  1 RMS(Cart)=  0.02351414 RMS(Int)=  0.00124677
 Iteration  2 RMS(Cart)=  0.00067935 RMS(Int)=  0.00047068
 Iteration  3 RMS(Cart)=  0.00000060 RMS(Int)=  0.00047068
 ITry= 1 IFail=0 DXMaxC= 1.49D-01 DCOld= 1.00D+10 DXMaxT= 3.00D-01 DXLimC= 3.00D+00 Rises=F
 Variable       Old X    -DE/DX   Delta X   Delta X   Delta X     New X
                                 (Linear)    (Quad)   (Total)
    R1        2.53551  -0.02421   0.00000  -0.01997  -0.02052   2.51499
    R2        2.39343   0.01618   0.00000   0.12701   0.12722   2.52065
    R3        2.54145   0.02361   0.00000   0.01025   0.00966   2.55110
    R4        2.54333   0.00552   0.00000   0.00200   0.00200   2.54533
    R5        2.39910   0.03085   0.00000  -0.14410  -0.14395   2.25515
    R6        2.66203   0.00801   0.00000   0.00565   0.00563   2.66766
    R7        2.61821  -0.00158   0.00000  -0.00246  -0.00246   2.61575
    R8        2.05736  -0.00112   0.00000  -0.00003  -0.00003   2.05732
    R9        2.62355  -0.00596   0.00000  -0.00294  -0.00292   2.62064
   R10        2.06446  -0.00021   0.00000  -0.00053  -0.00053   2.06393
   R11        2.64981   0.00721   0.00000   0.00301   0.00302   2.65283
   R12        2.06124   0.00043   0.00000   0.00015   0.00015   2.06139
   R13        2.05727  -0.00043   0.00000  -0.00031  -0.00031   2.05696
   R14        2.07870   0.02919   0.00000  -0.13434  -0.13578   1.94292
   R15        3.05014   0.01210   0.00000   0.00851   0.01124   3.06138
   R16        1.83152   0.00274   0.00000  -0.00015  -0.00015   1.83137
   R17        2.07870   0.03409   0.00000   0.14853   0.14693   2.22563
    A1        1.81329   0.00931   0.00000  -0.00462  -0.00478   1.80851
    A2        2.06455   0.00730   0.00000   0.00997   0.00996   2.07451
    A3        1.83576  -0.00515   0.00000   0.01263   0.01252   1.84828
    A4        2.38282  -0.00216   0.00000  -0.02262  -0.02250   2.36032
    A5        2.07506   0.00439   0.00000  -0.00051  -0.00115   2.07391
    A6        2.07146   0.00944   0.00000   0.01378   0.01418   2.08564
    A7        2.13666  -0.01383   0.00000  -0.01326  -0.01302   2.12363
    A8        2.06439   0.00412   0.00000   0.00465   0.00456   2.06895
    A9        2.08254  -0.00372   0.00000  -0.00428  -0.00423   2.07831
   A10        2.13625  -0.00040   0.00000  -0.00037  -0.00032   2.13592
   A11        2.15420  -0.00294   0.00000  -0.00414  -0.00419   2.15002
   A12        2.01910   0.00162   0.00000   0.00038   0.00040   2.01950
   A13        2.10988   0.00132   0.00000   0.00376   0.00378   2.11367
   A14        2.08948   0.00348   0.00000   0.00252   0.00246   2.09194
   A15        2.09250  -0.00129   0.00000  -0.00066  -0.00063   2.09187
[...]
 ! A16   A(7,6,11)             119.7512         -DE/DX =    0.0                 !
 ! A17   A(5,7,6)              117.8781         -DE/DX =    0.0                 !
 ! A18   A(5,7,12)             120.4755         -DE/DX =    0.0                 !
 ! A19   A(6,7,12)             121.6463         -DE/DX =    0.0                 !
 ! A20   A(1,8,13)             158.5588         -DE/DX =    0.0                 !
 ! A21   A(1,8,15)             109.3986         -DE/DX =    0.0                 !
 ! A22   A(8,13,14)            110.5211         -DE/DX =    0.0                 !
 ! A23   A(8,13,15)             81.5987         -DE/DX =    0.0                 !
 ! A24   A(14,13,15)           112.1119         -DE/DX =    0.0                 !
 ! A25   A(2,15,8)             101.4858         -DE/DX =    0.0                 !
 ! A26   A(2,15,13)            150.3286         -DE/DX =    0.0                 !
 ! D1    D(8,1,3,2)             -0.1401         -DE/DX =    0.0                 !
 ! D2    D(8,1,3,4)            179.9412         -DE/DX =    0.0                 !
 ! D3    D(3,1,8,13)             5.869          -DE/DX =    0.0                 !
 ! D4    D(3,1,8,15)            -0.5635         -DE/DX =    0.0                 !
 ! D5    D(5,2,3,1)           -179.8409         -DE/DX =    0.0                 !
 ! D6    D(5,2,3,4)              0.0817         -DE/DX =    0.0                 !
 ! D7    D(15,2,3,1)             0.9549         -DE/DX =    0.0                 !
 ! D8    D(15,2,3,4)          -179.1225         -DE/DX =    0.0                 !
 ! D9    D(3,2,5,7)             -0.0328         -DE/DX =    0.0                 !
 ! D10   D(3,2,5,10)           179.7705         -DE/DX =    0.0                 !
 ! D11   D(15,2,5,7)           178.9315         -DE/DX =    0.0                 !
 ! D12   D(15,2,5,10)           -1.2652         -DE/DX =    0.0                 !
 ! D13   D(3,2,15,8)            -1.0734         -DE/DX =    0.0                 !
 ! D14   D(3,2,15,13)           -7.5344         -DE/DX =    0.0                 !
 ! D15   D(5,2,15,8)           179.8445         -DE/DX =    0.0                 !
 ! D16   D(5,2,15,13)          173.3834         -DE/DX =    0.0                 !
 ! D17   D(1,3,4,6)            179.8293         -DE/DX =    0.0                 !
 ! D18   D(1,3,4,9)             -0.0358         -DE/DX =    0.0                 !
 ! D19   D(2,3,4,6)             -0.0889         -DE/DX =    0.0                 !
 ! D20   D(2,3,4,9)           -179.954          -DE/DX =    0.0                 !
 ! D21   D(3,4,6,7)              0.049          -DE/DX =    0.0                 !
 ! D22   D(3,4,6,11)          -179.8941         -DE/DX =    0.0                 !
 ! D23   D(9,4,6,7)            179.9085         -DE/DX =    0.0                 !
 ! D24   D(9,4,6,11)            -0.0346         -DE/DX =    0.0                 !
 ! D25   D(2,5,7,6)             -0.0096         -DE/DX =    0.0                 !
 ! D26   D(2,5,7,12)           179.8728         -DE/DX =    0.0                 !
 ! D27   D(10,5,7,6)          -179.8006         -DE/DX =    0.0                 !
 ! D28   D(10,5,7,12)            0.0818         -DE/DX =    0.0                 !
 ! D29   D(4,6,7,5)              0.0002         -DE/DX =    0.0                 !
 ! D30   D(4,6,7,12)          -179.8808         -DE/DX =    0.0                 !
 ! D31   D(11,6,7,5)           179.9432         -DE/DX =    0.0                 !
 ! D32   D(11,6,7,12)            0.0623         -DE/DX =    0.0                 !
 ! D33   D(1,8,13,14)         -118.5578         -DE/DX =    0.0                 !
 ! D34   D(1,8,13,15)           -8.0093         -DE/DX =    0.0                 !
 ! D35   D(1,8,15,2)             1.1325         -DE/DX =    0.0                 !
 ! D36   D(8,13,14,15)          89.0655         -DE/DX =    0.0                 !
 ! D37   D(8,13,15,2)            8.392          -DE/DX =    0.0                 !
 ! D38   D(14,13,15,2)         117.205          -DE/DX =    0.0                 !
 --------------------------------------------------------------------------------
 GradGradGradGradGradGradGradGradGradGradGradGradGradGradGradGradGradGrad

 Leave Link  103 at Sun Aug 29 00:09:10 2021, MaxMem= 17179869184 cpu:        52.3
 (Enter /public3/home/sc51754/softwares/g09e01/l9999.exe)
 1\1\GINC-V1809\Freq\RPBEPBE\Gen\C5H7N1O2\SC51754\29-Aug-2021\0\\#P Geo
 m=AllCheck Guess=TCheck SCRF=Check GenChk RPBEPBE/ChkBas Freq\\HY_H2O_
 PBEPBE_PC2_OPT_FREQ\\0,1\O,1.2895162514,1.4321216577,-0.0112753781\N,0
 .3066365885,-0.6366162264,-0.0162163133\C,0.1955653538,0.7312158079,-0
 .0085276284\C,-1.1009472108,1.3085920492,0.0002965582\C,-0.7796064772,
 -1.4325046584,-0.0171879712\C,-2.208742072,0.4837701287,-0.0009642898\
 C,-2.0616582422,-0.9175144629,-0.0098475091\H,2.1829561264,0.619947719
 4,-0.0177983477\H,-1.1835166167,2.3939192099,0.005603491\H,-0.58500523
 9,-2.506039635,-0.0274792324\H,-3.2074050091,0.9233637489,0.0040449379
 \H,-2.9230948479,-1.5818199309,-0.0128925556\O,2.7373444911,-0.4976933
 24,-0.070417531\H,3.224930247,-0.6741674548,0.7488984454\H,1.547598136
 5,-0.8863596692,-0.0044344057\\Version=EM64L-G09RevE.01\State=1-A\HF=-
 399.6600184\RMSD=4.535e-09\RMSF=3.132e-05\ZeroPoint=0.1097501\Thermal=
 0.1164913\Dipole=-0.9974821,-0.6622387,0.5364631\DipoleDeriv=-1.792349
 8,-0.2850322,-0.0152287,-0.1510809,-0.790421,0.0045708,-0.0161041,0.00
 35619,-0.3102941,-1.2293897,0.1622724,-0.008054,-0.4552499,-0.4522097,
 -0.00237,-0.0465183,0.0006495,-0.1386356,1.5465994,0.6655526,0.0029135
 ,0.6510159,0.5606513,0.0032004,-0.0059692,-0.0033163,0.167777,-0.57286
 15,-0.380259,-0.0034987,0.1053823,0.0419951,0.0000401,0.01259,-0.00035
 43,-0.1512603,0.5403228,-0.2549579,-0.0024446,0.2837277,0.2341044,0.00
 94567,0.0021667,0.0072089,-0.0169349,0.2427617,0.0932462,-0.000264,0.0
 748522,0.4475272,0.0033721,-0.0022413,0.0020645,-0.085515,-0.2354101,0
 .2893278,0.0005838,0.0269964,-0.3785913,-0.0023272,0.0095477,-0.001675
 1,-0.172434,1.061625,-0.40489,0.0048764,-0.9225493,0.6867602,-0.037185
 1,-0.0068925,-0.0234701,0.1888317,0.0639645,-0.0053438,-0.0000955,0.01
 18155,-0.0298404,-0.0008557,0.0003392,-0.0009092,0.1443791,0.0622558,0
 .0254763,-0.0003847,-0.0173024,-0.0681196,-0.0015176,-0.0047352,-0.001
 9404,0.1245169,-0.0550205,0.0617714,0.0005333,0.0628574,0.0596365,-0.0
 006132,-0.0013818,0.0000443,0.1231772,-0.0158921,-0.0654932,-0.0006616
 ,-0.064268,0.0117279,-0.0007042,-0.0004497,-0.0006897,0.1522328,-1.685
 994,0.216614,0.0104486,0.3435757,-0.7346732,-0.0066224,0.0830363,-0.02
 49764,-0.3261675,0.2757426,0.0003374,-0.0248546,-0.0129479,0.2594715,0
 .0104159,-0.0507481,0.0233836,0.1409897,1.7936461,-0.118622,0.036131,0
 .0631752,0.151981,0.0211395,0.0273603,0.0204187,0.1593369\Polar=109.62
 99156,3.2338603,87.8244728,1.510974,-0.236455,44.9897768\PG=C01 [X(C5H
 7N1O2)]\NImag=1\\0.42169850,0.13595789,0.31907034,-0.00139440,-0.00090
 329,0.04962065,0.02262128,-0.05582371,0.00035994,0.57639999,-0.0365802
 6,-0.05444985,-0.00036291,0.11825847,0.57831072,0.00122422,-0.00051736
 ,0.01249263,0.00123873,0.00230863,0.09400858,-0.30735199,-0.12798106,0
 .00084588,-0.16061430,0.01733157,-0.00123079,0.75623713,-0.12762164,-0
 .18579811,0.00096293,0.03817764,-0.23185468,-0.00138486,0.03524771,0.5
 9569038,0.00024075,0.00007991,-0.06086846,0.00010122,-0.00108042,-0.06
 661503,-0.00140457,0.00180043,0.18240685,-0.06865525,0.00495794,0.0003
 6130,0.02571463,0.05642830,0.00072849,-0.22574696,0.04925581,0.0006077
 9,0.63740570,-0.02771743,0.01944330,0.00010600,0.03426510,-0.02570702,
 -0.00023839,0.08983039,-0.14859326,-0.00086023,0.04095180,0.72396385,0
 .00032890,0.00055253,0.01234393,-0.00023698,-0.00048289,0.01156927,0.0
 0124936,-0.00099534,-0.07019178,-0.00171486,0.00304416,0.11034663,-0.0
 1203339,0.01151139,-0.00003293,-0.26080944,-0.09122720,0.00022214,0.04
 447710,-0.06845929,-0.00048538,-0.05192181,-0.00287486,0.00017148,0.67
 012509,-0.00310269,-0.00038590,-0.00016890,-0.10892688,-0.19816524,-0.
 00023748,-0.02230833,-0.05288971,-0.00006435,-0.00766817,0.00000589,0.
 00009535,-0.03826454,0.72030028,-0.00003413,0.00004046,0.00769590,-0.0
 0016207,-0.00046625,-0.05063571,-0.00028369,-0.00012197,-0.00263918,0.
 00007967,0.00008036,-0.00290272,-0.00182095,0.00448193,0.13630718,0.00
 378694,0.00334880,-0.00003403,-0.00781456,-0.01411790,-0.00030040,-0.0
 4924981,-0.00149786,0.00022272,-0.28185927,-0.14234280,0.00001454,0.01
 326406,0.03409870,0.00026265,0.70989219,0.01908637,-0.00649363,-0.0000
 3547,-0.03171699,-0.04429653,-0.00024780,-0.03359786,0.05705038,0.0005
 3992,-0.09625752,-0.20814938,-0.00052854,0.07369640,-0.01673380,-0.000
 40164,-0.00527016,0.63872230,0.00011412,-0.00008153,0.00439774,-0.0000
 7841,-0.00017458,-0.00603939,-0.00008451,0.00033806,0.00059716,0.00014
 956,-0.00044979,-0.05159786,0.00044925,-0.00025316,0.00715325,-0.00166
 055,0.00289968,0.13152008,0.00550509,-0.00593531,0.00001720,-0.0725736
 4,-0.03887563,-0.00001361,-0.02280144,0.03690106,0.00025725,0.03504504
 ,-0.02425453,-0.00026852,-0.31193992,0.11119577,0.00141107,-0.11775428
 ,-0.00572757,0.00008309,0.70983362,-0.01322419,0.00191940,0.00000806,0
 .00223454,0.04480062,0.00030343,0.02765651,-0.03126682,-0.00028894,-0.
 05113159,-0.03589057,-0.00009717,0.06106037,-0.15524593,-0.00092161,0.
 04594486,-0.29933025,-0.00151371,0.03854615,0.64583294,-0.00018794,0.0
 0014189,-0.00088891,0.00002562,0.00029232,0.01579299,0.00033556,-0.000
 33701,-0.00762948,-0.00043770,-0.00024174,0.00653092,0.00100800,-0.000
 93239,-0.05975944,0.00045532,-0.00150434,-0.05654569,-0.00120119,0.003
 51743,0.10811528,-0.00529819,-0.00667399,-0.00126424,-0.01476465,0.013
 09217,-0.00126622,-0.05987886,-0.01812040,0.00032152,0.01029191,0.0015
 3171,0.00013173,0.00163236,0.00314587,0.00003049,-0.00184399,-0.004565
 92,-0.00002728,-0.00115141,0.00366815,0.00018515,0.06865205,-0.0269315
 8,-0.04889023,0.00077383,0.01564531,-0.01207226,0.00146229,0.02251156,
 0.04503512,-0.00003466,-0.01625169,-0.00610085,-0.00012798,-0.00344858
 ,-0.00547157,-0.00011549,0.00163637,0.00777318,0.00004387,0.00302578,-
 0.00509855,-0.00020573,0.04600862,0.05096719,0.00155541,-0.00153308,-0
 .03250132,-0.00093581,0.00008973,-0.00148607,-0.00068116,-0.00042070,0
 .00076459,0.00024128,0.00002019,0.00358780,-0.00002097,0.00012401,-0.0
 0074552,-0.00006222,-0.00012282,0.00088275,-0.00010546,0.00005526,0.00
 031748,0.00513609,0.00418910,0.06420904,0.00229701,-0.00167520,-0.0000
 1986,-0.00602826,0.00406623,0.00001202,0.00323683,0.02744257,0.0001180
 8,-0.05506683,0.02315130,0.00023605,-0.00193786,-0.00101452,-0.0000049
 9,0.00607084,-0.02506442,-0.00013717,-0.00344868,-0.00247149,0.0000274
 1,-0.00075987,0.00089600,-0.00003051,0.05295944,-0.00047741,0.00137224
 ,0.00002056,0.00277445,-0.00029063,-0.00001653,-0.00307312,-0.00993033
 ,-0.00001777,0.02487636,-0.32682053,-0.00151143,0.00063140,0.00091817,
 0.00000969,0.00313887,-0.01231694,-0.00006118,-0.00335007,0.00113995,-
 0.00001573,0.00046601,-0.00042069,0.00001291,-0.02444118,0.34594939,-0
 .00002007,-0.00000763,-0.00215408,0.00007030,-0.00002533,0.00506439,0.
 00000384,-0.00014004,0.00229432,0.00020305,-0.00138878,-0.03093117,0.0
 0000934,0.00000810,-0.00051510,-0.00000275,-0.00002341,0.00163792,0.00
 000926,-0.00005239,0.00830774,-0.00001402,0.00001025,-0.00035117,-0.00
 023181,0.00160456,0.02217024,-0.00092710,-0.00151369,-0.00000424,0.003
 75097,-0.03220574,-0.00026564,-0.00295752,-0.00119045,0.00002836,-0.00
 043940,-0.00067800,0.00000304,-0.06566087,0.05663692,0.00055418,-0.005
 38371,0.00128222,0.00003908,0.00151476,0.02648796,0.00024226,0.0008268
 9,-0.00078877,0.00001230,0.00017058,0.00000358,-0.00000821,0.06804996,
 -0.00045700,-0.00141727,0.00000666,-0.00387031,-0.02070183,-0.00016871
 ,-0.00250810,0.00322065,-0.00009255,0.00017498,0.00041713,0.00000382,0
 .05347326,-0.30824348,-0.00250154,0.00232214,0.00066926,-0.00006513,-0
 .00057176,-0.00605710,-0.00012155,0.00040577,-0.00031769,0.00000527,0.
 00007662,-0.00010122,0.00001249,-0.04945823,0.33227064,0.00004691,-0.0
 0004509,0.00003856,0.00014527,0.00012471,-0.00080067,-0.00001574,-0.00
 001140,0.00796707,0.00005775,0.00002527,-0.00037876,0.00049673,-0.0028
 2808,-0.03629058,0.00000391,-0.00007224,0.00700107,0.00001739,-0.00009
 620,0.00579218,-0.00007825,0.00007956,-0.00013569,-0.00000804,0.000005
 70,-0.00144835,-0.00054317,0.00285884,0.02360903,-0.00190694,0.0007196
 3,0.00000706,0.00025545,-0.00056641,-0.00000495,-0.00079204,-0.0038309
 2,-0.00001030,-0.01850842,0.01149851,0.00011158,0.00164854,0.00058682,
 0.00000912,-0.27750312,0.09829445,0.00117575,0.00047842,-0.00072495,-0
 .00001042,0.00039599,-0.00074765,0.00000102,0.00108184,-0.00013111,-0.
 00001081,-0.00006070,-0.00013425,-0.00000070,0.29451043,-0.00090369,0.
 00061815,0.00001011,-0.00092443,-0.00017763,0.00000848,-0.00317377,-0.
 00196265,-0.00005538,-0.01727853,0.01055268,0.00007972,-0.00008903,-0.
 00619384,-0.00007471,0.09873081,-0.09827863,-0.00058730,0.02794499,-0.
 00686985,-0.00012414,0.00002305,-0.00029241,0.00000336,0.00040483,0.00
 081102,0.00002688,0.00150097,-0.00041862,-0.00000113,-0.10567889,0.100
 89587,-0.00000347,-0.00006780,-0.00099367,0.00005098,0.00001359,-0.001
 96595,0.00000224,-0.00002233,0.01005802,0.00000666,0.00004688,0.005134
 02,0.00002935,-0.00010022,0.00614798,0.00107944,-0.00058724,-0.0385609
 5,0.00017314,-0.00005156,0.00419289,-0.00003625,0.00003405,-0.00044272
 ,-0.00001723,0.00001461,-0.00464136,0.00000408,0.00000317,-0.00040443,
 -0.00127371,0.00068812,0.02465593,0.00054731,-0.00028841,0.00000619,-0
 .00494211,0.00327000,0.00005154,-0.00031918,0.00131922,-0.00000813,0.0
 0111274,0.00142684,0.00000929,-0.01623377,-0.01994564,-0.00014991,0.00
 673832,0.00444786,0.00000601,-0.22745368,-0.13296049,-0.00050534,-0.00
 025436,0.00054546,-0.00002210,0.00022755,0.00034793,0.00000101,0.00067
 292,0.00020751,-0.00000200,0.00059879,-0.00045456,-0.00000231,0.238835
 61,-0.00043665,0.00045413,0.00000716,0.00364336,0.00023194,-0.00005567
 ,0.00122583,-0.00118835,-0.00000996,0.00230654,-0.00457509,-0.00006780
 ,0.01038849,0.01009402,0.00005756,-0.02458264,-0.01287741,-0.00005101,
 -0.13421324,-0.15560273,-0.00062690,0.00018421,-0.00031828,0.00000790,
 -0.00121965,-0.00052657,-0.00000383,-0.00051910,0.00048238,0.00003129,
 0.00025901,0.00110234,0.00002925,0.14306938,0.16219782,-0.00000145,-0.
 00003928,-0.00089065,0.00003909,-0.00009525,0.00764673,-0.00000994,0.0
 0003453,-0.00020539,0.00001718,-0.00006316,0.00527929,0.00012537,0.000
 12706,-0.00142553,-0.00016272,-0.00003997,0.00003777,-0.00057372,-0.00
 071256,-0.02706985,0.00001507,-0.00001683,-0.00000602,-0.00000814,-0.0
 0000442,0.00061232,-0.00001608,0.00004176,-0.00347799,-0.00000346,0.00
 002593,-0.00289362,0.00057780,0.00069819,0.02173582,-0.01860360,0.0367
 7749,0.00060477,-0.07861440,-0.00910850,-0.00298325,-0.00329670,-0.004
 13545,0.00035009,0.00051803,0.00139446,0.00026035,-0.00196602,0.013876
 68,-0.00011317,-0.00062190,-0.00161781,-0.00008060,-0.00500888,-0.0014
 5436,0.00034440,-0.02913730,0.00800166,-0.00187881,-0.00057839,0.00038
 264,-0.00001039,-0.00033473,-0.00105156,-0.00016389,-0.00026951,0.0000
 5262,-0.00003491,-0.00132862,0.00038821,0.00005492,0.27874414,0.080762
 51,-0.04113450,0.00349136,-0.02393935,0.01893437,-0.00367692,-0.028725
 37,-0.03057514,0.00024471,0.01018912,0.00539517,-0.00036171,0.00356540
 ,0.00488369,-0.00005997,-0.00107757,-0.00532429,-0.00006746,-0.0026041
 8,0.00338311,0.00029354,-0.03297840,-0.01148366,-0.02203297,-0.0011280
 7,0.00054677,-0.00002844,0.00065213,-0.00000761,-0.00008911,0.00043365
 ,0.00020538,0.00006707,-0.00043489,0.00028238,0.00006314,-0.06843724,0
 .12599148,-0.00373168,0.00504798,0.01434172,-0.00657597,-0.00061390,0.
 01521344,0.00107407,-0.00047924,-0.00019966,-0.00020230,0.00004964,-0.
 00181949,-0.00041341,0.00045339,0.00078885,0.00011244,-0.00003065,0.00
 012802,-0.00012760,-0.00016861,-0.00124328,-0.00348006,-0.00674717,-0.
 03774328,0.00002789,-0.00000581,0.00015153,0.00000671,-0.00010199,0.00
 055332,0.00001011,0.00000991,0.00025105,-0.00009318,-0.00000555,-0.000
 21590,0.20333781,-0.07395749,0.40498766,0.00100848,0.00186086,0.001651
 25,-0.00691534,-0.00171381,0.00401446,-0.00062281,-0.00109328,-0.00058
 884,0.00013298,0.00015881,-0.00051619,-0.00080753,0.00097435,0.0000934
 5,0.00004289,-0.00014469,0.00006548,-0.00025758,-0.00026338,-0.0003727
 0,-0.00442075,-0.00079651,-0.00568453,0.00000557,0.00003554,0.00001000
 ,-0.00006046,-0.00013923,0.00015214,0.00001967,0.00000058,0.00007385,-
 0.00010880,0.00003547,-0.00003885,-0.13383763,0.03882944,-0.19392210,0
 .14392312,0.00624004,-0.00636285,-0.00385907,-0.00508146,0.00091119,0.
 00188617,-0.00148561,-0.00173944,-0.00012384,0.00045112,0.00021539,0.0
 0038664,0.00001168,0.00091793,-0.00000461,-0.00004036,-0.00019573,0.00
 001975,-0.00032843,-0.00004666,-0.00009343,0.00292428,0.00757139,0.018
 67593,-0.00007019,0.00004927,0.00001093,-0.00004966,-0.00013015,-0.000
 00860,0.00002100,0.00000257,-0.00006913,-0.00009507,0.00002600,-0.0000
 2028,0.03756851,-0.04018890,0.06952340,-0.04479574,0.03765261,0.003272
 47,-0.00320407,0.00014513,0.00450478,0.00004898,0.00006214,-0.00044297
 ,-0.00015650,0.00000242,0.00008274,0.00001247,-0.00004869,0.00027517,-
 0.00034602,0.00003500,0.00002542,0.00002607,-0.00001022,0.00017708,0.0
 0008372,-0.00001531,-0.00107196,0.00271505,-0.00019951,0.00001152,0.00
 000164,0.00000540,-0.00001826,0.00006261,0.00001999,0.00000814,-0.0000
 0563,0.00001515,0.00007805,0.00000293,0.00000249,-0.21479414,0.0791897
 4,-0.35777019,0.21138296,-0.07710783,0.35728088,-0.04268814,0.00475737
 ,-0.00110388,-0.01566562,0.01194869,-0.00142676,0.02968056,0.03760528,
 0.00024944,-0.00802310,-0.00634130,0.00022025,-0.00783654,-0.01928432,
 0.00012829,0.00223538,0.00715563,-0.00001381,0.01001259,-0.00336808,0.
 00009155,0.03571018,-0.04930599,0.00247547,0.00177023,-0.00118389,-0.0
 0000873,0.00083841,0.00153015,-0.00010832,0.00005162,-0.00015494,-0.00
 005185,0.00190727,-0.00052920,-0.00001510,-0.00566450,0.02489281,0.003
 97729,0.00189817,0.00472990,-0.00349100,-0.00422652,-0.00459427,0.0020
 5478,-0.00005701,0.01528425,-0.05547318,0.00057471,0.02904967,-0.00519
 804,-0.00003685,-0.00100448,-0.00415671,0.00001063,-0.00997489,0.00620
 950,-0.00000220,-0.00029127,-0.00021853,0.00000349,-0.00175304,-0.0016
 6755,-0.00004224,-0.00911111,-0.02088071,0.00092591,0.00104717,-0.0003
 7990,-0.00000335,-0.00016013,0.00033492,0.00002647,0.00000111,0.000005
 61,0.00000154,-0.00045512,0.00021742,0.00000113,-0.01263735,-0.0309082
 5,0.00702608,0.00705157,0.00131738,-0.00132316,-0.01245211,0.10874325,
 -0.00140963,0.00053637,-0.00277917,0.00145332,0.00042357,-0.03430733,0
 .00064242,0.00093344,0.00425855,-0.00018060,-0.00014287,0.00307862,-0.
 00001319,-0.00035925,-0.00321437,0.00004622,0.00012844,-0.00060164,0.0
 0014462,-0.00006514,0.00410249,0.00141821,-0.00206015,0.00384965,0.000
 02479,-0.00003678,-0.00020263,-0.00003442,0.00005685,-0.00204473,-0.00
 000842,-0.00000424,-0.00055233,0.00005309,-0.00001357,0.00087054,0.015
 10681,0.01692451,-0.03742379,-0.01632039,-0.00921603,0.00047533,-0.000
 92284,-0.00710515,0.06449082\\0.00011714,0.00002392,-0.00001863,-0.000
 00350,-0.00002091,-0.00006490,-0.00007924,-0.00002774,0.00001368,-0.00
 000186,0.00000180,0.00000409,-0.00000031,-0.00001286,0.00000983,0.0000
 0193,0.00000562,-0.00000011,-0.00000135,0.00000297,0.00000319,-0.00001
 191,-0.00001516,0.00003151,0.00000449,0.00000228,0.00000272,-0.0000041
 9,0.00000119,-0.00000444,0.00000194,0.00000516,0.00000200,-0.00000215,
 0.00000472,-0.00000082,-0.00008568,-0.00001990,-0.00002575,0.00001348,
 0.00000730,-0.00000496,0.00005120,0.00004160,0.00005260\\\@


 IT IS BETTER TO THINK YOU ARE HALF DRY THAN TO KNOW YOU
 ARE ALL WET.  -- SNOOPY
 Job cpu time:       0 days  1 hours  2 minutes 19.1 seconds.
 File lengths (MBytes):  RWF=    137 Int=      0 D2E=      0 Chk=      9 Scr=      1
 Normal termination of Gaussian 09 at Sun Aug 29 00:09:11 2021.
