 Entering Gaussian System, Link 0=g09
 Initial command:
 /gpfs/share/home/1801110325/software/g09e01/l1.exe "./Gau-1568.inp" -scrdir="./"
 Entering Link 1 = /gpfs/share/home/1801110325/software/g09e01/l1.exe PID=      1569.
  
 Copyright (c) 1988,1990,1992,1993,1995,1998,2003,2009,2015,
            Gaussian, Inc.  All Rights Reserved.
  
 This is part of the Gaussian(R) 09 program.  It is based on
 the Gaussian(R) 03 system (copyright 2003, Gaussian, Inc.),
 the Gaussian(R) 98 system (copyright 1998, Gaussian, Inc.),
 the Gaussian(R) 94 system (copyright 1995, Gaussian, Inc.),
 the Gaussian 92(TM) system (copyright 1992, Gaussian, Inc.),
 the Gaussian 90(TM) system (copyright 1990, Gaussian, Inc.),
 the Gaussian 88(TM) system (copyright 1988, Gaussian, Inc.),
 the Gaussian 86(TM) system (copyright 1986, Carnegie Mellon
 University), and the Gaussian 82(TM) system (copyright 1983,
 Carnegie Mellon University). Gaussian is a federally registered
 trademark of Gaussian, Inc.
  
 This software contains proprietary and confidential information,
 including trade secrets, belonging to Gaussian, Inc.
  
 This software is provided under written license and may be
 used, copied, transmitted, or stored only in accord with that
 written license.
  
 The following legend is applicable only to US Government
 contracts under FAR:
  
                    RESTRICTED RIGHTS LEGEND
  
 Use, reproduction and disclosure by the US Government is
 subject to restrictions as set forth in subparagraphs (a)
 and (c) of the Commercial Computer Software - Restricted
 Rights clause in FAR 52.227-19.
  
 Gaussian, Inc.
 340 Quinnipiac St., Bldg. 40, Wallingford CT 06492
  
  
 ---------------------------------------------------------------
 Warning -- This program may not be used in any manner that
 competes with the business of Gaussian, Inc. or will provide
 assistance to any competitor of Gaussian, Inc.  The licensee
 of this program is prohibited from giving any competitor of
 Gaussian, Inc. access to this program.  By using this program,
 the user acknowledges that Gaussian, Inc. is engaged in the
 business of creating and licensing software in the field of
 computational chemistry and represents and warrants to the
 licensee that it is not a competitor of Gaussian, Inc. and that
 it will not use this program in any manner prohibited above.
 ---------------------------------------------------------------
  

 Cite this work as:
 Gaussian 09, Revision E.01,
 M. J. Frisch, G. W. Trucks, H. B. Schlegel, G. E. Scuseria, 
 M. A. Robb, J. R. Cheeseman, G. Scalmani, V. Barone, B. Mennucci, 
 G. A. Petersson, H. Nakatsuji, M. Caricato, X. Li, H. P. Hratchian, 
 A. F. Izmaylov, J. Bloino, G. Zheng, J. L. Sonnenberg, M. Hada, 
 M. Ehara, K. Toyota, R. Fukuda, J. Hasegawa, M. Ishida, T. Nakajima, 
 Y. Honda, O. Kitao, H. Nakai, T. Vreven, J. A. Montgomery, Jr., 
 J. E. Peralta, F. Ogliaro, M. Bearpark, J. J. Heyd, E. Brothers, 
 K. N. Kudin, V. N. Staroverov, T. Keith, R. Kobayashi, J. Normand, 
 K. Raghavachari, A. Rendell, J. C. Burant, S. S. Iyengar, J. Tomasi, 
 M. Cossi, N. Rega, J. M. Millam, M. Klene, J. E. Knox, J. B. Cross, 
 V. Bakken, C. Adamo, J. Jaramillo, R. Gomperts, R. E. Stratmann, 
 O. Yazyev, A. J. Austin, R. Cammi, C. Pomelli, J. W. Ochterski, 
 R. L. Martin, K. Morokuma, V. G. Zakrzewski, G. A. Voth, 
 P. Salvador, J. J. Dannenberg, S. Dapprich, A. D. Daniels, 
 O. Farkas, J. B. Foresman, J. V. Ortiz, J. Cioslowski, 
 and D. J. Fox, Gaussian, Inc., Wallingford CT, 2013.
 
 ******************************************
 Gaussian 09:  EM64L-G09RevE.01 30-Nov-2015
                 5-Sep-2021 
 ******************************************
 %nprocshared=6
 Will use up to    6 processors via shared memory.
 %mem=18GB
 %oldchk=4PY_B3LYP_PC2_OPT_FREQ.chk
 %chk=4PY_G3.chk
 Copying data from "4PY_B3LYP_PC2_OPT_FREQ.chk" to current chk file "4PY_G3.chk".
 ---------------------
 #p G3 geom=checkpoint
 ---------------------
 1/18=20,19=15,29=2,38=1/1,3;
 2/9=110,12=2,40=1/2;
 3/5=33,7=1,11=9,14=-4,16=1,25=1,30=1,71=1/1,2,3;
 4//1;
 5/5=2,38=5/2;
 6/7=2,8=2,9=2,10=2,28=1/1;
 7//1,2,3,16;
 1/18=20,19=15/3(2);
 2/9=110/2;
 99//99;
 2/9=110/2;
 3/5=33,7=1,11=9,14=-2,16=1,25=1,30=1,71=1/1,2,3;
 4/5=5,16=3,69=1/1;
 5/5=2,38=5/2;
 7//1,2,3,16;
 1/18=20,19=15/3(-5);
 2/9=110/2;
 6/7=2,8=2,9=2,10=2,19=2,28=1/1;
 99/9=1/99;
 Leave Link    1 at Sun Sep  5 14:59:00 2021, MaxMem=  2415919104 cpu:         3.4
 (Enter /gpfs/share/home/1801110325/software/g09e01/l101.exe)
 ------
 4PY_G3
 ------
 Structure from the checkpoint file:  "4PY_G3.chk"
 Charge =  0 Multiplicity = 1
 Redundant internal coordinates found in file.
 C,0,-0.0002047503,-1.0456176239,1.1886874162
 C,0,-0.0002272412,0.3039587838,1.2245826416
 C,0,-0.0008201804,1.1040497735,0.
 C,0,-0.0002272412,0.3039587838,-1.2245826416
 C,0,-0.0002047503,-1.0456176239,-1.1886874162
 N,0,-0.0003451368,-1.7240785733,0.
 H,0,-0.000036561,-1.6598385407,2.0776338701
 H,0,0.0000204484,0.8225355141,2.1717711382
 H,0,0.0000204484,0.8225355141,-2.1717711382
 H,0,-0.000036561,-1.6598385407,-2.0776338701
 O,0,0.0004193225,2.3328890226,0.
 H,0,-0.0000617969,-2.7280164894,0.
 Recover connectivity data from disk.
 NAtoms=     12 NQM=       12 NQMF=       0 NMMI=      0 NMMIF=      0
                NMic=       0 NMicF=      0.
                    Isotopes and Nuclear Properties:
 (Nuclear quadrupole moments (NQMom) in fm**2, nuclear magnetic moments (NMagM)
  in nuclear magnetons)

  Atom         1           2           3           4           5           6           7           8           9          10
 IAtWgt=          12          12          12          12          12          14           1           1           1           1
 AtmWgt=  12.0000000  12.0000000  12.0000000  12.0000000  12.0000000  14.0030740   1.0078250   1.0078250   1.0078250   1.0078250
 NucSpn=           0           0           0           0           0           2           1           1           1           1
 AtZEff=  -3.6000000  -3.6000000  -3.6000000  -3.6000000  -3.6000000  -4.5500000  -1.0000000  -1.0000000  -1.0000000  -1.0000000
 NQMom=    0.0000000   0.0000000   0.0000000   0.0000000   0.0000000   2.0440000   0.0000000   0.0000000   0.0000000   0.0000000
 NMagM=    0.0000000   0.0000000   0.0000000   0.0000000   0.0000000   0.4037610   2.7928460   2.7928460   2.7928460   2.7928460
 AtZNuc=   6.0000000   6.0000000   6.0000000   6.0000000   6.0000000   7.0000000   1.0000000   1.0000000   1.0000000   1.0000000

  Atom        11          12
 IAtWgt=          16           1
 AtmWgt=  15.9949146   1.0078250
 NucSpn=           0           1
 AtZEff=  -5.6000000  -1.0000000
 NQMom=    0.0000000   0.0000000
 NMagM=    0.0000000   2.7928460
 AtZNuc=   8.0000000   1.0000000
 Leave Link  101 at Sun Sep  5 14:59:00 2021, MaxMem=  2415919104 cpu:         2.4
 (Enter /gpfs/share/home/1801110325/software/g09e01/l103.exe)

 GradGradGradGradGradGradGradGradGradGradGradGradGradGradGradGradGradGrad
 Berny optimization.
 Initialization pass.
                           ----------------------------
                           !    Initial Parameters    !
                           ! (Angstroms and Degrees)  !
 --------------------------                            --------------------------
 ! Name  Definition              Value          Derivative Info.                !
 --------------------------------------------------------------------------------
 ! R1    R(1,2)                  1.3501         estimate D2E/DX2                !
 ! R2    R(1,6)                  1.3687         estimate D2E/DX2                !
 ! R3    R(1,7)                  1.0805         estimate D2E/DX2                !
 ! R4    R(2,3)                  1.4628         estimate D2E/DX2                !
 ! R5    R(2,8)                  1.0799         estimate D2E/DX2                !
 ! R6    R(3,4)                  1.4628         estimate D2E/DX2                !
 ! R7    R(3,11)                 1.2288         estimate D2E/DX2                !
 ! R8    R(4,5)                  1.3501         estimate D2E/DX2                !
 ! R9    R(4,9)                  1.0799         estimate D2E/DX2                !
 ! R10   R(5,6)                  1.3687         estimate D2E/DX2                !
 ! R11   R(5,10)                 1.0805         estimate D2E/DX2                !
 ! R12   R(6,12)                 1.0039         estimate D2E/DX2                !
 ! A1    A(2,1,6)              121.2398         estimate D2E/DX2                !
 ! A2    A(2,1,7)              123.1191         estimate D2E/DX2                !
 ! A3    A(6,1,7)              115.6411         estimate D2E/DX2                !
 ! A4    A(1,2,3)              121.6354         estimate D2E/DX2                !
 ! A5    A(1,2,8)              120.2238         estimate D2E/DX2                !
 ! A6    A(3,2,8)              118.1408         estimate D2E/DX2                !
 ! A7    A(2,3,4)              113.6821         estimate D2E/DX2                !
 ! A8    A(2,3,11)             123.1589         estimate D2E/DX2                !
 ! A9    A(4,3,11)             123.1589         estimate D2E/DX2                !
 ! A10   A(3,4,5)              121.6354         estimate D2E/DX2                !
 ! A11   A(3,4,9)              118.1408         estimate D2E/DX2                !
 ! A12   A(5,4,9)              120.2238         estimate D2E/DX2                !
 ! A13   A(4,5,6)              121.2398         estimate D2E/DX2                !
 ! A14   A(4,5,10)             123.1191         estimate D2E/DX2                !
 ! A15   A(6,5,10)             115.6411         estimate D2E/DX2                !
 ! A16   A(1,6,5)              120.5676         estimate D2E/DX2                !
 ! A17   A(1,6,12)             119.7162         estimate D2E/DX2                !
 ! A18   A(5,6,12)             119.7162         estimate D2E/DX2                !
 ! D1    D(6,1,2,3)              0.0192         estimate D2E/DX2                !
 ! D2    D(6,1,2,8)           -179.9917         estimate D2E/DX2                !
 ! D3    D(7,1,2,3)           -179.9833         estimate D2E/DX2                !
 ! D4    D(7,1,2,8)              0.0057         estimate D2E/DX2                !
 ! D5    D(2,1,6,5)              0.015          estimate D2E/DX2                !
 ! D6    D(2,1,6,12)           179.9827         estimate D2E/DX2                !
 ! D7    D(7,1,6,5)           -179.9826         estimate D2E/DX2                !
 ! D8    D(7,1,6,12)            -0.0149         estimate D2E/DX2                !
 ! D9    D(1,2,3,4)             -0.0487         estimate D2E/DX2                !
 ! D10   D(1,2,3,11)          -179.929          estimate D2E/DX2                !
 ! D11   D(8,2,3,4)            179.962          estimate D2E/DX2                !
 ! D12   D(8,2,3,11)             0.0817         estimate D2E/DX2                !
 ! D13   D(2,3,4,5)              0.0487         estimate D2E/DX2                !
 ! D14   D(2,3,4,9)           -179.962          estimate D2E/DX2                !
 ! D15   D(11,3,4,5)           179.929          estimate D2E/DX2                !
 ! D16   D(11,3,4,9)            -0.0817         estimate D2E/DX2                !
 ! D17   D(3,4,5,6)             -0.0192         estimate D2E/DX2                !
 ! D18   D(3,4,5,10)           179.9833         estimate D2E/DX2                !
 ! D19   D(9,4,5,6)            179.9917         estimate D2E/DX2                !
 ! D20   D(9,4,5,10)            -0.0057         estimate D2E/DX2                !
 ! D21   D(4,5,6,1)             -0.015          estimate D2E/DX2                !
 ! D22   D(4,5,6,12)          -179.9827         estimate D2E/DX2                !
 ! D23   D(10,5,6,1)           179.9826         estimate D2E/DX2                !
 ! D24   D(10,5,6,12)            0.0149         estimate D2E/DX2                !
 --------------------------------------------------------------------------------
 Trust Radius=3.00D-01 FncErr=1.00D-07 GrdErr=1.00D-07
 Number of steps in this run=     64 maximum allowed number of steps=    100.
 GradGradGradGradGradGradGradGradGradGradGradGradGradGradGradGradGradGrad

 Leave Link  103 at Sun Sep  5 14:59:00 2021, MaxMem=  2415919104 cpu:         0.9
 (Enter /gpfs/share/home/1801110325/software/g09e01/l202.exe)
                          Input orientation:                          
 ---------------------------------------------------------------------
 Center     Atomic      Atomic             Coordinates (Angstroms)
 Number     Number       Type             X           Y           Z
 ---------------------------------------------------------------------
      1          6           0       -0.000205   -1.045618    1.188687
      2          6           0       -0.000227    0.303959    1.224583
      3          6           0       -0.000820    1.104050    0.000000
      4          6           0       -0.000227    0.303959   -1.224583
      5          6           0       -0.000205   -1.045618   -1.188687
      6          7           0       -0.000345   -1.724079   -0.000000
      7          1           0       -0.000037   -1.659839    2.077634
      8          1           0        0.000020    0.822536    2.171771
      9          1           0        0.000020    0.822536   -2.171771
     10          1           0       -0.000037   -1.659839   -2.077634
     11          8           0        0.000419    2.332889    0.000000
     12          1           0       -0.000062   -2.728016   -0.000000
 ---------------------------------------------------------------------
                    Distance matrix (angstroms):
                    1          2          3          4          5
     1  C    0.000000
     2  C    1.350054   0.000000
     3  C    2.456430   1.462788   0.000000
     4  C    2.765001   2.449165   1.462788   0.000000
     5  C    2.377375   2.765001   2.456430   1.350054   0.000000
     6  N    1.368681   2.369080   2.828128   2.369080   1.368681
     7  H    1.080506   2.141074   3.457693   3.842022   3.323571
     8  H    2.111031   1.079856   2.189941   3.435715   3.844825
     9  H    3.844825   3.435715   2.189941   1.079856   2.111031
    10  H    3.323571   3.842022   3.457693   2.141074   1.080506
    11  O    3.581520   2.369844   1.228840   2.369844   3.581520
    12  H    2.059962   3.269935   3.832066   3.269935   2.059962
                    6          7          8          9         10
     6  N    0.000000
     7  H    2.078627   0.000000
     8  H    3.346914   2.484158   0.000000
     9  H    3.346914   4.921344   4.343542   0.000000
    10  H    2.078627   4.155268   4.921344   2.484158   0.000000
    11  O    4.056968   4.500937   2.645328   2.645328   4.500937
    12  H    1.003938   2.336144   4.162092   4.162092   2.336144
                   11         12
    11  O    0.000000
    12  H    5.060906   0.000000
 Stoichiometry    C5H5NO
 Framework group  CS[SG(CHNO),X(C4H4)]
 Deg. of freedom    17
 Full point group                 CS      NOp   2
 RotChk:  IX=3 Diff= 1.57D-16
 Largest Abelian subgroup         CS      NOp   2
 Largest concise Abelian subgroup CS      NOp   2
                         Standard orientation:                         
 ---------------------------------------------------------------------
 Center     Atomic      Atomic             Coordinates (Angstroms)
 Number     Number       Type             X           Y           Z
 ---------------------------------------------------------------------
      1          6           0        0.000037    1.043944    1.188687
      2          6           0        0.000037   -0.305632    1.224583
      3          6           0        0.000617   -1.105723    0.000000
      4          6           0        0.000037   -0.305632   -1.224583
      5          6           0        0.000037    1.043944   -1.188687
      6          7           0        0.000189    1.722405   -0.000000
      7          1           0       -0.000121    1.658165    2.077634
      8          1           0       -0.000219   -0.824209    2.171771
      9          1           0       -0.000219   -0.824209   -2.171771
     10          1           0       -0.000121    1.658165   -2.077634
     11          8           0       -0.000643   -2.334562    0.000000
     12          1           0       -0.000078    2.726343   -0.000000
 ---------------------------------------------------------------------
 Rotational constants (GHZ):      5.7357987      2.7172251      1.8437730
 Leave Link  202 at Sun Sep  5 14:59:01 2021, MaxMem=  2415919104 cpu:         1.0
 (Enter /gpfs/share/home/1801110325/software/g09e01/l301.exe)
 Standard basis: GTBas1 (6D, 7F)
 Ernie: Thresh=  0.10000D-02 Tol=  0.10000D-05 Strict=F.
 There are    69 symmetry adapted cartesian basis functions of A'  symmetry.
 There are    46 symmetry adapted cartesian basis functions of A"  symmetry.
 There are    69 symmetry adapted basis functions of A'  symmetry.
 There are    46 symmetry adapted basis functions of A"  symmetry.
   115 basis functions,   216 primitive gaussians,   115 cartesian basis functions
    25 alpha electrons       25 beta electrons
       nuclear repulsion energy       274.4117481266 Hartrees.
 IExCor=    0 DFT=F Ex=HF Corr=None ExCW=0 ScaHFX=  1.000000
 ScaDFX=  1.000000  1.000000  1.000000  1.000000 ScalE2=  1.000000  1.000000
 IRadAn=      0 IRanWt=     -1 IRanGd=            0 ICorTp=0 IEmpDi=  4
 NAtoms=   12 NActive=   12 NUniq=    8 SFac= 2.25D+00 NAtFMM=   60 NAOKFM=F Big=F
 Integral buffers will be    131072 words long.
 Raffenetti 1 integral format.
 Two-electron integral symmetry is turned on.
 Leave Link  301 at Sun Sep  5 14:59:01 2021, MaxMem=  2415919104 cpu:         2.6
 (Enter /gpfs/share/home/1801110325/software/g09e01/l302.exe)
 NPDir=0 NMtPBC=     1 NCelOv=     1 NCel=       1 NClECP=     1 NCelD=      1
         NCelK=      1 NCelE2=     1 NClLst=     1 CellRange=     0.0.
 One-electron integrals computed using PRISM.
 One-electron integral symmetry used in STVInt
 NBasis=   115 RedAO= T EigKep=  6.56D-04  NBF=    69    46
 NBsUse=   115 1.00D-06 EigRej= -1.00D+00 NBFU=    69    46
 Leave Link  302 at Sun Sep  5 14:59:01 2021, MaxMem=  2415919104 cpu:         0.9
 (Enter /gpfs/share/home/1801110325/software/g09e01/l303.exe)
 DipDrv:  MaxL=1.
 Leave Link  303 at Sun Sep  5 14:59:02 2021, MaxMem=  2415919104 cpu:         0.6
 (Enter /gpfs/share/home/1801110325/software/g09e01/l401.exe)
 ExpMin= 1.61D-01 ExpMax= 5.48D+03 ExpMxC= 8.25D+02 IAcc=1 IRadAn=         1 AccDes= 0.00D+00
 Harris functional with IExCor=  205 and IRadAn=       1 diagonalized for initial guess.
 HarFok:  IExCor=  205 AccDes= 0.00D+00 IRadAn=         1 IDoV= 1 UseB2=F ITyADJ=14
 ICtDFT=  3500011 ScaDFX=  1.000000  1.000000  1.000000  1.000000
 FoFCou: FMM=F IPFlag=           0 FMFlag=      100000 FMFlg1=           0
         NFxFlg=           0 DoJE=T BraDBF=F KetDBF=T FulRan=T
         wScrn=  0.000000 ICntrl=     500 IOpCl=  0 I1Cent=   200000004 NGrid=           0
         NMat0=    1 NMatS0=      1 NMatT0=    0 NMatD0=    1 NMtDS0=    0 NMtDT0=    0
 Petite list used in FoFCou.
 Harris En= -321.908427935730    
 JPrj=0 DoOrth=F DoCkMO=F.
 Initial guess orbital symmetries:
       Occupied  (A') (A') (A') (A") (A") (A') (A') (A') (A') (A')
                 (A") (A") (A') (A') (A") (A') (A') (A") (A') (A')
                 (A") (A') (A") (A") (A')
       Virtual   (A') (A") (A') (A') (A") (A') (A') (A") (A') (A')
                 (A") (A") (A') (A') (A") (A") (A') (A') (A') (A")
                 (A') (A') (A") (A') (A") (A") (A') (A') (A') (A")
                 (A') (A") (A') (A") (A') (A') (A') (A") (A") (A')
                 (A') (A") (A") (A") (A') (A') (A') (A") (A') (A')
                 (A") (A") (A') (A') (A") (A") (A') (A') (A") (A')
                 (A') (A") (A') (A') (A") (A") (A') (A") (A') (A")
                 (A') (A') (A") (A') (A') (A") (A') (A') (A") (A")
                 (A') (A") (A') (A') (A') (A") (A') (A") (A') (A')
 The electronic state of the initial guess is 1-A'.
 Leave Link  401 at Sun Sep  5 14:59:02 2021, MaxMem=  2415919104 cpu:         1.9
 (Enter /gpfs/share/home/1801110325/software/g09e01/l502.exe)
 Closed shell SCF:
 Using DIIS extrapolation, IDIIS=  1040.
 Integral symmetry usage will be decided dynamically.
 Keep R1 ints in memory in symmetry-blocked form, NReq=33473747.
 IVT=       59939 IEndB=       59939 NGot=  2415919104 MDV=  2404693258
 LenX=  2404693258 LenY=  2404679592
 Requested convergence on RMS density matrix=1.00D-08 within 128 cycles.
 Requested convergence on MAX density matrix=1.00D-06.
 Requested convergence on             energy=1.00D-06.
 No special actions if energy rises.
 FoFCou: FMM=F IPFlag=           0 FMFlag=           0 FMFlg1=           0
         NFxFlg=           0 DoJE=F BraDBF=F KetDBF=F FulRan=T
         wScrn=  0.000000 ICntrl=     600 IOpCl=  0 I1Cent=           0 NGrid=           0
         NMat0=    1 NMatS0=   6670 NMatT0=    0 NMatD0=    1 NMtDS0=    0 NMtDT0=    0
 Petite list used in FoFCou.

 Cycle   1  Pass 1  IDiag  1:
 E= -321.256101994180    
 DIIS: error= 6.43D-02 at cycle   1 NSaved=   1.
 NSaved= 1 IEnMin= 1 EnMin= -321.256101994180     IErMin= 1 ErrMin= 6.43D-02
 ErrMax= 6.43D-02  0.00D+00 EMaxC= 1.00D-01 BMatC= 4.66D-01 BMatP= 4.66D-01
 IDIUse=3 WtCom= 3.57D-01 WtEn= 6.43D-01
 Coeff-Com:  0.100D+01
 Coeff-En:   0.100D+01
 Coeff:      0.100D+01
 Gap=     0.406 Goal=   None    Shift=    0.000
 GapD=    0.406 DampG=2.000 DampE=0.500 DampFc=1.0000 IDamp=-1.
 RMSDP=7.56D-03 MaxDP=1.30D-01              OVMax= 2.10D-01

 Cycle   2  Pass 1  IDiag  1:
 E= -321.497263034661     Delta-E=       -0.241161040481 Rises=F Damp=F
 DIIS: error= 2.64D-02 at cycle   2 NSaved=   2.
 NSaved= 2 IEnMin= 2 EnMin= -321.497263034661     IErMin= 2 ErrMin= 2.64D-02
 ErrMax= 2.64D-02  0.00D+00 EMaxC= 1.00D-01 BMatC= 6.20D-02 BMatP= 4.66D-01
 IDIUse=3 WtCom= 7.36D-01 WtEn= 2.64D-01
 Coeff-Com:  0.186D+00 0.814D+00
 Coeff-En:   0.000D+00 0.100D+01
 Coeff:      0.137D+00 0.863D+00
 Gap=     0.485 Goal=   None    Shift=    0.000
 RMSDP=3.50D-03 MaxDP=6.21D-02 DE=-2.41D-01 OVMax= 7.41D-02

 Cycle   3  Pass 1  IDiag  1:
 E= -321.538948416380     Delta-E=       -0.041685381718 Rises=F Damp=F
 DIIS: error= 9.93D-03 at cycle   3 NSaved=   3.
 NSaved= 3 IEnMin= 3 EnMin= -321.538948416380     IErMin= 3 ErrMin= 9.93D-03
 ErrMax= 9.93D-03  0.00D+00 EMaxC= 1.00D-01 BMatC= 1.01D-02 BMatP= 6.20D-02
 IDIUse=3 WtCom= 9.01D-01 WtEn= 9.93D-02
 Coeff-Com: -0.177D-01 0.261D+00 0.757D+00
 Coeff-En:   0.000D+00 0.000D+00 0.100D+01
 Coeff:     -0.160D-01 0.235D+00 0.781D+00
 Gap=     0.450 Goal=   None    Shift=    0.000
 RMSDP=9.60D-04 MaxDP=2.60D-02 DE=-4.17D-02 OVMax= 5.29D-02

 Cycle   4  Pass 1  IDiag  1:
 E= -321.547730144211     Delta-E=       -0.008781727831 Rises=F Damp=F
 DIIS: error= 2.56D-03 at cycle   4 NSaved=   4.
 NSaved= 4 IEnMin= 4 EnMin= -321.547730144211     IErMin= 4 ErrMin= 2.56D-03
 ErrMax= 2.56D-03  0.00D+00 EMaxC= 1.00D-01 BMatC= 7.63D-04 BMatP= 1.01D-02
 IDIUse=3 WtCom= 9.74D-01 WtEn= 2.56D-02
 Coeff-Com: -0.113D-01 0.383D-01 0.267D+00 0.706D+00
 Coeff-En:   0.000D+00 0.000D+00 0.000D+00 0.100D+01
 Coeff:     -0.110D-01 0.373D-01 0.260D+00 0.714D+00
 Gap=     0.448 Goal=   None    Shift=    0.000
 RMSDP=3.02D-04 MaxDP=5.11D-03 DE=-8.78D-03 OVMax= 6.88D-03

 Cycle   5  Pass 1  IDiag  1:
 E= -321.548522329594     Delta-E=       -0.000792185384 Rises=F Damp=F
 DIIS: error= 1.16D-03 at cycle   5 NSaved=   5.
 NSaved= 5 IEnMin= 5 EnMin= -321.548522329594     IErMin= 5 ErrMin= 1.16D-03
 ErrMax= 1.16D-03  0.00D+00 EMaxC= 1.00D-01 BMatC= 4.02D-05 BMatP= 7.63D-04
 IDIUse=3 WtCom= 9.88D-01 WtEn= 1.16D-02
 Coeff-Com:  0.367D-02-0.328D-01-0.115D+00-0.177D+00 0.132D+01
 Coeff-En:   0.000D+00 0.000D+00 0.000D+00 0.000D+00 0.100D+01
 Coeff:      0.363D-02-0.324D-01-0.114D+00-0.175D+00 0.132D+01
 Gap=     0.449 Goal=   None    Shift=    0.000
 RMSDP=1.84D-04 MaxDP=3.21D-03 DE=-7.92D-04 OVMax= 1.02D-02

 Cycle   6  Pass 1  IDiag  1:
 E= -321.548709671317     Delta-E=       -0.000187341723 Rises=F Damp=F
 DIIS: error= 4.42D-04 at cycle   6 NSaved=   6.
 NSaved= 6 IEnMin= 6 EnMin= -321.548709671317     IErMin= 6 ErrMin= 4.42D-04
 ErrMax= 4.42D-04  0.00D+00 EMaxC= 1.00D-01 BMatC= 9.38D-06 BMatP= 4.02D-05
 IDIUse=3 WtCom= 9.96D-01 WtEn= 4.42D-03
 Coeff-Com:  0.128D-02-0.517D-02-0.248D-01-0.109D+00 0.469D-01 0.109D+01
 Coeff-En:   0.000D+00 0.000D+00 0.000D+00 0.000D+00 0.000D+00 0.100D+01
 Coeff:      0.127D-02-0.514D-02-0.247D-01-0.109D+00 0.467D-01 0.109D+01
 Gap=     0.450 Goal=   None    Shift=    0.000
 RMSDP=7.66D-05 MaxDP=1.44D-03 DE=-1.87D-04 OVMax= 4.35D-03

 Cycle   7  Pass 1  IDiag  1:
 E= -321.548741412294     Delta-E=       -0.000031740977 Rises=F Damp=F
 DIIS: error= 1.44D-04 at cycle   7 NSaved=   7.
 NSaved= 7 IEnMin= 7 EnMin= -321.548741412294     IErMin= 7 ErrMin= 1.44D-04
 ErrMax= 1.44D-04  0.00D+00 EMaxC= 1.00D-01 BMatC= 1.92D-06 BMatP= 9.38D-06
 IDIUse=3 WtCom= 9.99D-01 WtEn= 1.44D-03
 Coeff-Com: -0.477D-03 0.593D-02 0.204D-01-0.346D-02-0.263D+00 0.234D+00
 Coeff-Com:  0.101D+01
 Coeff-En:   0.000D+00 0.000D+00 0.000D+00 0.000D+00 0.000D+00 0.000D+00
 Coeff-En:   0.100D+01
 Coeff:     -0.476D-03 0.592D-02 0.203D-01-0.346D-02-0.263D+00 0.234D+00
 Coeff:      0.101D+01
 Gap=     0.450 Goal=   None    Shift=    0.000
 RMSDP=3.69D-05 MaxDP=5.96D-04 DE=-3.17D-05 OVMax= 1.95D-03

 Cycle   8  Pass 1  IDiag  1:
 E= -321.548747701749     Delta-E=       -0.000006289455 Rises=F Damp=F
 DIIS: error= 5.15D-05 at cycle   8 NSaved=   8.
 NSaved= 8 IEnMin= 8 EnMin= -321.548747701749     IErMin= 8 ErrMin= 5.15D-05
 ErrMax= 5.15D-05  0.00D+00 EMaxC= 1.00D-01 BMatC= 2.19D-07 BMatP= 1.92D-06
 IDIUse=1 WtCom= 1.00D+00 WtEn= 0.00D+00
 Coeff-Com: -0.231D-03 0.143D-02 0.665D-02 0.154D-01-0.134D-01-0.191D+00
 Coeff-Com:  0.132D+00 0.105D+01
 Coeff:     -0.231D-03 0.143D-02 0.665D-02 0.154D-01-0.134D-01-0.191D+00
 Coeff:      0.132D+00 0.105D+01
 Gap=     0.450 Goal=   None    Shift=    0.000
 RMSDP=1.06D-05 MaxDP=1.95D-04 DE=-6.29D-06 OVMax= 5.27D-04

 Cycle   9  Pass 1  IDiag  1:
 E= -321.548748176183     Delta-E=       -0.000000474435 Rises=F Damp=F
 DIIS: error= 1.48D-05 at cycle   9 NSaved=   9.
 NSaved= 9 IEnMin= 9 EnMin= -321.548748176183     IErMin= 9 ErrMin= 1.48D-05
 ErrMax= 1.48D-05  0.00D+00 EMaxC= 1.00D-01 BMatC= 1.30D-08 BMatP= 2.19D-07
 IDIUse=1 WtCom= 1.00D+00 WtEn= 0.00D+00
 Coeff-Com:  0.243D-04-0.345D-03-0.110D-02-0.440D-03 0.154D-01-0.256D-01
 Coeff-Com: -0.306D-01-0.313D-01 0.107D+01
 Coeff:      0.243D-04-0.345D-03-0.110D-02-0.440D-03 0.154D-01-0.256D-01
 Coeff:     -0.306D-01-0.313D-01 0.107D+01
 Gap=     0.450 Goal=   None    Shift=    0.000
 RMSDP=2.27D-06 MaxDP=5.91D-05 DE=-4.74D-07 OVMax= 9.25D-05

 Cycle  10  Pass 1  IDiag  1:
 E= -321.548748206459     Delta-E=       -0.000000030276 Rises=F Damp=F
 DIIS: error= 7.19D-06 at cycle  10 NSaved=  10.
 NSaved=10 IEnMin=10 EnMin= -321.548748206459     IErMin=10 ErrMin= 7.19D-06
 ErrMax= 7.19D-06  0.00D+00 EMaxC= 1.00D-01 BMatC= 2.98D-09 BMatP= 1.30D-08
 IDIUse=1 WtCom= 1.00D+00 WtEn= 0.00D+00
 Coeff-Com:  0.472D-04-0.330D-03-0.132D-02-0.328D-02 0.503D-02 0.333D-01
 Coeff-Com: -0.161D-01-0.232D+00 0.134D+00 0.108D+01
 Coeff:      0.472D-04-0.330D-03-0.132D-02-0.328D-02 0.503D-02 0.333D-01
 Coeff:     -0.161D-01-0.232D+00 0.134D+00 0.108D+01
 Gap=     0.450 Goal=   None    Shift=    0.000
 RMSDP=9.77D-07 MaxDP=2.29D-05 DE=-3.03D-08 OVMax= 4.50D-05

 Cycle  11  Pass 1  IDiag  1:
 E= -321.548748212751     Delta-E=       -0.000000006292 Rises=F Damp=F
 DIIS: error= 1.51D-06 at cycle  11 NSaved=  11.
 NSaved=11 IEnMin=11 EnMin= -321.548748212751     IErMin=11 ErrMin= 1.51D-06
 ErrMax= 1.51D-06  0.00D+00 EMaxC= 1.00D-01 BMatC= 1.83D-10 BMatP= 2.98D-09
 IDIUse=1 WtCom= 1.00D+00 WtEn= 0.00D+00
 Coeff-Com: -0.615D-05 0.622D-04 0.268D-03 0.252D-03-0.211D-02-0.133D-02
 Coeff-Com:  0.747D-02 0.203D-01-0.938D-01-0.180D+00 0.125D+01
 Coeff:     -0.615D-05 0.622D-04 0.268D-03 0.252D-03-0.211D-02-0.133D-02
 Coeff:      0.747D-02 0.203D-01-0.938D-01-0.180D+00 0.125D+01
 Gap=     0.450 Goal=   None    Shift=    0.000
 RMSDP=3.00D-07 MaxDP=7.83D-06 DE=-6.29D-09 OVMax= 1.37D-05

 Cycle  12  Pass 1  IDiag  1:
 E= -321.548748213229     Delta-E=       -0.000000000477 Rises=F Damp=F
 DIIS: error= 4.41D-07 at cycle  12 NSaved=  12.
 NSaved=12 IEnMin=12 EnMin= -321.548748213229     IErMin=12 ErrMin= 4.41D-07
 ErrMax= 4.41D-07  0.00D+00 EMaxC= 1.00D-01 BMatC= 1.09D-11 BMatP= 1.83D-10
 IDIUse=1 WtCom= 1.00D+00 WtEn= 0.00D+00
 Coeff-Com: -0.283D-05 0.197D-04 0.847D-04 0.170D-03-0.366D-03-0.195D-02
 Coeff-Com:  0.967D-03 0.130D-01-0.147D-02-0.812D-01 0.355D-01 0.104D+01
 Coeff:     -0.283D-05 0.197D-04 0.847D-04 0.170D-03-0.366D-03-0.195D-02
 Coeff:      0.967D-03 0.130D-01-0.147D-02-0.812D-01 0.355D-01 0.104D+01
 Gap=     0.450 Goal=   None    Shift=    0.000
 RMSDP=8.89D-08 MaxDP=1.54D-06 DE=-4.77D-10 OVMax= 2.35D-06

 Cycle  13  Pass 1  IDiag  1:
 E= -321.548748213259     Delta-E=       -0.000000000030 Rises=F Damp=F
 DIIS: error= 1.19D-07 at cycle  13 NSaved=  13.
 NSaved=13 IEnMin=13 EnMin= -321.548748213259     IErMin=13 ErrMin= 1.19D-07
 ErrMax= 1.19D-07  0.00D+00 EMaxC= 1.00D-01 BMatC= 1.56D-12 BMatP= 1.09D-11
 IDIUse=1 WtCom= 1.00D+00 WtEn= 0.00D+00
 Coeff-Com:  0.874D-06-0.809D-05-0.320D-04-0.424D-04 0.271D-03 0.334D-03
 Coeff-Com: -0.112D-02-0.290D-02 0.139D-01 0.158D-01-0.149D+00 0.194D-02
 Coeff-Com:  0.112D+01
 Coeff:      0.874D-06-0.809D-05-0.320D-04-0.424D-04 0.271D-03 0.334D-03
 Coeff:     -0.112D-02-0.290D-02 0.139D-01 0.158D-01-0.149D+00 0.194D-02
 Coeff:      0.112D+01
 Gap=     0.450 Goal=   None    Shift=    0.000
 RMSDP=3.29D-08 MaxDP=5.84D-07 DE=-3.01D-11 OVMax= 9.47D-07

 Cycle  14  Pass 1  IDiag  1:
 E= -321.548748213260     Delta-E=       -0.000000000001 Rises=F Damp=F
 DIIS: error= 3.26D-08 at cycle  14 NSaved=  14.
 NSaved=14 IEnMin=14 EnMin= -321.548748213260     IErMin=14 ErrMin= 3.26D-08
 ErrMax= 3.26D-08  0.00D+00 EMaxC= 1.00D-01 BMatC= 1.43D-13 BMatP= 1.56D-12
 IDIUse=1 WtCom= 1.00D+00 WtEn= 0.00D+00
 Coeff-Com:  0.778D-07-0.276D-06-0.658D-07-0.133D-04-0.440D-04 0.201D-03
 Coeff-Com:  0.519D-04-0.771D-03-0.235D-02 0.217D-02 0.378D-01-0.960D-01
 Coeff-Com: -0.310D+00 0.137D+01
 Coeff:      0.778D-07-0.276D-06-0.658D-07-0.133D-04-0.440D-04 0.201D-03
 Coeff:      0.519D-04-0.771D-03-0.235D-02 0.217D-02 0.378D-01-0.960D-01
 Coeff:     -0.310D+00 0.137D+01
 Gap=     0.450 Goal=   None    Shift=    0.000
 RMSDP=1.40D-08 MaxDP=2.72D-07 DE=-1.36D-12 OVMax= 2.65D-07

 Cycle  15  Pass 1  IDiag  1:
 E= -321.548748213263     Delta-E=       -0.000000000003 Rises=F Damp=F
 DIIS: error= 4.72D-09 at cycle  15 NSaved=  15.
 NSaved=15 IEnMin=15 EnMin= -321.548748213263     IErMin=15 ErrMin= 4.72D-09
 ErrMax= 4.72D-09  0.00D+00 EMaxC= 1.00D-01 BMatC= 3.96D-15 BMatP= 1.43D-13
 IDIUse=1 WtCom= 1.00D+00 WtEn= 0.00D+00
 Coeff-Com: -0.503D-07 0.355D-06 0.129D-05 0.491D-05 0.246D-05-0.590D-04
 Coeff-Com:  0.222D-05 0.330D-03 0.335D-03-0.138D-02-0.638D-02 0.317D-01
 Coeff-Com:  0.450D-01-0.407D+00 0.134D+01
 Coeff:     -0.503D-07 0.355D-06 0.129D-05 0.491D-05 0.246D-05-0.590D-04
 Coeff:      0.222D-05 0.330D-03 0.335D-03-0.138D-02-0.638D-02 0.317D-01
 Coeff:      0.450D-01-0.407D+00 0.134D+01
 Gap=     0.450 Goal=   None    Shift=    0.000
 RMSDP=1.54D-09 MaxDP=2.42D-08 DE=-3.41D-12 OVMax= 5.94D-08

 SCF Done:  E(RHF) =  -321.548748213     A.U. after   15 cycles
            NFock= 15  Conv=0.15D-08     -V/T= 2.0022
 KE= 3.208499345405D+02 PE=-1.301449717866D+03 EE= 3.846392869859D+02
 Leave Link  502 at Sun Sep  5 14:59:03 2021, MaxMem=  2415919104 cpu:         6.1
 (Enter /gpfs/share/home/1801110325/software/g09e01/l601.exe)
 Copying SCF densities to generalized density rwf, IOpCl= 0 IROHF=0.

 **********************************************************************

            Population analysis using the SCF density.

 **********************************************************************

 Orbital symmetries:
       Occupied  (A') (A') (A') (A") (A') (A") (A') (A') (A') (A')
                 (A") (A") (A') (A') (A") (A') (A") (A') (A') (A')
                 (A") (A') (A") (A") (A')
       Virtual   (A') (A") (A') (A') (A") (A') (A") (A') (A') (A')
                 (A") (A") (A') (A') (A") (A") (A') (A') (A') (A")
                 (A') (A") (A') (A") (A') (A') (A") (A') (A') (A")
                 (A') (A') (A") (A") (A') (A') (A") (A") (A') (A')
                 (A') (A") (A') (A") (A") (A') (A") (A') (A') (A")
                 (A') (A") (A') (A') (A") (A") (A') (A') (A") (A')
                 (A') (A") (A') (A') (A") (A") (A') (A') (A") (A")
                 (A') (A') (A") (A') (A') (A") (A') (A') (A") (A")
                 (A') (A") (A') (A') (A') (A") (A') (A") (A') (A')
 The electronic state is 1-A'.
 Alpha  occ. eigenvalues --  -20.49988 -15.63960 -11.30804 -11.30782 -11.30780
 Alpha  occ. eigenvalues --  -11.22808 -11.22807  -1.33601  -1.30992  -1.06225
 Alpha  occ. eigenvalues --   -1.06093  -0.87228  -0.84895  -0.78144  -0.68816
 Alpha  occ. eigenvalues --   -0.66598  -0.62781  -0.61347  -0.59471  -0.55543
 Alpha  occ. eigenvalues --   -0.53825  -0.50078  -0.38636  -0.38335  -0.31524
 Alpha virt. eigenvalues --    0.13503   0.14354   0.18533   0.26664   0.26674
 Alpha virt. eigenvalues --    0.30760   0.33064   0.35755   0.38509   0.44679
 Alpha virt. eigenvalues --    0.45864   0.50305   0.53790   0.63735   0.67926
 Alpha virt. eigenvalues --    0.72444   0.72633   0.73891   0.78481   0.79342
 Alpha virt. eigenvalues --    0.80160   0.82397   0.83842   0.89560   0.93796
 Alpha virt. eigenvalues --    0.95618   0.95805   1.03465   1.04867   1.06985
 Alpha virt. eigenvalues --    1.09427   1.11468   1.12775   1.15508   1.17306
 Alpha virt. eigenvalues --    1.17600   1.26675   1.31056   1.31827   1.35373
 Alpha virt. eigenvalues --    1.35956   1.44364   1.46828   1.47817   1.49315
 Alpha virt. eigenvalues --    1.62842   1.70766   1.70957   1.71258   1.72607
 Alpha virt. eigenvalues --    1.74743   1.76248   1.85778   1.97631   2.06257
 Alpha virt. eigenvalues --    2.13780   2.15060   2.18513   2.23857   2.29092
 Alpha virt. eigenvalues --    2.30392   2.32380   2.37082   2.38747   2.45767
 Alpha virt. eigenvalues --    2.48145   2.52157   2.57120   2.59980   2.64703
 Alpha virt. eigenvalues --    2.65491   2.87934   2.91842   2.98560   2.98930
 Alpha virt. eigenvalues --    2.99373   3.08603   3.09027   3.12122   3.21677
 Alpha virt. eigenvalues --    3.38487   3.52308   3.76656   4.34033   4.47724
 Alpha virt. eigenvalues --    4.52527   4.58713   4.72160   4.82341   5.15296
          Condensed to atoms (all electrons):
               1          2          3          4          5          6
     1  C    4.765202   0.558453  -0.034198   0.003418  -0.059149   0.292135
     2  C    0.558453   5.239373   0.419407  -0.107919   0.003418  -0.045889
     3  C   -0.034198   0.419407   4.159066   0.419407  -0.034198  -0.021562
     4  C    0.003418  -0.107919   0.419407   5.239373   0.558453  -0.045889
     5  C   -0.059149   0.003418  -0.034198   0.558453   4.765202   0.292135
     6  N    0.292135  -0.045889  -0.021562  -0.045889   0.292135   7.066003
     7  H    0.388626  -0.017411   0.001005  -0.000361   0.002434  -0.043148
     8  H   -0.033604   0.377126  -0.016459   0.004526  -0.000292   0.002684
     9  H   -0.000292   0.004526  -0.016459   0.377126  -0.033604   0.002684
    10  H    0.002434  -0.000361   0.001005  -0.017411   0.388626  -0.043148
    11  O    0.004357  -0.069721   0.549613  -0.069721   0.004357   0.000024
    12  H   -0.021471   0.001949   0.000063   0.001949  -0.021471   0.335273
               7          8          9         10         11         12
     1  C    0.388626  -0.033604  -0.000292   0.002434   0.004357  -0.021471
     2  C   -0.017411   0.377126   0.004526  -0.000361  -0.069721   0.001949
     3  C    0.001005  -0.016459  -0.016459   0.001005   0.549613   0.000063
     4  C   -0.000361   0.004526   0.377126  -0.017411  -0.069721   0.001949
     5  C    0.002434  -0.000292  -0.033604   0.388626   0.004357  -0.021471
     6  N   -0.043148   0.002684   0.002684  -0.043148   0.000024   0.335273
     7  H    0.439797  -0.001397   0.000008  -0.000094  -0.000041  -0.002091
     8  H   -0.001397   0.441840  -0.000071   0.000008   0.001122  -0.000089
     9  H    0.000008  -0.000071   0.441840  -0.001397   0.001122  -0.000089
    10  H   -0.000094   0.000008  -0.001397   0.439797  -0.000041  -0.002091
    11  O   -0.000041   0.001122   0.001122  -0.000041   8.223257   0.000002
    12  H   -0.002091  -0.000089  -0.000089  -0.002091   0.000002   0.302582
 Mulliken charges:
               1
     1  C    0.134090
     2  C   -0.362950
     3  C    0.573310
     4  C   -0.362950
     5  C    0.134090
     6  N   -0.791302
     7  H    0.232674
     8  H    0.224606
     9  H    0.224606
    10  H    0.232674
    11  O   -0.644332
    12  H    0.405485
 Sum of Mulliken charges =  -0.00000
 Mulliken charges with hydrogens summed into heavy atoms:
               1
     1  C    0.366764
     2  C   -0.138344
     3  C    0.573310
     4  C   -0.138344
     5  C    0.366764
     6  N   -0.385817
    11  O   -0.644332
 Electronic spatial extent (au):  <R**2>=            635.6836
 Charge=             -0.0000 electrons
 Dipole moment (field-independent basis, Debye):
    X=              0.0019    Y=              7.3258    Z=              0.0000  Tot=              7.3258
 Quadrupole moment (field-independent basis, Debye-Ang):
   XX=            -43.0508   YY=            -42.3601   ZZ=            -33.7034
   XY=             -0.0067   XZ=             -0.0000   YZ=              0.0000
 Traceless Quadrupole moment (field-independent basis, Debye-Ang):
   XX=             -3.3460   YY=             -2.6554   ZZ=              6.0014
   XY=             -0.0067   XZ=             -0.0000   YZ=              0.0000
 Octapole moment (field-independent basis, Debye-Ang**2):
  XXX=             -0.0021  YYY=             58.2163  ZZZ=              0.0000  XYY=              0.0056
  XXY=             -2.7398  XXZ=              0.0000  XZZ=             -0.0049  YZZ=              4.4200
  YYZ=              0.0000  XYZ=              0.0000
 Hexadecapole moment (field-independent basis, Debye-Ang**3):
 XXXX=            -42.4288 YYYY=           -477.5704 ZZZZ=           -252.7913 XXXY=             -0.0227
 XXXZ=             -0.0000 YYYX=             -0.0486 YYYZ=              0.0000 ZZZX=             -0.0000
 ZZZY=              0.0000 XXYY=            -89.0737 XXZZ=            -61.9068 YYZZ=           -109.7059
 XXYZ=             -0.0000 YYXZ=             -0.0000 ZZXY=             -0.0073
 N-N= 2.744117481266D+02 E-N=-1.301449717888D+03  KE= 3.208499345405D+02
 Symmetry A'   KE= 2.354414900574D+02
 Symmetry A"   KE= 8.540844448311D+01
 No NMR shielding tensors so no spin-rotation constants.
 Leave Link  601 at Sun Sep  5 14:59:03 2021, MaxMem=  2415919104 cpu:         0.5
 (Enter /gpfs/share/home/1801110325/software/g09e01/l701.exe)
 Compute integral first derivatives.
 ... and contract with generalized density number  0.
 Leave Link  701 at Sun Sep  5 14:59:04 2021, MaxMem=  2415919104 cpu:         0.5
 (Enter /gpfs/share/home/1801110325/software/g09e01/l702.exe)
 L702 exits ... SP integral derivatives will be done elsewhere.
 Leave Link  702 at Sun Sep  5 14:59:04 2021, MaxMem=  2415919104 cpu:         0.1
 (Enter /gpfs/share/home/1801110325/software/g09e01/l703.exe)
 Compute integral first derivatives, UseDBF=F ICtDFT=           0.
 Integral derivatives from FoFJK, PRISM(SPDF).
 Calling FoFJK, ICntrl=      2127 FMM=F ISym2X=1 I1Cent= 0 IOpClX= 0 NMat=1 NMatS=1 NMatT=0.
 FoFJK:  IHMeth= 1 ICntrl=    2127 DoSepK=F KAlg= 0 I1Cent=   0 FoldK=F
 IRaf=         0 NMat=   1 IRICut=       1 DoRegI=T DoRafI=F ISym2E= 1.
 FoFCou: FMM=F IPFlag=           0 FMFlag=      100000 FMFlg1=         800
         NFxFlg=           0 DoJE=F BraDBF=F KetDBF=F FulRan=T
         wScrn=  0.000000 ICntrl=    2127 IOpCl=  0 I1Cent=           0 NGrid=           0
         NMat0=    1 NMatS0=      1 NMatT0=    0 NMatD0=    1 NMtDS0=    0 NMtDT0=    0
 Petite list used in FoFCou.
 Leave Link  703 at Sun Sep  5 14:59:04 2021, MaxMem=  2415919104 cpu:         1.8
 (Enter /gpfs/share/home/1801110325/software/g09e01/l716.exe)
 Dipole        = 7.51291061D-04 2.88219032D+00 3.99802833D-15
 ***** Axes restored to original set *****
 -------------------------------------------------------------------
 Center     Atomic                   Forces (Hartrees/Bohr)
 Number     Number              X              Y              Z
 -------------------------------------------------------------------
      1        6          -0.000009146    0.010451203   -0.003150252
      2        6          -0.000101635   -0.009407711    0.007668149
      3        6           0.000371459    0.031495766    0.000000000
      4        6          -0.000101635   -0.009407711   -0.007668149
      5        6          -0.000009146    0.010451203    0.003150252
      6        7          -0.000000372   -0.008980369   -0.000000000
      7        1           0.000011825    0.003676630   -0.004565982
      8        1          -0.000000840   -0.002603154   -0.004643065
      9        1          -0.000000840   -0.002603154    0.004643065
     10        1           0.000011825    0.003676630    0.004565982
     11        8          -0.000164933   -0.037318489   -0.000000000
     12        1          -0.000006563    0.010569156   -0.000000000
 -------------------------------------------------------------------
 Cartesian Forces:  Max     0.037318489 RMS     0.009480255
 Leave Link  716 at Sun Sep  5 14:59:04 2021, MaxMem=  2415919104 cpu:         0.1
 (Enter /gpfs/share/home/1801110325/software/g09e01/l103.exe)

 GradGradGradGradGradGradGradGradGradGradGradGradGradGradGradGradGradGrad
 Berny optimization.
 FormGI is forming the generalized inverse of G from B-inverse, IUseBI=4.
 Internal  Forces:  Max     0.037318637 RMS     0.006332323
 Search for a local minimum.
 Step number   1 out of a maximum of   64
 All quantities printed in internal units (Hartrees-Bohrs-Radians)
 RMS Force = .63323D-02 SwitMx=.10000D-02 MixMth= 1
 Mixed Optimization -- RFO/linear search
 Second derivative matrix not updated -- first step.
 ITU=  0
     Eigenvalues ---    0.01258   0.01543   0.01916   0.02033   0.02106
     Eigenvalues ---    0.02296   0.02309   0.02475   0.02517   0.16000
     Eigenvalues ---    0.16000   0.16000   0.16000   0.16000   0.22000
     Eigenvalues ---    0.22000   0.23393   0.25000   0.35288   0.35921
     Eigenvalues ---    0.35933   0.35933   0.36012   0.36012   0.47003
     Eigenvalues ---    0.48917   0.49051   0.52633   0.55008   0.91571
 RFO step:  Lambda=-3.19769831D-03 EMin= 1.25820043D-02
 Linear search not attempted -- first point.
 Iteration  1 RMS(Cart)=  0.01420978 RMS(Int)=  0.00003582
 Iteration  2 RMS(Cart)=  0.00003344 RMS(Int)=  0.00000983
 Iteration  3 RMS(Cart)=  0.00000000 RMS(Int)=  0.00000983
 ITry= 1 IFail=0 DXMaxC= 6.31D-02 DCOld= 1.00D+10 DXMaxT= 3.00D-01 DXLimC= 3.00D+00 Rises=F
 ClnCor:  largest displacement from symmetrization is 4.21D-13 for atom     5.
 Variable       Old X    -DE/DX   Delta X   Delta X   Delta X     New X
                                 (Linear)    (Quad)   (Total)
    R1        2.55123  -0.01484   0.00000  -0.02684  -0.02684   2.52439
    R2        2.58643  -0.00462   0.00000  -0.00948  -0.00947   2.57696
    R3        2.04186  -0.00585   0.00000  -0.01613  -0.01613   2.02573
    R4        2.76427  -0.00145   0.00000  -0.00322  -0.00323   2.76104
    R5        2.04063  -0.00532   0.00000  -0.01465  -0.01465   2.02598
    R6        2.76427  -0.00145   0.00000  -0.00322  -0.00323   2.76104
    R7        2.32217  -0.03732   0.00000  -0.04061  -0.04061   2.28156
    R8        2.55123  -0.01484   0.00000  -0.02684  -0.02684   2.52439
    R9        2.04063  -0.00532   0.00000  -0.01465  -0.01465   2.02598
   R10        2.58643  -0.00462   0.00000  -0.00948  -0.00947   2.57696
   R11        2.04186  -0.00585   0.00000  -0.01613  -0.01613   2.02573
   R12        1.89717  -0.01057   0.00000  -0.02233  -0.02233   1.87483
    A1        2.11603   0.00241   0.00000   0.00977   0.00979   2.12582
    A2        2.14883  -0.00164   0.00000  -0.00757  -0.00758   2.14126
    A3        2.01832  -0.00077   0.00000  -0.00220  -0.00221   2.01611
    A4        2.12294  -0.00287   0.00000  -0.01147  -0.01148   2.11146
    A5        2.09830   0.00138   0.00000   0.00540   0.00540   2.10371
    A6        2.06195   0.00149   0.00000   0.00607   0.00607   2.06802
    A7        1.98413   0.00176   0.00000   0.00942   0.00938   1.99351
    A8        2.14953  -0.00088   0.00000  -0.00470  -0.00469   2.14483
    A9        2.14953  -0.00088   0.00000  -0.00470  -0.00469   2.14483
   A10        2.12294  -0.00287   0.00000  -0.01147  -0.01148   2.11146
   A11        2.06195   0.00149   0.00000   0.00607   0.00607   2.06802
   A12        2.09830   0.00138   0.00000   0.00540   0.00540   2.10371
   A13        2.11603   0.00241   0.00000   0.00977   0.00979   2.12582
   A14        2.14883  -0.00164   0.00000  -0.00757  -0.00758   2.14126
   A15        2.01832  -0.00077   0.00000  -0.00220  -0.00221   2.01611
   A16        2.10430  -0.00085   0.00000  -0.00602  -0.00600   2.09831
   A17        2.08944   0.00042   0.00000   0.00301   0.00300   2.09244
   A18        2.08944   0.00042   0.00000   0.00301   0.00300   2.09244
    D1        0.00034  -0.00002   0.00000  -0.00120  -0.00120  -0.00086
    D2       -3.14145  -0.00001   0.00000  -0.00064  -0.00064   3.14110
    D3       -3.14130  -0.00002   0.00000  -0.00095  -0.00095   3.14094
    D4        0.00010  -0.00001   0.00000  -0.00039  -0.00039  -0.00029
    D5        0.00026  -0.00001   0.00000  -0.00057  -0.00057  -0.00031
    D6        3.14129   0.00000   0.00000   0.00018   0.00017   3.14147
    D7       -3.14129  -0.00001   0.00000  -0.00080  -0.00080   3.14110
    D8       -0.00026   0.00000   0.00000  -0.00006  -0.00006  -0.00032
    D9       -0.00085   0.00005   0.00000   0.00271   0.00272   0.00187
   D10       -3.14035  -0.00006   0.00000  -0.00368  -0.00368   3.13915
   D11        3.14093   0.00004   0.00000   0.00216   0.00217  -3.14009
   D12        0.00143  -0.00007   0.00000  -0.00423  -0.00423  -0.00281
   D13        0.00085  -0.00005   0.00000  -0.00271  -0.00272  -0.00187
   D14       -3.14093  -0.00004   0.00000  -0.00216  -0.00217   3.14009
   D15        3.14035   0.00006   0.00000   0.00368   0.00368  -3.13915
   D16       -0.00143   0.00007   0.00000   0.00423   0.00423   0.00281
   D17       -0.00034   0.00002   0.00000   0.00120   0.00120   0.00086
   D18        3.14130   0.00002   0.00000   0.00095   0.00095  -3.14094
   D19        3.14145   0.00001   0.00000   0.00064   0.00064  -3.14110
   D20       -0.00010   0.00001   0.00000   0.00039   0.00039   0.00029
   D21       -0.00026   0.00001   0.00000   0.00057   0.00057   0.00031
   D22       -3.14129  -0.00000   0.00000  -0.00018  -0.00017  -3.14147
   D23        3.14129   0.00001   0.00000   0.00080   0.00080  -3.14110
   D24        0.00026  -0.00000   0.00000   0.00006   0.00006   0.00032
         Item               Value     Threshold  Converged?
 Maximum Force            0.037319     0.000450     NO 
 RMS     Force            0.006332     0.000300     NO 
 Maximum Displacement     0.063113     0.001800     NO 
 RMS     Displacement     0.014225     0.001200     NO 
 Predicted change in Energy=-1.608099D-03
 Lowest energy point so far.  Saving SCF results.
 GradGradGradGradGradGradGradGradGradGradGradGradGradGradGradGradGradGrad

 Leave Link  103 at Sun Sep  5 14:59:04 2021, MaxMem=  2415919104 cpu:         0.1
 (Enter /gpfs/share/home/1801110325/software/g09e01/l202.exe)
                          Input orientation:                          
 ---------------------------------------------------------------------
 Center     Atomic      Atomic             Coordinates (Angstroms)
 Number     Number       Type             X           Y           Z
 ---------------------------------------------------------------------
      1          6           0       -0.000132   -1.036374    1.182305
      2          6           0        0.000053    0.298734    1.226887
      3          6           0        0.001433    1.092144    0.000000
      4          6           0        0.000053    0.298734   -1.226887
      5          6           0       -0.000132   -1.036374   -1.182305
      6          7           0       -0.000050   -1.715898   -0.000000
      7          1           0       -0.000538   -1.645046    2.064711
      8          1           0       -0.000469    0.812286    2.167987
      9          1           0       -0.000469    0.812286   -2.167987
     10          1           0       -0.000538   -1.645046   -2.064711
     11          8           0       -0.000834    2.299491    0.000000
     12          1           0       -0.000083   -2.708017   -0.000000
 ---------------------------------------------------------------------
                    Distance matrix (angstroms):
                    1          2          3          4          5
     1  C    0.000000
     2  C    1.335852   0.000000
     3  C    2.434838   1.461079   0.000000
     4  C    2.754399   2.453774   1.461079   0.000000
     5  C    2.364609   2.754399   2.434838   1.335852   0.000000
     6  N    1.363671   2.358812   2.808043   2.358812   1.363671
     7  H    1.071972   2.116656   3.428593   3.822682   3.303573
     8  H    2.095020   1.072103   2.185976   3.433497   3.826486
     9  H    3.826486   3.433497   2.185976   1.072103   2.095020
    10  H    3.303573   3.822682   3.428593   2.116656   1.071972
    11  O    3.539186   2.346972   1.207349   2.346972   3.539186
    12  H    2.047495   3.247431   3.800162   3.247431   2.047495
                    6          7          8          9         10
     6  N    0.000000
     7  H    2.065926   0.000000
     8  H    3.330448   2.459502   0.000000
     9  H    3.330448   4.894304   4.335973   0.000000
    10  H    2.065926   4.129422   4.894304   2.459502   0.000000
    11  O    4.015389   4.452236   2.629058   2.629058   4.452236
    12  H    0.992119   2.322270   4.134332   4.134332   2.322270
                   11         12
    11  O    0.000000
    12  H    5.007508   0.000000
 Stoichiometry    C5H5NO
 Framework group  CS[SG(CHNO),X(C4H4)]
 Deg. of freedom    17
 Full point group                 CS      NOp   2
 RotChk:  IX=3 Diff= 2.20D-04
 Largest Abelian subgroup         CS      NOp   2
 Largest concise Abelian subgroup CS      NOp   2
                         Standard orientation:                         
 ---------------------------------------------------------------------
 Center     Atomic      Atomic             Coordinates (Angstroms)
 Number     Number       Type             X           Y           Z
 ---------------------------------------------------------------------
      1          6           0       -0.000040    1.030619    1.182305
      2          6           0       -0.000040   -0.304488    1.226887
      3          6           0       -0.001310   -1.097898    0.000000
      4          6           0       -0.000040   -0.304488   -1.226887
      5          6           0       -0.000040    1.030619   -1.182305
      6          7           0       -0.000217    1.710144   -0.000000
      7          1           0        0.000281    1.639292    2.064711
      8          1           0        0.000553   -0.818040    2.167987
      9          1           0        0.000553   -0.818040   -2.167987
     10          1           0        0.000281    1.639292   -2.064711
     11          8           0        0.001125   -2.305245    0.000000
     12          1           0       -0.000321    2.702263   -0.000000
 ---------------------------------------------------------------------
 Rotational constants (GHZ):      5.7598955      2.7758083      1.8731168
 Leave Link  202 at Sun Sep  5 14:59:04 2021, MaxMem=  2415919104 cpu:         0.0
 (Enter /gpfs/share/home/1801110325/software/g09e01/l301.exe)
 Standard basis: GTBas1 (6D, 7F)
 Ernie: Thresh=  0.10000D-02 Tol=  0.10000D-05 Strict=F.
 There are    69 symmetry adapted cartesian basis functions of A'  symmetry.
 There are    46 symmetry adapted cartesian basis functions of A"  symmetry.
 There are    69 symmetry adapted basis functions of A'  symmetry.
 There are    46 symmetry adapted basis functions of A"  symmetry.
   115 basis functions,   216 primitive gaussians,   115 cartesian basis functions
    25 alpha electrons       25 beta electrons
       nuclear repulsion energy       276.4133917953 Hartrees.
 IExCor=    0 DFT=F Ex=HF Corr=None ExCW=0 ScaHFX=  1.000000
 ScaDFX=  1.000000  1.000000  1.000000  1.000000 ScalE2=  1.000000  1.000000
 IRadAn=      0 IRanWt=     -1 IRanGd=            0 ICorTp=0 IEmpDi=  4
 NAtoms=   12 NActive=   12 NUniq=    8 SFac= 2.25D+00 NAtFMM=   60 NAOKFM=F Big=F
 Integral buffers will be    131072 words long.
 Raffenetti 1 integral format.
 Two-electron integral symmetry is turned on.
 Leave Link  301 at Sun Sep  5 14:59:04 2021, MaxMem=  2415919104 cpu:         0.2
 (Enter /gpfs/share/home/1801110325/software/g09e01/l302.exe)
 NPDir=0 NMtPBC=     1 NCelOv=     1 NCel=       1 NClECP=     1 NCelD=      1
         NCelK=      1 NCelE2=     1 NClLst=     1 CellRange=     0.0.
 One-electron integrals computed using PRISM.
 One-electron integral symmetry used in STVInt
 NBasis=   115 RedAO= T EigKep=  6.30D-04  NBF=    69    46
 NBsUse=   115 1.00D-06 EigRej= -1.00D+00 NBFU=    69    46
 Leave Link  302 at Sun Sep  5 14:59:04 2021, MaxMem=  2415919104 cpu:         0.5
 (Enter /gpfs/share/home/1801110325/software/g09e01/l303.exe)
 DipDrv:  MaxL=1.
 Leave Link  303 at Sun Sep  5 14:59:04 2021, MaxMem=  2415919104 cpu:         0.1
 (Enter /gpfs/share/home/1801110325/software/g09e01/l401.exe)
 Initial guess from the checkpoint file:  "4PY_G3.chk"
 B after Tr=    -0.000000    0.000000    0.000000
         Rot=    1.000000   -0.000000   -0.000000   -0.000133 Ang=  -0.02 deg.
 Guess basis will be translated and rotated to current coordinates.
 JPrj=2 DoOrth=T DoCkMO=T.
 Initial guess orbital symmetries:
       Occupied  (A') (A') (A') (A") (A') (A") (A') (A') (A') (A')
                 (A") (A") (A') (A') (A") (A') (A") (A') (A') (A')
                 (A") (A') (A") (A") (A')
       Virtual   (A') (A') (A') (A') (A') (A') (A') (A') (A') (A')
                 (A') (A') (A') (A') (A') (A') (A') (A') (A') (A')
                 (A') (A') (A') (A') (A') (A') (A') (A') (A') (A')
                 (A') (A') (A') (A') (A') (A') (A') (A') (A') (A')
                 (A') (A') (A') (A') (A') (A') (A') (A') (A') (A')
                 (A') (A') (A') (A") (A") (A") (A") (A") (A") (A")
                 (A") (A") (A") (A") (A") (A") (A") (A") (A") (A")
                 (A") (A") (A") (A") (A") (A") (A") (A") (A") (A")
                 (A") (A") (A") (A") (A") (A") (A") (A") (A") (A")
 The electronic state of the initial guess is 1-A'.
 Generating alternative initial guess.
 ExpMin= 1.61D-01 ExpMax= 5.48D+03 ExpMxC= 8.25D+02 IAcc=1 IRadAn=         1 AccDes= 0.00D+00
 Harris functional with IExCor=  205 and IRadAn=       1 diagonalized for initial guess.
 HarFok:  IExCor=  205 AccDes= 0.00D+00 IRadAn=         1 IDoV= 1 UseB2=F ITyADJ=14
 ICtDFT=  3500011 ScaDFX=  1.000000  1.000000  1.000000  1.000000
 FoFCou: FMM=F IPFlag=           0 FMFlag=      100000 FMFlg1=           0
         NFxFlg=           0 DoJE=T BraDBF=F KetDBF=T FulRan=T
         wScrn=  0.000000 ICntrl=     500 IOpCl=  0 I1Cent=   200000004 NGrid=           0
         NMat0=    1 NMatS0=      1 NMatT0=    0 NMatD0=    1 NMtDS0=    0 NMtDT0=    0
 Petite list used in FoFCou.
 Harris En= -321.913393389276    
 Leave Link  401 at Sun Sep  5 14:59:04 2021, MaxMem=  2415919104 cpu:         0.9
 (Enter /gpfs/share/home/1801110325/software/g09e01/l502.exe)
 Closed shell SCF:
 Using DIIS extrapolation, IDIIS=  1040.
 Integral symmetry usage will be decided dynamically.
 Keep R1 ints in memory in symmetry-blocked form, NReq=33473747.
 IVT=       59939 IEndB=       59939 NGot=  2415919104 MDV=  2404693258
 LenX=  2404693258 LenY=  2404679592
 Requested convergence on RMS density matrix=1.00D-08 within 128 cycles.
 Requested convergence on MAX density matrix=1.00D-06.
 Requested convergence on             energy=1.00D-06.
 No special actions if energy rises.
 FoFCou: FMM=F IPFlag=           0 FMFlag=           0 FMFlg1=           0
         NFxFlg=           0 DoJE=F BraDBF=F KetDBF=F FulRan=T
         wScrn=  0.000000 ICntrl=     600 IOpCl=  0 I1Cent=           0 NGrid=           0
         NMat0=    1 NMatS0=   6670 NMatT0=    0 NMatD0=    1 NMtDS0=    0 NMtDT0=    0
 Petite list used in FoFCou.

 Cycle   1  Pass 1  IDiag  1:
 E= -321.549644978588    
 DIIS: error= 1.68D-03 at cycle   1 NSaved=   1.
 NSaved= 1 IEnMin= 1 EnMin= -321.549644978588     IErMin= 1 ErrMin= 1.68D-03
 ErrMax= 1.68D-03  0.00D+00 EMaxC= 1.00D-01 BMatC= 4.61D-04 BMatP= 4.61D-04
 IDIUse=3 WtCom= 9.83D-01 WtEn= 1.68D-02
 Coeff-Com:  0.100D+01
 Coeff-En:   0.100D+01
 Coeff:      0.100D+01
 Gap=     1.927 Goal=   None    Shift=    0.000
 GapD=    1.927 DampG=2.000 DampE=1.000 DampFc=2.0000 IDamp=-1.
 RMSDP=2.87D-04 MaxDP=4.57D-03              OVMax= 5.74D-03

 Cycle   2  Pass 1  IDiag  1:
 E= -321.550185361300     Delta-E=       -0.000540382712 Rises=F Damp=F
 DIIS: error= 4.29D-04 at cycle   2 NSaved=   2.
 NSaved= 2 IEnMin= 2 EnMin= -321.550185361300     IErMin= 2 ErrMin= 4.29D-04
 ErrMax= 4.29D-04  0.00D+00 EMaxC= 1.00D-01 BMatC= 3.67D-05 BMatP= 4.61D-04
 IDIUse=3 WtCom= 9.96D-01 WtEn= 4.29D-03
 Coeff-Com:  0.370D-01 0.963D+00
 Coeff-En:   0.000D+00 0.100D+01
 Coeff:      0.368D-01 0.963D+00
 Gap=     0.458 Goal=   None    Shift=    0.000
 RMSDP=8.04D-05 MaxDP=1.74D-03 DE=-5.40D-04 OVMax= 1.84D-03

 Cycle   3  Pass 1  IDiag  1:
 E= -321.550230981550     Delta-E=       -0.000045620250 Rises=F Damp=F
 DIIS: error= 2.61D-04 at cycle   3 NSaved=   3.
 NSaved= 3 IEnMin= 3 EnMin= -321.550230981550     IErMin= 3 ErrMin= 2.61D-04
 ErrMax= 2.61D-04  0.00D+00 EMaxC= 1.00D-01 BMatC= 5.93D-06 BMatP= 3.67D-05
 IDIUse=3 WtCom= 9.97D-01 WtEn= 2.61D-03
 Coeff-Com: -0.638D-01 0.147D+00 0.917D+00
 Coeff-En:   0.000D+00 0.000D+00 0.100D+01
 Coeff:     -0.636D-01 0.147D+00 0.917D+00
 Gap=     0.458 Goal=   None    Shift=    0.000
 RMSDP=3.19D-05 MaxDP=7.81D-04 DE=-4.56D-05 OVMax= 1.41D-03

 Cycle   4  Pass 1  IDiag  1:
 E= -321.550239847768     Delta-E=       -0.000008866218 Rises=F Damp=F
 DIIS: error= 1.14D-04 at cycle   4 NSaved=   4.
 NSaved= 4 IEnMin= 4 EnMin= -321.550239847768     IErMin= 4 ErrMin= 1.14D-04
 ErrMax= 1.14D-04  0.00D+00 EMaxC= 1.00D-01 BMatC= 7.75D-07 BMatP= 5.93D-06
 IDIUse=3 WtCom= 9.99D-01 WtEn= 1.14D-03
 Coeff-Com: -0.133D-01-0.482D-01 0.147D+00 0.915D+00
 Coeff-En:   0.000D+00 0.000D+00 0.000D+00 0.100D+01
 Coeff:     -0.132D-01-0.481D-01 0.147D+00 0.915D+00
 Gap=     0.458 Goal=   None    Shift=    0.000
 RMSDP=1.40D-05 MaxDP=2.67D-04 DE=-8.87D-06 OVMax= 5.45D-04

 Cycle   5  Pass 1  IDiag  1:
 E= -321.550241497716     Delta-E=       -0.000001649948 Rises=F Damp=F
 DIIS: error= 5.85D-05 at cycle   5 NSaved=   5.
 NSaved= 5 IEnMin= 5 EnMin= -321.550241497716     IErMin= 5 ErrMin= 5.85D-05
 ErrMax= 5.85D-05  0.00D+00 EMaxC= 1.00D-01 BMatC= 1.77D-07 BMatP= 7.75D-07
 IDIUse=1 WtCom= 1.00D+00 WtEn= 0.00D+00
 Coeff-Com:  0.104D-01-0.252D-01-0.160D+00 0.903D-01 0.108D+01
 Coeff:      0.104D-01-0.252D-01-0.160D+00 0.903D-01 0.108D+01
 Gap=     0.458 Goal=   None    Shift=    0.000
 RMSDP=9.00D-06 MaxDP=1.72D-04 DE=-1.65D-06 OVMax= 4.97D-04

 Cycle   6  Pass 1  IDiag  1:
 E= -321.550242003143     Delta-E=       -0.000000505428 Rises=F Damp=F
 DIIS: error= 2.02D-05 at cycle   6 NSaved=   6.
 NSaved= 6 IEnMin= 6 EnMin= -321.550242003143     IErMin= 6 ErrMin= 2.02D-05
 ErrMax= 2.02D-05  0.00D+00 EMaxC= 1.00D-01 BMatC= 2.08D-08 BMatP= 1.77D-07
 IDIUse=1 WtCom= 1.00D+00 WtEn= 0.00D+00
 Coeff-Com:  0.229D-02 0.845D-02-0.266D-01-0.153D+00-0.907D-02 0.118D+01
 Coeff:      0.229D-02 0.845D-02-0.266D-01-0.153D+00-0.907D-02 0.118D+01
 Gap=     0.458 Goal=   None    Shift=    0.000
 RMSDP=4.33D-06 MaxDP=1.06D-04 DE=-5.05D-07 OVMax= 2.46D-04

 Cycle   7  Pass 1  IDiag  1:
 E= -321.550242093410     Delta-E=       -0.000000090267 Rises=F Damp=F
 DIIS: error= 7.62D-06 at cycle   7 NSaved=   7.
 NSaved= 7 IEnMin= 7 EnMin= -321.550242093410     IErMin= 7 ErrMin= 7.62D-06
 ErrMax= 7.62D-06  0.00D+00 EMaxC= 1.00D-01 BMatC= 2.86D-09 BMatP= 2.08D-08
 IDIUse=1 WtCom= 1.00D+00 WtEn= 0.00D+00
 Coeff-Com: -0.123D-02 0.320D-02 0.187D-01-0.656D-02-0.134D+00-0.947D-01
 Coeff-Com:  0.121D+01
 Coeff:     -0.123D-02 0.320D-02 0.187D-01-0.656D-02-0.134D+00-0.947D-01
 Coeff:      0.121D+01
 Gap=     0.458 Goal=   None    Shift=    0.000
 RMSDP=2.00D-06 MaxDP=3.77D-05 DE=-9.03D-08 OVMax= 7.45D-05

 Cycle   8  Pass 1  IDiag  1:
 E= -321.550242102008     Delta-E=       -0.000000008597 Rises=F Damp=F
 DIIS: error= 2.33D-06 at cycle   8 NSaved=   8.
 NSaved= 8 IEnMin= 8 EnMin= -321.550242102008     IErMin= 8 ErrMin= 2.33D-06
 ErrMax= 2.33D-06  0.00D+00 EMaxC= 1.00D-01 BMatC= 4.84D-10 BMatP= 2.86D-09
 IDIUse=1 WtCom= 1.00D+00 WtEn= 0.00D+00
 Coeff-Com: -0.611D-03-0.325D-03 0.894D-02 0.209D-01-0.307D-01-0.174D+00
 Coeff-Com:  0.412D+00 0.764D+00
 Coeff:     -0.611D-03-0.325D-03 0.894D-02 0.209D-01-0.307D-01-0.174D+00
 Coeff:      0.412D+00 0.764D+00
 Gap=     0.458 Goal=   None    Shift=    0.000
 RMSDP=2.82D-07 MaxDP=7.04D-06 DE=-8.60D-09 OVMax= 1.21D-05

 Cycle   9  Pass 1  IDiag  1:
 E= -321.550242102588     Delta-E=       -0.000000000580 Rises=F Damp=F
 DIIS: error= 7.92D-07 at cycle   9 NSaved=   9.
 NSaved= 9 IEnMin= 9 EnMin= -321.550242102588     IErMin= 9 ErrMin= 7.92D-07
 ErrMax= 7.92D-07  0.00D+00 EMaxC= 1.00D-01 BMatC= 2.39D-11 BMatP= 4.84D-10
 IDIUse=1 WtCom= 1.00D+00 WtEn= 0.00D+00
 Coeff-Com:  0.178D-03-0.299D-03-0.264D-02-0.209D-02 0.159D-01 0.228D-01
 Coeff-Com: -0.171D+00-0.688D-01 0.121D+01
 Coeff:      0.178D-03-0.299D-03-0.264D-02-0.209D-02 0.159D-01 0.228D-01
 Coeff:     -0.171D+00-0.688D-01 0.121D+01
 Gap=     0.458 Goal=   None    Shift=    0.000
 RMSDP=2.00D-07 MaxDP=4.02D-06 DE=-5.80D-10 OVMax= 5.16D-06

 Cycle  10  Pass 1  IDiag  1:
 E= -321.550242102652     Delta-E=       -0.000000000064 Rises=F Damp=F
 DIIS: error= 6.98D-08 at cycle  10 NSaved=  10.
 NSaved=10 IEnMin=10 EnMin= -321.550242102652     IErMin=10 ErrMin= 6.98D-08
 ErrMax= 6.98D-08  0.00D+00 EMaxC= 1.00D-01 BMatC= 9.85D-13 BMatP= 2.39D-11
 IDIUse=1 WtCom= 1.00D+00 WtEn= 0.00D+00
 Coeff-Com:  0.572D-04-0.527D-04-0.817D-03-0.133D-02 0.424D-02 0.105D-01
 Coeff-Com: -0.457D-01-0.404D-01 0.191D+00 0.882D+00
 Coeff:      0.572D-04-0.527D-04-0.817D-03-0.133D-02 0.424D-02 0.105D-01
 Coeff:     -0.457D-01-0.404D-01 0.191D+00 0.882D+00
 Gap=     0.458 Goal=   None    Shift=    0.000
 RMSDP=2.39D-08 MaxDP=3.93D-07 DE=-6.41D-11 OVMax= 8.35D-07

 Cycle  11  Pass 1  IDiag  1:
 E= -321.550242102649     Delta-E=        0.000000000003 Rises=F Damp=F
 DIIS: error= 2.26D-08 at cycle  11 NSaved=  11.
 NSaved=11 IEnMin=10 EnMin= -321.550242102652     IErMin=11 ErrMin= 2.26D-08
 ErrMax= 2.26D-08  0.00D+00 EMaxC= 1.00D-01 BMatC= 9.09D-14 BMatP= 9.85D-13
 IDIUse=1 WtCom= 1.00D+00 WtEn= 0.00D+00
 Coeff-Com: -0.147D-04 0.221D-04 0.232D-03 0.109D-03-0.114D-02-0.211D-02
 Coeff-Com:  0.142D-01 0.644D-02-0.107D+00 0.149D-01 0.107D+01
 Coeff:     -0.147D-04 0.221D-04 0.232D-03 0.109D-03-0.114D-02-0.211D-02
 Coeff:      0.142D-01 0.644D-02-0.107D+00 0.149D-01 0.107D+01
 Gap=     0.458 Goal=   None    Shift=    0.000
 RMSDP=8.72D-09 MaxDP=1.22D-07 DE= 2.84D-12 OVMax= 1.90D-07

 SCF Done:  E(RHF) =  -321.550242103     A.U. after   11 cycles
            NFock= 11  Conv=0.87D-08     -V/T= 2.0013
 KE= 3.211451661488D+02 PE=-1.305704833507D+03 EE= 3.865960334598D+02
 Leave Link  502 at Sun Sep  5 14:59:05 2021, MaxMem=  2415919104 cpu:         3.5
 (Enter /gpfs/share/home/1801110325/software/g09e01/l701.exe)
 Compute integral first derivatives.
 ... and contract with generalized density number  0.
 Leave Link  701 at Sun Sep  5 14:59:05 2021, MaxMem=  2415919104 cpu:         0.5
 (Enter /gpfs/share/home/1801110325/software/g09e01/l702.exe)
 L702 exits ... SP integral derivatives will be done elsewhere.
 Leave Link  702 at Sun Sep  5 14:59:05 2021, MaxMem=  2415919104 cpu:         0.1
 (Enter /gpfs/share/home/1801110325/software/g09e01/l703.exe)
 Compute integral first derivatives, UseDBF=F ICtDFT=           0.
 Integral derivatives from FoFJK, PRISM(SPDF).
 Calling FoFJK, ICntrl=      2127 FMM=F ISym2X=1 I1Cent= 0 IOpClX= 0 NMat=1 NMatS=1 NMatT=0.
 FoFJK:  IHMeth= 1 ICntrl=    2127 DoSepK=F KAlg= 0 I1Cent=   0 FoldK=F
 IRaf=         0 NMat=   1 IRICut=       1 DoRegI=T DoRafI=F ISym2E= 1.
 FoFCou: FMM=F IPFlag=           0 FMFlag=      100000 FMFlg1=         800
         NFxFlg=           0 DoJE=F BraDBF=F KetDBF=F FulRan=T
         wScrn=  0.000000 ICntrl=    2127 IOpCl=  0 I1Cent=           0 NGrid=           0
         NMat0=    1 NMatS0=      1 NMatT0=    0 NMatD0=    1 NMtDS0=    0 NMtDT0=    0
 Petite list used in FoFCou.
 Leave Link  703 at Sun Sep  5 14:59:05 2021, MaxMem=  2415919104 cpu:         1.9
 (Enter /gpfs/share/home/1801110325/software/g09e01/l716.exe)
 Dipole        =-1.82215621D-03 2.77945592D+00-8.88178420D-16
 ***** Axes restored to original set *****
 -------------------------------------------------------------------
 Center     Atomic                   Forces (Hartrees/Bohr)
 Number     Number              X              Y              Z
 -------------------------------------------------------------------
      1        6           0.000007197   -0.000436212    0.000215101
      2        6           0.000219270   -0.001481167    0.002118010
      3        6          -0.000714358    0.007068532    0.000000000
      4        6           0.000219270   -0.001481167   -0.002118010
      5        6           0.000007197   -0.000436212   -0.000215101
      6        7           0.000034516   -0.001507702    0.000000000
      7        1          -0.000027712   -0.000759230    0.000932160
      8        1           0.000004002    0.000625692    0.000157053
      9        1           0.000004002    0.000625692   -0.000157053
     10        1          -0.000027712   -0.000759230   -0.000932160
     11        8           0.000275486   -0.000606574    0.000000000
     12        1          -0.000001159   -0.000852420   -0.000000000
 -------------------------------------------------------------------
 Cartesian Forces:  Max     0.007068532 RMS     0.001410012
 Leave Link  716 at Sun Sep  5 14:59:05 2021, MaxMem=  2415919104 cpu:         0.1
 (Enter /gpfs/share/home/1801110325/software/g09e01/l103.exe)

 GradGradGradGradGradGradGradGradGradGradGradGradGradGradGradGradGradGrad
 Berny optimization.
 Using GEDIIS/GDIIS optimizer.
 FormGI is forming the generalized inverse of G from B-inverse, IUseBI=4.
 Internal  Forces:  Max     0.003636249 RMS     0.001008221
 Search for a local minimum.
 Step number   2 out of a maximum of   64
 All quantities printed in internal units (Hartrees-Bohrs-Radians)
 RMS Force = .10082D-02 SwitMx=.10000D-02 MixMth= 1
 Mixed Optimization -- RFO/linear search
 Update second derivatives using D2CorX and points    1    2
 DE= -1.49D-03 DEPred=-1.61D-03 R= 9.29D-01
 TightC=F SS=  1.41D+00  RLast= 7.57D-02 DXNew= 5.0454D-01 2.2711D-01
 Trust test= 9.29D-01 RLast= 7.57D-02 DXMaxT set to 3.00D-01
 ITU=  1  0
 Use linear search instead of GDIIS.
     Eigenvalues ---    0.01260   0.01540   0.01915   0.02033   0.02106
     Eigenvalues ---    0.02297   0.02311   0.02473   0.02515   0.15978
     Eigenvalues ---    0.16000   0.16000   0.16000   0.16023   0.21785
     Eigenvalues ---    0.22000   0.23855   0.25000   0.34206   0.35928
     Eigenvalues ---    0.35933   0.35967   0.36012   0.37456   0.47100
     Eigenvalues ---    0.49025   0.49742   0.52636   0.59944   0.87913
 RFO step:  Lambda=-1.12590765D-04 EMin= 1.25977916D-02
 Quartic linear search produced a step of -0.07373.
 Iteration  1 RMS(Cart)=  0.00327945 RMS(Int)=  0.00001728
 Iteration  2 RMS(Cart)=  0.00001678 RMS(Int)=  0.00000894
 Iteration  3 RMS(Cart)=  0.00000000 RMS(Int)=  0.00000894
 ITry= 1 IFail=0 DXMaxC= 1.23D-02 DCOld= 1.00D+10 DXMaxT= 3.00D-01 DXLimC= 3.00D+00 Rises=F
 ClnCor:  largest displacement from symmetrization is 2.09D-11 for atom    10.
 Variable       Old X    -DE/DX   Delta X   Delta X   Delta X     New X
                                 (Linear)    (Quad)   (Total)
    R1        2.52439   0.00238   0.00198   0.00095   0.00293   2.52732
    R2        2.57696   0.00161   0.00070   0.00182   0.00251   2.57947
    R3        2.02573   0.00120   0.00119   0.00122   0.00241   2.02814
    R4        2.76104   0.00364   0.00024   0.00885   0.00909   2.77013
    R5        2.02598   0.00044   0.00108  -0.00057   0.00051   2.02649
    R6        2.76104   0.00364   0.00024   0.00885   0.00909   2.77013
    R7        2.28156  -0.00061   0.00299  -0.00516  -0.00216   2.27939
    R8        2.52439   0.00238   0.00198   0.00095   0.00293   2.52732
    R9        2.02598   0.00044   0.00108  -0.00057   0.00051   2.02649
   R10        2.57696   0.00161   0.00070   0.00182   0.00251   2.57947
   R11        2.02573   0.00120   0.00119   0.00122   0.00241   2.02814
   R12        1.87483   0.00085   0.00165  -0.00087   0.00077   1.87561
    A1        2.12582   0.00035  -0.00072   0.00247   0.00174   2.12756
    A2        2.14126  -0.00008   0.00056  -0.00101  -0.00044   2.14081
    A3        2.01611  -0.00027   0.00016  -0.00146  -0.00130   2.01481
    A4        2.11146   0.00069   0.00085   0.00140   0.00226   2.11372
    A5        2.10371   0.00014  -0.00040   0.00204   0.00163   2.10534
    A6        2.06802  -0.00082  -0.00045  -0.00344  -0.00389   2.06413
    A7        1.99351  -0.00175  -0.00069  -0.00539  -0.00610   1.98741
    A8        2.14483   0.00087   0.00035   0.00272   0.00303   2.14787
    A9        2.14483   0.00087   0.00035   0.00272   0.00303   2.14787
   A10        2.11146   0.00069   0.00085   0.00140   0.00226   2.11372
   A11        2.06802  -0.00082  -0.00045  -0.00344  -0.00389   2.06413
   A12        2.10371   0.00014  -0.00040   0.00204   0.00163   2.10534
   A13        2.12582   0.00035  -0.00072   0.00247   0.00174   2.12756
   A14        2.14126  -0.00008   0.00056  -0.00101  -0.00044   2.14081
   A15        2.01611  -0.00027   0.00016  -0.00146  -0.00130   2.01481
   A16        2.09831  -0.00033   0.00044  -0.00234  -0.00191   2.09640
   A17        2.09244   0.00016  -0.00022   0.00117   0.00095   2.09339
   A18        2.09244   0.00016  -0.00022   0.00117   0.00095   2.09339
    D1       -0.00086   0.00005   0.00009   0.00262   0.00271   0.00185
    D2        3.14110   0.00003   0.00005   0.00142   0.00147  -3.14061
    D3        3.14094   0.00004   0.00007   0.00202   0.00210  -3.14015
    D4       -0.00029   0.00002   0.00003   0.00082   0.00085   0.00057
    D5       -0.00031   0.00001   0.00004   0.00110   0.00115   0.00084
    D6        3.14147  -0.00000  -0.00001  -0.00024  -0.00026   3.14121
    D7        3.14110   0.00002   0.00006   0.00166   0.00172  -3.14036
    D8       -0.00032   0.00000   0.00000   0.00031   0.00032  -0.00000
    D9        0.00187  -0.00011  -0.00020  -0.00584  -0.00603  -0.00417
   D10        3.13915   0.00012   0.00027   0.00779   0.00806  -3.13597
   D11       -3.14009  -0.00009  -0.00016  -0.00466  -0.00482   3.13828
   D12       -0.00281   0.00014   0.00031   0.00897   0.00928   0.00648
   D13       -0.00187   0.00011   0.00020   0.00584   0.00603   0.00417
   D14        3.14009   0.00009   0.00016   0.00466   0.00482  -3.13828
   D15       -3.13915  -0.00012  -0.00027  -0.00779  -0.00806   3.13597
   D16        0.00281  -0.00014  -0.00031  -0.00897  -0.00928  -0.00648
   D17        0.00086  -0.00005  -0.00009  -0.00262  -0.00271  -0.00185
   D18       -3.14094  -0.00004  -0.00007  -0.00202  -0.00210   3.14015
   D19       -3.14110  -0.00003  -0.00005  -0.00142  -0.00147   3.14061
   D20        0.00029  -0.00002  -0.00003  -0.00082  -0.00085  -0.00057
   D21        0.00031  -0.00001  -0.00004  -0.00110  -0.00115  -0.00084
   D22       -3.14147   0.00000   0.00001   0.00024   0.00026  -3.14121
   D23       -3.14110  -0.00002  -0.00006  -0.00166  -0.00172   3.14036
   D24        0.00032  -0.00000  -0.00000  -0.00031  -0.00032   0.00000
         Item               Value     Threshold  Converged?
 Maximum Force            0.003636     0.000450     NO 
 RMS     Force            0.001008     0.000300     NO 
 Maximum Displacement     0.012286     0.001800     NO 
 RMS     Displacement     0.003276     0.001200     NO 
 Predicted change in Energy=-6.698380D-05
 Lowest energy point so far.  Saving SCF results.
 GradGradGradGradGradGradGradGradGradGradGradGradGradGradGradGradGradGrad

 Leave Link  103 at Sun Sep  5 14:59:06 2021, MaxMem=  2415919104 cpu:         0.0
 (Enter /gpfs/share/home/1801110325/software/g09e01/l202.exe)
                          Input orientation:                          
 ---------------------------------------------------------------------
 Center     Atomic      Atomic             Coordinates (Angstroms)
 Number     Number       Type             X           Y           Z
 ---------------------------------------------------------------------
      1          6           0       -0.000294   -1.037744    1.182806
      2          6           0       -0.000539    0.298877    1.228495
      3          6           0       -0.003542    1.098645   -0.000000
      4          6           0       -0.000539    0.298877   -1.228495
      5          6           0       -0.000294   -1.037744   -1.182806
      6          7           0       -0.000657   -1.719057    0.000000
      7          1           0        0.000573   -1.647445    2.066052
      8          1           0        0.000659    0.813352    2.169397
      9          1           0        0.000659    0.813352   -2.169397
     10          1           0        0.000573   -1.647445   -2.066052
     11          8           0        0.001825    2.304837   -0.000000
     12          1           0       -0.000128   -2.711586    0.000000
 ---------------------------------------------------------------------
                    Distance matrix (angstroms):
                    1          2          3          4          5
     1  C    0.000000
     2  C    1.337402   0.000000
     3  C    2.441966   1.465891   0.000000
     4  C    2.756978   2.456989   1.465891   0.000000
     5  C    2.365612   2.756978   2.441966   1.337402   0.000000
     6  N    1.364998   2.362469   2.817704   2.362469   1.364998
     7  H    1.073247   2.118885   3.436510   3.826514   3.305574
     8  H    2.097598   1.072372   2.188080   3.436619   3.829337
     9  H    3.829337   3.436619   2.188080   1.072372   2.097598
    10  H    3.305574   3.826514   3.436510   2.118885   1.073247
    11  O    3.545685   2.352250   1.206204   2.352250   3.545685
    12  H    2.049580   3.251474   3.810232   3.251474   2.049580
                    6          7          8          9         10
     6  N    0.000000
     7  H    2.067293   0.000000
     8  H    3.334573   2.462966   0.000000
     9  H    3.334573   4.898423   4.338793   0.000000
    10  H    2.067293   4.132104   4.898423   2.462966   0.000000
    11  O    4.023895   4.459720   2.632643   2.632643   4.459720
    12  H    0.992529   2.323998   4.139018   4.139018   2.323998
                   11         12
    11  O    0.000000
    12  H    5.016423   0.000000
 Stoichiometry    C5H5NO
 Framework group  CS[SG(CHNO),X(C4H4)]
 Deg. of freedom    17
 Full point group                 CS      NOp   2
 RotChk:  IX=3 Diff= 4.56D-04
 Largest Abelian subgroup         CS      NOp   2
 Largest concise Abelian subgroup CS      NOp   2
                         Standard orientation:                         
 ---------------------------------------------------------------------
 Center     Atomic      Atomic             Coordinates (Angstroms)
 Number     Number       Type             X           Y           Z
 ---------------------------------------------------------------------
      1          6           0        0.000105    1.032764    1.182806
      2          6           0        0.000105   -0.303857    1.228495
      3          6           0        0.002961   -1.103626    0.000000
      4          6           0        0.000105   -0.303857   -1.228495
      5          6           0        0.000105    1.032764   -1.182806
      6          7           0        0.000594    1.714077   -0.000000
      7          1           0       -0.000649    1.642465    2.066052
      8          1           0       -0.001188   -0.818332    2.169397
      9          1           0       -0.001188   -0.818332   -2.169397
     10          1           0       -0.000649    1.642465   -2.066052
     11          8           0       -0.002628   -2.309817    0.000000
     12          1           0        0.000247    2.706606   -0.000000
 ---------------------------------------------------------------------
 Rotational constants (GHZ):      5.7502709      2.7633740      1.8664358
 Leave Link  202 at Sun Sep  5 14:59:06 2021, MaxMem=  2415919104 cpu:         0.0
 (Enter /gpfs/share/home/1801110325/software/g09e01/l301.exe)
 Standard basis: GTBas1 (6D, 7F)
 Ernie: Thresh=  0.10000D-02 Tol=  0.10000D-05 Strict=F.
 There are    69 symmetry adapted cartesian basis functions of A'  symmetry.
 There are    46 symmetry adapted cartesian basis functions of A"  symmetry.
 There are    69 symmetry adapted basis functions of A'  symmetry.
 There are    46 symmetry adapted basis functions of A"  symmetry.
   115 basis functions,   216 primitive gaussians,   115 cartesian basis functions
    25 alpha electrons       25 beta electrons
       nuclear repulsion energy       276.0107398015 Hartrees.
 IExCor=    0 DFT=F Ex=HF Corr=None ExCW=0 ScaHFX=  1.000000
 ScaDFX=  1.000000  1.000000  1.000000  1.000000 ScalE2=  1.000000  1.000000
 IRadAn=      0 IRanWt=     -1 IRanGd=            0 ICorTp=0 IEmpDi=  4
 NAtoms=   12 NActive=   12 NUniq=    8 SFac= 2.25D+00 NAtFMM=   60 NAOKFM=F Big=F
 Integral buffers will be    131072 words long.
 Raffenetti 1 integral format.
 Two-electron integral symmetry is turned on.
 Leave Link  301 at Sun Sep  5 14:59:06 2021, MaxMem=  2415919104 cpu:         0.2
 (Enter /gpfs/share/home/1801110325/software/g09e01/l302.exe)
 NPDir=0 NMtPBC=     1 NCelOv=     1 NCel=       1 NClECP=     1 NCelD=      1
         NCelK=      1 NCelE2=     1 NClLst=     1 CellRange=     0.0.
 One-electron integrals computed using PRISM.
 One-electron integral symmetry used in STVInt
 NBasis=   115 RedAO= T EigKep=  6.39D-04  NBF=    69    46
 NBsUse=   115 1.00D-06 EigRej= -1.00D+00 NBFU=    69    46
 Leave Link  302 at Sun Sep  5 14:59:06 2021, MaxMem=  2415919104 cpu:         0.5
 (Enter /gpfs/share/home/1801110325/software/g09e01/l303.exe)
 DipDrv:  MaxL=1.
 Leave Link  303 at Sun Sep  5 14:59:06 2021, MaxMem=  2415919104 cpu:         0.1
 (Enter /gpfs/share/home/1801110325/software/g09e01/l401.exe)
 Initial guess from the checkpoint file:  "4PY_G3.chk"
 B after Tr=    -0.000000   -0.000000    0.000000
         Rot=    1.000000   -0.000000   -0.000000    0.000271 Ang=   0.03 deg.
 Guess basis will be translated and rotated to current coordinates.
 JPrj=2 DoOrth=T DoCkMO=T.
 Initial guess orbital symmetries:
       Occupied  (A') (A') (A') (A") (A') (A") (A') (A') (A') (A')
                 (A") (A") (A') (A') (A") (A') (A") (A') (A') (A')
                 (A") (A') (A") (A") (A')
       Virtual   (A') (A') (A') (A') (A') (A') (A') (A') (A') (A')
                 (A') (A') (A') (A') (A') (A') (A') (A') (A') (A')
                 (A') (A') (A') (A') (A') (A') (A') (A') (A') (A')
[...]
 Alpha virt. eigenvalues --    0.45239   0.47034   0.51120   0.52422   0.53082
 Alpha virt. eigenvalues --    0.56602   0.62497   0.63822   0.64978   0.66582
 Alpha virt. eigenvalues --    0.67759   0.69029   0.69623   0.70423   0.72986
 Alpha virt. eigenvalues --    0.73498   0.75115   0.77523   0.79256   0.80643
 Alpha virt. eigenvalues --    0.80832   0.81108   0.83868   0.84809   0.85624
 Alpha virt. eigenvalues --    0.86239   0.88358   0.88670   0.88853   0.91712
 Alpha virt. eigenvalues --    0.94485   0.95530   0.95722   0.98847   0.99446
 Alpha virt. eigenvalues --    1.00569   1.01961   1.02283   1.03696   1.04764
 Alpha virt. eigenvalues --    1.08769   1.14454   1.17518   1.17651   1.19881
 Alpha virt. eigenvalues --    1.23411   1.24857   1.27175   1.28292   1.29994
 Alpha virt. eigenvalues --    1.32346   1.34379   1.39646   1.40356   1.41534
 Alpha virt. eigenvalues --    1.44687   1.47898   1.49160   1.49482   1.50681
 Alpha virt. eigenvalues --    1.51356   1.55958   1.58827   1.58932   1.60625
 Alpha virt. eigenvalues --    1.62753   1.63799   1.65372   1.65426   1.68450
 Alpha virt. eigenvalues --    1.78453   1.81765   1.85730   1.87830   1.90723
 Alpha virt. eigenvalues --    1.94122   1.96072   1.97480   2.01548   2.05122
 Alpha virt. eigenvalues --    2.08949   2.12188   2.15190   2.18298   2.31765
 Alpha virt. eigenvalues --    2.33608   2.39498   2.40249   2.63930   2.80225
 Alpha virt. eigenvalues --    2.82304   2.83469   2.87764   2.88159   2.91115
 Alpha virt. eigenvalues --    2.95419   3.00319   3.01848   3.02034   3.06283
 Alpha virt. eigenvalues --    3.09446   3.10815   3.11141   3.12247   3.12471
 Alpha virt. eigenvalues --    3.15543   3.16024   3.17383   3.21408   3.22560
 Alpha virt. eigenvalues --    3.26366   3.27468   3.34174   3.35167   3.38039
 Alpha virt. eigenvalues --    3.38069   3.41579   3.41833   3.45565   3.49005
 Alpha virt. eigenvalues --    3.49501   3.49585   3.52642   3.54182   3.56406
 Alpha virt. eigenvalues --    3.56949   3.57803   3.60171   3.62340   3.69133
 Alpha virt. eigenvalues --    3.69617   3.69842   3.70559   3.73761   3.75919
 Alpha virt. eigenvalues --    3.78558   3.83019   3.83566   3.83945   3.87435
 Alpha virt. eigenvalues --    3.89133   3.95155   3.96878   3.99461   3.99885
 Alpha virt. eigenvalues --    4.05800   4.09113   4.10895   4.12826   4.15863
 Alpha virt. eigenvalues --    4.16118   4.17672   4.19798   4.27601   4.31749
 Alpha virt. eigenvalues --    4.32660   4.33367   4.38983   4.39145   4.43717
 Alpha virt. eigenvalues --    4.45573   4.46179   4.47516   4.59082   4.60106
 Alpha virt. eigenvalues --    4.63953   4.64998   4.71452   4.77583   4.78393
 Alpha virt. eigenvalues --    4.78974   4.82475   4.83134   4.90381   4.91525
 Alpha virt. eigenvalues --    4.91840   4.98066   5.03962   5.05609   5.08336
 Alpha virt. eigenvalues --    5.27646   5.30016   5.32771   5.41111   5.49195
 Alpha virt. eigenvalues --    5.55365   5.55426   5.58352   5.59668   5.60070
 Alpha virt. eigenvalues --    5.63567   5.69259   5.73243   5.81175   5.83502
 Alpha virt. eigenvalues --    5.94284   5.98573   6.06772   6.07653   6.14129
 Alpha virt. eigenvalues --    6.18169   6.23945   6.28393   6.35615   6.45168
 Alpha virt. eigenvalues --    6.48726   6.71703   6.84309   6.97140   7.37742
 Alpha virt. eigenvalues --    7.44574   7.54858   7.62667   7.84113   8.07966
 Alpha virt. eigenvalues --    8.24883  25.23826  25.35632  25.75189  25.86852
 Alpha virt. eigenvalues --   26.13427  28.30095  28.36539  28.42344  28.50701
 Alpha virt. eigenvalues --   28.64319  28.92590  29.08976  29.21412  29.27065
 Alpha virt. eigenvalues --   29.34345  29.37555  29.55598  29.57380  29.65838
 Alpha virt. eigenvalues --   29.90634  37.34447  38.72155  39.62058  39.71933
 Alpha virt. eigenvalues --   41.64444  41.64577  41.73084  41.82865  41.88762
 Alpha virt. eigenvalues --   42.06528  42.07080  42.08521  42.09226  42.09967
 Alpha virt. eigenvalues --   42.10233  42.10534  42.12447  42.12768  42.16827
 Alpha virt. eigenvalues --   42.17131  42.17132  42.18575  42.20058  42.20580
 Alpha virt. eigenvalues --   42.23399  42.26510  42.30713  42.30726  42.35034
 Alpha virt. eigenvalues --   42.35085  42.38593  42.40175  42.50928  42.52551
 Alpha virt. eigenvalues --   44.95123  44.97599  45.05770  45.15471  45.20207
 Alpha virt. eigenvalues --   47.28298  47.44409  48.15857  52.00970
          Condensed to atoms (all electrons):
               1          2          3          4          5          6
     1  C    5.217665   0.404549   0.155289  -0.090608   0.036197   0.193531
     2  C    0.404549   5.597404  -0.070481  -0.317095  -0.090608  -0.066537
     3  C    0.155289  -0.070481   5.748709  -0.070481   0.155289  -0.015987
     4  C   -0.090608  -0.317095  -0.070481   5.597404   0.404549  -0.066537
     5  C    0.036197  -0.090608   0.155289   0.404549   5.217665   0.193531
     6  N    0.193531  -0.066537  -0.015987  -0.066537   0.193531   6.639628
     7  H    0.382989   0.043333  -0.001668   0.004870   0.007902  -0.069055
     8  H   -0.036622   0.410596  -0.016139  -0.005643  -0.002967   0.012096
     9  H   -0.002967  -0.005643  -0.016139   0.410596  -0.036622   0.012096
    10  H    0.007902   0.004870  -0.001668   0.043333   0.382989  -0.069055
    11  O   -0.052882  -0.085222   0.361954  -0.085222  -0.052882   0.003730
    12  H   -0.058671   0.018147  -0.009009   0.018147  -0.058671   0.448784
               7          8          9         10         11         12
     1  C    0.382989  -0.036622  -0.002967   0.007902  -0.052882  -0.058671
     2  C    0.043333   0.410596  -0.005643   0.004870  -0.085222   0.018147
     3  C   -0.001668  -0.016139  -0.016139  -0.001668   0.361954  -0.009009
     4  C    0.004870  -0.005643   0.410596   0.043333  -0.085222   0.018147
     5  C    0.007902  -0.002967  -0.036622   0.382989  -0.052882  -0.058671
     6  N   -0.069055   0.012096   0.012096  -0.069055   0.003730   0.448784
     7  H    0.469032  -0.007661   0.000318   0.001177  -0.000046  -0.004384
     8  H   -0.007661   0.457912   0.000205   0.000318   0.003640   0.000784
     9  H    0.000318   0.000205   0.457912  -0.007661   0.003640   0.000784
    10  H    0.001177   0.000318  -0.007661   0.469032  -0.000046  -0.004384
    11  O   -0.000046   0.003640   0.003640  -0.000046   8.410773  -0.000543
    12  H   -0.004384   0.000784   0.000784  -0.004384  -0.000543   0.420210
 Mulliken charges:
               1
     1  C   -0.156372
     2  C    0.156687
     3  C   -0.219669
     4  C    0.156687
     5  C   -0.156372
     6  N   -0.216225
     7  H    0.173194
     8  H    0.183481
     9  H    0.183481
    10  H    0.173194
    11  O   -0.506893
    12  H    0.228806
 Sum of Mulliken charges =  -0.00000
 Mulliken charges with hydrogens summed into heavy atoms:
               1
     1  C    0.016822
     2  C    0.340168
     3  C   -0.219669
     4  C    0.340168
     5  C    0.016822
     6  N    0.012581
    11  O   -0.506893
 Electronic spatial extent (au):  <R**2>=            642.0695
 Charge=             -0.0000 electrons
 Dipole moment (field-independent basis, Debye):
    X=              0.0001    Y=              7.6721    Z=              0.0000  Tot=              7.6721
 Quadrupole moment (field-independent basis, Debye-Ang):
   XX=            -44.0872   YY=            -43.8151   ZZ=            -34.2118
   XY=              0.0004   XZ=             -0.0000   YZ=             -0.0000
 Traceless Quadrupole moment (field-independent basis, Debye-Ang):
   XX=             -3.3825   YY=             -3.1104   ZZ=              6.4929
   XY=              0.0004   XZ=             -0.0000   YZ=             -0.0000
 Octapole moment (field-independent basis, Debye-Ang**2):
  XXX=              0.0001  YYY=             62.9812  ZZZ=              0.0000  XYY=              0.0007
  XXY=             -2.0220  XXZ=             -0.0000  XZZ=              0.0000  YZZ=              5.1911
  YYZ=              0.0000  XYZ=              0.0000
 Hexadecapole moment (field-independent basis, Debye-Ang**3):
 XXXX=            -49.6309 YYYY=           -505.1401 ZZZZ=           -259.0769 XXXY=              0.0007
 XXXZ=              0.0000 YYYX=              0.0034 YYYZ=              0.0000 ZZZX=             -0.0000
 ZZZY=             -0.0000 XXYY=            -94.4844 XXZZ=            -65.5916 YYZZ=           -113.8861
 XXYZ=              0.0000 YYXZ=             -0.0000 ZZXY=              0.0002
 N-N= 2.734407195590D+02 E-N=-1.299761502714D+03  KE= 3.211549484385D+02
 Symmetry A'   KE= 2.357074635420D+02
 Symmetry A"   KE= 8.544748489655D+01
 Leave Link  601 at Sun Sep  5 15:16:17 2021, MaxMem=  2415919104 cpu:         1.3
 (Enter /gpfs/share/home/1801110325/software/g09e01/l9999.exe)
 1\1\GINC-A7U03N04\SP\RMP2-Full\GTlarge\C5H5N1O1\1801110325\05-Sep-2021
 \0\\#P Geom=AllCheck Guess=TCheck SCRF=Check MP2=Full/GTLarge\\4PY_G3\
 \0,1\C,0,-0.0001535224,-1.0509922174,1.1904869334\C,0,-0.0001204781,0.
 3083965964,1.2210809711\C,0,-0.0001043167,1.1079533899,0.\C,0,-0.00012
 04781,0.3083965964,-1.2210809711\C,0,-0.0001535224,-1.0509922174,-1.19
 04869334\N,0,-0.0001610037,-1.7293502497,0.\H,0,-0.0001714749,-1.66622
 97807,2.0849080531\H,0,-0.0001094094,0.8279907454,2.173422066\H,0,-0.0
 001094094,0.8279907454,-2.173422066\H,0,-0.0001714749,-1.6662297807,-2
 .0849080531\O,0,-0.0000826028,2.3505993855,0.\H,0,-0.0002463073,-2.740
 6132119,0.\\Version=EM64L-G09RevE.01\State=1-A'\HF=-321.6569903\MP2=-3
 23.1693372\RMSD=2.396e-09\PG=CS [SG(C1H1N1O1),X(C4H4)]\\@


 "WHERE SHALL I START, PLEASE YOUR MAJESTY?" HE ASKED.
 "BEGIN AT THE BEGINNING," THE KING SAID GRAVELY,
 "AND GO ON TILL YOU COME TO THE END: THEN STOP." 

                                      -- LEWIS CARROLL
 Diagonal vibrational polarizability:
        0.0000000       0.0000000       0.0000000

 Temperature=              298.150000 Pressure=                      1.000000
 E(ZPE)=                     0.090060 E(Thermal)=                    0.095658
 E(QCISD(T))=             -322.586841 E(Empiric)=                   -0.114948
 DE(Plus)=                  -0.024980 DE(2DF)=                      -0.236413
 E(Delta-G3)=               -0.409116 E(G3-Empiric)=                -0.114948
 G3(0 K)=                 -323.282238 G3 Energy=                  -323.276640
 G3 Enthalpy=             -323.275695 G3 Free Energy=             -323.311385
 1\1\GINC-A7U03N04\Mixed\G3\G3\C5H5N1O1\1801110325\05-Sep-2021\0\\#P Ge
 om=AllCheck Guess=TCheck SCRF=Check MP2=Full/GTLarge\\4PY_G3\\0,1\C,0,
 -0.0001535224,-1.0509922174,1.1904869334\C,0,-0.0001204781,0.308396596
 4,1.2210809711\C,0,-0.0001043167,1.1079533899,0.\C,0,-0.0001204781,0.3
 083965964,-1.2210809711\C,0,-0.0001535224,-1.0509922174,-1.1904869334\
 N,0,-0.0001610037,-1.7293502497,0.\H,0,-0.0001714749,-1.6662297807,2.0
 849080531\H,0,-0.0001094094,0.8279907454,2.173422066\H,0,-0.0001094094
 ,0.8279907454,-2.173422066\H,0,-0.0001714749,-1.6662297807,-2.08490805
 31\O,0,-0.0000826028,2.3505993855,0.\H,0,-0.0002463073,-2.7406132119,0
 .\\Version=EM64L-G09RevE.01\State=1-A'\MP2/G3Bas1=-322.5117278\QCISD(T
 )/G3Bas1=-322.5868415\MP4/GTBas1=-322.5908408\MP2/GTBas2=-322.535996\M
 P4/GTBas2=-322.6158211\MP2/GTBas3=-322.7359532\MP4/GTBas3=-322.8272533
 \MP2/GTLarge=-323.1693372\G3=-323.2822376\FreqCoord=-0.0003206425,-1.9
 611954167,2.2358495857,-0.0002345578,0.5641723032,2.3219454586,-0.0002
 602496,2.0776566049,0.,-0.0002345578,0.5641723032,-2.3219454586,-0.000
 3206425,-1.9611954167,-2.2358495857,-0.0004151402,-3.2485095209,0.,-0.
 0003443991,-3.1132023487,3.9057328937,-0.0001723173,1.5369089366,4.100
 6335577,-0.0001723173,1.5369089366,-4.1006335577,-0.0003443991,-3.1132
 023487,-3.9057328937,-0.0001009315,4.3563649434,0.,-0.0002999387,-5.12
 48573071,0.\PG=CS [SG(C1H1N1O1),X(C4H4)]\NImag=0\\0.17081935,0.0000219
 0,0.97365931,0.00000513,-0.06516099,0.78509846,-0.06865571,-0.00001461
 ,-0.00000174,0.12934970,-0.00001300,-0.54997715,0.02080998,0.00002591,
 0.93331310,-0.00000384,-0.02500366,-0.16859346,0.00001477,0.09077949,0
 .74169825,-0.00090716,-0.00000268,0.00000042,-0.08609540,0.00000221,-0
 .00000275,0.23418909,-0.00000138,-0.04178389,0.02507795,0.00000235,-0.
 13292418,0.04304231,0.00004652,1.12884173,0.00000343,0.04934530,0.0615
 9000,-0.00000539,0.02800800,-0.25492712,0.,0.,0.62609075,-0.00126431,-
 0.00000008,-0.00000006,0.01142648,0.00000032,-0.00000073,-0.08609540,0
 .00000235,0.00000539,0.12934970,-0.00000009,-0.01194860,-0.02426217,0.
 00000032,0.02979528,0.01680281,0.00000221,-0.13292417,-0.02800800,0.00
 002591,0.93331310,0.00000050,0.00691465,-0.00318284,0.00000073,-0.0168
 0281,-0.02350571,0.00000275,-0.04304232,-0.25492712,-0.00001477,-0.090
 77949,0.74169825,0.00571543,0.00000054,-0.00000164,-0.00126431,-0.0000
 0009,-0.00000050,-0.00090716,-0.00000138,-0.00000343,-0.06865571,-0.00
 001300,0.00000384,0.17081935,0.00000054,0.03097110,0.00911936,-0.00000
 008,-0.01194860,-0.00691465,-0.00000268,-0.04178390,-0.04934529,-0.000
 01461,-0.54997715,0.02500366,0.00002190,0.97365931,0.00000164,-0.00911
 936,-0.07655276,0.00000006,0.02426217,-0.00318284,-0.00000042,-0.02507
 795,0.06159000,0.00000174,-0.02080998,-0.16859346,-0.00000513,0.065160
 99,0.78509846,-0.05647299,0.00000248,-0.00000397,0.01327916,-0.0000064
 3,0.00000140,-0.01215219,0.00000439,0.,0.01327915,-0.00000643,-0.00000
 140,-0.05647299,0.00000248,0.00000397,0.07100556,-0.00000512,-0.213224
 89,-0.10230832,-0.00000366,-0.04572892,-0.04133099,0.00000132,0.022183
 98,0.,-0.00000366,-0.04572892,0.04133099,-0.00000512,-0.21322489,0.102
 30832,-0.00002212,1.01922718,-0.00001113,-0.06110068,-0.31143963,-0.00
 000175,-0.06342999,0.01601432,0.,0.,-0.07734962,0.00000175,0.06342999,
 0.01601431,0.00001113,0.06110068,-0.31143963,0.,0.,0.79054422,-0.05068
 546,-0.00000305,0.00000360,0.01109508,-0.00000065,0.00000075,0.0136233
 6,-0.00000075,-0.00000046,-0.00145164,0.00000022,0.00000004,0.00414380
 ,-0.00000074,0.00000025,0.00268618,0.00000119,-0.00000249,0.03177949,-
 0.00000307,-0.18044122,0.15298905,0.00000011,-0.01096370,0.03193847,-0
 .00000076,-0.00390272,-0.00578523,0.00000007,0.00092359,0.00035056,-0.
 00000043,-0.00355491,-0.00199401,0.00000026,0.01732326,-0.02369346,0.0
 0000344,0.18009612,0.00000191,0.14349246,-0.28004996,0.00000012,-0.001
 95904,0.00838384,-0.00000018,-0.00214543,-0.00038839,0.,0.00081185,0.0
 0107395,-0.00000045,-0.00725698,-0.00135388,0.00000027,0.02092446,-0.0
 2913494,-0.00000198,-0.15546592,0.30091411,0.00019616,-0.00000048,-0.0
 0000115,-0.03840760,-0.00000513,-0.00000891,0.00486320,-0.00000052,-0.
 00000006,0.00356766,-0.00000013,-0.00000027,-0.00016570,0.00000047,-0.
 00000034,0.01059229,-0.00000074,0.00000092,-0.00715699,0.00000033,0.00
 000009,0.02875284,-0.00000093,-0.00951437,-0.03394792,-0.00000525,-0.1
 4042537,-0.13224961,0.00000056,0.01508865,0.01793519,-0.00000015,-0.00
 236509,0.00381478,-0.00000004,-0.00117143,0.00154358,-0.00000015,-0.00
 662340,0.00121593,0.00000018,0.00081390,0.00021044,0.00000588,0.142323
 68,0.00000020,0.00269663,0.00528751,-0.00000963,-0.13429047,-0.3189834
 2,-0.00000111,-0.02233957,-0.01912553,-0.00000008,0.00427065,-0.004145
 15,0.00000010,0.00171775,-0.00079789,-0.00000025,0.00152556,0.00337096
 ,0.00000022,-0.00060815,0.00091621,0.00001021,0.14554964,0.32944956,-0
 .00016570,0.00000047,0.00000034,0.00356766,-0.00000013,0.00000027,0.00
 486320,-0.00000052,0.00000006,-0.03840760,-0.00000513,0.00000891,0.000
 19616,-0.00000048,0.00000115,0.01059230,-0.00000074,-0.00000092,-0.000
 64591,0.00000003,0.00000002,-0.00102389,-0.00000001,0.00000007,0.02875
 284,-0.00000004,-0.00117143,-0.00154358,-0.00000015,-0.00236509,-0.003
 81478,0.00000056,0.01508865,-0.01793519,-0.00000525,-0.14042537,0.1322
 4961,-0.00000093,-0.00951437,0.03394792,-0.00000015,-0.00662340,-0.001
 21593,0.00000004,0.00013355,0.00012747,-0.00000001,0.00078250,-0.00099
 236,0.00000588,0.14232368,-0.00000010,-0.00171775,-0.00079789,0.000000
 08,-0.00427065,-0.00414515,0.00000111,0.02233957,-0.01912553,0.0000096
 3,0.13429047,-0.31898342,-0.00000020,-0.00269663,0.00528751,0.00000025
 ,-0.00152556,0.00337096,0.,0.00014954,0.00005961,-0.00000007,0.0009923
 6,-0.00119579,-0.00001021,-0.14554964,0.32944956,0.00414380,-0.0000007
 4,-0.00000025,-0.00145164,0.00000022,-0.00000004,0.01362337,-0.0000007
 5,0.00000046,0.01109508,-0.00000065,-0.00000075,-0.05068546,-0.0000030
 5,-0.00000360,0.00268618,0.00000119,0.00000249,0.00100669,0.,0.0000000
 6,-0.00064591,0.00000004,0.,-0.00715699,0.00000018,-0.00000022,0.03177
 949,-0.00000043,-0.00355491,0.00199401,0.00000007,0.00092359,-0.000350
 56,-0.00000076,-0.00390272,0.00578523,0.00000011,-0.01096370,-0.031938
 47,-0.00000307,-0.18044122,-0.15298905,0.00000026,0.01732326,0.0236934
 6,0.,0.00054867,0.00088590,0.00000003,0.00013355,-0.00014954,0.0000003
 3,0.00081390,0.00060815,0.00000344,0.18009612,0.00000045,0.00725698,-0
 .00135388,0.,-0.00081185,0.00107395,0.00000018,0.00214543,-0.00038840,
 -0.00000012,0.00195904,0.00838384,-0.00000191,-0.14349246,-0.28004996,
 -0.00000027,-0.02092446,-0.02913494,-0.00000006,-0.00088590,-0.0012654
 4,-0.00000002,-0.00012747,0.00005961,-0.00000009,-0.00021044,0.0009162
 1,0.00000198,0.15546592,0.30091411,0.00477099,0.00000100,0.00000080,0.
 02406084,-0.00000412,0.00000092,-0.08418489,-0.00004924,0.,0.02406084,
 -0.00000412,-0.00000091,0.00477099,0.00000100,-0.00000080,0.00091521,-
 0.00000076,0.,-0.00261139,-0.00000005,0.00000003,-0.00272307,0.0000001
 3,0.00000033,-0.00272306,0.00000013,-0.00000033,-0.00261140,-0.0000000
 5,-0.00000003,0.03664702,0.00000127,0.01855849,0.01479308,-0.00000540,
 -0.07277668,0.03070799,-0.00004665,-0.82236751,0.,-0.00000540,-0.07277
 668,-0.03070799,0.00000127,0.01855849,-0.01479308,-0.00000360,-0.01693
 073,0.,0.00000031,-0.00229720,0.00035686,0.00000038,0.00136273,0.00228
 364,0.00000038,0.00136273,-0.00228364,0.00000031,-0.00229720,-0.000356
 87,0.00005607,0.94772858,-0.00000083,-0.00836219,-0.02024379,0.0000030
 4,0.05957753,0.01349674,0.,0.,-0.12069861,-0.00000304,-0.05957753,0.01
 349674,0.00000083,0.00836219,-0.02024379,0.,0.,0.02021252,0.00000009,0
 .00245156,0.00051923,-0.00000005,-0.00325310,0.00489191,0.00000005,0.0
 0325310,0.00489191,-0.00000009,-0.00245156,0.00051923,0.,0.,0.10235088
 ,-0.00749440,-0.00000476,-0.00000146,0.00309574,0.00000089,-0.00000134
 ,-0.00082002,-0.00000105,0.,0.00309574,0.00000089,0.00000134,-0.007494
 41,-0.00000476,0.00000146,0.00006213,0.00003822,0.,-0.00178321,0.00000
 007,0.00000012,0.00215101,-0.00000026,-0.00000006,0.00215101,-0.000000
 26,0.00000006,-0.00178321,0.00000007,-0.00000012,-0.00037209,0.0000010
 5,0.,0.00919172,0.00000035,-0.01157243,0.00243954,0.00000038,0.0030777
 2,-0.00360681,0.00000015,-0.00161393,0.,0.00000038,0.00307773,0.003606
 81,0.00000035,-0.01157244,-0.00243954,0.00002900,-0.52797252,0.,-0.000
 00020,0.00132064,0.00001791,-0.00000007,-0.00040535,0.00033621,-0.0000
 0007,-0.00040535,-0.00033621,-0.00000020,0.00132064,-0.00001791,0.,0.0
 0187499,0.,-0.00003010,0.54287028,0.00000264,-0.03924139,0.01023824,-0
 .00000029,-0.00187235,-0.00732938,0.,0.,-0.00234044,0.00000029,0.00187
 235,-0.00732938,-0.00000264,0.03924139,0.01023824,0.,0.,-0.09102852,0.
 00000006,0.00055348,0.00032568,-0.00000037,-0.00168381,0.00027203,0.00
 000037,0.00168381,0.00027203,-0.00000006,-0.00055348,0.00032569,0.,0.,
 0.00080702,0.,0.,0.08554879\\0.00000127,0.00003451,0.00000372,0.000005
 62,-0.00008050,0.00001323,-0.00001725,0.00004042,0.,0.00000562,-0.0000
 8050,-0.00001323,0.00000127,0.00003451,-0.00000372,-0.00000194,0.00008
 446,0.,-0.00000115,-0.00000340,0.00003354,0.00000003,0.00000195,0.0000
 1778,0.00000003,0.00000195,-0.00001778,-0.00000115,-0.00000340,-0.0000
 3354,0.00000634,-0.00000110,0.,0.00000131,-0.00002887,0.\\\@
 Job cpu time:       0 days  0 hours  9 minutes  5.4 seconds.
 File lengths (MBytes):  RWF=   4496 Int=      0 D2E=      0 Chk=     32 Scr=     32
 Normal termination of Gaussian 09 at Sun Sep  5 15:16:17 2021.
