 Entering Gaussian System, Link 0=g09
 AtFile(1): pc-2.gbs
            -H     0
            S    4   1.00
                  0.754230D+02           0.240650D-02
                  0.113500D+02           0.184870D-01
                  0.259930D+01           0.897420D-01
                  0.735130D+00           0.281110D+00
            S    1   1.00
                  0.231670D+00           0.100000D+01
            S    1   1.00
                  0.741470D-01           0.100000D+01
            P    1   1.00
                  0.160000D+01           0.100000D+01
            P    1   1.00
                  0.450000D+00           0.100000D+01
            D    1   1.00
                  0.125000D+01           0.100000D+01
            ****
            -C     0
            S    7   1.00
                  0.785710D+04           0.568250D-03
                  0.117870D+04           0.439150D-02
                  0.268320D+03           0.225040D-01
                  0.759480D+02           0.866530D-01
                  0.245590D+02           0.244050D+00
                  0.862120D+01           0.441480D+00
                  0.312780D+01           0.353320D+00
            S    7   1.00
                  0.117870D+04          -0.594920D-06
                  0.268320D+03          -0.627480D-04
                  0.759480D+02          -0.757730D-03
                  0.245590D+02          -0.733080D-02
                  0.862120D+01          -0.389320D-01
                  0.312780D+01          -0.889080D-01
                  0.822020D+00           0.216890D+00
            S    1   1.00
                  0.330170D+00           0.100000D+01
            S    1   1.00
                  0.114630D+00           0.100000D+01
            P    4   1.00
                  0.337750D+02           0.602940D-02
                  0.767660D+01           0.432280D-01
                  0.223570D+01           0.163010D+00
                  0.764470D+00           0.365040D+00
            P    1   1.00
                  0.262320D+00           0.100000D+01
            P    1   1.00
                  0.846380D-01           0.100000D+01
            D    1   1.00
                  0.140000D+01           0.100000D+01
            D    1   1.00
                  0.450000D+00           0.100000D+01
            F    1   1.00
                  0.950000D+00           0.100000D+01
            ****
            -N     0
            S    7   1.00
                  0.111010D+05           0.545700D-03
                  0.166530D+04           0.421810D-02
                  0.379080D+03           0.216450D-01
                  0.107300D+03           0.837760D-01
                  0.347470D+02           0.238810D+00
                  0.122490D+02           0.439940D+00
                  0.447430D+01           0.363640D+00
            S    7   1.00
                  0.166530D+04          -0.150060D-05
                  0.379080D+03          -0.587530D-04
                  0.107300D+03          -0.774530D-03
                  0.347470D+02          -0.721610D-02
                  0.122490D+02          -0.393380D-01
                  0.447430D+01          -0.906110D-01
                  0.124040D+01           0.198820D+00
            S    1   1.00
                  0.487430D+00           0.100000D+01
            S    1   1.00
                  0.164840D+00           0.100000D+01
            P    4   1.00
                  0.479340D+02           0.617060D-02
                  0.109990D+02           0.442600D-01
                  0.324720D+01           0.168250D+00
                  0.111140D+01           0.368480D+00
            P    1   1.00
                  0.379880D+00           0.100000D+01
            P    1   1.00
                  0.120680D+00           0.100000D+01
            D    1   1.00
                  0.180000D+01           0.100000D+01
            D    1   1.00
                  0.550000D+00           0.100000D+01
            F    1   1.00
                  0.102000D+01           0.100000D+01
            ****
            -O     0
            S    7   1.00
                  0.147820D+05           0.535190D-03
                  0.221730D+04           0.413750D-02
                  0.504740D+03           0.212450D-01
                  0.142870D+03           0.824530D-01
                  0.463000D+02           0.236710D+00
                  0.163370D+02           0.440390D+00
                  0.598280D+01           0.364650D+00
            S    7   1.00
                  0.221730D+04          -0.192750D-05
                  0.504740D+03          -0.579640D-04
                  0.142870D+03          -0.794940D-03
                  0.463000D+02          -0.731250D-02
                  0.163370D+02          -0.405740D-01
                  0.598280D+01          -0.915940D-01
                  0.167180D+01           0.209400D+00
            S    1   1.00
                  0.646620D+00           0.100000D+01
            S    1   1.00
                  0.216690D+00           0.100000D+01
            P    4   1.00
                  0.604240D+02           0.689490D-02
                  0.139350D+02           0.490050D-01
                  0.415310D+01           0.182550D+00
                  0.141580D+01           0.376330D+00
            P    1   1.00
                  0.475490D+00           0.100000D+01
            P    1   1.00
                  0.145290D+00           0.100000D+01
            D    1   1.00
                  0.220000D+01           0.100000D+01
            D    1   1.00
                  0.650000D+00           0.100000D+01
            F    1   1.00
                  0.110000D+01           0.100000D+01
            ****
 Initial command:
 /public3/home/sc51754/softwares/g09e01/l1.exe "./Gau-22869.inp" -scrdir="./"
 Entering Link 1 = /public3/home/sc51754/softwares/g09e01/l1.exe PID=     22870.
  
 Copyright (c) 1988,1990,1992,1993,1995,1998,2003,2009,2015,
            Gaussian, Inc.  All Rights Reserved.
  
 This is part of the Gaussian(R) 09 program.  It is based on
 the Gaussian(R) 03 system (copyright 2003, Gaussian, Inc.),
 the Gaussian(R) 98 system (copyright 1998, Gaussian, Inc.),
 the Gaussian(R) 94 system (copyright 1995, Gaussian, Inc.),
 the Gaussian 92(TM) system (copyright 1992, Gaussian, Inc.),
 the Gaussian 90(TM) system (copyright 1990, Gaussian, Inc.),
 the Gaussian 88(TM) system (copyright 1988, Gaussian, Inc.),
 the Gaussian 86(TM) system (copyright 1986, Carnegie Mellon
 University), and the Gaussian 82(TM) system (copyright 1983,
 Carnegie Mellon University). Gaussian is a federally registered
 trademark of Gaussian, Inc.
  
 This software contains proprietary and confidential information,
 including trade secrets, belonging to Gaussian, Inc.
  
 This software is provided under written license and may be
 used, copied, transmitted, or stored only in accord with that
 written license.
  
 The following legend is applicable only to US Government
 contracts under FAR:
  
                    RESTRICTED RIGHTS LEGEND
  
 Use, reproduction and disclosure by the US Government is
 subject to restrictions as set forth in subparagraphs (a)
 and (c) of the Commercial Computer Software - Restricted
 Rights clause in FAR 52.227-19.
  
 Gaussian, Inc.
 340 Quinnipiac St., Bldg. 40, Wallingford CT 06492
  
  
 ---------------------------------------------------------------
 Warning -- This program may not be used in any manner that
 competes with the business of Gaussian, Inc. or will provide
 assistance to any competitor of Gaussian, Inc.  The licensee
 of this program is prohibited from giving any competitor of
 Gaussian, Inc. access to this program.  By using this program,
 the user acknowledges that Gaussian, Inc. is engaged in the
 business of creating and licensing software in the field of
 computational chemistry and represents and warrants to the
 licensee that it is not a competitor of Gaussian, Inc. and that
 it will not use this program in any manner prohibited above.
 ---------------------------------------------------------------
  

 Cite this work as:
 Gaussian 09, Revision E.01,
 M. J. Frisch, G. W. Trucks, H. B. Schlegel, G. E. Scuseria, 
 M. A. Robb, J. R. Cheeseman, G. Scalmani, V. Barone, B. Mennucci, 
 G. A. Petersson, H. Nakatsuji, M. Caricato, X. Li, H. P. Hratchian, 
 A. F. Izmaylov, J. Bloino, G. Zheng, J. L. Sonnenberg, M. Hada, 
 M. Ehara, K. Toyota, R. Fukuda, J. Hasegawa, M. Ishida, T. Nakajima, 
 Y. Honda, O. Kitao, H. Nakai, T. Vreven, J. A. Montgomery, Jr., 
 J. E. Peralta, F. Ogliaro, M. Bearpark, J. J. Heyd, E. Brothers, 
 K. N. Kudin, V. N. Staroverov, T. Keith, R. Kobayashi, J. Normand, 
 K. Raghavachari, A. Rendell, J. C. Burant, S. S. Iyengar, J. Tomasi, 
 M. Cossi, N. Rega, J. M. Millam, M. Klene, J. E. Knox, J. B. Cross, 
 V. Bakken, C. Adamo, J. Jaramillo, R. Gomperts, R. E. Stratmann, 
 O. Yazyev, A. J. Austin, R. Cammi, C. Pomelli, J. W. Ochterski, 
 R. L. Martin, K. Morokuma, V. G. Zakrzewski, G. A. Voth, 
 P. Salvador, J. J. Dannenberg, S. Dapprich, A. D. Daniels, 
 O. Farkas, J. B. Foresman, J. V. Ortiz, J. Cioslowski, 
 and D. J. Fox, Gaussian, Inc., Wallingford CT, 2013.
 
 ******************************************
 Gaussian 09:  EM64L-G09RevE.01 30-Nov-2015
                28-Aug-2021 
 ******************************************
 %nprocshared=64
 Will use up to   64 processors via shared memory.
 %mem=128GB
 %chk=TST_GAS_wB97.chk
 -----------------------------------------------
 #p opt=(calcfc,qst3,MaxCycle=200) freq wB97/gen
 -----------------------------------------------
 1/5=1,6=200,10=4,14=-1,18=20,26=3,27=203,38=1/1,3;
 2/9=110,12=2,17=6,18=5,40=1/2;
 3/5=7,11=2,16=1,25=1,30=1,71=2,74=-56,140=1/1,2,3;
 4//1;
 5/5=2,38=5/2;
 8/6=4,10=90,11=11/1;
 11/6=1,8=1,9=11,15=111,16=1/1,2,10;
 10/6=1,13=1/2;
 6/7=2,8=2,9=2,10=2,28=1/1;
 7/10=1,18=20,25=1/1,2,3,16;
 1/5=1,6=200,10=4,14=-1,18=20,26=3,27=203/3(2);
 2/9=110/2;
 99//99;
 2/9=110/2;
 3/5=7,6=1,11=2,16=1,25=1,30=1,71=1,74=-56,82=7/1,2,3;
 4/5=5,16=3,69=1/1;
 5/5=2,38=5/2;
 7//1,2,3,16;
 1/5=1,6=200,14=-1,18=20,26=3,27=203/3(-5);
 2/9=110/2;
 6/7=2,8=2,9=2,10=2,19=2,28=1/1;
 99/9=1/99;
 Leave Link    1 at Sat Aug 28 00:50:25 2021, MaxMem= 17179869184 cpu:         6.8
 (Enter /public3/home/sc51754/softwares/g09e01/l101.exe)
 --------------------
 HY_wB97_PC2_OPT_FREQ
 --------------------
 Symbolic Z-matrix:
 Charge =  0 Multiplicity = 1
 O                     0.0078    2.24808   0. 
 N                    -1.17524   0.29876   0. 
 C                     0.        0.89782   0. 
 C                     1.22425   0.22427   0. 
 C                    -1.18695  -1.03846   0. 
 C                     1.18771  -1.15289   0. 
 C                    -0.04283  -1.81046   0. 
 H                    -0.91412   2.52765   0. 
 H                     2.14922   0.78532   0. 
 H                    -2.16907  -1.50159   0. 
 H                     2.11298  -1.71845   0. 
 H                    -0.10782  -2.89059   0. 
 
 --------------------
 PY_wB97_PC2_OPT_FREQ
 --------------------
 Symbolic Z-matrix:
 Charge =  0 Multiplicity = 1
 O                    -0.11662   2.27325   0. 
 N                    -1.1341    0.24634   0. 
 C                     0.        1.05929   0. 
 C                     1.24826   0.31109   0. 
 C                    -1.12222  -1.11753   0. 
 C                     1.25776  -1.04028   0. 
 C                     0.04284  -1.79771   0. 
 H                    -2.00835   0.74809   0. 
 H                     2.15814   0.89663   0. 
 H                    -2.09245  -1.59863   0. 
 H                     2.20606  -1.56763   0. 
 H                     0.04845  -2.87798   0. 
 
 ------------
 TST_GAS_wB97
 ------------
 Symbolic Z-matrix:
 Charge =  0 Multiplicity = 1
 O                     0.21042   2.61071   0. 
 N                    -0.97262   0.66139   0. 
 C                     0.15739   1.29146   0. 
 C                     1.42687   0.5869    0. 
 C                    -0.98433  -0.67583   0. 
 C                     1.39033  -0.79025   0. 
 C                     0.15979  -1.44783   0. 
 H                    -1.07151   2.13401   0. 
 H                     2.35184   1.14795   0. 
 H                    -1.96644  -1.13896   0. 
 H                     2.3156   -1.35582   0. 
 H                     0.0948   -2.52795   0. 
 
 NAtoms=     12 NQM=       12 NQMF=       0 NMMI=      0 NMMIF=      0
                NMic=       0 NMicF=      0.
                    Isotopes and Nuclear Properties:
 (Nuclear quadrupole moments (NQMom) in fm**2, nuclear magnetic moments (NMagM)
  in nuclear magnetons)

  Atom         1           2           3           4           5           6           7           8           9          10
 IAtWgt=          16          14          12          12          12          12          12           1           1           1
 AtmWgt=  15.9949146  14.0030740  12.0000000  12.0000000  12.0000000  12.0000000  12.0000000   1.0078250   1.0078250   1.0078250
 NucSpn=           0           2           0           0           0           0           0           1           1           1
 AtZEff=   0.0000000   0.0000000   0.0000000   0.0000000   0.0000000   0.0000000   0.0000000   0.0000000   0.0000000   0.0000000
 NQMom=    0.0000000   2.0440000   0.0000000   0.0000000   0.0000000   0.0000000   0.0000000   0.0000000   0.0000000   0.0000000
 NMagM=    0.0000000   0.4037610   0.0000000   0.0000000   0.0000000   0.0000000   0.0000000   2.7928460   2.7928460   2.7928460
 AtZNuc=   8.0000000   7.0000000   6.0000000   6.0000000   6.0000000   6.0000000   6.0000000   1.0000000   1.0000000   1.0000000

  Atom        11          12
 IAtWgt=           1           1
 AtmWgt=   1.0078250   1.0078250
 NucSpn=           1           1
 AtZEff=   0.0000000   0.0000000
 NQMom=    0.0000000   0.0000000
 NMagM=    2.7928460   2.7928460
 AtZNuc=   1.0000000   1.0000000
 Leave Link  101 at Sat Aug 28 00:50:29 2021, MaxMem= 17179869184 cpu:        36.0
 (Enter /public3/home/sc51754/softwares/g09e01/l103.exe)

 GradGradGradGradGradGradGradGradGradGradGradGradGradGradGradGradGradGrad
 Berny optimization.
 Initialization pass.
                           ----------------------------
                           !    Initial Parameters    !
                           ! (Angstroms and Degrees)  !
 --------------------------                            --------------------------
 ! Name  Definition        TS        Reactant  Product Derivative Info.         !
 --------------------------------------------------------------------------------
 ! R1    R(1,3)             1.3203    1.3503    1.2195 calculate D2E/DX2 analyti!
 ! R2    R(1,8)             1.3677    0.9634    2.43   calculate D2E/DX2 analyti!
 ! R3    R(2,3)             1.2938    1.3191    1.3954 calculate D2E/DX2 analyti!
 ! R4    R(2,5)             1.3373    1.3373    1.3639 calculate D2E/DX2 analyti!
 ! R5    R(2,8)             1.4759    2.2441    1.008  calculate D2E/DX2 analyti!
 ! R6    R(3,4)             1.4519    1.3973    1.4553 calculate D2E/DX2 analyti!
 ! R7    R(4,6)             1.3776    1.3776    1.3514 calculate D2E/DX2 analyti!
 ! R8    R(4,9)             1.0818    1.0818    1.082  calculate D2E/DX2 analyti!
 ! R9    R(5,7)             1.3802    1.3802    1.3491 calculate D2E/DX2 analyti!
 ! R10   R(5,10)            1.0858    1.0858    1.083  calculate D2E/DX2 analyti!
 ! R11   R(6,7)             1.3952    1.3952    1.4317 calculate D2E/DX2 analyti!
 ! R12   R(6,11)            1.0844    1.0844    1.0851 calculate D2E/DX2 analyti!
 ! R13   R(7,12)            1.0821    1.0821    1.0803 calculate D2E/DX2 analyti!
 ! A1    A(3,1,8)          67.2998  106.5386   56.611  calculate D2E/DX2 analyti!
 ! A2    A(3,2,5)         119.6444  117.5109  125.1349 calculate D2E/DX2 analyti!
 ! A3    A(3,2,8)          64.6989   56.3086  114.5134 calculate D2E/DX2 analyti!
 ! A4    A(5,2,8)         175.6567  173.8195  120.3517 calculate D2E/DX2 analyti!
 ! A5    A(1,3,2)         121.4447  117.3404  120.1464 calculate D2E/DX2 analyti!
 ! A6    A(1,3,4)         116.7284  118.4874  126.4257 calculate D2E/DX2 analyti!
 ! A7    A(2,3,4)         121.8269  124.1722  113.4279 calculate D2E/DX2 analyti!
 ! A8    A(3,4,6)         117.5105  117.2987  121.341  calculate D2E/DX2 analyti!
 ! A9    A(3,4,9)         119.7302  119.942   116.2991 calculate D2E/DX2 analyti!
 ! A10   A(6,4,9)         122.7593  122.7593  122.3599 calculate D2E/DX2 analyti!
 ! A11   A(2,5,7)         123.5084  123.5084  120.7763 calculate D2E/DX2 analyti!
 ! A12   A(2,5,10)        115.7485  115.7485  115.8763 calculate D2E/DX2 analyti!
 ! A13   A(7,5,10)        120.7431  120.7431  123.3474 calculate D2E/DX2 analyti!
 ! A14   A(4,6,7)         119.6389  119.6389  121.5383 calculate D2E/DX2 analyti!
 ! A15   A(4,6,11)        119.9154  119.9154  119.4817 calculate D2E/DX2 analyti!
 ! A16   A(7,6,11)        120.4457  120.4457  118.98   calculate D2E/DX2 analyti!
 ! A17   A(5,7,6)         117.871   117.871   117.7817 calculate D2E/DX2 analyti!
 ! A18   A(5,7,12)        120.5668  120.5668  120.5744 calculate D2E/DX2 analyti!
 ! A19   A(6,7,12)        121.5622  121.5622  121.6439 calculate D2E/DX2 analyti!
 ! D1    D(8,1,3,2)         0.0       0.0       0.0    calculate D2E/DX2 analyti!
 ! D2    D(8,1,3,4)       180.0     180.0     180.0    calculate D2E/DX2 analyti!
 ! D3    D(5,2,3,1)       180.0     180.0     180.0    calculate D2E/DX2 analyti!
 ! D4    D(5,2,3,4)         0.0       0.0       0.0    calculate D2E/DX2 analyti!
 ! D5    D(8,2,3,1)         0.0       0.0       0.0    calculate D2E/DX2 analyti!
 ! D6    D(8,2,3,4)       180.0     180.0     180.0    calculate D2E/DX2 analyti!
 ! D7    D(3,2,5,7)         0.0       0.0       0.0    calculate D2E/DX2 analyti!
 ! D8    D(3,2,5,10)      180.0     180.0     180.0    calculate D2E/DX2 analyti!
 ! D9    D(8,2,5,7)       180.0       0.0     180.0    calculate D2E/DX2 analyti!
 ! D10   D(8,2,5,10)        0.0     180.0       0.0    calculate D2E/DX2 analyti!
 ! D11   D(1,3,4,6)       180.0     180.0     180.0    calculate D2E/DX2 analyti!
 ! D12   D(1,3,4,9)         0.0       0.0       0.0    calculate D2E/DX2 analyti!
 ! D13   D(2,3,4,6)         0.0       0.0       0.0    calculate D2E/DX2 analyti!
 ! D14   D(2,3,4,9)       180.0     180.0     180.0    calculate D2E/DX2 analyti!
 ! D15   D(3,4,6,7)         0.0       0.0       0.0    calculate D2E/DX2 analyti!
 ! D16   D(3,4,6,11)      180.0     180.0     180.0    calculate D2E/DX2 analyti!
 ! D17   D(9,4,6,7)       180.0     180.0     180.0    calculate D2E/DX2 analyti!
 ! D18   D(9,4,6,11)        0.0       0.0       0.0    calculate D2E/DX2 analyti!
 ! D19   D(2,5,7,6)         0.0       0.0       0.0    calculate D2E/DX2 analyti!
 ! D20   D(2,5,7,12)      180.0     180.0     180.0    calculate D2E/DX2 analyti!
 ! D21   D(10,5,7,6)      180.0     180.0     180.0    calculate D2E/DX2 analyti!
 ! D22   D(10,5,7,12)       0.0       0.0       0.0    calculate D2E/DX2 analyti!
 ! D23   D(4,6,7,5)         0.0       0.0       0.0    calculate D2E/DX2 analyti!
 ! D24   D(4,6,7,12)      180.0     180.0     180.0    calculate D2E/DX2 analyti!
 ! D25   D(11,6,7,5)      180.0     180.0     180.0    calculate D2E/DX2 analyti!
 ! D26   D(11,6,7,12)       0.0       0.0       0.0    calculate D2E/DX2 analyti!
 --------------------------------------------------------------------------------
 Trust Radius=3.00D-01 FncErr=1.00D-07 GrdErr=1.00D-06
 Number of steps in this run=    100 maximum allowed number of steps=    100.
 Search for a saddle point of order  1.
 GradGradGradGradGradGradGradGradGradGradGradGradGradGradGradGradGradGrad

 Leave Link  103 at Sat Aug 28 00:50:29 2021, MaxMem= 17179869184 cpu:         2.9
 (Enter /public3/home/sc51754/softwares/g09e01/l202.exe)
                          Input orientation:                          
 ---------------------------------------------------------------------
 Center     Atomic      Atomic             Coordinates (Angstroms)
 Number     Number       Type             X           Y           Z
 ---------------------------------------------------------------------
      1          8           0        0.210423    2.610715    0.000000
      2          7           0       -0.972621    0.661393    0.000000
      3          6           0        0.157394    1.291459    0.000000
      4          6           0        1.426871    0.586900    0.000000
      5          6           0       -0.984327   -0.675828    0.000000
      6          6           0        1.390333   -0.790254    0.000000
      7          6           0        0.159787   -1.447831    0.000000
      8          1           0       -1.071510    2.134010    0.000000
      9          1           0        2.351838    1.147952    0.000000
     10          1           0       -1.966445   -1.138961    0.000000
     11          1           0        2.315601   -1.355821    0.000000
     12          1           0        0.094800   -2.527953    0.000000
 ---------------------------------------------------------------------
                    Distance matrix (angstroms):
                    1          2          3          4          5
     1  O    0.000000
     2  N    2.280230   0.000000
     3  C    1.320321   1.293800   0.000000
     4  C    2.361265   2.400648   1.451887   0.000000
     5  C    3.496969   1.337272   2.274587   2.721830   0.000000
     6  C    3.599830   2.773235   2.419435   1.377639   2.377415
     7  C    4.058862   2.393987   2.739291   2.397005   1.380212
     8  H    1.367699   1.475934   1.490000   2.938616   2.811191
     9  H    2.593325   3.359876   2.199131   1.081824   3.802127
    10  H    4.335761   2.056444   3.227636   3.806992   1.085840
    11  H    4.490566   3.857662   3.415545   2.136353   3.369260
    12  H    5.139969   3.363230   3.819925   3.387731   2.143568
                    6          7          8          9         10
     6  C    0.000000
     7  C    1.395224   0.000000
     8  H    3.822564   3.787570   0.000000
     9  H    2.163593   3.397525   3.562531   0.000000
    10  H    3.374841   2.148549   3.393118   4.886465   0.000000
    11  H    1.084429   2.157777   4.863276   2.504035   4.287534
    12  H    2.167488   1.082075   4.805641   4.313525   2.485564
                   11         12
    11  H    0.000000
    12  H    2.511145   0.000000
 Stoichiometry    C5H5NO
 Framework group  CS[SG(C5H5NO)]
 Deg. of freedom    21
 Full point group                 CS      NOp   2
 Largest Abelian subgroup         CS      NOp   2
 Largest concise Abelian subgroup C1      NOp   1
                         Standard orientation:                         
 ---------------------------------------------------------------------
 Center     Atomic      Atomic             Coordinates (Angstroms)
 Number     Number       Type             X           Y           Z
 ---------------------------------------------------------------------
      1          8           0        0.098710    2.257423   -0.000000
      2          7           0       -1.151169    0.350265   -0.000000
      3          6           0       -0.000000    0.940797   -0.000000
      4          6           0        1.244301    0.192672    0.000000
      5          6           0       -1.209203   -0.985748   -0.000000
      6          6           0        1.160066   -1.182389    0.000000
      7          6           0       -0.092527   -1.796931    0.000000
      8          1           0       -1.198972    1.825424   -0.000000
      9          1           0        2.188153    0.721337    0.000000
     10          1           0       -2.206779   -1.414572   -0.000000
     11          1           0        2.065181   -1.779677    0.000000
     12          1           0       -0.194902   -2.874153    0.000000
 ---------------------------------------------------------------------
 Rotational constants (GHZ):      5.8355012      2.8270176      1.9044189
 Leave Link  202 at Sat Aug 28 00:50:30 2021, MaxMem= 17179869184 cpu:        16.9
 (Enter /public3/home/sc51754/softwares/g09e01/l301.exe)
 General basis read from cards:  (5D, 7F)
 Centers:       8      9     10     11     12
 S 4 1.00
     Exponent=  7.5423000000D+01 Coefficients=  2.4065000000D-03
     Exponent=  1.1350000000D+01 Coefficients=  1.8487000000D-02
     Exponent=  2.5993000000D+00 Coefficients=  8.9742000000D-02
     Exponent=  7.3513000000D-01 Coefficients=  2.8111000000D-01
 S 1 1.00
     Exponent=  2.3167000000D-01 Coefficients=  1.0000000000D+00
 S 1 1.00
     Exponent=  7.4147000000D-02 Coefficients=  1.0000000000D+00
 P 1 1.00
     Exponent=  1.6000000000D+00 Coefficients=  1.0000000000D+00
 P 1 1.00
     Exponent=  4.5000000000D-01 Coefficients=  1.0000000000D+00
 D 1 1.00
     Exponent=  1.2500000000D+00 Coefficients=  1.0000000000D+00
 ****
 Centers:       3      4      5      6      7
 S 7 1.00
     Exponent=  7.8571000000D+03 Coefficients=  5.6825000000D-04
     Exponent=  1.1787000000D+03 Coefficients=  4.3915000000D-03
     Exponent=  2.6832000000D+02 Coefficients=  2.2504000000D-02
     Exponent=  7.5948000000D+01 Coefficients=  8.6653000000D-02
     Exponent=  2.4559000000D+01 Coefficients=  2.4405000000D-01
     Exponent=  8.6212000000D+00 Coefficients=  4.4148000000D-01
     Exponent=  3.1278000000D+00 Coefficients=  3.5332000000D-01
 S 7 1.00
     Exponent=  1.1787000000D+03 Coefficients= -5.9492000000D-07
     Exponent=  2.6832000000D+02 Coefficients= -6.2748000000D-05
     Exponent=  7.5948000000D+01 Coefficients= -7.5773000000D-04
     Exponent=  2.4559000000D+01 Coefficients= -7.3308000000D-03
     Exponent=  8.6212000000D+00 Coefficients= -3.8932000000D-02
     Exponent=  3.1278000000D+00 Coefficients= -8.8908000000D-02
     Exponent=  8.2202000000D-01 Coefficients=  2.1689000000D-01
 S 1 1.00
     Exponent=  3.3017000000D-01 Coefficients=  1.0000000000D+00
 S 1 1.00
     Exponent=  1.1463000000D-01 Coefficients=  1.0000000000D+00
 P 4 1.00
     Exponent=  3.3775000000D+01 Coefficients=  6.0294000000D-03
     Exponent=  7.6766000000D+00 Coefficients=  4.3228000000D-02
     Exponent=  2.2357000000D+00 Coefficients=  1.6301000000D-01
     Exponent=  7.6447000000D-01 Coefficients=  3.6504000000D-01
 P 1 1.00
     Exponent=  2.6232000000D-01 Coefficients=  1.0000000000D+00
 P 1 1.00
     Exponent=  8.4638000000D-02 Coefficients=  1.0000000000D+00
 D 1 1.00
     Exponent=  1.4000000000D+00 Coefficients=  1.0000000000D+00
 D 1 1.00
     Exponent=  4.5000000000D-01 Coefficients=  1.0000000000D+00
 F 1 1.00
     Exponent=  9.5000000000D-01 Coefficients=  1.0000000000D+00
 ****
 Centers:       2
 S 7 1.00
     Exponent=  1.1101000000D+04 Coefficients=  5.4570000000D-04
     Exponent=  1.6653000000D+03 Coefficients=  4.2181000000D-03
     Exponent=  3.7908000000D+02 Coefficients=  2.1645000000D-02
     Exponent=  1.0730000000D+02 Coefficients=  8.3776000000D-02
     Exponent=  3.4747000000D+01 Coefficients=  2.3881000000D-01
     Exponent=  1.2249000000D+01 Coefficients=  4.3994000000D-01
     Exponent=  4.4743000000D+00 Coefficients=  3.6364000000D-01
 S 7 1.00
     Exponent=  1.6653000000D+03 Coefficients= -1.5006000000D-06
     Exponent=  3.7908000000D+02 Coefficients= -5.8753000000D-05
     Exponent=  1.0730000000D+02 Coefficients= -7.7453000000D-04
     Exponent=  3.4747000000D+01 Coefficients= -7.2161000000D-03
     Exponent=  1.2249000000D+01 Coefficients= -3.9338000000D-02
     Exponent=  4.4743000000D+00 Coefficients= -9.0611000000D-02
     Exponent=  1.2404000000D+00 Coefficients=  1.9882000000D-01
 S 1 1.00
     Exponent=  4.8743000000D-01 Coefficients=  1.0000000000D+00
 S 1 1.00
     Exponent=  1.6484000000D-01 Coefficients=  1.0000000000D+00
 P 4 1.00
     Exponent=  4.7934000000D+01 Coefficients=  6.1706000000D-03
     Exponent=  1.0999000000D+01 Coefficients=  4.4260000000D-02
     Exponent=  3.2472000000D+00 Coefficients=  1.6825000000D-01
     Exponent=  1.1114000000D+00 Coefficients=  3.6848000000D-01
 P 1 1.00
     Exponent=  3.7988000000D-01 Coefficients=  1.0000000000D+00
 P 1 1.00
     Exponent=  1.2068000000D-01 Coefficients=  1.0000000000D+00
 D 1 1.00
     Exponent=  1.8000000000D+00 Coefficients=  1.0000000000D+00
 D 1 1.00
     Exponent=  5.5000000000D-01 Coefficients=  1.0000000000D+00
 F 1 1.00
     Exponent=  1.0200000000D+00 Coefficients=  1.0000000000D+00
 ****
 Centers:       1
 S 7 1.00
     Exponent=  1.4782000000D+04 Coefficients=  5.3519000000D-04
     Exponent=  2.2173000000D+03 Coefficients=  4.1375000000D-03
     Exponent=  5.0474000000D+02 Coefficients=  2.1245000000D-02
     Exponent=  1.4287000000D+02 Coefficients=  8.2453000000D-02
     Exponent=  4.6300000000D+01 Coefficients=  2.3671000000D-01
     Exponent=  1.6337000000D+01 Coefficients=  4.4039000000D-01
     Exponent=  5.9828000000D+00 Coefficients=  3.6465000000D-01
 S 7 1.00
     Exponent=  2.2173000000D+03 Coefficients= -1.9275000000D-06
     Exponent=  5.0474000000D+02 Coefficients= -5.7964000000D-05
     Exponent=  1.4287000000D+02 Coefficients= -7.9494000000D-04
     Exponent=  4.6300000000D+01 Coefficients= -7.3125000000D-03
     Exponent=  1.6337000000D+01 Coefficients= -4.0574000000D-02
     Exponent=  5.9828000000D+00 Coefficients= -9.1594000000D-02
     Exponent=  1.6718000000D+00 Coefficients=  2.0940000000D-01
 S 1 1.00
     Exponent=  6.4662000000D-01 Coefficients=  1.0000000000D+00
 S 1 1.00
     Exponent=  2.1669000000D-01 Coefficients=  1.0000000000D+00
 P 4 1.00
     Exponent=  6.0424000000D+01 Coefficients=  6.8949000000D-03
     Exponent=  1.3935000000D+01 Coefficients=  4.9005000000D-02
     Exponent=  4.1531000000D+00 Coefficients=  1.8255000000D-01
     Exponent=  1.4158000000D+00 Coefficients=  3.7633000000D-01
 P 1 1.00
     Exponent=  4.7549000000D-01 Coefficients=  1.0000000000D+00
 P 1 1.00
     Exponent=  1.4529000000D-01 Coefficients=  1.0000000000D+00
 D 1 1.00
     Exponent=  2.2000000000D+00 Coefficients=  1.0000000000D+00
 D 1 1.00
     Exponent=  6.5000000000D-01 Coefficients=  1.0000000000D+00
 F 1 1.00
     Exponent=  1.1000000000D+00 Coefficients=  1.0000000000D+00
 ****
 Ernie: Thresh=  0.10000D-02 Tol=  0.10000D-05 Strict=F.
 Ernie:  7 primitive shells out of 220 were deleted.
 There are   223 symmetry adapted cartesian basis functions of A'  symmetry.
 There are    97 symmetry adapted cartesian basis functions of A"  symmetry.
 There are   190 symmetry adapted basis functions of A'  symmetry.
 There are    90 symmetry adapted basis functions of A"  symmetry.
   280 basis functions,   475 primitive gaussians,   320 cartesian basis functions
    25 alpha electrons       25 beta electrons
       nuclear repulsion energy       277.1433920893 Hartrees.
 IExCor= 4437 DFT=T Ex+Corr=wB97 ExCW=0 ScaHFX=  1.000000
 ScaDFX=  1.000000  1.000000  1.000000  1.000000 ScalE2=  1.000000  1.000000
 IRadAn=      0 IRanWt=     -1 IRanGd=            0 ICorTp=0 IEmpDi=  4
  HFx wShort=  0.000000 wLong=  0.400000 cFull=  0.000000 cShort=  0.000000 cLong=  1.000000
  DFx wShort=  0.000000 wLong=  0.400000 cFull=  0.000000 cShort=  0.000000 cLong=  1.000000
 NAtoms=   12 NActive=   12 NUniq=   12 SFac= 1.00D+00 NAtFMM=   60 NAOKFM=F Big=F
 Integral buffers will be    131072 words long.
 Raffenetti 2 integral format.
 Two-electron integral symmetry is turned on.
 Leave Link  301 at Sat Aug 28 00:50:31 2021, MaxMem= 17179869184 cpu:        14.5
 (Enter /public3/home/sc51754/softwares/g09e01/l302.exe)
 NPDir=0 NMtPBC=     1 NCelOv=     1 NCel=       1 NClECP=     1 NCelD=      1
         NCelK=      1 NCelE2=     1 NClLst=     1 CellRange=     0.0.
 One-electron integrals computed using PRISM.
 NBasis=   280 RedAO= T EigKep=  2.27D-04  NBF=   190    90
 NBsUse=   280 1.00D-06 EigRej= -1.00D+00 NBFU=   190    90
 Precomputing XC quadrature grid using
 IXCGrd= 4 IRadAn=           0 IRanWt=          -1 IRanGd=           0 AccXCQ= 0.00D+00.
 Generated NRdTot=       0 NPtTot=           0 NUsed=           0 NTot=          32
 NSgBfM=   320   320   320   320   320 MxSgAt=    12 MxSgA2=    12.
 Leave Link  302 at Sat Aug 28 00:50:34 2021, MaxMem= 17179869184 cpu:        95.5
 (Enter /public3/home/sc51754/softwares/g09e01/l303.exe)
 DipDrv:  MaxL=1.
 Leave Link  303 at Sat Aug 28 00:50:35 2021, MaxMem= 17179869184 cpu:        38.2
 (Enter /public3/home/sc51754/softwares/g09e01/l401.exe)
 ExpMin= 7.41D-02 ExpMax= 1.48D+04 ExpMxC= 5.05D+02 IAcc=2 IRadAn=         4 AccDes= 0.00D+00
 Harris functional with IExCor= 4437 and IRadAn=       4 diagonalized for initial guess.
 HarFok:  IExCor= 4437 AccDes= 0.00D+00 IRadAn=         4 IDoV= 1 UseB2=F ITyADJ=14
 ICtDFT=  3500011 ScaDFX=  1.000000  1.000000  1.000000  1.000000
 FoFCou: FMM=F IPFlag=           0 FMFlag=      100000 FMFlg1=           0
         NFxFlg=           0 DoJE=T BraDBF=F KetDBF=T FulRan=T
         wScrn=  0.000000 ICntrl=     500 IOpCl=  0 I1Cent=   200000004 NGrid=           0
         NMat0=    1 NMatS0=      1 NMatT0=    0 NMatD0=    1 NMtDS0=    0 NMtDT0=    0
 Petite list used in FoFCou.
 Harris En= -313.515587109176    
 JPrj=0 DoOrth=F DoCkMO=F.
 Initial guess orbital symmetries:
       Occupied  (A') (A') (A') (A') (A') (A') (A') (A') (A') (A')
                 (A') (A') (A') (A') (A') (A') (A') (A') (A") (A')
                 (A") (A') (A") (A') (A")
       Virtual   (A") (A") (A') (A') (A') (A') (A') (A") (A') (A')
                 (A") (A') (A') (A') (A") (A") (A') (A') (A') (A")
                 (A') (A") (A') (A') (A') (A') (A') (A') (A') (A')
                 (A') (A") (A') (A') (A") (A') (A') (A') (A') (A')
                 (A') (A') (A') (A") (A') (A') (A") (A') (A") (A')
                 (A") (A') (A') (A") (A') (A") (A") (A') (A') (A')
                 (A') (A") (A') (A') (A") (A') (A') (A') (A") (A")
                 (A') (A") (A") (A') (A") (A') (A') (A") (A') (A')
                 (A") (A') (A") (A') (A") (A') (A") (A') (A') (A')
                 (A") (A") (A') (A') (A') (A') (A') (A") (A') (A')
                 (A') (A') (A") (A') (A') (A') (A") (A') (A') (A')
                 (A') (A") (A') (A') (A') (A') (A") (A') (A') (A')
                 (A") (A') (A") (A') (A') (A") (A') (A") (A") (A")
                 (A') (A") (A') (A') (A") (A') (A') (A') (A") (A')
                 (A') (A') (A') (A") (A') (A") (A") (A') (A') (A')
                 (A') (A') (A") (A') (A") (A") (A") (A') (A') (A")
                 (A") (A') (A') (A") (A') (A") (A') (A') (A") (A')
                 (A") (A') (A') (A") (A') (A") (A') (A") (A") (A")
                 (A') (A") (A') (A') (A") (A") (A') (A") (A') (A")
                 (A") (A') (A") (A') (A') (A') (A") (A") (A') (A")
                 (A') (A") (A') (A") (A') (A') (A') (A") (A') (A')
                 (A') (A") (A') (A") (A') (A') (A") (A') (A") (A")
                 (A') (A') (A') (A") (A') (A') (A") (A') (A') (A')
                 (A') (A") (A') (A') (A') (A') (A') (A') (A") (A')
                 (A') (A') (A") (A') (A') (A') (A') (A') (A') (A')
                 (A') (A') (A') (A') (A')
 The electronic state of the initial guess is 1-A'.
 Leave Link  401 at Sat Aug 28 00:50:37 2021, MaxMem= 17179869184 cpu:        62.4
 (Enter /public3/home/sc51754/softwares/g09e01/l502.exe)
 Closed shell SCF:
 Using DIIS extrapolation, IDIIS=  1040.
 Integral symmetry usage will be decided dynamically.
 Keep R1 ints in memory in symmetry-blocked form, NReq=2335173138.
 IVT=      348658 IEndB=      348658 NGot= 17179869184 MDV= 16785904737
 LenX= 16785904737 LenY= 16785801896
 Requested convergence on RMS density matrix=1.00D-08 within 128 cycles.
 Requested convergence on MAX density matrix=1.00D-06.
 Requested convergence on             energy=1.00D-06.
 No special actions if energy rises.
 FoFCou: FMM=F IPFlag=           0 FMFlag=           0 FMFlg1=           0
         NFxFlg=           0 DoJE=F BraDBF=F KetDBF=F FulRan=T
         wScrn=  0.000000 ICntrl=     600 IOpCl=  0 I1Cent=           0 NGrid=           0
         NMat0=    1 NMatS0=  39340 NMatT0=    0 NMatD0=    1 NMtDS0=    0 NMtDT0=    0
 Petite list used in FoFCou.
 Integral accuracy reduced to 1.0D-05 until final iterations.

 Cycle   1  Pass 0  IDiag  1:
 E= -323.431121902831    
 DIIS: error= 1.47D-02 at cycle   1 NSaved=   1.
 NSaved= 1 IEnMin= 1 EnMin= -323.431121902831     IErMin= 1 ErrMin= 1.47D-02
 ErrMax= 1.47D-02  0.00D+00 EMaxC= 1.00D-01 BMatC= 7.08D-02 BMatP= 7.08D-02
 IDIUse=3 WtCom= 8.53D-01 WtEn= 1.47D-01
 Coeff-Com:  0.100D+01
 Coeff-En:   0.100D+01
 Coeff:      0.100D+01
 Gap=     0.368 Goal=   None    Shift=    0.000
 GapD=    0.368 DampG=1.000 DampE=0.500 DampFc=0.5000 IDamp=-1.
 Damping current iteration by 5.00D-01
 RMSDP=1.36D-03 MaxDP=7.02D-02              OVMax= 1.12D-01

 Cycle   2  Pass 0  IDiag  1:
 E= -323.463240188411     Delta-E=       -0.032118285580 Rises=F Damp=T
 DIIS: error= 5.69D-03 at cycle   2 NSaved=   2.
 NSaved= 2 IEnMin= 2 EnMin= -323.463240188411     IErMin= 2 ErrMin= 5.69D-03
 ErrMax= 5.69D-03  0.00D+00 EMaxC= 1.00D-01 BMatC= 6.82D-03 BMatP= 7.08D-02
 IDIUse=3 WtCom= 9.43D-01 WtEn= 5.69D-02
 Coeff-Com: -0.904D-01 0.109D+01
 Coeff-En:   0.000D+00 0.100D+01
 Coeff:     -0.852D-01 0.109D+01
 Gap=     0.380 Goal=   None    Shift=    0.000
 RMSDP=5.00D-04 MaxDP=1.91D-02 DE=-3.21D-02 OVMax= 5.25D-02

 Cycle   3  Pass 0  IDiag  1:
 E= -323.494142723875     Delta-E=       -0.030902535465 Rises=F Damp=F
 DIIS: error= 2.81D-03 at cycle   3 NSaved=   3.
 NSaved= 3 IEnMin= 3 EnMin= -323.494142723875     IErMin= 3 ErrMin= 2.81D-03
 ErrMax= 2.81D-03  0.00D+00 EMaxC= 1.00D-01 BMatC= 3.00D-03 BMatP= 6.82D-03
 IDIUse=3 WtCom= 9.72D-01 WtEn= 2.81D-02
 Coeff-Com: -0.109D+00 0.444D+00 0.665D+00
 Coeff-En:   0.000D+00 0.000D+00 0.100D+01
 Coeff:     -0.106D+00 0.432D+00 0.674D+00
 Gap=     0.372 Goal=   None    Shift=    0.000
 RMSDP=1.64D-04 MaxDP=9.05D-03 DE=-3.09D-02 OVMax= 1.64D-02

 Cycle   4  Pass 0  IDiag  1:
 E= -323.496133781532     Delta-E=       -0.001991057657 Rises=F Damp=F
 DIIS: error= 1.21D-03 at cycle   4 NSaved=   4.
 NSaved= 4 IEnMin= 4 EnMin= -323.496133781532     IErMin= 4 ErrMin= 1.21D-03
 ErrMax= 1.21D-03  0.00D+00 EMaxC= 1.00D-01 BMatC= 6.17D-04 BMatP= 3.00D-03
 IDIUse=3 WtCom= 9.88D-01 WtEn= 1.21D-02
 Coeff-Com: -0.352D-01 0.396D-01 0.336D+00 0.660D+00
 Coeff-En:   0.000D+00 0.000D+00 0.101D+00 0.899D+00
 Coeff:     -0.348D-01 0.391D-01 0.333D+00 0.662D+00
 Gap=     0.375 Goal=   None    Shift=    0.000
 RMSDP=6.89D-05 MaxDP=3.24D-03 DE=-1.99D-03 OVMax= 6.30D-03

 Cycle   5  Pass 0  IDiag  1:
 E= -323.496640243467     Delta-E=       -0.000506461935 Rises=F Damp=F
 DIIS: error= 2.85D-04 at cycle   5 NSaved=   5.
 NSaved= 5 IEnMin= 5 EnMin= -323.496640243467     IErMin= 5 ErrMin= 2.85D-04
 ErrMax= 2.85D-04  0.00D+00 EMaxC= 1.00D-01 BMatC= 2.36D-05 BMatP= 6.17D-04
 IDIUse=3 WtCom= 9.97D-01 WtEn= 2.85D-03
 Coeff-Com: -0.564D-02-0.172D-01 0.662D-01 0.212D+00 0.744D+00
 Coeff-En:   0.000D+00 0.000D+00 0.000D+00 0.000D+00 0.100D+01
 Coeff:     -0.562D-02-0.172D-01 0.660D-01 0.212D+00 0.745D+00
 Gap=     0.375 Goal=   None    Shift=    0.000
 RMSDP=2.11D-05 MaxDP=8.20D-04 DE=-5.06D-04 OVMax= 2.39D-03

 Cycle   6  Pass 0  IDiag  1:
 E= -323.496669606574     Delta-E=       -0.000029363107 Rises=F Damp=F
 DIIS: error= 1.71D-04 at cycle   6 NSaved=   6.
 NSaved= 6 IEnMin= 6 EnMin= -323.496669606574     IErMin= 6 ErrMin= 1.71D-04
 ErrMax= 1.71D-04  0.00D+00 EMaxC= 1.00D-01 BMatC= 3.19D-06 BMatP= 2.36D-05
 IDIUse=3 WtCom= 9.98D-01 WtEn= 1.71D-03
 Coeff-Com:  0.286D-02-0.992D-02-0.266D-01-0.308D-01 0.220D+00 0.844D+00
 Coeff-En:   0.000D+00 0.000D+00 0.000D+00 0.000D+00 0.000D+00 0.100D+01
 Coeff:      0.286D-02-0.990D-02-0.265D-01-0.307D-01 0.220D+00 0.845D+00
 Gap=     0.375 Goal=   None    Shift=    0.000
 RMSDP=1.04D-05 MaxDP=2.54D-04 DE=-2.94D-05 OVMax= 1.50D-03

 Cycle   7  Pass 0  IDiag  1:
 E= -323.496677371961     Delta-E=       -0.000007765388 Rises=F Damp=F
 DIIS: error= 7.66D-05 at cycle   7 NSaved=   7.
 NSaved= 7 IEnMin= 7 EnMin= -323.496677371961     IErMin= 7 ErrMin= 7.66D-05
 ErrMax= 7.66D-05  0.00D+00 EMaxC= 1.00D-01 BMatC= 4.83D-07 BMatP= 3.19D-06
 IDIUse=1 WtCom= 1.00D+00 WtEn= 0.00D+00
 Coeff-Com:  0.139D-02-0.381D-03-0.110D-01-0.311D-01-0.732D-01 0.112D+00
 Coeff-Com:  0.100D+01
 Coeff:      0.139D-02-0.381D-03-0.110D-01-0.311D-01-0.732D-01 0.112D+00
 Coeff:      0.100D+01
 Gap=     0.375 Goal=   None    Shift=    0.000
 RMSDP=5.35D-06 MaxDP=1.47D-04 DE=-7.77D-06 OVMax= 9.57D-04

 Initial convergence to 1.0D-05 achieved.  Increase integral accuracy.
 Cycle   8  Pass 1  IDiag  1:
 E= -323.496404273587     Delta-E=        0.000273098374 Rises=F Damp=F
 DIIS: error= 5.64D-05 at cycle   1 NSaved=   1.
 NSaved= 1 IEnMin= 1 EnMin= -323.496404273587     IErMin= 1 ErrMin= 5.64D-05
 ErrMax= 5.64D-05  0.00D+00 EMaxC= 1.00D-01 BMatC= 2.82D-06 BMatP= 2.82D-06
 IDIUse=1 WtCom= 1.00D+00 WtEn= 0.00D+00
 Coeff-Com:  0.100D+01
 Coeff:      0.100D+01
 Gap=     0.375 Goal=   None    Shift=    0.000
 RMSDP=5.35D-06 MaxDP=1.47D-04 DE= 2.73D-04 OVMax= 3.85D-04

 Cycle   9  Pass 1  IDiag  1:
 E= -323.496405850149     Delta-E=       -0.000001576562 Rises=F Damp=F
 DIIS: error= 2.12D-05 at cycle   2 NSaved=   2.
 NSaved= 2 IEnMin= 2 EnMin= -323.496405850149     IErMin= 2 ErrMin= 2.12D-05
 ErrMax= 2.12D-05  0.00D+00 EMaxC= 1.00D-01 BMatC= 1.24D-07 BMatP= 2.82D-06
 IDIUse=1 WtCom= 1.00D+00 WtEn= 0.00D+00
 Coeff-Com: -0.100D-01 0.101D+01
 Coeff:     -0.100D-01 0.101D+01
 Gap=     0.375 Goal=   None    Shift=    0.000
 RMSDP=1.75D-06 MaxDP=7.37D-05 DE=-1.58D-06 OVMax= 2.98D-04

 Cycle  10  Pass 1  IDiag  1:
 E= -323.496405971075     Delta-E=       -0.000000120926 Rises=F Damp=F
 DIIS: error= 1.96D-05 at cycle   3 NSaved=   3.
 NSaved= 3 IEnMin= 3 EnMin= -323.496405971075     IErMin= 3 ErrMin= 1.96D-05
 ErrMax= 1.96D-05  0.00D+00 EMaxC= 1.00D-01 BMatC= 1.40D-07 BMatP= 1.24D-07
 IDIUse=1 WtCom= 1.00D+00 WtEn= 0.00D+00
 Coeff-Com: -0.456D-01 0.544D+00 0.501D+00
 Coeff:     -0.456D-01 0.544D+00 0.501D+00
 Gap=     0.375 Goal=   None    Shift=    0.000
 RMSDP=8.52D-07 MaxDP=4.65D-05 DE=-1.21D-07 OVMax= 8.35D-05

 Cycle  11  Pass 1  IDiag  1:
 E= -323.496406089232     Delta-E=       -0.000000118158 Rises=F Damp=F
 DIIS: error= 9.44D-06 at cycle   4 NSaved=   4.
 NSaved= 4 IEnMin= 4 EnMin= -323.496406089232     IErMin= 4 ErrMin= 9.44D-06
 ErrMax= 9.44D-06  0.00D+00 EMaxC= 1.00D-01 BMatC= 7.13D-09 BMatP= 1.24D-07
 IDIUse=1 WtCom= 1.00D+00 WtEn= 0.00D+00
 Coeff-Com: -0.730D-02-0.990D-02 0.853D-01 0.932D+00
 Coeff:     -0.730D-02-0.990D-02 0.853D-01 0.932D+00
 Gap=     0.375 Goal=   None    Shift=    0.000
 RMSDP=5.30D-07 MaxDP=1.56D-05 DE=-1.18D-07 OVMax= 1.22D-04

 Cycle  12  Pass 1  IDiag  1:
 E= -323.496406117410     Delta-E=       -0.000000028177 Rises=F Damp=F
 DIIS: error= 5.70D-06 at cycle   5 NSaved=   5.
 NSaved= 5 IEnMin= 5 EnMin= -323.496406117410     IErMin= 5 ErrMin= 5.70D-06
 ErrMax= 5.70D-06  0.00D+00 EMaxC= 1.00D-01 BMatC= 3.84D-09 BMatP= 7.13D-09
 IDIUse=1 WtCom= 1.00D+00 WtEn= 0.00D+00
 Coeff-Com:  0.160D-01-0.242D+00-0.177D+00 0.461D+00 0.942D+00
 Coeff:      0.160D-01-0.242D+00-0.177D+00 0.461D+00 0.942D+00
 Gap=     0.375 Goal=   None    Shift=    0.000
 RMSDP=5.00D-07 MaxDP=1.42D-05 DE=-2.82D-08 OVMax= 1.04D-04

 Cycle  13  Pass 1  IDiag  1:
 E= -323.496406132185     Delta-E=       -0.000000014775 Rises=F Damp=F
 DIIS: error= 2.20D-06 at cycle   6 NSaved=   6.
 NSaved= 6 IEnMin= 6 EnMin= -323.496406132185     IErMin= 6 ErrMin= 2.20D-06
 ErrMax= 2.20D-06  0.00D+00 EMaxC= 1.00D-01 BMatC= 3.13D-10 BMatP= 3.84D-09
 IDIUse=1 WtCom= 1.00D+00 WtEn= 0.00D+00
 Coeff-Com:  0.515D-02-0.504D-01-0.509D-01-0.649D-01 0.205D+00 0.956D+00
 Coeff:      0.515D-02-0.504D-01-0.509D-01-0.649D-01 0.205D+00 0.956D+00
 Gap=     0.375 Goal=   None    Shift=    0.000
 RMSDP=1.79D-07 MaxDP=5.60D-06 DE=-1.48D-08 OVMax= 4.34D-05

 Cycle  14  Pass 1  IDiag  1:
 E= -323.496406133766     Delta-E=       -0.000000001581 Rises=F Damp=F
 DIIS: error= 7.95D-07 at cycle   7 NSaved=   7.
 NSaved= 7 IEnMin= 7 EnMin= -323.496406133766     IErMin= 7 ErrMin= 7.95D-07
 ErrMax= 7.95D-07  0.00D+00 EMaxC= 1.00D-01 BMatC= 6.61D-11 BMatP= 3.13D-10
 IDIUse=1 WtCom= 1.00D+00 WtEn= 0.00D+00
 Coeff-Com: -0.500D-03 0.172D-01 0.735D-02-0.898D-01-0.821D-01 0.326D+00
 Coeff-Com:  0.822D+00
 Coeff:     -0.500D-03 0.172D-01 0.735D-02-0.898D-01-0.821D-01 0.326D+00
 Coeff:      0.822D+00
 Gap=     0.375 Goal=   None    Shift=    0.000
 RMSDP=5.95D-08 MaxDP=1.65D-06 DE=-1.58D-09 OVMax= 1.12D-05

 Cycle  15  Pass 1  IDiag  1:
 E= -323.496406133934     Delta-E=       -0.000000000168 Rises=F Damp=F
 DIIS: error= 1.21D-07 at cycle   8 NSaved=   8.
 NSaved= 8 IEnMin= 8 EnMin= -323.496406133934     IErMin= 8 ErrMin= 1.21D-07
 ErrMax= 1.21D-07  0.00D+00 EMaxC= 1.00D-01 BMatC= 4.26D-12 BMatP= 6.61D-11
 IDIUse=1 WtCom= 1.00D+00 WtEn= 0.00D+00
 Coeff-Com: -0.758D-03 0.102D-01 0.795D-02-0.131D-01-0.423D-01-0.331D-01
 Coeff-Com:  0.197D+00 0.874D+00
 Coeff:     -0.758D-03 0.102D-01 0.795D-02-0.131D-01-0.423D-01-0.331D-01
 Coeff:      0.197D+00 0.874D+00
 Gap=     0.375 Goal=   None    Shift=    0.000
 RMSDP=1.35D-08 MaxDP=3.13D-07 DE=-1.68D-10 OVMax= 2.25D-06

 Cycle  16  Pass 1  IDiag  1:
 E= -323.496406133942     Delta-E=       -0.000000000008 Rises=F Damp=F
 DIIS: error= 4.13D-08 at cycle   9 NSaved=   9.
 NSaved= 9 IEnMin= 9 EnMin= -323.496406133942     IErMin= 9 ErrMin= 4.13D-08
 ErrMax= 4.13D-08  0.00D+00 EMaxC= 1.00D-01 BMatC= 3.47D-13 BMatP= 4.26D-12
 IDIUse=1 WtCom= 1.00D+00 WtEn= 0.00D+00
 Coeff-Com: -0.648D-04 0.111D-03 0.646D-03 0.447D-02 0.937D-03-0.304D-01
 Coeff-Com: -0.330D-01 0.873D-01 0.970D+00
 Coeff:     -0.648D-04 0.111D-03 0.646D-03 0.447D-02 0.937D-03-0.304D-01
 Coeff:     -0.330D-01 0.873D-01 0.970D+00
 Gap=     0.375 Goal=   None    Shift=    0.000
 RMSDP=5.05D-09 MaxDP=1.45D-07 DE=-8.41D-12 OVMax= 6.72D-07

 SCF Done:  E(RwB97) =  -323.496406134     A.U. after   16 cycles
            NFock= 16  Conv=0.51D-08     -V/T= 2.0038
 KE= 3.222673134640D+02 PE=-1.308752224911D+03 EE= 3.858451132241D+02
 Leave Link  502 at Sat Aug 28 00:50:50 2021, MaxMem= 17179869184 cpu:       493.6
 (Enter /public3/home/sc51754/softwares/g09e01/l801.exe)
 DoSCS=F DFT=T ScalE2(SS,OS)=  1.000000  1.000000
 Range of M.O.s used for correlation:     1   280
 NBasis=   280 NAE=    25 NBE=    25 NFC=     0 NFV=     0
 NROrb=    280 NOA=    25 NOB=    25 NVA=   255 NVB=   255

 **** Warning!!: The largest alpha MO coefficient is  0.19968199D+02

 Leave Link  801 at Sat Aug 28 00:50:50 2021, MaxMem= 17179869184 cpu:         0.8
 (Enter /public3/home/sc51754/softwares/g09e01/l1101.exe)
 Using compressed storage, NAtomX=    12.
 Will process     13 centers per pass.
 Leave Link 1101 at Sat Aug 28 00:50:51 2021, MaxMem= 17179869184 cpu:        51.7
 (Enter /public3/home/sc51754/softwares/g09e01/l1102.exe)
 Symmetrizing basis deriv contribution to polar:
 IMax=3 JMax=2 DiffMx= 0.00D+00
 Leave Link 1102 at Sat Aug 28 00:50:52 2021, MaxMem= 17179869184 cpu:         7.5
 (Enter /public3/home/sc51754/softwares/g09e01/l1110.exe)
 Forming Gx(P) for the SCF density, NAtomX=    12.
 Integral derivatives from FoFJK, PRISM(SPDF).
 Do as many integral derivatives as possible in FoFJK.
 G2DrvN: MDV=   17179868984.
 G2DrvN: will do    13 centers at a time, making    1 passes.
 Calling FoFCou, ICntrl=  3107 FMM=F I1Cent=   0 AccDes= 0.00D+00.
 FoFJK:  IHMeth= 1 ICntrl=    3107 DoSepK=T KAlg= 0 I1Cent=   0 FoldK=F
 IRaf=         1 NMat=   1 IRICut=       1 DoRegI=T DoRafI=F ISym2E= 1.
 FoFCou: FMM=F IPFlag=           0 FMFlag=      100000 FMFlg1=           0
         NFxFlg=           0 DoJE=F BraDBF=F KetDBF=F FulRan=T
         wScrn=  0.000000 ICntrl=    3507 IOpCl=  0 I1Cent=           0 NGrid=           0
         NMat0=    1 NMatS0=      1 NMatT0=    0 NMatD0=    1 NMtDS0=    0 NMtDT0=    0
 Petite list used in FoFCou.
 End of G2Drv F.D. properties file   721 does not exist.
 End of G2Drv F.D. properties file   722 does not exist.
 End of G2Drv F.D. properties file   788 does not exist.
 Leave Link 1110 at Sat Aug 28 00:51:00 2021, MaxMem= 17179869184 cpu:       468.7
 (Enter /public3/home/sc51754/softwares/g09e01/l1002.exe)
 Minotr:  Closed shell wavefunction.
          IDoAtm=111111111111
          Direct CPHF calculation.
          Differentiating once with respect to nuclear coordinates.
          Using symmetry in CPHF.
          Requested convergence is 1.0D-08 RMS, and 1.0D-07 maximum.
          Secondary convergence is 1.0D-12 RMS, and 1.0D-12 maximum.
          NewPWx=T KeepS1=F KeepF1=F KeepIn=T MapXYZ=F SortEE=F KeepMc=T.
          MDV=   17179868780 using IRadAn=       2.
 Generate precomputed XC quadrature information.
 Keep R1 ints in memory in symmetry-blocked form, NReq=2334829665.
 FoFCou: FMM=F IPFlag=           0 FMFlag=           0 FMFlg1=           0
         NFxFlg=           0 DoJE=F BraDBF=F KetDBF=F FulRan=T
         wScrn=  0.000000 ICntrl=     600 IOpCl=  0 I1Cent=           0 NGrid=           0
         NMat0=    1 NMatS0=  39340 NMatT0=    0 NMatD0=    1 NMtDS0=    0 NMtDT0=    0
 Petite list used in FoFCou.
          Solving linear equations simultaneously, MaxMat=       0.
          There are    39 degrees of freedom in the 1st order CPHF.  IDoFFX=6 NUNeed=     0.
     33 vectors produced by pass  0 Test12= 1.63D-14 2.56D-09 XBig12= 7.45D-02 7.00D-02.
 AX will form    33 AO Fock derivatives at one time.
     33 vectors produced by pass  1 Test12= 1.63D-14 2.56D-09 XBig12= 7.03D-03 2.60D-02.
     33 vectors produced by pass  2 Test12= 1.63D-14 2.56D-09 XBig12= 2.36D-04 3.40D-03.
     33 vectors produced by pass  3 Test12= 1.63D-14 2.56D-09 XBig12= 3.44D-06 3.68D-04.
     33 vectors produced by pass  4 Test12= 1.63D-14 2.56D-09 XBig12= 4.18D-08 4.84D-05.
     33 vectors produced by pass  5 Test12= 1.63D-14 2.56D-09 XBig12= 3.51D-10 3.81D-06.
     33 vectors produced by pass  6 Test12= 1.63D-14 2.56D-09 XBig12= 2.58D-12 2.65D-07.
     22 vectors produced by pass  7 Test12= 1.63D-14 2.56D-09 XBig12= 1.78D-14 1.91D-08.
 InvSVY:  IOpt=1 It=  1 EMax= 1.55D-15
 Solved reduced A of dimension   253 with    33 vectors.
 End of Minotr F.D. properties file   721 does not exist.
 End of Minotr F.D. properties file   722 does not exist.
 End of Minotr F.D. properties file   788 does not exist.
 Leave Link 1002 at Sat Aug 28 00:51:15 2021, MaxMem= 17179869184 cpu:       906.2
 (Enter /public3/home/sc51754/softwares/g09e01/l601.exe)
 Copying SCF densities to generalized density rwf, IOpCl= 0 IROHF=0.

 **********************************************************************

            Population analysis using the SCF density.

 **********************************************************************

 Orbital symmetries:
       Occupied  (A') (A') (A') (A') (A') (A') (A') (A') (A') (A')
                 (A') (A') (A') (A') (A') (A') (A") (A') (A') (A')
                 (A") (A') (A') (A") (A")
       Virtual   (A") (A") (A') (A') (A') (A') (A') (A') (A") (A')
                 (A') (A") (A') (A') (A") (A') (A") (A') (A') (A")
                 (A') (A') (A') (A") (A') (A') (A') (A') (A') (A')
                 (A") (A') (A') (A') (A") (A') (A') (A') (A') (A')
                 (A') (A') (A") (A') (A') (A') (A") (A') (A") (A")
                 (A') (A') (A') (A") (A") (A') (A") (A') (A') (A')
                 (A') (A') (A") (A') (A") (A') (A') (A') (A') (A")
                 (A") (A") (A') (A") (A") (A') (A") (A') (A') (A')
                 (A") (A') (A") (A') (A') (A") (A") (A') (A') (A')
                 (A") (A") (A') (A') (A') (A') (A') (A") (A') (A')
                 (A') (A') (A") (A') (A') (A') (A") (A') (A') (A')
                 (A') (A") (A') (A') (A') (A') (A") (A') (A') (A')
                 (A") (A') (A") (A') (A') (A") (A") (A') (A") (A")
                 (A') (A") (A") (A') (A') (A') (A') (A') (A") (A')
                 (A') (A') (A') (A") (A') (A") (A") (A') (A') (A')
                 (A') (A') (A") (A") (A') (A") (A") (A') (A") (A')
                 (A") (A') (A") (A') (A') (A") (A') (A") (A') (A')
                 (A") (A') (A") (A') (A") (A') (A') (A") (A") (A")
                 (A') (A') (A") (A') (A") (A") (A") (A') (A') (A")
                 (A") (A') (A") (A') (A') (A') (A") (A') (A") (A")
                 (A') (A") (A') (A") (A') (A') (A') (A") (A') (A')
                 (A') (A") (A') (A") (A') (A') (A") (A') (A") (A")
                 (A') (A') (A') (A") (A') (A') (A") (A') (A') (A')
                 (A') (A") (A') (A') (A') (A') (A') (A') (A") (A')
                 (A') (A') (A") (A') (A') (A') (A') (A') (A') (A')
                 (A') (A') (A') (A') (A')
 The electronic state is 1-A'.
 Alpha  occ. eigenvalues --  -19.00889 -14.26479 -10.24282 -10.19686 -10.16650
 Alpha  occ. eigenvalues --  -10.14864 -10.14850  -1.20688  -1.10239  -0.97418
 Alpha  occ. eigenvalues --   -0.90530  -0.81191  -0.75924  -0.67919  -0.64229
 Alpha  occ. eigenvalues --   -0.60121  -0.58825  -0.56267  -0.55731  -0.50550
 Alpha  occ. eigenvalues --   -0.47513  -0.45102  -0.43102  -0.41829  -0.33554
 Alpha virt. eigenvalues --    0.03960   0.07614   0.09287   0.10785   0.12004
 Alpha virt. eigenvalues --    0.13599   0.15435   0.20958   0.22742   0.22775
 Alpha virt. eigenvalues --    0.24206   0.24398   0.26518   0.27176   0.28533
 Alpha virt. eigenvalues --    0.28702   0.29183   0.33300   0.33739   0.35999
 Alpha virt. eigenvalues --    0.36506   0.38347   0.38575   0.39044   0.40959
 Alpha virt. eigenvalues --    0.43720   0.45461   0.46193   0.46594   0.49052
 Alpha virt. eigenvalues --    0.52155   0.52590   0.53132   0.54257   0.54705
 Alpha virt. eigenvalues --    0.59424   0.60398   0.61539   0.64913   0.68510
 Alpha virt. eigenvalues --    0.72140   0.72993   0.74693   0.75482   0.77605
 Alpha virt. eigenvalues --    0.79281   0.80213   0.82522   0.87944   0.91480
 Alpha virt. eigenvalues --    0.92805   0.99459   1.01388   1.02128   1.05465
 Alpha virt. eigenvalues --    1.07219   1.07388   1.08430   1.10148   1.12487
 Alpha virt. eigenvalues --    1.14211   1.19875   1.20909   1.21634   1.25971
 Alpha virt. eigenvalues --    1.26106   1.27398   1.29061   1.33252   1.33730
 Alpha virt. eigenvalues --    1.34436   1.38510   1.39324   1.40698   1.41650
 Alpha virt. eigenvalues --    1.48402   1.52861   1.52882   1.54342   1.59687
 Alpha virt. eigenvalues --    1.61838   1.62415   1.63386   1.66929   1.67796
 Alpha virt. eigenvalues --    1.68132   1.72472   1.73607   1.75845   1.77228
 Alpha virt. eigenvalues --    1.78536   1.81598   1.82133   1.87247   1.88287
 Alpha virt. eigenvalues --    1.89996   1.94131   1.97020   1.97525   1.99244
 Alpha virt. eigenvalues --    2.01383   2.04342   2.09991   2.11016   2.14057
 Alpha virt. eigenvalues --    2.21220   2.21665   2.25208   2.27318   2.29342
 Alpha virt. eigenvalues --    2.32648   2.34424   2.36947   2.38350   2.41133
 Alpha virt. eigenvalues --    2.46306   2.53283   2.56650   2.73570   2.77781
 Alpha virt. eigenvalues --    2.95476   2.95646   3.04369   3.04950   3.15375
 Alpha virt. eigenvalues --    3.22009   3.28906   3.28983   3.32990   3.36234
 Alpha virt. eigenvalues --    3.38794   3.40722   3.45869   3.46911   3.49377
 Alpha virt. eigenvalues --    3.52816   3.53238   3.59593   3.60620   3.66535
 Alpha virt. eigenvalues --    3.68913   3.70007   3.71956   3.72007   3.74751
 Alpha virt. eigenvalues --    3.77630   3.83915   3.84796   3.88259   3.96600
 Alpha virt. eigenvalues --    3.98878   4.00751   4.02165   4.03126   4.03799
 Alpha virt. eigenvalues --    4.08101   4.13415   4.16483   4.16883   4.17655
 Alpha virt. eigenvalues --    4.20920   4.22748   4.25241   4.25479   4.27316
 Alpha virt. eigenvalues --    4.28683   4.29759   4.30907   4.32116   4.34439
 Alpha virt. eigenvalues --    4.36439   4.38081   4.39752   4.40020   4.41166
 Alpha virt. eigenvalues --    4.44123   4.44370   4.45239   4.49156   4.50922
 Alpha virt. eigenvalues --    4.52101   4.53381   4.54051   4.55698   4.56746
 Alpha virt. eigenvalues --    4.59717   4.61727   4.62580   4.66153   4.67927
 Alpha virt. eigenvalues --    4.69732   4.73295   4.73584   4.79219   4.82444
 Alpha virt. eigenvalues --    4.83091   4.84154   4.93109   4.93267   4.96057
 Alpha virt. eigenvalues --    4.98441   5.02981   5.05722   5.09115   5.12202
 Alpha virt. eigenvalues --    5.17491   5.19160   5.24774   5.27145   5.30522
 Alpha virt. eigenvalues --    5.34152   5.37951   5.38192   5.38814   5.43129
 Alpha virt. eigenvalues --    5.45025   5.46701   5.49186   5.50613   5.53698
 Alpha virt. eigenvalues --    5.53854   5.56483   5.60737   5.63120   5.65787
 Alpha virt. eigenvalues --    5.70448   5.71358   5.74775   5.77661   5.85025
 Alpha virt. eigenvalues --    5.89963   5.91827   6.00454   6.03204   6.10626
 Alpha virt. eigenvalues --    6.17685   6.23683   6.25633   6.32008   6.42780
 Alpha virt. eigenvalues --    6.51087   6.54343   6.60599   6.64262   6.73384
 Alpha virt. eigenvalues --    6.94484   7.16282   7.29161   9.57470  11.97164
 Alpha virt. eigenvalues --   12.78965  14.89664  17.58779  18.61535  22.27841
          Condensed to atoms (all electrons):
               1          2          3          4          5          6
     1  O    8.112850  -0.132077   0.402966  -0.075250   0.001564   0.004510
     2  N   -0.132077   6.775158   0.418451  -0.015400   0.483978  -0.027343
     3  C    0.402966   0.418451   4.351632   0.478997  -0.080434  -0.046816
     4  C   -0.075250  -0.015400   0.478997   4.817445  -0.043628   0.564872
     5  C    0.001564   0.483978  -0.080434  -0.043628   4.540139  -0.070752
     6  C    0.004510  -0.027343  -0.046816   0.564872  -0.070752   4.663678
     7  C    0.000356  -0.032203  -0.041601  -0.055711   0.571657   0.476792
     8  H    0.205474   0.079423  -0.039492   0.024126  -0.004304  -0.005279
     9  H    0.002484   0.004829  -0.035996   0.454146  -0.001461  -0.033489
    10  H   -0.000607  -0.036902   0.002336  -0.002720   0.452678   0.006671
    11  H   -0.000358  -0.001787   0.007976  -0.035136   0.007739   0.445442
    12  H    0.000046   0.004927  -0.001133   0.007003  -0.033959  -0.035360
               7          8          9         10         11         12
     1  O    0.000356   0.205474   0.002484  -0.000607  -0.000358   0.000046
     2  N   -0.032203   0.079423   0.004829  -0.036902  -0.001787   0.004927
     3  C   -0.041601  -0.039492  -0.035996   0.002336   0.007976  -0.001133
     4  C   -0.055711   0.024126   0.454146  -0.002720  -0.035136   0.007003
     5  C    0.571657  -0.004304  -0.001461   0.452678   0.007739  -0.033959
     6  C    0.476792  -0.005279  -0.033489   0.006671   0.445442  -0.035360
     7  C    4.859975   0.002906   0.006301  -0.052530  -0.047699   0.449928
     8  H    0.002906   0.450272  -0.000664  -0.002343   0.000203  -0.000120
     9  H    0.006301  -0.000664   0.558437   0.000157  -0.005910   0.000116
    10  H   -0.052530  -0.002343   0.000157   0.584647   0.000072  -0.004284
    11  H   -0.047699   0.000203  -0.005910   0.000072   0.589796  -0.006792
    12  H    0.449928  -0.000120   0.000116  -0.004284  -0.006792   0.576804
 Mulliken charges:
               1
     1  O   -0.521956
     2  N   -0.521053
     3  C    0.583114
     4  C   -0.118744
     5  C    0.176782
     6  C    0.057076
     7  C   -0.138172
     8  H    0.289799
     9  H    0.051051
    10  H    0.052825
    11  H    0.046453
    12  H    0.042823
 Sum of Mulliken charges =  -0.00000
 Mulliken charges with hydrogens summed into heavy atoms:
               1
     1  O   -0.232157
     2  N   -0.521053
     3  C    0.583114
     4  C   -0.067693
     5  C    0.229608
     6  C    0.103529
     7  C   -0.095348
 APT charges:
               1
     1  O   -0.272268
     2  N   -0.472144
     3  C    0.261082
     4  C   -0.528041
     5  C   -0.349115
     6  C   -0.333575
     7  C   -0.469769
     8  H    0.280279
     9  H    0.420016
    10  H    0.469884
    11  H    0.475078
    12  H    0.518573
 Sum of APT charges =  -0.00000
 APT charges with hydrogens summed into heavy atoms:
               1
     1  O    0.008010
     2  N   -0.472144
     3  C    0.261082
     4  C   -0.108025
     5  C    0.120769
     6  C    0.141503
     7  C    0.048805
 Electronic spatial extent (au):  <R**2>=            623.2436
 Charge=             -0.0000 electrons
 Dipole moment (field-independent basis, Debye):
    X=             -0.1003    Y=             -3.0687    Z=              0.0000  Tot=              3.0703
 Quadrupole moment (field-independent basis, Debye-Ang):
   XX=            -36.1162   YY=            -43.2603   ZZ=            -43.3509
   XY=             -1.1847   XZ=             -0.0000   YZ=              0.0000
 Traceless Quadrupole moment (field-independent basis, Debye-Ang):
   XX=              4.7929   YY=             -2.3512   ZZ=             -2.4417
   XY=             -1.1847   XZ=             -0.0000   YZ=              0.0000
 Octapole moment (field-independent basis, Debye-Ang**2):
  XXX=              3.0459  YYY=            -20.4960  ZZZ=              0.0000  XYY=             -4.7003
  XXY=             -0.6818  XXZ=              0.0000  XZZ=             -1.2635  YZZ=              4.7306
  YYZ=              0.0000  XYZ=              0.0000
 Hexadecapole moment (field-independent basis, Debye-Ang**3):
 XXXX=           -260.2756 YYYY=           -516.6669 ZZZZ=            -47.0871 XXXY=              6.7242
 XXXZ=             -0.0000 YYYX=            -11.5733 YYYZ=              0.0000 ZZZX=             -0.0000
 ZZZY=              0.0000 XXYY=           -113.2296 XXZZ=            -60.2817 YYZZ=            -97.7616
 XXYZ=              0.0000 YYXZ=             -0.0000 ZZXY=              0.0265
 N-N= 2.771433920893D+02 E-N=-1.308752230359D+03  KE= 3.222673134640D+02
 Symmetry A'   KE= 3.106263100360D+02
 Symmetry A"   KE= 1.164100342793D+01
  Exact polarizability:   0.000   0.000   0.000   0.000   0.000   0.000
 Approx polarizability:  81.067   4.020  93.676   0.000  -0.000  42.926
 No NMR shielding tensors so no spin-rotation constants.
 Leave Link  601 at Sat Aug 28 00:51:16 2021, MaxMem= 17179869184 cpu:        86.6
 (Enter /public3/home/sc51754/softwares/g09e01/l701.exe)
 Compute integral second derivatives.
 ... and contract with generalized density number  0.
 Leave Link  701 at Sat Aug 28 00:51:17 2021, MaxMem= 17179869184 cpu:        43.4
 (Enter /public3/home/sc51754/softwares/g09e01/l702.exe)
 L702 exits ... SP integral derivatives will be done elsewhere.
 Leave Link  702 at Sat Aug 28 00:51:17 2021, MaxMem= 17179869184 cpu:         0.8
 (Enter /public3/home/sc51754/softwares/g09e01/l703.exe)
 Compute integral second derivatives, UseDBF=F ICtDFT=           0.
 Integral derivatives from FoFJK, PRISM(SPDF).
 Calling FoFJK, ICntrl=    100147 FMM=F ISym2X=1 I1Cent= 0 IOpClX= 0 NMat=1 NMatS=1 NMatT=0.
 FoFJK:  IHMeth= 1 ICntrl=  100147 DoSepK=T KAlg= 0 I1Cent=   0 FoldK=F
 IRaf=         1 NMat=   1 IRICut=       1 DoRegI=T DoRafI=F ISym2E= 1.
 FoFCou: FMM=F IPFlag=           0 FMFlag=      100000 FMFlg1=         800
         NFxFlg=           0 DoJE=F BraDBF=F KetDBF=F FulRan=T
         wScrn=  0.000000 ICntrl=  100547 IOpCl=  0 I1Cent=           0 NGrid=           0
         NMat0=    1 NMatS0=      1 NMatT0=    0 NMatD0=    1 NMtDS0=    0 NMtDT0=    0
 Petite list used in FoFCou.
 Leave Link  703 at Sat Aug 28 00:51:32 2021, MaxMem= 17179869184 cpu:       940.6
 (Enter /public3/home/sc51754/softwares/g09e01/l716.exe)
 Dipole        =-3.94436378D-02-1.20730879D+00 9.31006390D-32
 Polarizability= 0.00000000D+00 0.00000000D+00 0.00000000D+00
                 0.00000000D+00 0.00000000D+00 0.00000000D+00
 ***** Axes restored to original set *****
 -------------------------------------------------------------------
 Center     Atomic                   Forces (Hartrees/Bohr)
 Number     Number              X              Y              Z
 -------------------------------------------------------------------
      1        8          -0.097721687   -0.045254359   -0.000000000
      2        7          -0.016189944    0.024866856   -0.000000000
      3        6           0.129239217   -0.008779773    0.000000000
      4        6          -0.019691982   -0.011411493   -0.000000000
      5        6          -0.006758163   -0.025541150    0.000000000
      6        6           0.011561835    0.018711486   -0.000000000
      7        6          -0.018973490    0.005192002   -0.000000000
      8        1           0.020598879    0.040526075   -0.000000000
      9        1          -0.001355945    0.000921582   -0.000000000
     10        1           0.000878594    0.000364935    0.000000000
     11        1           0.000126610   -0.000454229    0.000000000
     12        1          -0.001713925    0.000858068   -0.000000000
 -------------------------------------------------------------------
 Cartesian Forces:  Max     0.129239217 RMS     0.030467993
 Force constants in Cartesian coordinates: 
                1             2             3             4             5 
      1  0.711167D-01
      2  0.102830D-01  0.495517D+00
      3  0.000000D+00  0.000000D+00  0.759875D-01
      4 -0.127767D-01 -0.290748D-01  0.000000D+00  0.576183D+00
      5 -0.111802D+00 -0.350107D-01  0.000000D+00  0.174980D+00  0.677515D+00
      6  0.000000D+00  0.000000D+00  0.158489D-01  0.000000D+00  0.000000D+00
      7 -0.881326D-01  0.162012D-01  0.000000D+00 -0.407948D+00 -0.110507D+00
      8 -0.310831D-01 -0.371512D+00  0.000000D+00 -0.153295D+00 -0.248890D+00
      9  0.000000D+00  0.000000D+00 -0.708425D-01  0.000000D+00  0.000000D+00
     10 -0.320983D-02  0.194591D-01  0.000000D+00 -0.582932D-01 -0.372784D-01
     11  0.583676D-01 -0.548386D-01  0.000000D+00  0.145042D-01  0.815918D-01
     12  0.000000D+00  0.000000D+00  0.163519D-01  0.000000D+00  0.000000D+00
     13  0.564921D-02  0.210242D-02  0.000000D+00 -0.116730D+00 -0.103235D-01
     14  0.248645D-01 -0.257310D-02  0.000000D+00  0.190834D-01 -0.356630D+00
     15  0.000000D+00  0.000000D+00  0.853102D-02  0.000000D+00  0.000000D+00
     16 -0.175744D-01  0.103029D-01  0.000000D+00 -0.231675D-01 -0.571650D-01
     17 -0.114448D-01  0.141613D-01  0.000000D+00 -0.303036D-01 -0.705791D-01
     18  0.000000D+00  0.000000D+00  0.503880D-02  0.000000D+00  0.000000D+00
     19  0.159963D-01 -0.120128D-01  0.000000D+00  0.451519D-01  0.101052D+00
     20 -0.734664D-02 -0.788726D-02  0.000000D+00  0.189641D-01 -0.548964D-01
     21  0.000000D+00  0.000000D+00 -0.151954D-02  0.000000D+00  0.000000D+00
     22  0.251730D-01 -0.173327D-01  0.000000D+00  0.949418D-03  0.448443D-01
     23  0.688350D-01 -0.366696D-01  0.000000D+00  0.973970D-02  0.308042D-01
     24  0.000000D+00  0.000000D+00 -0.457752D-01  0.000000D+00  0.000000D+00
     25  0.250113D-02  0.278242D-03  0.000000D+00 -0.562825D-02  0.367373D-02
     26 -0.115184D-02  0.586502D-03  0.000000D+00  0.579019D-02 -0.791919D-03
     27  0.000000D+00  0.000000D+00 -0.173871D-02  0.000000D+00  0.000000D+00
     28 -0.629948D-03 -0.126985D-03  0.000000D+00  0.528748D-02 -0.279720D-02
     29 -0.779928D-03 -0.119392D-02  0.000000D+00 -0.329664D-01 -0.215389D-01
     30  0.000000D+00  0.000000D+00  0.514780D-03  0.000000D+00  0.000000D+00
     31  0.723308D-04  0.278443D-03  0.000000D+00  0.780101D-03 -0.390269D-03
     32  0.183930D-02 -0.974529D-03  0.000000D+00 -0.377408D-03 -0.704102D-03
     33  0.000000D+00  0.000000D+00 -0.144202D-02  0.000000D+00  0.000000D+00
     34  0.181487D-02 -0.357890D-03  0.000000D+00 -0.380876D-02  0.571300D-02
     35 -0.581107D-03  0.395662D-03  0.000000D+00  0.295589D-02 -0.870578D-03
     36  0.000000D+00  0.000000D+00 -0.954942D-03  0.000000D+00  0.000000D+00
                6             7             8             9            10 
      6  0.794080D-01
      7  0.000000D+00  0.756714D+00
      8  0.000000D+00  0.486154D-01  0.746980D+00
      9 -0.663358D-01  0.000000D+00  0.000000D+00  0.182675D+00
     10  0.000000D+00 -0.205586D+00  0.497958D-01  0.000000D+00  0.669155D+00
     11  0.000000D+00 -0.656973D-02 -0.121801D+00  0.000000D+00  0.101042D+00
     12  0.170090D-01  0.000000D+00  0.000000D+00 -0.904349D-01  0.000000D+00
     13  0.000000D+00  0.284098D-01 -0.393278D-01  0.000000D+00 -0.197404D-01
     14  0.000000D+00 -0.123045D+00 -0.323616D-01  0.000000D+00  0.408886D-01
     15 -0.522927D-01  0.000000D+00  0.000000D+00  0.127917D-02  0.000000D+00
     16  0.000000D+00  0.634031D-01  0.227351D-01  0.000000D+00 -0.146656D+00
     17  0.000000D+00  0.810634D-01 -0.368955D-01  0.000000D+00 -0.403690D-01
     18 -0.627970D-02  0.000000D+00  0.000000D+00  0.162268D-02  0.000000D+00
     19  0.000000D+00 -0.913844D-01  0.991117D-02  0.000000D+00  0.404585D-01
     20  0.000000D+00  0.193728D-01  0.424279D-02  0.000000D+00 -0.342143D-01
     21  0.189123D-01  0.000000D+00  0.000000D+00 -0.100759D-01  0.000000D+00
     22  0.000000D+00 -0.447728D-01  0.109761D+00  0.000000D+00  0.321850D-02
     23  0.000000D+00  0.629364D-01  0.579819D-01  0.000000D+00  0.779921D-02
     24 -0.154074D-01  0.000000D+00  0.000000D+00  0.296719D-01  0.000000D+00
     25  0.000000D+00 -0.127702D-01 -0.178727D-01  0.000000D+00 -0.280346D+00
     26  0.000000D+00  0.131579D-01  0.108637D-01  0.000000D+00 -0.132952D+00
     27  0.428656D-02  0.000000D+00  0.000000D+00  0.157207D-02  0.000000D+00
     28  0.000000D+00  0.305248D-02  0.128819D-02  0.000000D+00  0.301422D-03
     29  0.000000D+00  0.516798D-03 -0.386610D-02  0.000000D+00  0.124180D-03
     30 -0.747401D-03  0.000000D+00  0.000000D+00  0.875919D-02  0.000000D+00
     31  0.000000D+00  0.136612D-02 -0.134975D-02  0.000000D+00  0.524559D-02
     32  0.000000D+00 -0.155889D-02 -0.488207D-02  0.000000D+00  0.281671D-01
     33 -0.255706D-02  0.000000D+00  0.000000D+00  0.120663D-01  0.000000D+00
     34  0.000000D+00 -0.235174D-02  0.821207D-03  0.000000D+00 -0.454747D-02
     35  0.000000D+00 -0.183669D-03  0.139362D-03  0.000000D+00 -0.246241D-02
     36  0.815535D-02  0.000000D+00  0.000000D+00  0.422459D-04  0.000000D+00
               11            12            13            14            15 
     11  0.735623D+00
     12  0.000000D+00  0.131721D+00
     13  0.272309D-01  0.000000D+00  0.775119D+00
     14 -0.652983D-01  0.000000D+00  0.317698D-01  0.714421D+00
     15  0.000000D+00 -0.337721D-02  0.000000D+00  0.000000D+00  0.153565D+00
     16  0.307647D-01  0.000000D+00 -0.632548D-01  0.434086D-01  0.000000D+00
     17 -0.388226D+00  0.000000D+00 -0.215642D-01  0.815830D-01  0.000000D+00
     18  0.000000D+00 -0.630132D-01  0.000000D+00  0.000000D+00  0.825513D-02
     19 -0.825082D-01  0.000000D+00 -0.299319D+00  0.554526D-01  0.000000D+00
     20 -0.206268D-01  0.000000D+00  0.136207D+00 -0.199611D+00  0.000000D+00
     21  0.000000D+00  0.812893D-02  0.000000D+00  0.000000D+00 -0.730948D-01
     22 -0.712171D-02  0.000000D+00 -0.129611D-01 -0.105160D-01  0.000000D+00
     23 -0.207154D-01  0.000000D+00 -0.149223D-01 -0.221438D-01  0.000000D+00
     24  0.000000D+00  0.536356D-02  0.000000D+00  0.000000D+00 -0.510640D-02
     25 -0.132137D+00  0.000000D+00  0.393744D-03  0.229788D-02  0.000000D+00
     26 -0.136698D+00  0.000000D+00  0.262535D-03 -0.142217D-02  0.000000D+00
     27  0.000000D+00 -0.333692D-01  0.000000D+00  0.000000D+00 -0.136698D-03
     28  0.105765D-02  0.000000D+00 -0.300315D+00 -0.106480D+00  0.000000D+00
     29 -0.512125D-03  0.000000D+00 -0.102310D+00 -0.104853D+00  0.000000D+00
     30  0.000000D+00 -0.473465D-03  0.000000D+00  0.000000D+00 -0.438151D-01
     31 -0.249384D-02  0.000000D+00 -0.414286D-02 -0.384247D-02  0.000000D+00
     32 -0.919315D-02  0.000000D+00 -0.364118D-02 -0.541447D-03  0.000000D+00
     33  0.000000D+00  0.697988D-02  0.000000D+00  0.000000D+00  0.635215D-02
     34 -0.213654D-02  0.000000D+00  0.689112D-02  0.261184D-01  0.000000D+00
     35  0.693987D-03  0.000000D+00 -0.548434D-02 -0.105704D-01  0.000000D+00
     36  0.000000D+00  0.511347D-02  0.000000D+00  0.000000D+00 -0.159560D-03
               16            17            18            19            20 
     16  0.741704D+00
     17 -0.387949D-01  0.723467D+00
     18  0.000000D+00  0.000000D+00  0.150008D+00
     19 -0.294460D+00 -0.498789D-01  0.000000D+00  0.678360D+00
     20 -0.126485D+00 -0.177831D+00  0.000000D+00  0.543052D-02  0.785710D+00
     21  0.000000D+00  0.000000D+00 -0.621580D-01  0.000000D+00  0.000000D+00
     22  0.364980D-02  0.613511D-02  0.000000D+00 -0.565719D-02  0.191084D-02
     23  0.972635D-02  0.115443D-01  0.000000D+00 -0.135839D-01  0.608509D-02
     24  0.000000D+00  0.000000D+00 -0.637242D-03  0.000000D+00  0.000000D+00
     25  0.572812D-02  0.329754D-02  0.000000D+00  0.190750D-02  0.595976D-03
     26 -0.273483D-01 -0.882339D-02  0.000000D+00  0.136897D-02 -0.522607D-02
     27  0.000000D+00  0.000000D+00  0.275728D-02  0.000000D+00  0.000000D+00
     28 -0.361274D-02  0.360960D-02  0.000000D+00 -0.151012D-01 -0.134977D-01
     29  0.332870D-02 -0.166676D-02  0.000000D+00  0.157461D-01  0.120739D-01
     30  0.000000D+00  0.000000D+00  0.840840D-02  0.000000D+00  0.000000D+00
     31 -0.269911D+00  0.127095D+00  0.000000D+00 -0.157683D-01  0.171881D-01
     32  0.127029D+00 -0.138751D+00  0.000000D+00 -0.135397D-01  0.123817D-01
     33  0.000000D+00  0.000000D+00 -0.455646D-01  0.000000D+00  0.000000D+00
     34  0.415126D-02 -0.288454D-01  0.000000D+00 -0.601847D-01 -0.181258D-01
     35  0.249780D-02 -0.798347D-02  0.000000D+00 -0.174379D-01 -0.354415D+00
     36  0.000000D+00  0.000000D+00  0.156228D-02  0.000000D+00  0.000000D+00
               21            22            23            24            25 
     21  0.125910D+00
     22  0.000000D+00  0.323056D-01
     23  0.000000D+00 -0.127792D+00 -0.283839D-01
     24  0.262841D-02  0.000000D+00  0.000000D+00  0.309947D-01
     25  0.000000D+00 -0.115521D-02 -0.166037D-02  0.000000D+00  0.288649D+00
     26  0.000000D+00 -0.185685D-03  0.103635D-02  0.000000D+00  0.142044D+00
     27  0.953226D-02  0.000000D+00  0.000000D+00 -0.339585D-03  0.000000D+00
     28  0.000000D+00  0.557422D-03  0.801540D-03  0.000000D+00 -0.348849D-04
     29  0.000000D+00 -0.303587D-03  0.230385D-04  0.000000D+00 -0.125350D-03
     30  0.792756D-02  0.000000D+00  0.000000D+00 -0.136860D-02  0.000000D+00
     31  0.000000D+00 -0.521572D-04 -0.580736D-04  0.000000D+00  0.596645D-03
     32  0.000000D+00 -0.144160D-04 -0.511249D-03  0.000000D+00 -0.601914D-03
     33  0.545128D-02  0.000000D+00  0.000000D+00 -0.764206D-03  0.000000D+00
     34  0.000000D+00 -0.125519D-02 -0.182186D-02  0.000000D+00  0.158040D-03
     35  0.000000D+00  0.613999D-03  0.949184D-03  0.000000D+00  0.209885D-03
     36 -0.316425D-01  0.000000D+00  0.000000D+00  0.740082D-03  0.000000D+00
               26            27            28            29            30 
     26  0.139821D+00
     27  0.000000D+00  0.237786D-01
     28 -0.476330D-04  0.000000D+00  0.310810D+00
     29  0.104533D-03  0.000000D+00  0.116492D+00  0.120491D+00
     30  0.000000D+00 -0.140678D-02  0.000000D+00  0.000000D+00  0.273824D-01
     31  0.381165D-03  0.000000D+00 -0.942485D-03  0.858652D-03  0.000000D+00
     32  0.100510D-02  0.000000D+00 -0.695202D-03  0.473286D-03  0.000000D+00
     33  0.000000D+00 -0.526869D-02  0.000000D+00  0.000000D+00 -0.566122D-03
     34 -0.131961D-02  0.000000D+00  0.627257D-03 -0.581399D-03  0.000000D+00
     35 -0.456010D-03  0.000000D+00  0.395972D-03  0.464730D-03  0.000000D+00
     36  0.000000D+00  0.332951D-03  0.000000D+00  0.000000D+00 -0.461485D-02
               31            32            33            34            35 
     31  0.281779D+00
     32 -0.137368D+00  0.141095D+00
     33  0.000000D+00  0.000000D+00  0.282889D-01
     34  0.977115D-03  0.761249D-03  0.000000D+00  0.575282D-01
     35 -0.298688D-03  0.602023D-03  0.000000D+00  0.197746D-01  0.371050D+00
     36  0.000000D+00  0.000000D+00 -0.297581D-02  0.000000D+00  0.000000D+00
               36 
     36  0.244013D-01
 FormGI is forming the generalized inverse of G from B-inverse, IUseBI=4.
 Leave Link  716 at Sat Aug 28 00:51:32 2021, MaxMem= 17179869184 cpu:         7.7
 (Enter /public3/home/sc51754/softwares/g09e01/l103.exe)

 GradGradGradGradGradGradGradGradGradGradGradGradGradGradGradGradGradGrad
 Berny optimization.
 Red2BG is reusing G-inverse.
 Internal  Forces:  Max     0.056022211 RMS     0.015114598
 Search for a saddle point.
 Step number   1 out of a maximum of  100
 All quantities printed in internal units (Hartrees-Bohrs-Radians)
 Second derivative matrix not updated -- analytic derivatives used.
 ITU=  0
 LST/QST climbing along tangent vector
     Eigenvalues ---   -0.06974   0.00078   0.00362   0.01543   0.01750
     Eigenvalues ---    0.02137   0.02317   0.02755   0.03167   0.04619
     Eigenvalues ---    0.08142   0.10182   0.10750   0.11995   0.13149
     Eigenvalues ---    0.14365   0.19858   0.20850   0.22766   0.27190
     Eigenvalues ---    0.36036   0.36500   0.36820   0.37419   0.37608
     Eigenvalues ---    0.43173   0.45261   0.47687   0.53950   0.58382
     Eigenvalues --- 1000.000001000.000001000.000001000.000001000.00000
     Eigenvalues --- 1000.000001000.000001000.000001000.000001000.00000
     Eigenvalues --- 1000.000001000.000001000.000001000.000001000.00000
     Eigenvalues --- 1000.000001000.000001000.000001000.000001000.00000
     Eigenvalues --- 1000.000001000.000001000.000001000.000001000.00000
     Eigenvalues --- 1000.000001000.000001000.00000
 Eigenvectors required to have negative eigenvalues:
                          R2        R5        A4        A3        D22
   1                    0.65211  -0.53184  -0.21383   0.17912   0.17815
                          D8        D21       D10       D9        D19
   1                   -0.16298   0.16272  -0.14533   0.13661  -0.13276
 QST in optimization variable space.
                        Tangent   TS vect  // Eig F  Eigenval
   1         R1        -0.04343  -0.04343  -0.03010  -0.06974
   2         R2         0.65211   0.65211  -0.00073   0.00078
   3         R3         0.02105   0.02105   0.00633   0.00362
   4         R4         0.01166   0.01166  -0.00052   0.01543
   5         R5        -0.53184  -0.53184   0.00048   0.01750
   6         R6         0.02331   0.02331   0.00007   0.02137
   7         R7        -0.01148  -0.01148   0.00048   0.02317
   8         R8         0.00008   0.00008   0.00023   0.02755
   9         R9        -0.01381  -0.01381   0.00044   0.03167
  10         R10       -0.00128  -0.00128   0.00043   0.04619
  11         R11        0.01650   0.01650  -0.01879   0.08142
  12         R12        0.00028   0.00028   0.00731   0.10182
  13         R13       -0.00080  -0.00080   0.00727   0.10750
  14         A1        -0.13270  -0.13270  -0.00092   0.11995
  15         A2         0.03471   0.03471   0.00154   0.13149
  16         A3         0.17912   0.17912  -0.02708   0.14365
  17         A4        -0.21383  -0.21383   0.00403   0.19858
  18         A5         0.00766   0.00766   0.01190   0.20850
  19         A6         0.03564   0.03564  -0.02261   0.22766
  20         A7        -0.04330  -0.04330   0.02753   0.27190
  21         A8         0.01545   0.01545  -0.00408   0.36036
  22         A9        -0.01435  -0.01435   0.00211   0.36500
  23         A10       -0.00110  -0.00110   0.00126   0.36820
  24         A11       -0.01262  -0.01262   0.00069   0.37419
  25         A12        0.00122   0.00122  -0.00092   0.37608
  26         A13        0.01140   0.01140  -0.01330   0.43173
  27         A14        0.00705   0.00705   0.00070   0.45261
  28         A15       -0.00140  -0.00140  -0.00597   0.47687
  29         A16       -0.00564  -0.00564  -0.00822   0.53950
  30         A17       -0.00128  -0.00128   0.01079   0.58382
  31         A18        0.00049   0.00049   0.000001000.00000
  32         A19        0.00079   0.00079   0.000001000.00000
  33         D1         0.01964   0.01964   0.000001000.00000
  34         D2         0.03170   0.03170   0.000001000.00000
  35         D3        -0.01710  -0.01710  -0.000001000.00000
[...]
   R12        2.05043  -0.00000   0.00000   0.00000   0.00000   2.05043
   R13        2.04261   0.00000   0.00000   0.00000   0.00000   2.04261
    A1        1.30039  -0.00002   0.00000  -0.00004  -0.00004   1.30035
    A2        2.14844   0.00000   0.00000  -0.00001  -0.00001   2.14843
    A3        1.30272  -0.00001   0.00000  -0.00006  -0.00006   1.30266
    A4        2.83203   0.00000   0.00000   0.00007   0.00007   2.83210
    A5        1.84108  -0.00001   0.00000  -0.00006  -0.00006   1.84102
    A6        2.33982   0.00001   0.00000   0.00004   0.00004   2.33986
    A7        2.10228   0.00000   0.00000   0.00002   0.00002   2.10230
    A8        2.03062   0.00000   0.00000  -0.00001  -0.00001   2.03061
    A9        2.10744  -0.00000   0.00000   0.00002   0.00002   2.10745
   A10        2.14513  -0.00000   0.00000  -0.00001  -0.00001   2.14512
   A11        2.08555  -0.00001   0.00000  -0.00001  -0.00001   2.08554
   A12        2.04914   0.00000   0.00000   0.00000   0.00000   2.04914
   A13        2.14850   0.00000   0.00000   0.00001   0.00001   2.14851
   A14        2.13256   0.00000   0.00000   0.00001   0.00001   2.13257
   A15        2.07770  -0.00000   0.00000  -0.00001  -0.00001   2.07769
   A16        2.07293  -0.00000   0.00000  -0.00000  -0.00000   2.07293
   A17        2.06692  -0.00000   0.00000  -0.00001  -0.00001   2.06692
   A18        2.10220   0.00000   0.00000   0.00001   0.00001   2.10221
   A19        2.11406  -0.00000   0.00000  -0.00000  -0.00000   2.11406
    D1       -0.00020   0.00001   0.00000   0.00020   0.00020  -0.00000
    D2        3.14155   0.00000   0.00000   0.00004   0.00004   3.14159
    D3       -3.14135  -0.00001   0.00000  -0.00024  -0.00024  -3.14159
    D4        0.00011  -0.00000   0.00000  -0.00011  -0.00011   0.00000
    D5        0.00022  -0.00001   0.00000  -0.00022  -0.00022   0.00000
    D6       -3.14151  -0.00000   0.00000  -0.00008  -0.00008  -3.14159
    D7       -0.00004   0.00000   0.00000   0.00004   0.00004  -0.00000
    D8        3.14146   0.00000   0.00000   0.00013   0.00013   3.14159
    D9       -3.14155   0.00000   0.00000  -0.00005  -0.00005  -3.14159
   D10       -0.00004   0.00000   0.00000   0.00005   0.00005   0.00000
   D11        3.14132   0.00001   0.00000   0.00027   0.00027   3.14159
   D12       -0.00018   0.00001   0.00000   0.00018   0.00018  -0.00000
   D13       -0.00009   0.00000   0.00000   0.00009   0.00009  -0.00000
   D14       -3.14159  -0.00000   0.00000  -0.00001  -0.00001   3.14159
   D15        0.00001   0.00000   0.00000  -0.00001  -0.00001   0.00000
   D16       -3.14153  -0.00000   0.00000  -0.00006  -0.00006   3.14159
   D17        3.14151   0.00001   0.00000   0.00008   0.00008  -3.14159
   D18       -0.00004   0.00000   0.00000   0.00004   0.00004  -0.00000
   D19       -0.00003  -0.00000   0.00000   0.00003   0.00003  -0.00000
   D20        3.14159  -0.00000   0.00000   0.00000   0.00000   3.14159
   D21       -3.14153  -0.00000   0.00000  -0.00006  -0.00006   3.14159
   D22        0.00009  -0.00000   0.00000  -0.00009  -0.00009  -0.00000
   D23        0.00005  -0.00000   0.00000  -0.00005  -0.00005   0.00000
   D24       -3.14157  -0.00000   0.00000  -0.00002  -0.00002  -3.14159
   D25        3.14159   0.00000   0.00000   0.00000   0.00000  -3.14159
   D26       -0.00003   0.00000   0.00000   0.00003   0.00003   0.00000
         Item               Value     Threshold  Converged?
 Maximum Force            0.000031     0.000450     YES
 RMS     Force            0.000008     0.000300     YES
 Maximum Displacement     0.000391     0.001800     YES
 RMS     Displacement     0.000074     0.001200     YES
 Predicted change in Energy=-1.268528D-08
 Optimization completed.
    -- Stationary point found.
                           ----------------------------
                           !   Optimized Parameters   !
                           ! (Angstroms and Degrees)  !
 --------------------------                            --------------------------
 ! Name  Definition              Value          Derivative Info.                !
 --------------------------------------------------------------------------------
 ! R1    R(1,3)                  1.2839         -DE/DX =    0.0                 !
 ! R2    R(1,8)                  1.3544         -DE/DX =    0.0                 !
 ! R3    R(2,3)                  1.3514         -DE/DX =    0.0                 !
 ! R4    R(2,5)                  1.3359         -DE/DX =    0.0                 !
 ! R5    R(2,8)                  1.283          -DE/DX =    0.0                 !
 ! R6    R(3,4)                  1.4082         -DE/DX =    0.0                 !
 ! R7    R(4,6)                  1.375          -DE/DX =    0.0                 !
 ! R8    R(4,9)                  1.0809         -DE/DX =    0.0                 !
 ! R9    R(5,7)                  1.3746         -DE/DX =    0.0                 !
 ! R10   R(5,10)                 1.0836         -DE/DX =    0.0                 !
 ! R11   R(6,7)                  1.409          -DE/DX =    0.0                 !
 ! R12   R(6,11)                 1.085          -DE/DX =    0.0                 !
 ! R13   R(7,12)                 1.0809         -DE/DX =    0.0                 !
 ! A1    A(3,1,8)               74.507          -DE/DX =    0.0                 !
 ! A2    A(3,2,5)              123.0964         -DE/DX =    0.0                 !
 ! A3    A(3,2,8)               74.6403         -DE/DX =    0.0                 !
 ! A4    A(5,2,8)              162.2633         -DE/DX =    0.0                 !
 ! A5    A(1,3,2)              105.4861         -DE/DX =    0.0                 !
 ! A6    A(1,3,4)              134.0619         -DE/DX =    0.0                 !
 ! A7    A(2,3,4)              120.452          -DE/DX =    0.0                 !
 ! A8    A(3,4,6)              116.3459         -DE/DX =    0.0                 !
 ! A9    A(3,4,9)              120.7472         -DE/DX =    0.0                 !
 ! A10   A(6,4,9)              122.9069         -DE/DX =    0.0                 !
 ! A11   A(2,5,7)              119.4931         -DE/DX =    0.0                 !
 ! A12   A(2,5,10)             117.4069         -DE/DX =    0.0                 !
 ! A13   A(7,5,10)             123.1            -DE/DX =    0.0                 !
 ! A14   A(4,6,7)              122.1866         -DE/DX =    0.0                 !
 ! A15   A(4,6,11)             119.0432         -DE/DX =    0.0                 !
 ! A16   A(7,6,11)             118.7702         -DE/DX =    0.0                 !
 ! A17   A(5,7,6)              118.426          -DE/DX =    0.0                 !
 ! A18   A(5,7,12)             120.4472         -DE/DX =    0.0                 !
 ! A19   A(6,7,12)             121.1269         -DE/DX =    0.0                 !
 ! D1    D(8,1,3,2)             -0.0117         -DE/DX =    0.0                 !
 ! D2    D(8,1,3,4)            179.9977         -DE/DX =    0.0                 !
 ! D3    D(5,2,3,1)           -179.986          -DE/DX =    0.0                 !
 ! D4    D(5,2,3,4)              0.0061         -DE/DX =    0.0                 !
 ! D5    D(8,2,3,1)              0.0124         -DE/DX =    0.0                 !
 ! D6    D(8,2,3,4)           -179.9955         -DE/DX =    0.0                 !
 ! D7    D(3,2,5,7)             -0.0025         -DE/DX =    0.0                 !
 ! D8    D(3,2,5,10)           179.9923         -DE/DX =    0.0                 !
 ! D9    D(8,2,5,7)           -179.9974         -DE/DX =    0.0                 !
 ! D10   D(8,2,5,10)            -0.0026         -DE/DX =    0.0                 !
 ! D11   D(1,3,4,6)            179.9844         -DE/DX =    0.0                 !
 ! D12   D(1,3,4,9)             -0.0102         -DE/DX =    0.0                 !
 ! D13   D(2,3,4,6)             -0.005          -DE/DX =    0.0                 !
 ! D14   D(2,3,4,9)            180.0004         -DE/DX =    0.0                 !
 ! D15   D(3,4,6,7)              0.0007         -DE/DX =    0.0                 !
 ! D16   D(3,4,6,11)           180.0035         -DE/DX =    0.0                 !
 ! D17   D(9,4,6,7)           -180.0048         -DE/DX =    0.0                 !
 ! D18   D(9,4,6,11)            -0.002          -DE/DX =    0.0                 !
 ! D19   D(2,5,7,6)             -0.0019         -DE/DX =    0.0                 !
 ! D20   D(2,5,7,12)           179.9997         -DE/DX =    0.0                 !
 ! D21   D(10,5,7,6)           180.0036         -DE/DX =    0.0                 !
 ! D22   D(10,5,7,12)            0.0052         -DE/DX =    0.0                 !
 ! D23   D(4,6,7,5)              0.0027         -DE/DX =    0.0                 !
 ! D24   D(4,6,7,12)          -179.9989         -DE/DX =    0.0                 !
 ! D25   D(11,6,7,5)          -180.0001         -DE/DX =    0.0                 !
 ! D26   D(11,6,7,12)           -0.0017         -DE/DX =    0.0                 !
 --------------------------------------------------------------------------------
 GradGradGradGradGradGradGradGradGradGradGradGradGradGradGradGradGradGrad

 Leave Link  103 at Sat Aug 28 00:56:36 2021, MaxMem= 17179869184 cpu:         9.9
 (Enter /public3/home/sc51754/softwares/g09e01/l9999.exe)
 1\1\GINC-Q2408\Freq\RwB97\Gen\C5H5N1O1\SC51754\28-Aug-2021\0\\#P Geom=
 AllCheck Guess=TCheck SCRF=Check GenChk RwB97/ChkBas Freq\\HY_wB97_PC2
 _OPT_FREQ\\0,1\O,0.0202141462,2.5827103552,-0.0013546488\N,-0.88633974
 25,0.6907486339,0.0000407985\C,0.3040214784,1.3305232272,-0.0009006443
 \C,1.5073750691,0.5991146295,-0.0010191952\C,-0.9990581461,-0.64042612
 7,0.0010170641\C,1.3888360941,-0.7707508822,-0.0000292716\C,0.13606683
 83,-1.4157178593,0.0010346133\H,-1.1726959584,1.9413812316,-0.00067849
 5\H,2.4620928092,1.1059191862,-0.0017638537\H,-1.999674658,-1.05626386
 01,0.0018522883\H,2.2884950247,-1.3773255651,-0.0000200598\H,0.0628131
 449,-2.4941352699,0.0018214042\\Version=EM64L-G09RevE.01\State=1-A\HF=
 -323.5225977\RMSD=1.143e-09\RMSF=1.922e-05\ZeroPoint=0.0897337\Thermal
 =0.0946885\Dipole=-0.0194138,-1.4107423,0.000796\DipoleDeriv=-0.545076
 1,0.0212648,0.0000315,0.1643762,-1.7877238,0.0007312,-0.0000485,0.0006
 204,-0.404449,-0.3307137,-0.4299207,0.0002781,0.2232642,-1.1200654,0.0
 004135,-0.0000775,0.0007045,-0.2328453,0.1755496,-0.4679951,0.0003387,
 -0.2468284,1.8818588,-0.0007961,0.0001567,-0.0005723,0.2485473,-0.0202
 394,0.5478151,-0.0004171,-0.1475228,-0.7329877,0.0004097,0.0000472,0.0
 000788,-0.1995649,0.5282987,0.1295183,-0.0003168,-0.5812448,0.4675944,
 -0.0000245,0.0001079,-0.0003484,0.046987,0.4608759,0.203026,-0.000376,
 0.3000763,0.5645899,-0.0005639,-0.0004644,-0.0004989,-0.04813,-0.75646
 68,-0.1980798,0.000385,0.098797,-0.1942793,-0.0000863,0.0001921,0.0000
 926,-0.2251046,0.4315522,0.2223976,-0.0001891,0.2080003,0.8094423,-0.0
 004099,-0.0001878,-0.000402,0.2376919,0.0093611,-0.0319219,0.0000916,-
 0.0358141,0.050999,0.0000895,0.000079,0.0000646,0.1618219,-0.0068414,-
 0.0554938,0.0000991,-0.0331155,0.058094,0.0000604,0.0001057,0.0000901,
 0.1251205,-0.0143669,0.069981,0.000018,0.0716033,0.046188,0.0000182,0.
 0000178,0.0000267,0.1226951,0.0680667,-0.0105914,0.0000569,-0.0215917,
 -0.0437102,0.0001583,0.0000718,0.0001439,0.16723\Polar=72.9905077,0.23
 86628,87.7533509,-0.0168765,-0.0323126,37.5903297\PG=C01 [X(C5H5N1O1)]
 \NImag=1\\0.08274452,-0.01542592,0.63326810,-0.00001663,-0.00027955,0.
 05566306,-0.00758249,-0.05854441,0.00005434,0.50842302,-0.16560177,-0.
 12897223,0.00015770,0.12901126,0.73894248,0.00012191,0.00010412,0.0371
 6408,-0.00026539,-0.00046889,0.09437979,-0.10562822,0.06330014,-0.0000
 1963,-0.28569938,-0.01581505,0.00010250,0.73782400,0.02779520,-0.44211
 763,0.00015486,-0.08097016,-0.20599401,0.00012374,-0.11047185,0.757443
 72,-0.00000113,0.00015278,-0.07594930,0.00014028,0.00007268,-0.0818355
 4,-0.00018647,-0.00025961,0.19855433,-0.00772769,0.02276704,-0.0000027
 4,-0.04739802,-0.02802642,0.00004731,-0.27150111,0.07786110,0.00004404
 ,0.73838730,0.06441577,-0.02911327,-0.00000611,0.01847033,0.08373418,-
 0.00005952,0.03063002,-0.14341157,0.00002628,0.07215477,0.72551101,-0.
 00002520,0.00000951,0.01377271,0.00000893,-0.00003740,0.00921936,0.000
 07977,0.00000756,-0.07718880,-0.00033649,-0.00042360,0.12033166,0.0077
 5814,-0.00100071,0.00000347,-0.14720981,-0.03134935,0.00006642,0.03777
 579,-0.02924102,0.00000089,-0.01547702,0.02695514,-0.00001193,0.807182
 31,0.02750741,0.00182099,-0.00001058,-0.00291416,-0.35793102,0.0002125
 6,-0.11949829,-0.01897303,0.00007446,0.03627746,-0.06919459,0.00003069
 ,0.02968294,0.69828252,-0.00002103,0.00000340,0.00738471,0.00005210,0.
 00023253,-0.05426151,0.00005876,0.00002563,0.00001018,-0.00001775,0.00
 003230,-0.00149455,-0.00034437,-0.00040476,0.15570909,-0.02374958,0.00
 368746,0.00001200,-0.02572429,-0.05750057,0.00004919,0.06577789,0.0241
 4535,-0.00004735,-0.14376722,0.01464955,0.00002594,-0.06136649,0.04878
 484,0.00000042,0.70389953,-0.02310419,0.01175121,0.00000865,-0.0262069
 2,-0.06998208,0.00005582,0.08778016,-0.04835605,-0.00001232,-0.0611392
 8,-0.39054856,0.00025255,-0.01748251,0.08228936,-0.00004342,-0.0479781
 7,0.73440570,0.00002933,-0.00000603,0.00534471,0.00002725,0.00007111,-
 0.00659147,-0.00008970,0.00002024,0.00086958,0.00007977,0.00022202,-0.
 05851948,0.00004379,-0.00007596,0.00684661,-0.00022690,-0.00037962,0.1
 5448004,0.02673821,-0.00607105,-0.00001170,0.04510568,0.10255504,-0.00
 008290,-0.09800406,0.01461522,0.00003690,0.03852601,-0.08759074,0.0000
 4739,-0.30896422,0.06295284,0.00006616,-0.26500233,-0.02890093,0.00011
 767,0.65463364,-0.00651245,-0.01045646,0.00000640,0.02393592,-0.062457
 73,0.00004645,0.01472539,0.00431936,-0.00001489,-0.03237035,-0.0162920
 3,0.00003198,0.14533634,-0.20220684,0.00002593,-0.10951221,-0.17055389
 ,0.00012662,-0.02183901,0.78725991,-0.00000839,0.00000970,-0.00214401,
 -0.00002955,0.00000790,0.01849832,0.00003067,-0.00001511,-0.00938717,0
 .00000962,0.00005786,0.00884841,0.00001108,0.00006312,-0.06920924,0.00
 017404,0.00008961,-0.06619079,-0.00024131,-0.00045790,0.12164540,0.023
 44784,-0.00957326,-0.00001532,-0.03488813,0.06257045,-0.00004459,-0.06
 754316,0.09258116,-0.00001400,0.00301394,-0.01303197,0.00000899,-0.008
 26538,-0.00946807,0.00000906,0.00491890,0.00754921,-0.00000738,-0.0066
 5948,0.00102772,0.00000472,0.08800300,0.09256733,-0.03443975,-0.000029
 86,0.02509687,0.01951182,-0.00004967,0.03282587,0.09247120,-0.00004511
 ,0.01109523,-0.02737234,0.00001283,-0.01935882,-0.02249045,0.00002186,
 0.01346530,0.01834360,-0.00001902,-0.02039322,0.00671240,0.00000757,-0
 .13252463,-0.05370420,-0.00007576,0.00000695,-0.03707558,-0.00001671,-
 0.00005116,-0.03016773,0.00001970,-0.00007658,0.02297983,-0.00000549,0
 .00002525,0.00626135,0.00001074,0.00001329,-0.00632851,-0.00001056,-0.
 00001530,-0.00057030,0.00001796,-0.00000119,0.00462635,0.00005931,0.00
 010163,0.04292859,0.00223938,0.00083206,-0.00000227,-0.00394902,0.0031
 0299,0.00000263,-0.01529706,-0.01688962,0.00001804,-0.29587581,-0.1221
 4276,0.00019504,-0.00017066,0.00242495,-0.00000164,0.00417535,0.001724
 58,-0.00000203,0.00254131,0.00038151,0.00000246,-0.00147520,-0.0012971
 4,0.00000108,0.30711533,-0.00226875,0.00007324,-0.00000054,0.00475112,
 -0.00120016,0.00000210,0.01535331,0.01315117,-0.00001392,-0.12317603,-
 0.12262548,0.00011194,0.00052012,-0.00158366,0.00000059,-0.02829919,-0
 .00781139,0.00001875,0.00103932,-0.00480052,0.00000871,0.00067423,0.00
 083842,-0.00000086,0.13235125,0.12310608,-0.00000031,-0.00000140,-0.00
 227395,0.00000283,0.00000387,0.00587792,-0.00000458,0.00000146,0.00181
 117,0.00019516,0.00010849,-0.03243957,-0.00000025,-0.00000165,-0.00029
 359,0.00001869,0.00000736,0.00184650,0.00000145,0.00000971,0.00914983,
 0.00000021,-0.00000032,-0.00036866,-0.00021045,-0.00012270,0.02315680,
 -0.00072324,-0.00044218,0.00000066,0.00306220,-0.00332396,0.00000109,0
 .00303799,0.00111656,0.00000298,0.00016698,0.00086340,-0.00000101,-0.3
 1381802,-0.09963164,0.00021335,-0.00308231,0.00332087,0.00000362,-0.01
 286865,-0.01254691,0.00001978,0.00044823,0.00080907,-0.00000202,-0.000
 04499,-0.00003929,-0.00000084,0.32406420,0.00001138,-0.00191107,0.0000
 0097,-0.03600085,-0.01412959,0.00002869,0.00227491,-0.00216971,0.00000
 777,-0.00004955,-0.00067268,-0.00000003,-0.09499472,-0.09809741,0.0000
 8910,0.00344092,-0.00184292,0.00000588,0.01538942,0.01263306,-0.000010
 92,-0.00027953,-0.00086548,-0.00000123,-0.00016035,0.00015097,-0.00000
 129,0.11016195,0.10597526,0.00000006,0.00000209,0.00020593,0.00002397,
 0.00000907,0.00072708,0.00000195,0.00000632,0.00935972,-0.00000106,0.0
 0000058,-0.00054105,0.00021298,0.00009490,-0.04421800,0.00000219,0.000
 00491,0.00833240,-0.00000094,0.00000256,0.00787806,-0.00000095,-0.0000
 0075,-0.00239117,-0.00000064,-0.00000115,-0.00169699,-0.00023517,-0.00
 011448,0.02732249,0.00009783,0.00034137,-0.00000086,0.00063268,-0.0011
 3337,0.,0.00144944,-0.00183413,0.00000554,0.00618163,-0.00349625,0.000
 00272,-0.00468923,-0.00294444,0.00000737,-0.25926888,0.13335056,0.0000
 0544,-0.01560321,0.01768251,-0.00000260,0.00001589,-0.00001845,-0.0000
 0041,0.00065506,0.00036879,-0.00000291,-0.00088176,0.00087467,-0.00000
 053,0.27043684,0.00169660,-0.00013444,-0.00000169,-0.00047755,-0.00056
 263,-0.00000001,-0.00084321,-0.00615577,0.00001211,0.02674523,-0.01080
 568,-0.00000004,-0.00360089,-0.00037810,0.00000651,0.13265993,-0.15036
 441,0.00001179,-0.01275820,0.01194880,0.00000157,-0.00010783,-0.000475
 36,-0.00000043,-0.00047601,0.00110271,-0.00000408,-0.00065185,0.000488
 60,-0.00000053,-0.14286243,0.15475821,-0.00000242,-0.00000052,-0.00133
 259,-0.00000015,0.00000019,-0.00098507,0.00000501,0.00001196,0.0111271
 0,-0.00001870,0.00001279,0.00669877,0.00000773,0.00000642,0.00615171,0
 .00000511,0.00001177,-0.04635597,0.00001986,-0.00001272,0.00569121,-0.
 00000028,0.00000025,-0.00089712,-0.00000222,-0.00000429,-0.00523735,0.
 00000054,-0.00000122,-0.00066820,-0.00001196,-0.00002209,0.02906055,0.
 00238531,0.00012945,-0.00000132,-0.00477244,0.00551074,0.00000182,-0.0
 0219211,0.00129219,0.00000029,-0.00452899,-0.00187725,0.00000586,0.007
 24460,0.02682615,-0.00002241,0.00318943,-0.02891336,0.00001914,-0.0604
 4291,-0.02030845,0.00002948,-0.00101646,-0.00226741,0.00000216,0.00008
 631,-0.00127487,0.00000100,0.00063937,-0.00066825,-0.00000186,0.000973
 72,0.00067622,-0.00000252,0.05843417,-0.00108061,0.00023131,-0.0000002
 6,0.00384855,-0.00095903,0.00000461,-0.00026140,-0.00020767,-0.0000002
 2,-0.00213922,0.00079102,0.00000400,-0.00546651,-0.01153775,0.00001032
 ,0.00245679,-0.00733058,0.00000422,-0.01899868,-0.35610605,0.00023790,
 0.00058253,0.00147014,-0.00000039,0.00014857,-0.00040138,0.00000055,0.
 00036399,0.00044095,-0.00000351,-0.00032884,0.00057807,-0.00000252,0.0
 2087484,0.37303096,-0.00000044,-0.00000107,-0.00075978,0.00000210,0.00
 000240,0.00797477,0.00000201,-0.00000046,-0.00035112,0.00000634,0.0000
 0367,0.00505120,-0.00000054,-0.00000250,-0.00029690,-0.00000277,0.0000
 2000,0.00050816,0.00002947,0.00023706,-0.02940637,0.00000023,0.0000005
 8,0.00100296,0.,0.00000137,0.00046789,-0.00000297,-0.00000323,-0.00431
 027,-0.00000179,-0.00000311,-0.00325304,-0.00003164,-0.00025470,0.0233
 7249\\0.00003625,-0.00003337,0.00002588,0.00002359,-0.00000871,0.00001
 543,-0.00002028,0.00003409,-0.00002450,0.00002507,-0.00002141,-0.00000
 118,-0.00000103,0.00001122,-0.00000379,-0.00000353,-0.00001338,-0.0000
 0084,-0.00002122,0.00000108,0.00000371,0.00000141,0.00004830,-0.000020
 45,0.00001102,-0.00002152,0.00000115,-0.00001079,0.00002190,0.00000473
 ,-0.00001422,-0.00002042,0.00000096,-0.00002627,0.00000222,-0.00000111
 \\\@


 TOM, TOM, THE BURGLAR'S SON
 STOLE A MACHINE AND AWAY HE RUN
 THE JOB WAS NEAT, BUT TOM GOT BEAT
 BY THE TIME HE GOT HOME IT WAS OBSOLETE.
 Job cpu time:       0 days  0 hours 53 minutes  6.4 seconds.
 File lengths (MBytes):  RWF=     81 Int=      0 D2E=      0 Chk=      7 Scr=      1
 Normal termination of Gaussian 09 at Sat Aug 28 00:56:36 2021.
