 Entering Gaussian System, Link 0=g09
 AtFile(1): pc-2.gbs
            -H     0
            S    4   1.00
                  0.754230D+02           0.240650D-02
                  0.113500D+02           0.184870D-01
                  0.259930D+01           0.897420D-01
                  0.735130D+00           0.281110D+00
            S    1   1.00
                  0.231670D+00           0.100000D+01
            S    1   1.00
                  0.741470D-01           0.100000D+01
            P    1   1.00
                  0.160000D+01           0.100000D+01
            P    1   1.00
                  0.450000D+00           0.100000D+01
            D    1   1.00
                  0.125000D+01           0.100000D+01
            ****
            -C     0
            S    7   1.00
                  0.785710D+04           0.568250D-03
                  0.117870D+04           0.439150D-02
                  0.268320D+03           0.225040D-01
                  0.759480D+02           0.866530D-01
                  0.245590D+02           0.244050D+00
                  0.862120D+01           0.441480D+00
                  0.312780D+01           0.353320D+00
            S    7   1.00
                  0.117870D+04          -0.594920D-06
                  0.268320D+03          -0.627480D-04
                  0.759480D+02          -0.757730D-03
                  0.245590D+02          -0.733080D-02
                  0.862120D+01          -0.389320D-01
                  0.312780D+01          -0.889080D-01
                  0.822020D+00           0.216890D+00
            S    1   1.00
                  0.330170D+00           0.100000D+01
            S    1   1.00
                  0.114630D+00           0.100000D+01
            P    4   1.00
                  0.337750D+02           0.602940D-02
                  0.767660D+01           0.432280D-01
                  0.223570D+01           0.163010D+00
                  0.764470D+00           0.365040D+00
            P    1   1.00
                  0.262320D+00           0.100000D+01
            P    1   1.00
                  0.846380D-01           0.100000D+01
            D    1   1.00
                  0.140000D+01           0.100000D+01
            D    1   1.00
                  0.450000D+00           0.100000D+01
            F    1   1.00
                  0.950000D+00           0.100000D+01
            ****
            -N     0
            S    7   1.00
                  0.111010D+05           0.545700D-03
                  0.166530D+04           0.421810D-02
                  0.379080D+03           0.216450D-01
                  0.107300D+03           0.837760D-01
                  0.347470D+02           0.238810D+00
                  0.122490D+02           0.439940D+00
                  0.447430D+01           0.363640D+00
            S    7   1.00
                  0.166530D+04          -0.150060D-05
                  0.379080D+03          -0.587530D-04
                  0.107300D+03          -0.774530D-03
                  0.347470D+02          -0.721610D-02
                  0.122490D+02          -0.393380D-01
                  0.447430D+01          -0.906110D-01
                  0.124040D+01           0.198820D+00
            S    1   1.00
                  0.487430D+00           0.100000D+01
            S    1   1.00
                  0.164840D+00           0.100000D+01
            P    4   1.00
                  0.479340D+02           0.617060D-02
                  0.109990D+02           0.442600D-01
                  0.324720D+01           0.168250D+00
                  0.111140D+01           0.368480D+00
            P    1   1.00
                  0.379880D+00           0.100000D+01
            P    1   1.00
                  0.120680D+00           0.100000D+01
            D    1   1.00
                  0.180000D+01           0.100000D+01
            D    1   1.00
                  0.550000D+00           0.100000D+01
            F    1   1.00
                  0.102000D+01           0.100000D+01
            ****
            -O     0
            S    7   1.00
                  0.147820D+05           0.535190D-03
                  0.221730D+04           0.413750D-02
                  0.504740D+03           0.212450D-01
                  0.142870D+03           0.824530D-01
                  0.463000D+02           0.236710D+00
                  0.163370D+02           0.440390D+00
                  0.598280D+01           0.364650D+00
            S    7   1.00
                  0.221730D+04          -0.192750D-05
                  0.504740D+03          -0.579640D-04
                  0.142870D+03          -0.794940D-03
                  0.463000D+02          -0.731250D-02
                  0.163370D+02          -0.405740D-01
                  0.598280D+01          -0.915940D-01
                  0.167180D+01           0.209400D+00
            S    1   1.00
                  0.646620D+00           0.100000D+01
            S    1   1.00
                  0.216690D+00           0.100000D+01
            P    4   1.00
                  0.604240D+02           0.689490D-02
                  0.139350D+02           0.490050D-01
                  0.415310D+01           0.182550D+00
                  0.141580D+01           0.376330D+00
            P    1   1.00
                  0.475490D+00           0.100000D+01
            P    1   1.00
                  0.145290D+00           0.100000D+01
            D    1   1.00
                  0.220000D+01           0.100000D+01
            D    1   1.00
                  0.650000D+00           0.100000D+01
            F    1   1.00
                  0.110000D+01           0.100000D+01
            ****
 Initial command:
 /public3/home/sc51754/softwares/g09e01/l1.exe "./Gau-62625.inp" -scrdir="./"
 Entering Link 1 = /public3/home/sc51754/softwares/g09e01/l1.exe PID=     62627.
  
 Copyright (c) 1988,1990,1992,1993,1995,1998,2003,2009,2015,
            Gaussian, Inc.  All Rights Reserved.
  
 This is part of the Gaussian(R) 09 program.  It is based on
 the Gaussian(R) 03 system (copyright 2003, Gaussian, Inc.),
 the Gaussian(R) 98 system (copyright 1998, Gaussian, Inc.),
 the Gaussian(R) 94 system (copyright 1995, Gaussian, Inc.),
 the Gaussian 92(TM) system (copyright 1992, Gaussian, Inc.),
 the Gaussian 90(TM) system (copyright 1990, Gaussian, Inc.),
 the Gaussian 88(TM) system (copyright 1988, Gaussian, Inc.),
 the Gaussian 86(TM) system (copyright 1986, Carnegie Mellon
 University), and the Gaussian 82(TM) system (copyright 1983,
 Carnegie Mellon University). Gaussian is a federally registered
 trademark of Gaussian, Inc.
  
 This software contains proprietary and confidential information,
 including trade secrets, belonging to Gaussian, Inc.
  
 This software is provided under written license and may be
 used, copied, transmitted, or stored only in accord with that
 written license.
  
 The following legend is applicable only to US Government
 contracts under FAR:
  
                    RESTRICTED RIGHTS LEGEND
  
 Use, reproduction and disclosure by the US Government is
 subject to restrictions as set forth in subparagraphs (a)
 and (c) of the Commercial Computer Software - Restricted
 Rights clause in FAR 52.227-19.
  
 Gaussian, Inc.
 340 Quinnipiac St., Bldg. 40, Wallingford CT 06492
  
  
 ---------------------------------------------------------------
 Warning -- This program may not be used in any manner that
 competes with the business of Gaussian, Inc. or will provide
 assistance to any competitor of Gaussian, Inc.  The licensee
 of this program is prohibited from giving any competitor of
 Gaussian, Inc. access to this program.  By using this program,
 the user acknowledges that Gaussian, Inc. is engaged in the
 business of creating and licensing software in the field of
 computational chemistry and represents and warrants to the
 licensee that it is not a competitor of Gaussian, Inc. and that
 it will not use this program in any manner prohibited above.
 ---------------------------------------------------------------
  

 Cite this work as:
 Gaussian 09, Revision E.01,
 M. J. Frisch, G. W. Trucks, H. B. Schlegel, G. E. Scuseria, 
 M. A. Robb, J. R. Cheeseman, G. Scalmani, V. Barone, B. Mennucci, 
 G. A. Petersson, H. Nakatsuji, M. Caricato, X. Li, H. P. Hratchian, 
 A. F. Izmaylov, J. Bloino, G. Zheng, J. L. Sonnenberg, M. Hada, 
 M. Ehara, K. Toyota, R. Fukuda, J. Hasegawa, M. Ishida, T. Nakajima, 
 Y. Honda, O. Kitao, H. Nakai, T. Vreven, J. A. Montgomery, Jr., 
 J. E. Peralta, F. Ogliaro, M. Bearpark, J. J. Heyd, E. Brothers, 
 K. N. Kudin, V. N. Staroverov, T. Keith, R. Kobayashi, J. Normand, 
 K. Raghavachari, A. Rendell, J. C. Burant, S. S. Iyengar, J. Tomasi, 
 M. Cossi, N. Rega, J. M. Millam, M. Klene, J. E. Knox, J. B. Cross, 
 V. Bakken, C. Adamo, J. Jaramillo, R. Gomperts, R. E. Stratmann, 
 O. Yazyev, A. J. Austin, R. Cammi, C. Pomelli, J. W. Ochterski, 
 R. L. Martin, K. Morokuma, V. G. Zakrzewski, G. A. Voth, 
 P. Salvador, J. J. Dannenberg, S. Dapprich, A. D. Daniels, 
 O. Farkas, J. B. Foresman, J. V. Ortiz, J. Cioslowski, 
 and D. J. Fox, Gaussian, Inc., Wallingford CT, 2013.
 
 ******************************************
 Gaussian 09:  EM64L-G09RevE.01 30-Nov-2015
                27-Aug-2021 
 ******************************************
 %nprocshared=64
 Will use up to   64 processors via shared memory.
 %mem=128GB
 %chk=HY_H2O_CAM-B3LYP_PC2_OPT_FREQ.chk
 -------------------------
 #p opt freq CAM-B3LYP/gen
 -------------------------
 1/14=-1,18=20,19=15,26=3,38=1/1,3;
 2/9=110,12=2,17=6,18=5,40=1/2;
 3/5=7,11=2,16=1,25=1,30=1,71=1,74=-40/1,2,3;
 4//1;
 5/5=2,38=5/2;
 6/7=2,8=2,9=2,10=2,28=1/1;
 7//1,2,3,16;
 1/14=-1,18=20,19=15,26=3/3(2);
 2/9=110/2;
 99//99;
 2/9=110/2;
 3/5=7,6=1,11=2,16=1,25=1,30=1,71=1,74=-40,82=7/1,2,3;
 4/5=5,16=3,69=1/1;
 5/5=2,38=5/2;
 7//1,2,3,16;
 1/14=-1,18=20,19=15,26=3/3(-5);
 2/9=110/2;
 6/7=2,8=2,9=2,10=2,19=2,28=1/1;
 99/9=1/99;
 Leave Link    1 at Fri Aug 27 00:41:28 2021, MaxMem= 17179869184 cpu:         5.9
 (Enter /public3/home/sc51754/softwares/g09e01/l101.exe)
 -----------------------------
 HY_H2O_CAM-B3LYP_PC2_OPT_FREQ
 -----------------------------
 Symbolic Z-matrix:
 Charge =  0 Multiplicity = 1
 O                     1.216     1.44855  -0.00262 
 N                     0.30594  -0.66619  -0.00547 
 C                     0.13701   0.65516  -0.00009 
 C                    -1.12976   1.25518   0.00826 
 C                    -0.78318  -1.4465   -0.00563 
 C                    -2.23812   0.43549   0.00911 
 C                    -2.07199  -0.951     0.00173 
 H                     2.03022   0.90023  -0.0153 
 H                    -1.20631   2.3321    0.01208 
 H                    -0.59906  -2.51382  -0.01294 
 H                    -3.22982   0.86768   0.01456 
 H                    -2.91795  -1.62195   0.00074 
 O                     3.09571  -0.58722  -0.08503 
 H                     3.59397  -0.87925   0.68253 
 H                     2.20982  -1.00228  -0.02248 
 
 Add virtual bond connecting atoms O13        and H8         Dist= 3.46D+00.
 Add virtual bond connecting atoms H15        and N2         Dist= 3.65D+00.
 Add virtual bond connecting atoms H15        and H8         Dist= 3.61D+00.
 Add atom     13 valence  3 ND=      2 dihedral       8     13     14     15
 NAtoms=     15 NQM=       15 NQMF=       0 NMMI=      0 NMMIF=      0
                NMic=       0 NMicF=      0.
                    Isotopes and Nuclear Properties:
 (Nuclear quadrupole moments (NQMom) in fm**2, nuclear magnetic moments (NMagM)
  in nuclear magnetons)

  Atom         1           2           3           4           5           6           7           8           9          10
 IAtWgt=          16          14          12          12          12          12          12           1           1           1
 AtmWgt=  15.9949146  14.0030740  12.0000000  12.0000000  12.0000000  12.0000000  12.0000000   1.0078250   1.0078250   1.0078250
 NucSpn=           0           2           0           0           0           0           0           1           1           1
 AtZEff=   0.0000000   0.0000000   0.0000000   0.0000000   0.0000000   0.0000000   0.0000000   0.0000000   0.0000000   0.0000000
 NQMom=    0.0000000   2.0440000   0.0000000   0.0000000   0.0000000   0.0000000   0.0000000   0.0000000   0.0000000   0.0000000
 NMagM=    0.0000000   0.4037610   0.0000000   0.0000000   0.0000000   0.0000000   0.0000000   2.7928460   2.7928460   2.7928460
 AtZNuc=   8.0000000   7.0000000   6.0000000   6.0000000   6.0000000   6.0000000   6.0000000   1.0000000   1.0000000   1.0000000

  Atom        11          12          13          14          15
 IAtWgt=           1           1          16           1           1
 AtmWgt=   1.0078250   1.0078250  15.9949146   1.0078250   1.0078250
 NucSpn=           1           1           0           1           1
 AtZEff=   0.0000000   0.0000000   0.0000000   0.0000000   0.0000000
 NQMom=    0.0000000   0.0000000   0.0000000   0.0000000   0.0000000
 NMagM=    2.7928460   2.7928460   0.0000000   2.7928460   2.7928460
 AtZNuc=   1.0000000   1.0000000   8.0000000   1.0000000   1.0000000
 Leave Link  101 at Fri Aug 27 00:41:29 2021, MaxMem= 17179869184 cpu:         6.0
 (Enter /public3/home/sc51754/softwares/g09e01/l103.exe)

 GradGradGradGradGradGradGradGradGradGradGradGradGradGradGradGradGradGrad
 Berny optimization.
 Initialization pass.
                           ----------------------------
                           !    Initial Parameters    !
                           ! (Angstroms and Degrees)  !
 --------------------------                            --------------------------
 ! Name  Definition              Value          Derivative Info.                !
 --------------------------------------------------------------------------------
 ! R1    R(1,3)                  1.3393         estimate D2E/DX2                !
 ! R2    R(1,8)                  0.9817         estimate D2E/DX2                !
 ! R3    R(2,3)                  1.3321         estimate D2E/DX2                !
 ! R4    R(2,5)                  1.3398         estimate D2E/DX2                !
 ! R5    R(2,15)                 1.9334         estimate D2E/DX2                !
 ! R6    R(3,4)                  1.4017         estimate D2E/DX2                !
 ! R7    R(4,6)                  1.3785         estimate D2E/DX2                !
 ! R8    R(4,9)                  1.0796         estimate D2E/DX2                !
 ! R9    R(5,7)                  1.3808         estimate D2E/DX2                !
 ! R10   R(5,10)                 1.0831         estimate D2E/DX2                !
 ! R11   R(6,7)                  1.3964         estimate D2E/DX2                !
 ! R12   R(6,11)                 1.0818         estimate D2E/DX2                !
 ! R13   R(7,12)                 1.0797         estimate D2E/DX2                !
 ! R14   R(8,13)                 1.831          estimate D2E/DX2                !
 ! R15   R(8,15)                 1.911          estimate D2E/DX2                !
 ! R16   R(13,14)                0.9606         estimate D2E/DX2                !
 ! R17   R(13,15)                0.9803         estimate D2E/DX2                !
 ! A1    A(3,1,8)              109.7141         estimate D2E/DX2                !
 ! A2    A(3,2,5)              118.3342         estimate D2E/DX2                !
 ! A3    A(3,2,15)             107.2978         estimate D2E/DX2                !
 ! A4    A(5,2,15)             134.3668         estimate D2E/DX2                !
 ! A5    A(1,3,2)              119.0414         estimate D2E/DX2                !
 ! A6    A(1,3,4)              118.3271         estimate D2E/DX2                !
 ! A7    A(2,3,4)              122.6315         estimate D2E/DX2                !
 ! A8    A(3,4,6)              118.1694         estimate D2E/DX2                !
 ! A9    A(3,4,9)              119.4119         estimate D2E/DX2                !
 ! A10   A(6,4,9)              122.4186         estimate D2E/DX2                !
 ! A11   A(2,5,7)              123.3496         estimate D2E/DX2                !
 ! A12   A(2,5,10)             115.832          estimate D2E/DX2                !
 ! A13   A(7,5,10)             120.8184         estimate D2E/DX2                !
 ! A14   A(4,6,7)              119.6513         estimate D2E/DX2                !
 ! A15   A(4,6,11)             119.9667         estimate D2E/DX2                !
 ! A16   A(7,6,11)             120.382          estimate D2E/DX2                !
 ! A17   A(5,7,6)              117.8639         estimate D2E/DX2                !
 ! A18   A(5,7,12)             120.5506         estimate D2E/DX2                !
 ! A19   A(6,7,12)             121.5855         estimate D2E/DX2                !
 ! A20   A(1,8,13)             159.5294         estimate D2E/DX2                !
 ! A21   A(1,8,15)             129.3503         estimate D2E/DX2                !
 ! A22   A(8,13,14)            121.2243         estimate D2E/DX2                !
 ! A23   A(14,13,15)           106.8012         estimate D2E/DX2                !
 ! A24   A(2,15,8)              74.5948         estimate D2E/DX2                !
 ! A25   A(2,15,13)            144.7717         estimate D2E/DX2                !
 ! D1    D(8,1,3,2)              0.4232         estimate D2E/DX2                !
 ! D2    D(8,1,3,4)           -179.5823         estimate D2E/DX2                !
 ! D3    D(3,1,8,13)             4.1107         estimate D2E/DX2                !
 ! D4    D(3,1,8,15)            -0.4785         estimate D2E/DX2                !
 ! D5    D(5,2,3,1)           -179.8646         estimate D2E/DX2                !
 ! D6    D(5,2,3,4)              0.1411         estimate D2E/DX2                !
 ! D7    D(15,2,3,1)            -0.2046         estimate D2E/DX2                !
 ! D8    D(15,2,3,4)           179.8011         estimate D2E/DX2                !
 ! D9    D(3,2,5,7)             -0.1121         estimate D2E/DX2                !
 ! D10   D(3,2,5,10)           179.8324         estimate D2E/DX2                !
 ! D11   D(15,2,5,7)          -179.6581         estimate D2E/DX2                !
 ! D12   D(15,2,5,10)            0.2865         estimate D2E/DX2                !
 ! D13   D(3,2,15,8)            -0.0003         estimate D2E/DX2                !
 ! D14   D(3,2,15,13)           -5.7168         estimate D2E/DX2                !
 ! D15   D(5,2,15,8)           179.5811         estimate D2E/DX2                !
 ! D16   D(5,2,15,13)          173.8646         estimate D2E/DX2                !
 ! D17   D(1,3,4,6)            179.9187         estimate D2E/DX2                !
 ! D18   D(1,3,4,9)              0.0211         estimate D2E/DX2                !
 ! D19   D(2,3,4,6)             -0.0869         estimate D2E/DX2                !
 ! D20   D(2,3,4,9)           -179.9845         estimate D2E/DX2                !
 ! D21   D(3,4,6,7)             -0.0001         estimate D2E/DX2                !
 ! D22   D(3,4,6,11)          -179.9445         estimate D2E/DX2                !
 ! D23   D(9,4,6,7)            179.8942         estimate D2E/DX2                !
 ! D24   D(9,4,6,11)            -0.0502         estimate D2E/DX2                !
 ! D25   D(2,5,7,6)              0.0291         estimate D2E/DX2                !
 ! D26   D(2,5,7,12)           179.968          estimate D2E/DX2                !
 ! D27   D(10,5,7,6)          -179.9128         estimate D2E/DX2                !
 ! D28   D(10,5,7,12)            0.0261         estimate D2E/DX2                !
 ! D29   D(4,6,7,5)              0.0272         estimate D2E/DX2                !
 ! D30   D(4,6,7,12)          -179.911          estimate D2E/DX2                !
 ! D31   D(11,6,7,5)           179.9714         estimate D2E/DX2                !
 ! D32   D(11,6,7,12)            0.0332         estimate D2E/DX2                !
 ! D33   D(1,8,13,14)         -110.3582         estimate D2E/DX2                !
 ! D34   D(1,8,15,2)             0.3164         estimate D2E/DX2                !
 ! D35   D(8,13,14,15)          87.5843         estimate D2E/DX2                !
 ! D36   D(14,13,15,2)         125.4771         estimate D2E/DX2                !
 --------------------------------------------------------------------------------
 Trust Radius=3.00D-01 FncErr=1.00D-07 GrdErr=1.00D-06
 Number of steps in this run=     88 maximum allowed number of steps=    100.
 GradGradGradGradGradGradGradGradGradGradGradGradGradGradGradGradGradGrad

 Leave Link  103 at Fri Aug 27 00:41:29 2021, MaxMem= 17179869184 cpu:         0.1
 (Enter /public3/home/sc51754/softwares/g09e01/l202.exe)
                          Input orientation:                          
 ---------------------------------------------------------------------
 Center     Atomic      Atomic             Coordinates (Angstroms)
 Number     Number       Type             X           Y           Z
 ---------------------------------------------------------------------
      1          8           0        1.216003    1.448553   -0.002617
      2          7           0        0.305942   -0.666194   -0.005465
      3          6           0        0.137014    0.655155   -0.000094
      4          6           0       -1.129757    1.255183    0.008257
      5          6           0       -0.783175   -1.446498   -0.005634
      6          6           0       -2.238124    0.435485    0.009108
      7          6           0       -2.071986   -0.950998    0.001732
      8          1           0        2.030216    0.900227   -0.015295
      9          1           0       -1.206308    2.332099    0.012077
     10          1           0       -0.599059   -2.513820   -0.012944
     11          1           0       -3.229823    0.867678    0.014558
     12          1           0       -2.917952   -1.621952    0.000735
     13          8           0        3.095711   -0.587217   -0.085025
     14          1           0        3.593966   -0.879251    0.682533
     15          1           0        2.209819   -1.002278   -0.022484
 ---------------------------------------------------------------------
                    Distance matrix (angstroms):
                    1          2          3          4          5
     1  O    0.000000
     2  N    2.302254   0.000000
     3  C    1.339292   1.332114   0.000000
     4  C    2.353742   2.398564   1.401718   0.000000
     5  C    3.518244   1.339795   2.294281   2.723856   0.000000
     6  C    3.599644   2.772396   2.385292   1.378544   2.378856
     7  C    4.070471   2.394934   2.731192   2.398973   1.380800
     8  H    0.981715   2.329569   1.909059   3.179934   3.663657
     9  H    2.578461   3.358120   2.148675   1.079640   3.802256
    10  H    4.358320   2.057378   3.253363   3.806241   1.083111
    11  H    4.483646   3.854192   3.373570   2.135527   3.367774
    12  H    5.149524   3.362589   3.810254   3.387566   2.141984
    13  O    2.772085   2.792020   3.210076   4.610609   3.973717
    14  H    3.397471   3.365982   3.843293   5.227238   4.467069
    15  H    2.644738   1.933388   2.654073   4.031109   3.025827
                    6          7          8          9         10
     6  C    0.000000
     7  C    1.396421   0.000000
     8  H    4.293636   4.500598   0.000000
     9  H    2.159120   3.395325   3.539222   0.000000
    10  H    3.374229   2.147590   4.309154   4.883883   0.000000
    11  H    1.081798   2.155999   5.260224   2.497829   4.284414
    12  H    2.166860   1.079740   5.553918   4.308639   2.484528
    13  O    5.431812   5.181212   1.831019   5.199923   4.167532
    14  H    6.016253   5.707158   2.469579   5.814199   4.553786
    15  H    4.674651   4.282181   1.910977   4.773802   3.189772
                   11         12         13         14         15
    11  H    0.000000
    12  H    2.509126   0.000000
    13  O    6.491457   6.102637   0.000000
    14  H    7.075454   6.589501   0.960566   0.000000
    15  H    5.752201   5.165130   0.980302   1.558219   0.000000
 Stoichiometry    C5H7NO2
 Framework group  C1[X(C5H7NO2)]
 Deg. of freedom    39
 Full point group                 C1      NOp   1
 Largest Abelian subgroup         C1      NOp   1
 Largest concise Abelian subgroup C1      NOp   1
                         Standard orientation:                         
 ---------------------------------------------------------------------
 Center     Atomic      Atomic             Coordinates (Angstroms)
 Number     Number       Type             X           Y           Z
 ---------------------------------------------------------------------
      1          8           0        1.216003    1.448553   -0.002617
      2          7           0        0.305942   -0.666194   -0.005465
      3          6           0        0.137014    0.655155   -0.000094
      4          6           0       -1.129757    1.255183    0.008257
      5          6           0       -0.783175   -1.446498   -0.005634
      6          6           0       -2.238124    0.435485    0.009108
      7          6           0       -2.071986   -0.950998    0.001732
      8          1           0        2.030216    0.900227   -0.015295
      9          1           0       -1.206308    2.332099    0.012077
     10          1           0       -0.599059   -2.513820   -0.012944
     11          1           0       -3.229823    0.867678    0.014558
     12          1           0       -2.917952   -1.621952    0.000735
     13          8           0        3.095711   -0.587217   -0.085025
     14          1           0        3.593966   -0.879251    0.682533
     15          1           0        2.209819   -1.002278   -0.022484
 ---------------------------------------------------------------------
 Rotational constants (GHZ):      4.0123302      1.4179596      1.0501753
 Leave Link  202 at Fri Aug 27 00:41:29 2021, MaxMem= 17179869184 cpu:         4.0
 (Enter /public3/home/sc51754/softwares/g09e01/l301.exe)
 General basis read from cards:  (5D, 7F)
 Centers:       8      9     10     11     12     14     15
 S 4 1.00
     Exponent=  7.5423000000D+01 Coefficients=  2.4065000000D-03
     Exponent=  1.1350000000D+01 Coefficients=  1.8487000000D-02
     Exponent=  2.5993000000D+00 Coefficients=  8.9742000000D-02
     Exponent=  7.3513000000D-01 Coefficients=  2.8111000000D-01
 S 1 1.00
     Exponent=  2.3167000000D-01 Coefficients=  1.0000000000D+00
 S 1 1.00
     Exponent=  7.4147000000D-02 Coefficients=  1.0000000000D+00
 P 1 1.00
     Exponent=  1.6000000000D+00 Coefficients=  1.0000000000D+00
 P 1 1.00
     Exponent=  4.5000000000D-01 Coefficients=  1.0000000000D+00
 D 1 1.00
     Exponent=  1.2500000000D+00 Coefficients=  1.0000000000D+00
 ****
 Centers:       3      4      5      6      7
 S 7 1.00
     Exponent=  7.8571000000D+03 Coefficients=  5.6825000000D-04
     Exponent=  1.1787000000D+03 Coefficients=  4.3915000000D-03
     Exponent=  2.6832000000D+02 Coefficients=  2.2504000000D-02
     Exponent=  7.5948000000D+01 Coefficients=  8.6653000000D-02
     Exponent=  2.4559000000D+01 Coefficients=  2.4405000000D-01
     Exponent=  8.6212000000D+00 Coefficients=  4.4148000000D-01
     Exponent=  3.1278000000D+00 Coefficients=  3.5332000000D-01
 S 7 1.00
     Exponent=  1.1787000000D+03 Coefficients= -5.9492000000D-07
     Exponent=  2.6832000000D+02 Coefficients= -6.2748000000D-05
     Exponent=  7.5948000000D+01 Coefficients= -7.5773000000D-04
     Exponent=  2.4559000000D+01 Coefficients= -7.3308000000D-03
     Exponent=  8.6212000000D+00 Coefficients= -3.8932000000D-02
     Exponent=  3.1278000000D+00 Coefficients= -8.8908000000D-02
     Exponent=  8.2202000000D-01 Coefficients=  2.1689000000D-01
 S 1 1.00
     Exponent=  3.3017000000D-01 Coefficients=  1.0000000000D+00
 S 1 1.00
     Exponent=  1.1463000000D-01 Coefficients=  1.0000000000D+00
 P 4 1.00
     Exponent=  3.3775000000D+01 Coefficients=  6.0294000000D-03
     Exponent=  7.6766000000D+00 Coefficients=  4.3228000000D-02
     Exponent=  2.2357000000D+00 Coefficients=  1.6301000000D-01
     Exponent=  7.6447000000D-01 Coefficients=  3.6504000000D-01
 P 1 1.00
     Exponent=  2.6232000000D-01 Coefficients=  1.0000000000D+00
 P 1 1.00
     Exponent=  8.4638000000D-02 Coefficients=  1.0000000000D+00
 D 1 1.00
     Exponent=  1.4000000000D+00 Coefficients=  1.0000000000D+00
 D 1 1.00
     Exponent=  4.5000000000D-01 Coefficients=  1.0000000000D+00
 F 1 1.00
     Exponent=  9.5000000000D-01 Coefficients=  1.0000000000D+00
 ****
 Centers:       2
 S 7 1.00
     Exponent=  1.1101000000D+04 Coefficients=  5.4570000000D-04
     Exponent=  1.6653000000D+03 Coefficients=  4.2181000000D-03
     Exponent=  3.7908000000D+02 Coefficients=  2.1645000000D-02
     Exponent=  1.0730000000D+02 Coefficients=  8.3776000000D-02
     Exponent=  3.4747000000D+01 Coefficients=  2.3881000000D-01
     Exponent=  1.2249000000D+01 Coefficients=  4.3994000000D-01
     Exponent=  4.4743000000D+00 Coefficients=  3.6364000000D-01
 S 7 1.00
     Exponent=  1.6653000000D+03 Coefficients= -1.5006000000D-06
     Exponent=  3.7908000000D+02 Coefficients= -5.8753000000D-05
     Exponent=  1.0730000000D+02 Coefficients= -7.7453000000D-04
     Exponent=  3.4747000000D+01 Coefficients= -7.2161000000D-03
     Exponent=  1.2249000000D+01 Coefficients= -3.9338000000D-02
     Exponent=  4.4743000000D+00 Coefficients= -9.0611000000D-02
     Exponent=  1.2404000000D+00 Coefficients=  1.9882000000D-01
 S 1 1.00
     Exponent=  4.8743000000D-01 Coefficients=  1.0000000000D+00
 S 1 1.00
     Exponent=  1.6484000000D-01 Coefficients=  1.0000000000D+00
 P 4 1.00
     Exponent=  4.7934000000D+01 Coefficients=  6.1706000000D-03
     Exponent=  1.0999000000D+01 Coefficients=  4.4260000000D-02
     Exponent=  3.2472000000D+00 Coefficients=  1.6825000000D-01
     Exponent=  1.1114000000D+00 Coefficients=  3.6848000000D-01
 P 1 1.00
     Exponent=  3.7988000000D-01 Coefficients=  1.0000000000D+00
 P 1 1.00
     Exponent=  1.2068000000D-01 Coefficients=  1.0000000000D+00
 D 1 1.00
     Exponent=  1.8000000000D+00 Coefficients=  1.0000000000D+00
 D 1 1.00
     Exponent=  5.5000000000D-01 Coefficients=  1.0000000000D+00
 F 1 1.00
     Exponent=  1.0200000000D+00 Coefficients=  1.0000000000D+00
 ****
 Centers:       1     13
 S 7 1.00
     Exponent=  1.4782000000D+04 Coefficients=  5.3519000000D-04
     Exponent=  2.2173000000D+03 Coefficients=  4.1375000000D-03
     Exponent=  5.0474000000D+02 Coefficients=  2.1245000000D-02
     Exponent=  1.4287000000D+02 Coefficients=  8.2453000000D-02
     Exponent=  4.6300000000D+01 Coefficients=  2.3671000000D-01
     Exponent=  1.6337000000D+01 Coefficients=  4.4039000000D-01
     Exponent=  5.9828000000D+00 Coefficients=  3.6465000000D-01
 S 7 1.00
     Exponent=  2.2173000000D+03 Coefficients= -1.9275000000D-06
     Exponent=  5.0474000000D+02 Coefficients= -5.7964000000D-05
     Exponent=  1.4287000000D+02 Coefficients= -7.9494000000D-04
     Exponent=  4.6300000000D+01 Coefficients= -7.3125000000D-03
     Exponent=  1.6337000000D+01 Coefficients= -4.0574000000D-02
     Exponent=  5.9828000000D+00 Coefficients= -9.1594000000D-02
     Exponent=  1.6718000000D+00 Coefficients=  2.0940000000D-01
 S 1 1.00
     Exponent=  6.4662000000D-01 Coefficients=  1.0000000000D+00
 S 1 1.00
     Exponent=  2.1669000000D-01 Coefficients=  1.0000000000D+00
 P 4 1.00
     Exponent=  6.0424000000D+01 Coefficients=  6.8949000000D-03
     Exponent=  1.3935000000D+01 Coefficients=  4.9005000000D-02
     Exponent=  4.1531000000D+00 Coefficients=  1.8255000000D-01
     Exponent=  1.4158000000D+00 Coefficients=  3.7633000000D-01
 P 1 1.00
     Exponent=  4.7549000000D-01 Coefficients=  1.0000000000D+00
 P 1 1.00
     Exponent=  1.4529000000D-01 Coefficients=  1.0000000000D+00
 D 1 1.00
     Exponent=  2.2000000000D+00 Coefficients=  1.0000000000D+00
 D 1 1.00
     Exponent=  6.5000000000D-01 Coefficients=  1.0000000000D+00
 F 1 1.00
     Exponent=  1.1000000000D+00 Coefficients=  1.0000000000D+00
 ****
 Ernie: Thresh=  0.10000D-02 Tol=  0.10000D-05 Strict=F.
 Ernie:  8 primitive shells out of 263 were deleted.
 There are   385 symmetry adapted cartesian basis functions of A   symmetry.
 There are   338 symmetry adapted basis functions of A   symmetry.
   338 basis functions,   566 primitive gaussians,   385 cartesian basis functions
    30 alpha electrons       30 beta electrons
       nuclear repulsion energy       357.6226221683 Hartrees.
 IExCor=20419 DFT=T Ex+Corr=CAM-B3LYP ExCW=0 ScaHFX=  1.000000
 ScaDFX=  1.000000  1.000000  1.000000  0.810000 ScalE2=  1.000000  1.000000
 IRadAn=      0 IRanWt=     -1 IRanGd=            0 ICorTp=0 IEmpDi=  4
  HFx wShort=  0.000000 wLong=  0.330000 cFull=  0.190000 cShort=  0.000000 cLong=  0.460000
  DFx wShort=  0.000000 wLong=  0.330000 cFull=  0.190000 cShort=  0.000000 cLong=  0.460000
 NAtoms=   15 NActive=   15 NUniq=   15 SFac= 1.00D+00 NAtFMM=   60 NAOKFM=F Big=F
 Integral buffers will be    131072 words long.
 Raffenetti 2 integral format.
 Two-electron integral symmetry is turned on.
 Leave Link  301 at Fri Aug 27 00:41:29 2021, MaxMem= 17179869184 cpu:         1.4
 (Enter /public3/home/sc51754/softwares/g09e01/l302.exe)
 NPDir=0 NMtPBC=     1 NCelOv=     1 NCel=       1 NClECP=     1 NCelD=      1
         NCelK=      1 NCelE2=     1 NClLst=     1 CellRange=     0.0.
 One-electron integrals computed using PRISM.
 NBasis=   338 RedAO= T EigKep=  1.46D-04  NBF=   338
 NBsUse=   338 1.00D-06 EigRej= -1.00D+00 NBFU=   338
 Precomputing XC quadrature grid using
 IXCGrd= 4 IRadAn=           0 IRanWt=          -1 IRanGd=           0 AccXCQ= 0.00D+00.
 Generated NRdTot=       0 NPtTot=           0 NUsed=           0 NTot=          32
 NSgBfM=   384   384   384   384   385 MxSgAt=    15 MxSgA2=    15.
 Leave Link  302 at Fri Aug 27 00:41:30 2021, MaxMem= 17179869184 cpu:        51.7
 (Enter /public3/home/sc51754/softwares/g09e01/l303.exe)
 DipDrv:  MaxL=1.
 Leave Link  303 at Fri Aug 27 00:41:30 2021, MaxMem= 17179869184 cpu:        11.6
 (Enter /public3/home/sc51754/softwares/g09e01/l401.exe)
 ExpMin= 7.41D-02 ExpMax= 1.48D+04 ExpMxC= 5.05D+02 IAcc=2 IRadAn=         4 AccDes= 0.00D+00
 Harris functional with IExCor=20419 and IRadAn=       4 diagonalized for initial guess.
 HarFok:  IExCor=20419 AccDes= 0.00D+00 IRadAn=         4 IDoV= 1 UseB2=F ITyADJ=14
 ICtDFT=  3500011 ScaDFX=  1.000000  1.000000  1.000000  1.000000
 FoFCou: FMM=F IPFlag=           0 FMFlag=      100000 FMFlg1=           0
         NFxFlg=           0 DoJE=T BraDBF=F KetDBF=T FulRan=T
         wScrn=  0.000000 ICntrl=     500 IOpCl=  0 I1Cent=   200000004 NGrid=           0
         NMat0=    1 NMatS0=      1 NMatT0=    0 NMatD0=    1 NMtDS0=    0 NMtDT0=    0
 Petite list used in FoFCou.
 Harris En= -385.277149851644    
 JPrj=0 DoOrth=F DoCkMO=F.
 Leave Link  401 at Fri Aug 27 00:41:31 2021, MaxMem= 17179869184 cpu:        44.9
 (Enter /public3/home/sc51754/softwares/g09e01/l502.exe)
 Closed shell SCF:
 Using DIIS extrapolation, IDIIS=  1040.
 Integral symmetry usage will be decided dynamically.
 Keep R1 ints in memory in canonical form, NReq=3311562672.
 IVT=      490665 IEndB=      490665 NGot= 17179869184 MDV= 13897062548
 LenX= 13897062548 LenY= 13896913882
 Requested convergence on RMS density matrix=1.00D-08 within 128 cycles.
 Requested convergence on MAX density matrix=1.00D-06.
 Requested convergence on             energy=1.00D-06.
 No special actions if energy rises.
 FoFCou: FMM=F IPFlag=           0 FMFlag=           0 FMFlg1=           0
         NFxFlg=           0 DoJE=F BraDBF=F KetDBF=F FulRan=T
         wScrn=  0.000000 ICntrl=     600 IOpCl=  0 I1Cent=           0 NGrid=           0
         NMat0=    1 NMatS0=  57291 NMatT0=    0 NMatD0=    1 NMtDS0=    0 NMtDT0=    0
 Symmetry not used in FoFCou.
 Integral accuracy reduced to 1.0D-05 until final iterations.

 Cycle   1  Pass 0  IDiag  1:
 E= -399.876264922517    
 DIIS: error= 6.16D-02 at cycle   1 NSaved=   1.
 NSaved= 1 IEnMin= 1 EnMin= -399.876264922517     IErMin= 1 ErrMin= 6.16D-02
 ErrMax= 6.16D-02  0.00D+00 EMaxC= 1.00D-01 BMatC= 2.40D-01 BMatP= 2.40D-01
 IDIUse=3 WtCom= 3.84D-01 WtEn= 6.16D-01
 Coeff-Com:  0.100D+01
 Coeff-En:   0.100D+01
 Coeff:      0.100D+01
 Gap=     0.337 Goal=   None    Shift=    0.000
 GapD=    0.337 DampG=1.000 DampE=0.500 DampFc=0.5000 IDamp=-1.
 Damping current iteration by 5.00D-01
 RMSDP=2.22D-03 MaxDP=1.42D-01              OVMax= 1.98D-01

 Cycle   2  Pass 0  IDiag  1:
 E= -399.910585662162     Delta-E=       -0.034320739645 Rises=F Damp=T
 DIIS: error= 3.00D-02 at cycle   2 NSaved=   2.
 NSaved= 2 IEnMin= 2 EnMin= -399.910585662162     IErMin= 2 ErrMin= 3.00D-02
 ErrMax= 3.00D-02  0.00D+00 EMaxC= 1.00D-01 BMatC= 4.80D-02 BMatP= 2.40D-01
 IDIUse=3 WtCom= 7.00D-01 WtEn= 3.00D-01
 Coeff-Com: -0.290D+00 0.129D+01
 Coeff-En:   0.578D-01 0.942D+00
 Coeff:     -0.186D+00 0.119D+01
 Gap=     0.332 Goal=   None    Shift=    0.000
 RMSDP=1.04D-03 MaxDP=6.19D-02 DE=-3.43D-02 OVMax= 1.53D-01

 Cycle   3  Pass 0  IDiag  1:
 E= -399.941397941814     Delta-E=       -0.030812279651 Rises=F Damp=F
 DIIS: error= 8.53D-03 at cycle   3 NSaved=   3.
 NSaved= 3 IEnMin= 3 EnMin= -399.941397941814     IErMin= 3 ErrMin= 8.53D-03
 ErrMax= 8.53D-03  0.00D+00 EMaxC= 1.00D-01 BMatC= 1.79D-02 BMatP= 4.80D-02
 IDIUse=3 WtCom= 9.15D-01 WtEn= 8.53D-02
 Coeff-Com: -0.282D+00 0.597D+00 0.684D+00
 Coeff-En:   0.000D+00 0.000D+00 0.100D+01
 Coeff:     -0.258D+00 0.546D+00 0.711D+00
 Gap=     0.309 Goal=   None    Shift=    0.000
 RMSDP=3.28D-04 MaxDP=1.69D-02 DE=-3.08D-02 OVMax= 5.27D-02

 Cycle   4  Pass 0  IDiag  1:
 E= -399.957415263436     Delta-E=       -0.016017321622 Rises=F Damp=F
 DIIS: error= 2.08D-03 at cycle   4 NSaved=   4.
 NSaved= 4 IEnMin= 4 EnMin= -399.957415263436     IErMin= 4 ErrMin= 2.08D-03
 ErrMax= 2.08D-03  0.00D+00 EMaxC= 1.00D-01 BMatC= 1.04D-03 BMatP= 1.79D-02
 IDIUse=3 WtCom= 9.79D-01 WtEn= 2.08D-02
 Coeff-Com: -0.129D+00 0.266D+00 0.384D+00 0.478D+00
 Coeff-En:   0.000D+00 0.000D+00 0.000D+00 0.100D+01
 Coeff:     -0.126D+00 0.261D+00 0.376D+00 0.489D+00
 Gap=     0.304 Goal=   None    Shift=    0.000
 RMSDP=6.22D-05 MaxDP=5.00D-03 DE=-1.60D-02 OVMax= 1.18D-02

 Cycle   5  Pass 0  IDiag  1:
 E= -399.958297870559     Delta-E=       -0.000882607124 Rises=F Damp=F
 DIIS: error= 2.07D-04 at cycle   5 NSaved=   5.
 NSaved= 5 IEnMin= 5 EnMin= -399.958297870559     IErMin= 5 ErrMin= 2.07D-04
 ErrMax= 2.07D-04  0.00D+00 EMaxC= 1.00D-01 BMatC= 1.80D-05 BMatP= 1.04D-03
 IDIUse=3 WtCom= 9.98D-01 WtEn= 2.07D-03
 Coeff-Com: -0.440D-02 0.764D-02 0.338D-01 0.130D+00 0.833D+00
 Coeff-En:   0.000D+00 0.000D+00 0.000D+00 0.000D+00 0.100D+01
 Coeff:     -0.439D-02 0.762D-02 0.338D-01 0.130D+00 0.833D+00
 Gap=     0.304 Goal=   None    Shift=    0.000
 RMSDP=1.57D-05 MaxDP=6.13D-04 DE=-8.83D-04 OVMax= 2.31D-03

 Cycle   6  Pass 0  IDiag  1:
 E= -399.958314363539     Delta-E=       -0.000016492980 Rises=F Damp=F
 DIIS: error= 1.21D-04 at cycle   6 NSaved=   6.
 NSaved= 6 IEnMin= 6 EnMin= -399.958314363539     IErMin= 6 ErrMin= 1.21D-04
 ErrMax= 1.21D-04  0.00D+00 EMaxC= 1.00D-01 BMatC= 6.39D-06 BMatP= 1.80D-05
 IDIUse=3 WtCom= 9.99D-01 WtEn= 1.21D-03
 Coeff-Com:  0.123D-01-0.260D-01-0.253D-01 0.890D-02 0.431D+00 0.600D+00
 Coeff-En:   0.000D+00 0.000D+00 0.000D+00 0.000D+00 0.000D+00 0.100D+01
 Coeff:      0.122D-01-0.260D-01-0.252D-01 0.888D-02 0.430D+00 0.600D+00
 Gap=     0.305 Goal=   None    Shift=    0.000
 RMSDP=6.23D-06 MaxDP=3.41D-04 DE=-1.65D-05 OVMax= 1.03D-03

 Initial convergence to 1.0D-05 achieved.  Increase integral accuracy.
 Cycle   7  Pass 1  IDiag  1:
 E= -399.958337978717     Delta-E=       -0.000023615177 Rises=F Damp=F
 DIIS: error= 4.14D-05 at cycle   1 NSaved=   1.
 NSaved= 1 IEnMin= 1 EnMin= -399.958337978717     IErMin= 1 ErrMin= 4.14D-05
 ErrMax= 4.14D-05  0.00D+00 EMaxC= 1.00D-01 BMatC= 3.71D-07 BMatP= 3.71D-07
 IDIUse=1 WtCom= 1.00D+00 WtEn= 0.00D+00
 Coeff-Com:  0.100D+01
 Coeff:      0.100D+01
 Gap=     0.304 Goal=   None    Shift=    0.000
 RMSDP=6.23D-06 MaxDP=3.41D-04 DE=-2.36D-05 OVMax= 6.99D-04

 Cycle   8  Pass 1  IDiag  1:
 E= -399.958338392176     Delta-E=       -0.000000413460 Rises=F Damp=F
 DIIS: error= 3.18D-05 at cycle   2 NSaved=   2.
 NSaved= 2 IEnMin= 2 EnMin= -399.958338392176     IErMin= 2 ErrMin= 3.18D-05
 ErrMax= 3.18D-05  0.00D+00 EMaxC= 1.00D-01 BMatC= 4.19D-07 BMatP= 3.71D-07
 IDIUse=1 WtCom= 1.00D+00 WtEn= 0.00D+00
 Coeff-Com:  0.519D+00 0.481D+00
 Coeff:      0.519D+00 0.481D+00
 Gap=     0.305 Goal=   None    Shift=    0.000
 RMSDP=1.32D-06 MaxDP=7.79D-05 DE=-4.13D-07 OVMax= 2.20D-04

 Cycle   9  Pass 1  IDiag  1:
 E= -399.958338747855     Delta-E=       -0.000000355678 Rises=F Damp=F
 DIIS: error= 1.23D-05 at cycle   3 NSaved=   3.
 NSaved= 3 IEnMin= 3 EnMin= -399.958338747855     IErMin= 3 ErrMin= 1.23D-05
 ErrMax= 1.23D-05  0.00D+00 EMaxC= 1.00D-01 BMatC= 2.00D-08 BMatP= 3.71D-07
 IDIUse=1 WtCom= 1.00D+00 WtEn= 0.00D+00
 Coeff-Com: -0.635D-01 0.952D-01 0.968D+00
 Coeff:     -0.635D-01 0.952D-01 0.968D+00
 Gap=     0.305 Goal=   None    Shift=    0.000
 RMSDP=8.15D-07 MaxDP=2.57D-05 DE=-3.56D-07 OVMax= 2.01D-04

 Cycle  10  Pass 1  IDiag  1:
 E= -399.958338808737     Delta-E=       -0.000000060882 Rises=F Damp=F
 DIIS: error= 6.80D-06 at cycle   4 NSaved=   4.
 NSaved= 4 IEnMin= 4 EnMin= -399.958338808737     IErMin= 4 ErrMin= 6.80D-06
 ErrMax= 6.80D-06  0.00D+00 EMaxC= 1.00D-01 BMatC= 5.98D-09 BMatP= 2.00D-08
 IDIUse=1 WtCom= 1.00D+00 WtEn= 0.00D+00
 Coeff-Com: -0.104D+00-0.448D-01 0.406D+00 0.743D+00
 Coeff:     -0.104D+00-0.448D-01 0.406D+00 0.743D+00
 Gap=     0.305 Goal=   None    Shift=    0.000
 RMSDP=3.54D-07 MaxDP=1.16D-05 DE=-6.09D-08 OVMax= 7.34D-05

 Cycle  11  Pass 1  IDiag  1:
 E= -399.958338821776     Delta-E=       -0.000000013039 Rises=F Damp=F
 DIIS: error= 1.88D-06 at cycle   5 NSaved=   5.
 NSaved= 5 IEnMin= 5 EnMin= -399.958338821776     IErMin= 5 ErrMin= 1.88D-06
 ErrMax= 1.88D-06  0.00D+00 EMaxC= 1.00D-01 BMatC= 9.23D-10 BMatP= 5.98D-09
 IDIUse=1 WtCom= 1.00D+00 WtEn= 0.00D+00
 Coeff-Com: -0.255D-01-0.420D-01-0.333D-01 0.283D+00 0.818D+00
 Coeff:     -0.255D-01-0.420D-01-0.333D-01 0.283D+00 0.818D+00
 Gap=     0.305 Goal=   None    Shift=    0.000
 RMSDP=1.62D-07 MaxDP=5.63D-06 DE=-1.30D-08 OVMax= 3.91D-05

 Cycle  12  Pass 1  IDiag  1:
 E= -399.958338824022     Delta-E=       -0.000000002245 Rises=F Damp=F
 DIIS: error= 1.17D-06 at cycle   6 NSaved=   6.
 NSaved= 6 IEnMin= 6 EnMin= -399.958338824022     IErMin= 6 ErrMin= 1.17D-06
 ErrMax= 1.17D-06  0.00D+00 EMaxC= 1.00D-01 BMatC= 1.25D-10 BMatP= 9.23D-10
 IDIUse=1 WtCom= 1.00D+00 WtEn= 0.00D+00
 Coeff-Com:  0.204D-02-0.135D-01-0.597D-01 0.135D-01 0.307D+00 0.751D+00
 Coeff:      0.204D-02-0.135D-01-0.597D-01 0.135D-01 0.307D+00 0.751D+00
 Gap=     0.305 Goal=   None    Shift=    0.000
 RMSDP=5.53D-08 MaxDP=1.77D-06 DE=-2.25D-09 OVMax= 1.25D-05

 Cycle  13  Pass 1  IDiag  1:
 E= -399.958338824251     Delta-E=       -0.000000000230 Rises=F Damp=F
 DIIS: error= 2.75D-07 at cycle   7 NSaved=   7.
 NSaved= 7 IEnMin= 7 EnMin= -399.958338824251     IErMin= 7 ErrMin= 2.75D-07
 ErrMax= 2.75D-07  0.00D+00 EMaxC= 1.00D-01 BMatC= 3.24D-11 BMatP= 1.25D-10
 IDIUse=1 WtCom= 1.00D+00 WtEn= 0.00D+00
 Coeff-Com:  0.555D-02-0.386D-04-0.211D-01-0.423D-01 0.111D-01 0.392D+00
 Coeff-Com:  0.655D+00
 Coeff:      0.555D-02-0.386D-04-0.211D-01-0.423D-01 0.111D-01 0.392D+00
 Coeff:      0.655D+00
 Gap=     0.305 Goal=   None    Shift=    0.000
 RMSDP=1.80D-08 MaxDP=7.60D-07 DE=-2.30D-10 OVMax= 3.54D-06

 Cycle  14  Pass 1  IDiag  1:
 E= -399.958338824312     Delta-E=       -0.000000000060 Rises=F Damp=F
 DIIS: error= 5.30D-08 at cycle   8 NSaved=   8.
 NSaved= 8 IEnMin= 8 EnMin= -399.958338824312     IErMin= 8 ErrMin= 5.30D-08
 ErrMax= 5.30D-08  0.00D+00 EMaxC= 1.00D-01 BMatC= 7.41D-13 BMatP= 3.24D-11
 IDIUse=1 WtCom= 1.00D+00 WtEn= 0.00D+00
 Coeff-Com: -0.955D-04 0.718D-03 0.590D-02-0.505D-02-0.276D-01-0.432D-01
 Coeff-Com:  0.108D-01 0.106D+01
 Coeff:     -0.955D-04 0.718D-03 0.590D-02-0.505D-02-0.276D-01-0.432D-01
 Coeff:      0.108D-01 0.106D+01
 Gap=     0.305 Goal=   None    Shift=    0.000
 RMSDP=6.12D-09 MaxDP=1.80D-07 DE=-6.03D-11 OVMax= 1.20D-06

 SCF Done:  E(RCAM-B3LYP) =  -399.958338824     A.U. after   14 cycles
            NFock= 14  Conv=0.61D-08     -V/T= 2.0036
 KE= 3.985286439498D+02 PE=-1.651070291418D+03 EE= 4.949606864753D+02
 Leave Link  502 at Fri Aug 27 00:41:55 2021, MaxMem= 17179869184 cpu:       437.4
 (Enter /public3/home/sc51754/softwares/g09e01/l601.exe)
 Copying SCF densities to generalized density rwf, IOpCl= 0 IROHF=0.

 **********************************************************************

            Population analysis using the SCF density.

 **********************************************************************

 Orbital symmetries:
       Occupied  (A) (A) (A) (A) (A) (A) (A) (A) (A) (A) (A) (A)
                 (A) (A) (A) (A) (A) (A) (A) (A) (A) (A) (A) (A)
                 (A) (A) (A) (A) (A) (A)
       Virtual   (A) (A) (A) (A) (A) (A) (A) (A) (A) (A) (A) (A)
                 (A) (A) (A) (A) (A) (A) (A) (A) (A) (A) (A) (A)
                 (A) (A) (A) (A) (A) (A) (A) (A) (A) (A) (A) (A)
                 (A) (A) (A) (A) (A) (A) (A) (A) (A) (A) (A) (A)
                 (A) (A) (A) (A) (A) (A) (A) (A) (A) (A) (A) (A)
                 (A) (A) (A) (A) (A) (A) (A) (A) (A) (A) (A) (A)
                 (A) (A) (A) (A) (A) (A) (A) (A) (A) (A) (A) (A)
                 (A) (A) (A) (A) (A) (A) (A) (A) (A) (A) (A) (A)
                 (A) (A) (A) (A) (A) (A) (A) (A) (A) (A) (A) (A)
                 (A) (A) (A) (A) (A) (A) (A) (A) (A) (A) (A) (A)
                 (A) (A) (A) (A) (A) (A) (A) (A) (A) (A) (A) (A)
                 (A) (A) (A) (A) (A) (A) (A) (A) (A) (A) (A) (A)
                 (A) (A) (A) (A) (A) (A) (A) (A) (A) (A) (A) (A)
                 (A) (A) (A) (A) (A) (A) (A) (A) (A) (A) (A) (A)
                 (A) (A) (A) (A) (A) (A) (A) (A) (A) (A) (A) (A)
                 (A) (A) (A) (A) (A) (A) (A) (A) (A) (A) (A) (A)
                 (A) (A) (A) (A) (A) (A) (A) (A) (A) (A) (A) (A)
                 (A) (A) (A) (A) (A) (A) (A) (A) (A) (A) (A) (A)
                 (A) (A) (A) (A) (A) (A) (A) (A) (A) (A) (A) (A)
                 (A) (A) (A) (A) (A) (A) (A) (A) (A) (A) (A) (A)
                 (A) (A) (A) (A) (A) (A) (A) (A) (A) (A) (A) (A)
                 (A) (A) (A) (A) (A) (A) (A) (A) (A) (A) (A) (A)
                 (A) (A) (A) (A) (A) (A) (A) (A) (A) (A) (A) (A)
                 (A) (A) (A) (A) (A) (A) (A) (A) (A) (A) (A) (A)
                 (A) (A) (A) (A) (A) (A) (A) (A) (A) (A) (A) (A)
                 (A) (A) (A) (A) (A) (A) (A) (A)
 The electronic state is 1-A.
 Alpha  occ. eigenvalues --  -19.22143 -19.20054 -14.39849 -10.35341 -10.29722
 Alpha  occ. eigenvalues --  -10.27733 -10.26028 -10.25787  -1.15758  -1.09293
 Alpha  occ. eigenvalues --   -1.03234  -0.89947  -0.84645  -0.73330  -0.71369
 Alpha  occ. eigenvalues --   -0.63501  -0.61604  -0.59002  -0.56175  -0.52447
 Alpha  occ. eigenvalues --   -0.51838  -0.48972  -0.47759  -0.46165  -0.44084
 Alpha  occ. eigenvalues --   -0.42969  -0.39361  -0.36076  -0.35339  -0.30144
 Alpha virt. eigenvalues --    0.00310   0.03247   0.04639   0.05685   0.07189
 Alpha virt. eigenvalues --    0.08945   0.10463   0.13285   0.15126   0.17803
 Alpha virt. eigenvalues --    0.18346   0.19395   0.20385   0.22000   0.22760
 Alpha virt. eigenvalues --    0.23255   0.24085   0.24953   0.27061   0.29116
 Alpha virt. eigenvalues --    0.30032   0.31549   0.32383   0.32730   0.33395
 Alpha virt. eigenvalues --    0.34366   0.35091   0.36371   0.36930   0.38061
 Alpha virt. eigenvalues --    0.39905   0.41135   0.41740   0.42681   0.43432
 Alpha virt. eigenvalues --    0.46228   0.46570   0.48260   0.49246   0.51859
 Alpha virt. eigenvalues --    0.54384   0.56278   0.56814   0.57942   0.59102
 Alpha virt. eigenvalues --    0.63320   0.66897   0.67523   0.68467   0.70130
 Alpha virt. eigenvalues --    0.71428   0.71851   0.73822   0.77519   0.79362
 Alpha virt. eigenvalues --    0.82923   0.84609   0.87059   0.87399   0.90588
 Alpha virt. eigenvalues --    0.94367   0.95682   0.96998   0.98367   0.99644
 Alpha virt. eigenvalues --    1.01075   1.03141   1.03922   1.05145   1.07796
 Alpha virt. eigenvalues --    1.09061   1.13881   1.15289   1.15509   1.18123
 Alpha virt. eigenvalues --    1.19616   1.20538   1.20916   1.22574   1.23535
 Alpha virt. eigenvalues --    1.25719   1.26864   1.29406   1.31695   1.31896
 Alpha virt. eigenvalues --    1.34351   1.34360   1.37346   1.38198   1.39711
 Alpha virt. eigenvalues --    1.47347   1.47572   1.50125   1.50490   1.54941
 Alpha virt. eigenvalues --    1.55805   1.57100   1.58297   1.60572   1.62222
 Alpha virt. eigenvalues --    1.64096   1.64901   1.67348   1.68461   1.71374
 Alpha virt. eigenvalues --    1.73022   1.73702   1.76008   1.76565   1.79870
 Alpha virt. eigenvalues --    1.83442   1.86958   1.88131   1.91098   1.92677
 Alpha virt. eigenvalues --    1.93442   1.94791   1.95999   1.97105   2.01983
 Alpha virt. eigenvalues --    2.04609   2.05172   2.07662   2.10968   2.14865
 Alpha virt. eigenvalues --    2.18356   2.20405   2.21527   2.23411   2.24854
 Alpha virt. eigenvalues --    2.25734   2.29906   2.31111   2.32321   2.34429
 Alpha virt. eigenvalues --    2.38387   2.45584   2.48618   2.57172   2.69616
 Alpha virt. eigenvalues --    2.76633   2.86281   2.93994   3.02346   3.02463
 Alpha virt. eigenvalues --    3.05495   3.09736   3.22454   3.25157   3.27665
 Alpha virt. eigenvalues --    3.30653   3.32745   3.33613   3.37962   3.41987
 Alpha virt. eigenvalues --    3.44429   3.45020   3.45574   3.48540   3.49423
 Alpha virt. eigenvalues --    3.52348   3.54571   3.56623   3.59467   3.64031
 Alpha virt. eigenvalues --    3.65120   3.66940   3.68305   3.69342   3.70638
 Alpha virt. eigenvalues --    3.75253   3.75840   3.77124   3.80198   3.81467
 Alpha virt. eigenvalues --    3.85018   3.86729   3.87663   3.90240   3.94351
 Alpha virt. eigenvalues --    3.97067   3.98800   4.00393   4.01430   4.03805
 Alpha virt. eigenvalues --    4.06604   4.07901   4.11291   4.12275   4.12735
 Alpha virt. eigenvalues --    4.14443   4.15478   4.16589   4.19846   4.23358
 Alpha virt. eigenvalues --    4.24037   4.24431   4.25054   4.27089   4.28759
 Alpha virt. eigenvalues --    4.29504   4.32043   4.34573   4.36016   4.37522
 Alpha virt. eigenvalues --    4.37996   4.38733   4.39907   4.41167   4.45356
 Alpha virt. eigenvalues --    4.46051   4.47164   4.47877   4.50282   4.50737
 Alpha virt. eigenvalues --    4.51893   4.52157   4.53794   4.54721   4.57346
 Alpha virt. eigenvalues --    4.58109   4.58811   4.60398   4.62817   4.64857
 Alpha virt. eigenvalues --    4.66655   4.68627   4.71216   4.72327   4.72782
 Alpha virt. eigenvalues --    4.75345   4.79648   4.82948   4.83682   4.88492
 Alpha virt. eigenvalues --    4.90720   4.94626   4.95538   4.96041   4.97549
 Alpha virt. eigenvalues --    4.98574   5.03423   5.03897   5.07621   5.09199
 Alpha virt. eigenvalues --    5.12246   5.16510   5.17406   5.20790   5.26310
 Alpha virt. eigenvalues --    5.26463   5.30231   5.30462   5.35669   5.39646
 Alpha virt. eigenvalues --    5.41323   5.41976   5.45484   5.47952   5.49340
 Alpha virt. eigenvalues --    5.50149   5.53127   5.53663   5.60977   5.62553
 Alpha virt. eigenvalues --    5.68665   5.70707   5.73547   5.75562   5.84405
 Alpha virt. eigenvalues --    5.85725   5.89168   5.91603   5.99469   6.04160
 Alpha virt. eigenvalues --    6.09045   6.11503   6.12827   6.13394   6.17656
 Alpha virt. eigenvalues --    6.27204   6.30116   6.31488   6.33028   6.36306
 Alpha virt. eigenvalues --    6.37306   6.39158   6.44529   6.49366   6.57549
 Alpha virt. eigenvalues --    6.58616   6.68050   6.70798   6.78530   6.97100
 Alpha virt. eigenvalues --    7.01282   7.04105   7.21579   7.41282   7.50786
 Alpha virt. eigenvalues --    9.36600  12.22962  12.78693  15.57598  15.60438
 Alpha virt. eigenvalues --   17.47147  18.74017  22.40896
          Condensed to atoms (all electrons):
               1          2          3          4          5          6
     1  O    7.888818  -0.089334   0.326154  -0.069651   0.004712   0.008998
     2  N   -0.089334   6.754342   0.465628  -0.030407   0.492093  -0.028570
     3  C    0.326154   0.465628   4.409816   0.519459  -0.074816  -0.053215
     4  C   -0.069651  -0.030407   0.519459   4.871946  -0.036230   0.518202
     5  C    0.004712   0.492093  -0.074816  -0.036230   4.597286  -0.075666
     6  C    0.008998  -0.028570  -0.053215   0.518202  -0.075666   4.735696
     7  C   -0.000645  -0.041662  -0.050120  -0.053794   0.527038   0.483782
     8  H    0.354165   0.004210  -0.023946   0.005866  -0.000335  -0.001032
     9  H    0.003625   0.005670  -0.035436   0.440787  -0.001811  -0.035226
    10  H   -0.000453  -0.042094   0.006243  -0.003904   0.453254   0.008737
    11  H   -0.000274  -0.001461   0.007781  -0.038247   0.008068   0.439598
    12  H    0.000033   0.005851  -0.000955   0.007104  -0.030175  -0.037204
    13  O   -0.027977  -0.042905  -0.004491   0.000793  -0.001216   0.000204
    14  H    0.001215   0.002787   0.000292   0.000108   0.000087  -0.000018
    15  H   -0.000110   0.024574  -0.003518   0.000826   0.002114  -0.000410
               7          8          9         10         11         12
     1  O   -0.000645   0.354165   0.003625  -0.000453  -0.000274   0.000033
     2  N   -0.041662   0.004210   0.005670  -0.042094  -0.001461   0.005851
     3  C   -0.050120  -0.023946  -0.035436   0.006243   0.007781  -0.000955
     4  C   -0.053794   0.005866   0.440787  -0.003904  -0.038247   0.007104
     5  C    0.527038  -0.000335  -0.001811   0.453254   0.008068  -0.030175
     6  C    0.483782  -0.001032  -0.035226   0.008737   0.439598  -0.037204
     7  C    4.937177   0.000259   0.007524  -0.065834  -0.043027   0.437610
     8  H    0.000259   0.394554   0.000091  -0.000018   0.000004  -0.000001
     9  H    0.007524   0.000091   0.560120   0.000144  -0.006880   0.000053
    10  H   -0.065834  -0.000018   0.000144   0.593848   0.000003  -0.004249
    11  H   -0.043027   0.000004  -0.006880   0.000003   0.579518  -0.006863
    12  H    0.437610  -0.000001   0.000053  -0.004249  -0.006863   0.577452
    13  O   -0.000416   0.052191  -0.000012   0.000209  -0.000003   0.000007
    14  H    0.000056  -0.003513  -0.000000   0.000004  -0.000000  -0.000001
    15  H    0.001281  -0.008090  -0.000038  -0.000960   0.000017  -0.000031
              13         14         15
     1  O   -0.027977   0.001215  -0.000110
     2  N   -0.042905   0.002787   0.024574
     3  C   -0.004491   0.000292  -0.003518
     4  C    0.000793   0.000108   0.000826
     5  C   -0.001216   0.000087   0.002114
     6  C    0.000204  -0.000018  -0.000410
     7  C   -0.000416   0.000056   0.001281
     8  H    0.052191  -0.003513  -0.008090
     9  H   -0.000012  -0.000000  -0.000038
    10  H    0.000209   0.000004  -0.000960
    11  H   -0.000003  -0.000000   0.000017
    12  H    0.000007  -0.000001  -0.000031
    13  O    7.763620   0.356156   0.348561
    14  H    0.356156   0.448084  -0.022601
    15  H    0.348561  -0.022601   0.418947
 Mulliken charges:
               1
     1  O   -0.399279
     2  N   -0.478722
     3  C    0.511125
     4  C   -0.132859
     5  C    0.135596
     6  C    0.036123
     7  C   -0.139229
     8  H    0.225594
     9  H    0.061388
    10  H    0.055070
    11  H    0.061765
    12  H    0.051368
    13  O   -0.444721
    14  H    0.217342
    15  H    0.239438
 Sum of Mulliken charges =  -0.00000
 Mulliken charges with hydrogens summed into heavy atoms:
               1
     1  O   -0.173685
     2  N   -0.478722
     3  C    0.511125
     4  C   -0.071471
     5  C    0.190666
     6  C    0.097888
     7  C   -0.087861
    13  O    0.012059
 Electronic spatial extent (au):  <R**2>=           1070.5159
 Charge=             -0.0000 electrons
 Dipole moment (field-independent basis, Debye):
    X=             -1.9553    Y=             -1.3842    Z=              1.3780  Tot=              2.7637
 Quadrupole moment (field-independent basis, Debye-Ang):
   XX=            -42.4966   YY=            -45.2426   ZZ=            -49.7377
   XY=             -2.9351   XZ=              5.4686   YZ=             -1.3739
 Traceless Quadrupole moment (field-independent basis, Debye-Ang):
   XX=              3.3290   YY=              0.5830   ZZ=             -3.9121
   XY=             -2.9351   XZ=              5.4686   YZ=             -1.3739
 Octapole moment (field-independent basis, Debye-Ang**2):
  XXX=             10.5878  YYY=             -8.2382  ZZZ=              1.1283  XYY=             -0.8909
  XXY=             -4.3075  XXZ=             20.6930  XZZ=             12.7527  YZZ=              0.3210
  YYZ=              1.3217  XYZ=             -5.2778
 Hexadecapole moment (field-independent basis, Debye-Ang**3):
 XXXX=           -845.1203 YYYY=           -359.2905 ZZZZ=            -55.5368 XXXY=            -22.3510
 XXXZ=             78.0743 YYYX=            -13.8781 YYYZ=             -1.6018 ZZZX=              5.2463
 ZZZY=             -1.4584 XXYY=           -203.3952 XXZZ=           -169.1724 YYZZ=            -78.0054
 XXYZ=            -19.0544 YYXZ=              5.4308 ZZXY=             -4.0687
 N-N= 3.576226221683D+02 E-N=-1.651070289763D+03  KE= 3.985286439498D+02
 No NMR shielding tensors so no spin-rotation constants.
 Leave Link  601 at Fri Aug 27 00:41:56 2021, MaxMem= 17179869184 cpu:        49.4
 (Enter /public3/home/sc51754/softwares/g09e01/l701.exe)
 Compute integral first derivatives.
 ... and contract with generalized density number  0.
 Leave Link  701 at Fri Aug 27 00:41:58 2021, MaxMem= 17179869184 cpu:        74.3
 (Enter /public3/home/sc51754/softwares/g09e01/l702.exe)
 L702 exits ... SP integral derivatives will be done elsewhere.
 Leave Link  702 at Fri Aug 27 00:41:58 2021, MaxMem= 17179869184 cpu:         0.4
 (Enter /public3/home/sc51754/softwares/g09e01/l703.exe)
 Compute integral first derivatives, UseDBF=F ICtDFT=           0.
 Integral derivatives from FoFJK, PRISM(SPDF).
 Calling FoFJK, ICntrl=      2127 FMM=F ISym2X=0 I1Cent= 0 IOpClX= 0 NMat=1 NMatS=1 NMatT=0.
 FoFJK:  IHMeth= 1 ICntrl=    2127 DoSepK=T KAlg= 0 I1Cent=   0 FoldK=F
 IRaf=         1 NMat=   1 IRICut=       1 DoRegI=T DoRafI=F ISym2E= 0.
 FoFCou: FMM=F IPFlag=           0 FMFlag=      100000 FMFlg1=         800
         NFxFlg=           0 DoJE=F BraDBF=F KetDBF=F FulRan=T
         wScrn=  0.000000 ICntrl=    2527 IOpCl=  0 I1Cent=           0 NGrid=           0
         NMat0=    1 NMatS0=      1 NMatT0=    0 NMatD0=    1 NMtDS0=    0 NMtDT0=    0
 Symmetry not used in FoFCou.
 Leave Link  703 at Fri Aug 27 00:42:03 2021, MaxMem= 17179869184 cpu:       326.2
 (Enter /public3/home/sc51754/softwares/g09e01/l716.exe)
 Dipole        =-7.69261306D-01-5.44596133D-01 5.42133021D-01
 ***** Axes restored to original set *****
 -------------------------------------------------------------------
 Center     Atomic                   Forces (Hartrees/Bohr)
 Number     Number              X              Y              Z
 -------------------------------------------------------------------
      1        8          -0.003000656   -0.005172488    0.000129009
      2        7          -0.004196665    0.004458407    0.000225236
      3        6          -0.000124224   -0.002221353   -0.000035414
      4        6          -0.000376692   -0.005196439   -0.000068680
      5        6          -0.001704122    0.005516461    0.000015289
      6        6           0.005633702   -0.001053609   -0.000013849
      7        6           0.004986446    0.001999062   -0.000035946
      8        1          -0.001113189    0.000623908   -0.000309924
      9        1           0.000298461   -0.000597624   -0.000006661
     10        1          -0.000047162    0.000666389    0.000009971
     11        1           0.000510014   -0.000174846   -0.000002069
     12        1           0.000509764    0.000318918   -0.000000668
     13        8          -0.002516715   -0.000807906    0.002455953
     14        1          -0.000426711    0.000623295   -0.001549504
     15        1           0.001567750    0.001017824   -0.000812744
 -------------------------------------------------------------------
 Cartesian Forces:  Max     0.005633702 RMS     0.002230477
 Leave Link  716 at Fri Aug 27 00:42:03 2021, MaxMem= 17179869184 cpu:         0.4
 (Enter /public3/home/sc51754/softwares/g09e01/l103.exe)

 GradGradGradGradGradGradGradGradGradGradGradGradGradGradGradGradGradGrad
 Berny optimization.
 FormGI is forming the generalized inverse of G from B-inverse, IUseBI=4.
 Internal  Forces:  Max     0.006916907 RMS     0.001914733
 Search for a local minimum.
 Step number   1 out of a maximum of   88
 All quantities printed in internal units (Hartrees-Bohrs-Radians)
 RMS Force = .19147D-02 SwitMx=.10000D-02 MixMth= 1
 Mixed Optimization -- RFO/linear search
 Second derivative matrix not updated -- first step.
 ITU=  0
     Eigenvalues ---    0.00525   0.00832   0.01684   0.02094   0.02184
     Eigenvalues ---    0.02225   0.02239   0.02286   0.02319   0.02409
     Eigenvalues ---    0.02460   0.05224   0.06028   0.06507   0.08515
     Eigenvalues ---    0.13089   0.16000   0.16000   0.16000   0.16000
     Eigenvalues ---    0.19207   0.20418   0.22000   0.22270   0.23481
     Eigenvalues ---    0.35621   0.35778   0.36026   0.36038   0.41939
     Eigenvalues ---    0.43696   0.46841   0.47322   0.48462   0.48884
     Eigenvalues ---    0.52273   0.55339   0.55352   0.56565
 RFO step:  Lambda=-6.03950380D-04 EMin= 5.24515301D-03
 Linear search not attempted -- first point.
 Iteration  1 RMS(Cart)=  0.00774971 RMS(Int)=  0.00001098
 Iteration  2 RMS(Cart)=  0.00000974 RMS(Int)=  0.00000590
 Iteration  3 RMS(Cart)=  0.00000000 RMS(Int)=  0.00000590
 ITry= 1 IFail=0 DXMaxC= 2.31D-02 DCOld= 1.00D+10 DXMaxT= 3.00D-01 DXLimC= 3.00D+00 Rises=F
 Variable       Old X    -DE/DX   Delta X   Delta X   Delta X     New X
                                 (Linear)    (Quad)   (Total)
    R1        2.53090  -0.00524   0.00000  -0.01031  -0.01030   2.52059
    R2        1.85517  -0.00262   0.00000  -0.00473  -0.00473   1.85044
    R3        2.51733  -0.00692   0.00000  -0.01326  -0.01326   2.50407
    R4        2.53185  -0.00563   0.00000  -0.01002  -0.01002   2.52182
    R5        3.65357  -0.00079   0.00000  -0.01343  -0.01343   3.64014
    R6        2.64886  -0.00565   0.00000  -0.01263  -0.01263   2.63623
    R7        2.60507  -0.00664   0.00000  -0.01320  -0.01320   2.59187
    R8        2.04022  -0.00062   0.00000  -0.00171  -0.00171   2.03851
    R9        2.60933  -0.00680   0.00000  -0.01374  -0.01374   2.59559
   R10        2.04678  -0.00066   0.00000  -0.00186  -0.00186   2.04492
   R11        2.63885  -0.00513   0.00000  -0.01068  -0.01068   2.62818
   R12        2.04430  -0.00054   0.00000  -0.00150  -0.00150   2.04280
   R13        2.04041  -0.00060   0.00000  -0.00166  -0.00166   2.03876
   R14        3.46012  -0.00057   0.00000  -0.01583  -0.01582   3.44431
   R15        3.61122  -0.00155   0.00000  -0.01182  -0.01184   3.59938
   R16        1.81521  -0.00165   0.00000  -0.00298  -0.00298   1.81223
   R17        1.85250  -0.00233   0.00000  -0.00495  -0.00495   1.84756
    A1        1.91487   0.00076   0.00000   0.00117   0.00116   1.91604
    A2        2.06532  -0.00024   0.00000  -0.00185  -0.00185   2.06348
    A3        1.87270   0.00071   0.00000   0.00212   0.00212   1.87482
    A4        2.34514  -0.00047   0.00000  -0.00029  -0.00029   2.34485
    A5        2.07766   0.00083   0.00000  -0.00051  -0.00051   2.07715
    A6        2.06520  -0.00116   0.00000  -0.00153  -0.00153   2.06367
    A7        2.14032   0.00032   0.00000   0.00204   0.00204   2.14236
    A8        2.06244  -0.00011   0.00000  -0.00090  -0.00089   2.06155
    A9        2.08413  -0.00021   0.00000  -0.00117  -0.00117   2.08296
   A10        2.13661   0.00031   0.00000   0.00206   0.00206   2.13867
   A11        2.15286   0.00040   0.00000   0.00103   0.00103   2.15389
   A12        2.02165  -0.00027   0.00000  -0.00095  -0.00095   2.02070
   A13        2.10868  -0.00013   0.00000  -0.00008  -0.00008   2.10860
   A14        2.08831  -0.00009   0.00000   0.00037   0.00037   2.08868
   A15        2.09381   0.00000   0.00000  -0.00045  -0.00045   2.09336
   A16        2.10106   0.00009   0.00000   0.00008   0.00008   2.10114
   A17        2.05711  -0.00029   0.00000  -0.00070  -0.00070   2.05641
   A18        2.10400   0.00007   0.00000  -0.00008  -0.00008   2.10392
   A19        2.12207   0.00021   0.00000   0.00078   0.00078   2.12285
   A20        2.78431  -0.00097   0.00000  -0.00098  -0.00099   2.78332
   A21        2.25759  -0.00048   0.00000  -0.00186  -0.00186   2.25573
   A22        2.11576   0.00029   0.00000   0.00252   0.00250   2.11827
   A23        1.86403   0.00052   0.00000   0.00499   0.00499   1.86903
   A24        1.30192  -0.00183   0.00000  -0.00091  -0.00090   1.30102
   A25        2.52674  -0.00116   0.00000  -0.00280  -0.00283   2.52392
    D1        0.00739  -0.00002   0.00000   0.00002   0.00002   0.00740
    D2       -3.13430   0.00003   0.00000   0.00042   0.00041  -3.13389
    D3        0.07175  -0.00028   0.00000  -0.00573  -0.00574   0.06601
    D4       -0.00835   0.00002   0.00000   0.00165   0.00166  -0.00669
    D5       -3.13923   0.00006   0.00000   0.00064   0.00064  -3.13859
    D6        0.00246   0.00001   0.00000   0.00022   0.00022   0.00268
    D7       -0.00357   0.00002   0.00000  -0.00134  -0.00135  -0.00492
    D8        3.13812  -0.00003   0.00000  -0.00176  -0.00176   3.13636
    D9       -0.00196  -0.00002   0.00000  -0.00045  -0.00045  -0.00241
   D10        3.13867  -0.00001   0.00000  -0.00073  -0.00073   3.13794
   D11       -3.13562   0.00003   0.00000   0.00219   0.00219  -3.13343
   D12        0.00500   0.00003   0.00000   0.00191   0.00191   0.00691
   D13       -0.00000  -0.00001   0.00000   0.00138   0.00139   0.00138
   D14       -0.09978   0.00018   0.00000   0.01339   0.01339  -0.08639
   D15        3.13428  -0.00006   0.00000  -0.00106  -0.00106   3.13322
   D16        3.03451   0.00013   0.00000   0.01095   0.01094   3.04545
   D17        3.14017  -0.00004   0.00000  -0.00017  -0.00017   3.14000
   D18        0.00037  -0.00004   0.00000  -0.00029  -0.00029   0.00008
   D19       -0.00152   0.00001   0.00000   0.00024   0.00024  -0.00128
   D20       -3.14132   0.00001   0.00000   0.00012   0.00012  -3.14120
   D21       -0.00000  -0.00002   0.00000  -0.00049  -0.00049  -0.00049
   D22       -3.14062  -0.00000   0.00000  -0.00010  -0.00010  -3.14073
   D23        3.13975  -0.00002   0.00000  -0.00037  -0.00037   3.13938
   D24       -0.00088  -0.00001   0.00000   0.00001   0.00001  -0.00086
   D25        0.00051   0.00001   0.00000   0.00020   0.00020   0.00071
   D26        3.14103   0.00000   0.00000   0.00004   0.00004   3.14107
   D27       -3.14007   0.00000   0.00000   0.00049   0.00049  -3.13958
   D28        0.00046   0.00000   0.00000   0.00033   0.00033   0.00079
   D29        0.00048   0.00001   0.00000   0.00028   0.00028   0.00075
   D30       -3.14004   0.00001   0.00000   0.00044   0.00044  -3.13959
   D31        3.14109  -0.00000   0.00000  -0.00011  -0.00011   3.14099
   D32        0.00058  -0.00000   0.00000   0.00006   0.00006   0.00064
   D33       -1.92611  -0.00018   0.00000   0.00442   0.00443  -1.92168
   D34        0.00552  -0.00001   0.00000  -0.00202  -0.00203   0.00349
   D35        1.52863   0.00019   0.00000   0.00608   0.00609   1.53472
   D36        2.18999  -0.00003   0.00000  -0.00933  -0.00932   2.18067
         Item               Value     Threshold  Converged?
 Maximum Force            0.006917     0.000450     NO 
 RMS     Force            0.001915     0.000300     NO 
 Maximum Displacement     0.023124     0.001800     NO 
 RMS     Displacement     0.007753     0.001200     NO 
 Predicted change in Energy=-3.027019D-04
 Lowest energy point so far.  Saving SCF results.
 GradGradGradGradGradGradGradGradGradGradGradGradGradGradGradGradGradGrad

 Leave Link  103 at Fri Aug 27 00:42:04 2021, MaxMem= 17179869184 cpu:        22.1
 (Enter /public3/home/sc51754/softwares/g09e01/l202.exe)
                          Input orientation:                          
 ---------------------------------------------------------------------
 Center     Atomic      Atomic             Coordinates (Angstroms)
 Number     Number       Type             X           Y           Z
 ---------------------------------------------------------------------
      1          8           0        1.208689    1.441499   -0.003160
      2          7           0        0.304130   -0.663546   -0.005357
      3          6           0        0.134593    0.650651   -0.000014
      4          6           0       -1.125600    1.248951    0.008446
      5          6           0       -0.781224   -1.439997   -0.005627
      6          6           0       -2.228351    0.433410    0.009741
      7          6           0       -2.063405   -0.947524    0.002102
      8          1           0        2.021798    0.896031   -0.016217
      9          1           0       -1.199862    2.325120    0.012123
     10          1           0       -0.597022   -2.506299   -0.013633
     11          1           0       -3.219123    0.865740    0.015409
     12          1           0       -2.908412   -1.618277    0.001031
     13          8           0        3.083474   -0.583998   -0.082590
     14          1           0        3.582154   -0.875352    0.682978
     15          1           0        2.200647   -1.000239   -0.025791
 ---------------------------------------------------------------------
                    Distance matrix (angstroms):
                    1          2          3          4          5
     1  O    0.000000
     2  N    2.291167   0.000000
     3  C    1.333841   1.325099   0.000000
     4  C    2.342245   2.387879   1.395034   0.000000
     5  C    3.501825   1.334492   2.282446   2.710947   0.000000
     6  C    3.581850   2.759892   2.372929   1.371557   2.367291
     7  C    4.051426   2.384517   2.717602   2.388309   1.373527
     8  H    0.979210   2.320082   1.903159   3.167218   3.648845
     9  H    2.565568   3.345808   2.141206   1.078735   3.788361
    10  H    4.341176   2.051312   3.240645   3.792332   1.082125
    11  H    4.465127   3.840893   3.360641   2.128319   3.355624
    12  H    5.129597   3.351414   3.795776   3.376310   2.134656
    13  O    2.761117   2.781554   3.197980   4.591763   3.959110
    14  H    3.387023   3.356204   3.831559   5.208704   4.453321
    15  H    2.635636   1.926280   2.644746   4.015463   3.014191
                    6          7          8          9         10
     6  C    0.000000
     7  C    1.390771   0.000000
     8  H    4.275331   4.481954   0.000000
     9  H    2.153221   3.384672   3.524513   0.000000
    10  H    3.362093   2.140165   4.293492   4.868952   0.000000
    11  H    1.081005   2.150299   5.241104   2.491428   4.271639
    12  H    2.161476   1.078864   5.534348   4.297632   2.476151
    13  O    5.409171   5.160396   1.822649   5.178698   4.152836
    14  H    5.994003   5.686927   2.461988   5.793164   4.539908
    15  H    4.655387   4.264468   1.904710   4.756355   3.177312
                   11         12         13         14         15
    11  H    0.000000
    12  H    2.503415   0.000000
    13  O    6.467927   6.081071   0.000000
    14  H    7.052263   6.568442   0.958991   0.000000
    15  H    5.732144   5.146374   0.977685   1.557727   0.000000
 Stoichiometry    C5H7NO2
 Framework group  C1[X(C5H7NO2)]
 Deg. of freedom    39
 Full point group                 C1      NOp   1
 RotChk:  IX=0 Diff= 3.48D-04
 Largest Abelian subgroup         C1      NOp   1
 Largest concise Abelian subgroup C1      NOp   1
                         Standard orientation:                         
 ---------------------------------------------------------------------
 Center     Atomic      Atomic             Coordinates (Angstroms)
 Number     Number       Type             X           Y           Z
 ---------------------------------------------------------------------
      1          8           0        1.209282    1.441945   -0.003427
      2          7           0        0.304769   -0.663120   -0.005867
      3          6           0        0.135204    0.651073   -0.000254
      4          6           0       -1.125000    1.249344    0.008521
      5          6           0       -0.780568   -1.439594   -0.006105
      6          6           0       -2.227733    0.433779    0.009843
      7          6           0       -2.062758   -0.947150    0.001921
      8          1           0        2.022401    0.896497   -0.016716
      9          1           0       -1.199286    2.325511    0.012408
     10          1           0       -0.596344   -2.505890   -0.014338
     11          1           0       -3.218514    0.866086    0.015750
     12          1           0       -2.907751   -1.617921    0.000863
     13          8           0        3.084099   -0.583497   -0.083534
     14          1           0        3.582908   -0.874981    0.681901
     15          1           0        2.201289   -0.999768   -0.026669
 ---------------------------------------------------------------------
 Rotational constants (GHZ):      4.0485258      1.4296910      1.0590732
 Leave Link  202 at Fri Aug 27 00:42:04 2021, MaxMem= 17179869184 cpu:         6.8
 (Enter /public3/home/sc51754/softwares/g09e01/l301.exe)
 Basis read from rwf:  (5D, 7F)
 No pseudopotential information found on rwf file.
 There are   385 symmetry adapted cartesian basis functions of A   symmetry.
 There are   338 symmetry adapted basis functions of A   symmetry.
   338 basis functions,   566 primitive gaussians,   385 cartesian basis functions
    30 alpha electrons       30 beta electrons
       nuclear repulsion energy       359.1228008227 Hartrees.
 IExCor=20419 DFT=T Ex+Corr=CAM-B3LYP ExCW=0 ScaHFX=  1.000000
 ScaDFX=  1.000000  1.000000  1.000000  0.810000 ScalE2=  1.000000  1.000000
 IRadAn=      0 IRanWt=     -1 IRanGd=            0 ICorTp=0 IEmpDi=  4
  HFx wShort=  0.000000 wLong=  0.330000 cFull=  0.190000 cShort=  0.000000 cLong=  0.460000
  DFx wShort=  0.000000 wLong=  0.330000 cFull=  0.190000 cShort=  0.000000 cLong=  0.460000
 NAtoms=   15 NActive=   15 NUniq=   15 SFac= 1.00D+00 NAtFMM=   60 NAOKFM=F Big=F
 Integral buffers will be    131072 words long.
 Raffenetti 2 integral format.
 Two-electron integral symmetry is turned on.
 No density basis found on file   724.
 Leave Link  301 at Fri Aug 27 00:42:04 2021, MaxMem= 17179869184 cpu:         1.1
 (Enter /public3/home/sc51754/softwares/g09e01/l302.exe)
 NPDir=0 NMtPBC=     1 NCelOv=     1 NCel=       1 NClECP=     1 NCelD=      1
         NCelK=      1 NCelE2=     1 NClLst=     1 CellRange=     0.0.
 One-electron integrals computed using PRISM.
 NBasis=   338 RedAO= T EigKep=  1.42D-04  NBF=   338
 NBsUse=   338 1.00D-06 EigRej= -1.00D+00 NBFU=   338
 Precomputing XC quadrature grid using
 IXCGrd= 4 IRadAn=           0 IRanWt=          -1 IRanGd=           0 AccXCQ= 0.00D+00.
 Generated NRdTot=       0 NPtTot=           0 NUsed=           0 NTot=          32
 NSgBfM=   384   384   384   384   385 MxSgAt=    15 MxSgA2=    15.
 Leave Link  302 at Fri Aug 27 00:42:05 2021, MaxMem= 17179869184 cpu:        43.9
 (Enter /public3/home/sc51754/softwares/g09e01/l303.exe)
 DipDrv:  MaxL=1.
 Leave Link  303 at Fri Aug 27 00:42:05 2021, MaxMem= 17179869184 cpu:        16.1
 (Enter /public3/home/sc51754/softwares/g09e01/l401.exe)
 Initial guess from the checkpoint file:  "HY_H2O_CAM-B3LYP_PC2_OPT_FREQ.chk"
 B after Tr=    -0.000000   -0.000000    0.000000
         Rot=    1.000000   -0.000005   -0.000010   -0.000086 Ang=  -0.01 deg.
 Guess basis will be translated and rotated to current coordinates.
 JPrj=2 DoOrth=T DoCkMO=T.
 Generating alternative initial guess.
 ExpMin= 7.41D-02 ExpMax= 1.48D+04 ExpMxC= 5.05D+02 IAcc=2 IRadAn=         4 AccDes= 0.00D+00
 Harris functional with IExCor=20419 and IRadAn=       4 diagonalized for initial guess.
 HarFok:  IExCor=20419 AccDes= 0.00D+00 IRadAn=         4 IDoV= 1 UseB2=F ITyADJ=14
 ICtDFT=  3500011 ScaDFX=  1.000000  1.000000  1.000000  1.000000
 FoFCou: FMM=F IPFlag=           0 FMFlag=      100000 FMFlg1=           0
         NFxFlg=           0 DoJE=T BraDBF=F KetDBF=T FulRan=T
         wScrn=  0.000000 ICntrl=     500 IOpCl=  0 I1Cent=   200000004 NGrid=           0
         NMat0=    1 NMatS0=      1 NMatT0=    0 NMatD0=    1 NMtDS0=    0 NMtDT0=    0
 Petite list used in FoFCou.
 Harris En= -385.272045274969    
 Leave Link  401 at Fri Aug 27 00:42:07 2021, MaxMem= 17179869184 cpu:        77.5
 (Enter /public3/home/sc51754/softwares/g09e01/l502.exe)
 Closed shell SCF:
 Using DIIS extrapolation, IDIIS=  1040.
 Integral symmetry usage will be decided dynamically.
 Keep R1 ints in memory in canonical form, NReq=3311562672.
 IVT=      490665 IEndB=      490665 NGot= 17179869184 MDV= 13897062548
 LenX= 13897062548 LenY= 13896913882
 Requested convergence on RMS density matrix=1.00D-08 within 128 cycles.
 Requested convergence on MAX density matrix=1.00D-06.
 Requested convergence on             energy=1.00D-06.
 No special actions if energy rises.
 FoFCou: FMM=F IPFlag=           0 FMFlag=           0 FMFlg1=           0
         NFxFlg=           0 DoJE=F BraDBF=F KetDBF=F FulRan=T
         wScrn=  0.000000 ICntrl=     600 IOpCl=  0 I1Cent=           0 NGrid=           0
         NMat0=    1 NMatS0=  57291 NMatT0=    0 NMatD0=    1 NMtDS0=    0 NMtDT0=    0
 Symmetry not used in FoFCou.
 Integral accuracy reduced to 1.0D-05 until final iterations.

 Cycle   1  Pass 0  IDiag  1:
 E= -399.958527612309    
 DIIS: error= 5.36D-04 at cycle   1 NSaved=   1.
 NSaved= 1 IEnMin= 1 EnMin= -399.958527612309     IErMin= 1 ErrMin= 5.36D-04
 ErrMax= 5.36D-04  0.00D+00 EMaxC= 1.00D-01 BMatC= 9.22D-05 BMatP= 9.22D-05
 IDIUse=3 WtCom= 9.95D-01 WtEn= 5.36D-03
 Coeff-Com:  0.100D+01
 Coeff-En:   0.100D+01
 Coeff:      0.100D+01
 Gap=     0.719 Goal=   None    Shift=    0.000
 RMSDP=2.82D-05 MaxDP=8.73D-04              OVMax= 1.93D-03

 Cycle   2  Pass 0  IDiag  1:
 E= -399.958600695124     Delta-E=       -0.000073082815 Rises=F Damp=F
 DIIS: error= 1.75D-04 at cycle   2 NSaved=   2.
 NSaved= 2 IEnMin= 2 EnMin= -399.958600695124     IErMin= 2 ErrMin= 1.75D-04
 ErrMax= 1.75D-04  0.00D+00 EMaxC= 1.00D-01 BMatC= 1.09D-05 BMatP= 9.22D-05
 IDIUse=3 WtCom= 9.98D-01 WtEn= 1.75D-03
 Coeff-Com:  0.164D+00 0.836D+00
 Coeff-En:   0.000D+00 0.100D+01
 Coeff:      0.164D+00 0.836D+00
 Gap=     0.306 Goal=   None    Shift=    0.000
 RMSDP=1.28D-05 MaxDP=9.22D-04 DE=-7.31D-05 OVMax= 1.08D-03

 Cycle   3  Pass 0  IDiag  1:
 E= -399.958607180949     Delta-E=       -0.000006485825 Rises=F Damp=F
 DIIS: error= 1.12D-04 at cycle   3 NSaved=   3.
 NSaved= 3 IEnMin= 3 EnMin= -399.958607180949     IErMin= 3 ErrMin= 1.12D-04
 ErrMax= 1.12D-04  0.00D+00 EMaxC= 1.00D-01 BMatC= 4.36D-06 BMatP= 1.09D-05
 IDIUse=3 WtCom= 9.99D-01 WtEn= 1.12D-03
 Coeff-Com: -0.175D-01 0.374D+00 0.644D+00
 Coeff-En:   0.000D+00 0.218D+00 0.782D+00
 Coeff:     -0.175D-01 0.373D+00 0.644D+00
 Gap=     0.306 Goal=   None    Shift=    0.000
 RMSDP=4.75D-06 MaxDP=3.19D-04 DE=-6.49D-06 OVMax= 5.95D-04

 Initial convergence to 1.0D-05 achieved.  Increase integral accuracy.
 Cycle   4  Pass 1  IDiag  1:
 E= -399.958631004772     Delta-E=       -0.000023823823 Rises=F Damp=F
 DIIS: error= 3.13D-05 at cycle   1 NSaved=   1.
 NSaved= 1 IEnMin= 1 EnMin= -399.958631004772     IErMin= 1 ErrMin= 3.13D-05
 ErrMax= 3.13D-05  0.00D+00 EMaxC= 1.00D-01 BMatC= 5.29D-07 BMatP= 5.29D-07
 IDIUse=1 WtCom= 1.00D+00 WtEn= 0.00D+00
[...]
   A10        2.13936   0.00000   0.00000   0.00001   0.00001   2.13937
   A11        2.15279   0.00000   0.00000   0.00005   0.00005   2.15283
   A12        2.02170  -0.00000   0.00000  -0.00001  -0.00001   2.02169
   A13        2.10870  -0.00000   0.00000  -0.00004  -0.00004   2.10866
   A14        2.08894  -0.00000   0.00000  -0.00003  -0.00003   2.08891
   A15        2.09378   0.00000   0.00000   0.00001   0.00001   2.09379
   A16        2.10047   0.00000   0.00000   0.00002   0.00002   2.10049
   A17        2.05617  -0.00000   0.00000  -0.00001  -0.00001   2.05616
   A18        2.10447  -0.00000   0.00000  -0.00002  -0.00002   2.10445
   A19        2.12255   0.00000   0.00000   0.00003   0.00003   2.12258
   A20        2.77734  -0.00002   0.00000  -0.00073  -0.00073   2.77660
   A21        2.24315  -0.00002   0.00000  -0.00030  -0.00030   2.24285
   A22        2.16233  -0.00001   0.00000   0.00123   0.00123   2.16356
   A23        1.87686  -0.00001   0.00000   0.00021   0.00021   1.87706
   A24        1.31639  -0.00000   0.00000  -0.00074  -0.00074   1.31565
   A25        2.51509  -0.00002   0.00000  -0.00195  -0.00195   2.51314
    D1        0.00928   0.00000   0.00000   0.00080   0.00080   0.01008
    D2       -3.13221   0.00000   0.00000   0.00074   0.00074  -3.13147
    D3        0.08103  -0.00001   0.00000  -0.00124  -0.00124   0.07979
    D4       -0.00275  -0.00000   0.00000  -0.00114  -0.00115  -0.00390
    D5       -3.13878  -0.00000   0.00000  -0.00002  -0.00002  -3.13880
    D6        0.00270  -0.00000   0.00000   0.00005   0.00005   0.00275
    D7       -0.01065  -0.00000   0.00000  -0.00019  -0.00019  -0.01083
    D8        3.13084  -0.00000   0.00000  -0.00012  -0.00012   3.13072
    D9       -0.00225  -0.00000   0.00000  -0.00004  -0.00004  -0.00229
   D10        3.13842   0.00000   0.00000   0.00001   0.00001   3.13843
   D11       -3.12577   0.00000   0.00000   0.00017   0.00017  -3.12560
   D12        0.01490   0.00000   0.00000   0.00022   0.00022   0.01512
   D13        0.00641   0.00000   0.00000  -0.00021  -0.00021   0.00620
   D14       -0.08262  -0.00000   0.00000  -0.00150  -0.00150  -0.08412
   D15        3.13138  -0.00000   0.00000  -0.00041  -0.00041   3.13097
   D16        3.04235  -0.00000   0.00000  -0.00170  -0.00170   3.04065
   D17        3.13999   0.00000   0.00000   0.00002   0.00002   3.14001
   D18        0.00023   0.00000   0.00000   0.00004   0.00004   0.00027
   D19       -0.00149  -0.00000   0.00000  -0.00005  -0.00005  -0.00154
   D20       -3.14125  -0.00000   0.00000  -0.00002  -0.00002  -3.14128
   D21       -0.00025   0.00000   0.00000   0.00004   0.00004  -0.00022
   D22       -3.14059  -0.00000   0.00000  -0.00001  -0.00001  -3.14059
   D23        3.13944   0.00000   0.00000   0.00001   0.00001   3.13946
   D24       -0.00089  -0.00000   0.00000  -0.00003  -0.00003  -0.00092
   D25        0.00058   0.00000   0.00000   0.00003   0.00003   0.00061
   D26        3.14113   0.00000   0.00000   0.00003   0.00003   3.14116
   D27       -3.14005   0.00000   0.00000  -0.00002  -0.00002  -3.14007
   D28        0.00050  -0.00000   0.00000  -0.00003  -0.00003   0.00048
   D29        0.00068  -0.00000   0.00000  -0.00003  -0.00003   0.00065
   D30       -3.13986  -0.00000   0.00000  -0.00002  -0.00002  -3.13989
   D31        3.14101   0.00000   0.00000   0.00001   0.00001   3.14102
   D32        0.00047   0.00000   0.00000   0.00002   0.00002   0.00049
   D33       -1.95740  -0.00000   0.00000  -0.00125  -0.00125  -1.95865
   D34       -0.00246   0.00000   0.00000   0.00090   0.00090  -0.00156
   D35        1.57379   0.00002   0.00000   0.00247   0.00247   1.57626
   D36        2.23357   0.00000   0.00000   0.00307   0.00307   2.23664
         Item               Value     Threshold  Converged?
 Maximum Force            0.000034     0.000450     YES
 RMS     Force            0.000007     0.000300     YES
 Maximum Displacement     0.002863     0.001800     NO 
 RMS     Displacement     0.000635     0.001200     YES
 Predicted change in Energy=-1.348518D-07
 GradGradGradGradGradGradGradGradGradGradGradGradGradGradGradGradGradGrad

 Leave Link  103 at Fri Aug 27 00:47:55 2021, MaxMem= 17179869184 cpu:        91.3
 (Enter /public3/home/sc51754/softwares/g09e01/l9999.exe)
 1\1\GINC-S1512\Freq\RCAM-B3LYP\Gen\C5H7N1O2\SC51754\27-Aug-2021\0\\#P 
 Geom=AllCheck Guess=TCheck SCRF=Check GenChk RCAM-B3LYP/ChkBas Freq\\H
 Y_H2O_CAM-B3LYP_PC2_OPT_FREQ\\0,1\O,1.2133349932,1.4372169412,0.003986
 6956\N,0.3047221226,-0.665874961,0.0018709747\C,0.1392647018,0.6488062
 706,0.0042890413\C,-1.1228644044,1.2477934496,0.0070354728\C,-0.781094
 9952,-1.4429136806,-0.0010936744\C,-2.2263061527,0.4333295794,0.005407
 0131\C,-2.0628092589,-0.9492282581,0.0008156571\H,2.0288838188,0.89183
 60792,-0.0066872076\H,-1.1954074549,2.3242388486,0.0086085083\H,-0.597
 7150223,-2.5096946075,-0.0060820457\H,-3.2170758221,0.8662600557,0.006
 5090565\H,-2.9088896411,-1.618791046,-0.002168427\O,3.0636245717,-0.56
 31920375,-0.0787257707\H,3.5894661964,-0.8821101771,0.6565843215\H,2.1
 853533472,-0.9915044563,-0.0209076154\\Version=EM64L-G09RevE.01\State=
 1-A\HF=-399.9586846\RMSD=4.642e-09\RMSF=1.694e-05\ZeroPoint=0.1199898\
 Thermal=0.1277525\Dipole=-0.7178604,-0.5691026,0.5190685\DipoleDeriv=-
 1.5744696,-0.5183786,-0.0065527,-0.4293161,-0.6795906,0.0012756,-0.006
 6216,0.001951,-0.3615567,-0.9152032,0.1193053,-0.0033842,-0.3607364,-0
 .5715707,-0.0004005,-0.0095281,0.0039365,-0.2537251,1.5741149,0.765923
 7,0.0031158,0.5879361,0.6359713,-0.0007265,-0.0022733,-0.0012189,0.219
 0535,-0.5662477,-0.4173216,-0.0020524,0.1053433,-0.0113827,-0.0001352,
 0.0026735,-0.0014606,-0.1596589,0.5075895,-0.2745696,0.0002807,0.20753
 68,0.3232888,0.0052613,-0.0013356,0.0037016,-0.0098093,0.2511115,0.107
 3469,0.0004306,0.0514954,0.4584306,0.0015292,0.0003821,0.0015151,-0.08
 39835,-0.2251753,0.3210674,0.0004964,0.0634437,-0.4077337,-0.0006686,0
 .0022094,-0.0000474,-0.1710524,0.7703494,-0.1393881,0.0023693,-0.32699
 32,0.3786295,-0.0087926,-0.0007822,-0.0083486,0.2787621,0.0760839,0.00
 44435,-0.0001392,0.0061996,-0.0237425,-0.0004237,0.0003778,0.0001147,0
 .1529905,0.063943,0.0252482,-0.0003452,-0.0157019,-0.0848656,-0.000592
 3,-0.0006817,-0.0005359,0.1106661,-0.0393659,0.0566473,0.0000866,0.058
 5732,0.0635662,-0.0002004,-0.0002839,-0.0002525,0.1262934,-0.0094728,-
 0.0668613,-0.0004961,-0.0656463,0.0129187,-0.00042,-0.0004555,-0.00074
 1,0.1562442,-1.1925653,0.1477769,0.0028658,0.1549615,-0.5997517,-0.115
 5872,0.0451852,-0.1011786,-0.4420955,0.3351829,-0.0146036,-0.0110928,0
 .0120155,0.2790345,0.0718502,-0.0338149,0.0590453,0.2224643,0.9441247,
 -0.1166364,0.0144174,-0.0491113,0.226798,0.0480307,0.0049488,0.0435191
 ,0.2154072\Polar=96.0198596,2.2067293,82.9128278,1.0288696,-0.2018906,
 44.1243471\PG=C01 [X(C5H7N1O2)]\NImag=0\\0.63369658,-0.04485623,0.4229
 1356,-0.00485996,0.00290257,0.04153537,0.01563141,-0.05296618,0.000059
 41,0.50194533,-0.02426362,-0.06479537,-0.00023190,0.11344630,0.6421341
 2,0.00010856,-0.00004018,0.00747869,0.00056500,0.00156333,0.09662627,-
 0.26699283,-0.08030579,0.00110032,-0.16758212,0.01873324,-0.00019148,0
 .76213205,-0.11892988,-0.18235213,0.00023198,0.05881213,-0.31859216,-0
 .00057343,0.01680256,0.71030695,0.00009708,-0.00055219,-0.05516752,0.0
 0013713,-0.00036688,-0.07549417,-0.00087219,0.00113265,0.19800981,-0.0
 7020681,0.00582451,-0.00000859,0.03531329,0.09004902,0.00031725,-0.248
 36908,0.03533618,0.00027597,0.69056435,-0.03158934,0.01805179,0.000125
 88,0.03419876,-0.02783160,-0.00011876,0.11078346,-0.17195479,-0.000364
 64,0.03507129,0.78885465,0.00022528,0.00019131,0.01069461,-0.00007095,
 -0.00005269,0.02042202,0.00040116,-0.00050679,-0.08118600,-0.00031198,
 0.00123281,0.12886907,-0.01069224,0.00913433,-0.00006284,-0.27578834,-
 0.08480825,-0.00011030,0.06028626,-0.09459326,-0.00026918,-0.08178551,
 -0.00220633,0.00001106,0.69575317,0.00167089,0.00120655,-0.00003049,-0
 .11977954,-0.20081217,-0.00043463,-0.02764300,-0.07454897,-0.00012128,
 -0.01355033,-0.00136807,-0.00002377,-0.03343800,0.77761777,0.00001301,
 -0.00000088,0.01048067,-0.00046188,-0.00063278,-0.06624048,-0.00011079
 ,-0.00016200,-0.00289613,-0.00004958,0.00005129,-0.00561104,-0.0000710
 4,0.00249579,0.16511482,0.00415909,0.00402081,0.00007998,-0.01169565,-
 0.02764922,-0.00011448,-0.06128734,0.00847198,0.00007981,-0.29896725,-
 0.15037038,-0.00031215,0.02543225,0.04075124,0.00016920,0.76954833,0.0
 1868892,-0.00519321,0.00003953,-0.03778727,-0.07375159,-0.00022924,-0.
 05309136,0.08388173,0.00022511,-0.08194918,-0.22730664,-0.00027391,0.1
 0016194,-0.01022754,-0.00007127,-0.01617543,0.68834100,0.00003206,-0.0
 0000600,0.00450904,-0.00006141,-0.00018940,-0.00796938,-0.00011994,0.0
 0025192,0.00278317,-0.00018423,-0.00035163,-0.06185158,0.00027192,-0.0
 0004146,0.00905562,-0.00014675,0.00155836,0.15183995,0.00378227,-0.006
 70203,0.00000971,-0.07374325,-0.06177657,-0.00023289,-0.03536695,0.055
 81239,0.00010743,0.05278933,-0.02645915,-0.00003695,-0.32290333,0.1168
 3935,0.00042196,-0.13929638,-0.01291153,-0.00005409,0.75237531,-0.0141
 3353,-0.00024137,-0.00006579,0.00829406,0.06995777,0.00021455,0.044138
 33,-0.05183190,-0.00015838,-0.07299294,-0.03592615,-0.00008779,0.04054
 158,-0.17548461,-0.00043562,0.05832576,-0.32570527,-0.00088448,0.04916
 747,0.70303769,-0.00000658,0.00001551,-0.00123807,-0.00009013,0.000130
 55,0.02270740,0.00011760,-0.00015513,-0.00923680,-0.00017204,-0.000164
 97,0.00840064,0.00015934,-0.00038383,-0.07231201,0.00012728,-0.0009526
 7,-0.06715077,0.00031200,0.00216801,0.12934120,-0.29161225,0.15785656,
 0.00351916,0.00158922,0.00954175,-0.00012375,-0.05248898,0.00466142,0.
 00035315,0.00353640,-0.00250657,-0.00002326,0.00050806,0.00015078,-0.0
 0003093,-0.00168207,-0.00108663,0.00001431,0.00043219,0.00195942,0.000
 01736,0.33325064,0.19501815,-0.18383003,-0.00323533,0.00288793,-0.0023
 6099,0.00004688,-0.01907574,0.02704724,0.00039636,-0.00844968,-0.00421
 622,0.00002016,-0.00226064,-0.00154003,-0.00002194,0.00052833,0.003736
 57,-0.00002024,0.00133583,-0.00253690,0.00000262,-0.15948056,0.1699004
 2,0.00478636,-0.00320839,-0.01809290,-0.00013521,0.00005623,-0.0027080
 2,-0.00033617,-0.00010337,-0.00087969,0.00005207,-0.00003509,0.0037075
 6,0.00003912,-0.00000413,-0.00066308,-0.00005363,-0.00004263,0.0014884
 6,-0.00002282,0.00004025,0.00038634,-0.00394313,0.00441838,0.02396885,
 0.00190262,-0.00089990,-0.00000804,-0.00601730,0.00500523,0.00000612,0
 .00510313,0.02892207,0.00003709,-0.06217599,0.02148866,0.00006618,-0.0
 0202304,-0.00128312,-0.00000258,0.00764898,-0.02693827,-0.00004137,-0.
 00369857,-0.00279684,-0.00000271,-0.00018610,0.00012110,-0.00000533,0.
 05744463,-0.00067856,0.00110921,0.00001021,0.00273777,-0.00018362,-0.0
 0001317,-0.00341489,-0.01041571,-0.00000875,0.02379109,-0.34734186,-0.
 00047494,0.00045534,0.00103714,0.00000808,0.00316808,-0.01201996,-0.00
 002659,-0.00331617,0.00080883,-0.00000437,0.00025826,-0.00003581,0.000
 00103,-0.02289550,0.36670656,-0.00000517,-0.00001085,-0.00210447,0.000
 02756,-0.00005211,0.00553045,-0.00005207,-0.00002713,0.00269857,0.0001
 0137,-0.00038897,-0.03551449,0.00002865,0.00001499,-0.00028886,-0.0000
 1074,-0.00006383,0.00256549,-0.00002375,-0.00001492,0.00882845,-0.0000
 0552,0.00000708,-0.00066839,-0.00005035,0.00051207,0.02495691,-0.00030
 828,-0.00115998,0.00000196,0.00270352,-0.03402357,-0.00014245,-0.00244
 285,-0.00398550,-0.00000622,-0.00075200,-0.00071712,-0.00000270,-0.070
 98239,0.05853431,0.00022031,-0.00557779,0.00178964,0.00000564,0.001209
 13,0.02901983,0.00012382,0.00039814,-0.00016355,-0.00000069,0.00015278
 ,-0.00001089,-0.00000069,0.07497586,-0.00031469,-0.00110072,0.00000177
 ,-0.00663183,-0.02089997,-0.00008718,-0.00229287,0.00149129,-0.0000758
 6,0.00009674,0.00052544,0.00000880,0.05665329,-0.32406602,-0.00125581,
 0.00237182,0.00058333,-0.00004364,-0.00058979,-0.00649907,-0.00006522,
 0.00034158,-0.00002044,-0.00000417,0.00008680,-0.00008563,0.00000843,-
 0.04999384,0.35015361,-0.00000952,-0.00000174,0.00024666,0.00003691,0.
 00001414,-0.00275848,0.00002522,-0.00003798,0.01001282,-0.00002093,0.0
 0000783,-0.00061967,0.00016987,-0.00142075,-0.04397251,0.00000137,0.00
 000599,0.00774271,0.00002409,-0.00004410,0.00789764,-0.00000436,-0.000
 00502,-0.00018117,-0.00000308,0.00000111,-0.00154664,-0.00017231,0.001
 47917,0.02771937,-0.00159707,0.00070876,0.00001054,0.00017877,-0.00075
 337,-0.00000155,-0.00151256,-0.00364723,-0.00001248,-0.01825170,0.0124
 2354,0.00002511,0.00181638,0.00053458,-0.00000390,-0.29739424,0.102691
 90,0.00026564,0.00128887,-0.00046974,-0.00000486,0.00002557,-0.0003650
 5,-0.00000528,0.00110145,-0.00020605,-0.00000184,-0.00007748,-0.000125
 56,-0.00000037,0.31390194,-0.00084203,0.00064920,0.00000934,-0.0008835
 5,-0.00048654,0.00000502,-0.00372069,-0.00172319,-0.00002574,-0.018174
 48,0.01241070,0.00000582,0.00018962,-0.00645265,-0.00004643,0.10339152
 ,-0.10738504,-0.00016314,0.03004694,-0.00580957,-0.00002711,-0.0001627
 3,-0.00020269,-0.00000097,0.00064904,0.00080645,0.00001341,0.00148015,
 -0.00042461,0.00000293,-0.11128614,0.10739930,-0.00001776,-0.00001018,
 -0.00052866,0.00000395,0.00000806,-0.00298306,0.00000547,-0.00001349,0
 .01027793,-0.00003220,0.00004071,0.00608487,-0.00000298,-0.00005540,0.
 00736757,0.00023252,-0.00015450,-0.04438868,0.00009920,-0.00004926,0.0
 0561526,0.00000010,-0.00000292,-0.00041259,-0.00000273,0.00000437,-0.0
 0494249,0.00000398,-0.00000025,-0.00052939,-0.00028255,0.00021104,0.02
 808780,0.00034538,-0.00032167,0.00000208,-0.00533183,0.00245984,0.0000
 0291,-0.00040678,0.00200872,0.00000275,0.00119121,0.00157943,-0.000002
 65,-0.01611900,-0.02216387,-0.00009909,0.00836909,0.00491477,0.0000243
 8,-0.23794812,-0.13926292,-0.00061907,0.00005532,0.00020440,-0.0000035
 9,0.00026919,0.00031750,-0.00000105,0.00071259,0.00039028,0.00000571,0
 .00058961,-0.00063879,0.00000134,0.24817104,-0.00028193,0.00042422,0.0
 0000547,0.00340750,0.00064299,-0.00003409,0.00139615,-0.00144640,-0.00
 000440,0.00212120,-0.00495641,-0.00004163,0.01060911,0.01182301,0.0000
 5153,-0.02635990,-0.01339056,-0.00007023,-0.14018482,-0.17044947,-0.00
 059333,0.00002915,-0.00011581,0.00000099,-0.00121517,-0.00051459,-0.00
 000105,-0.00062426,0.00051565,0.00001783,0.00039598,0.00117361,0.00001
 888,0.15073524,0.17617892,-0.00001059,-0.00000410,-0.00127477,0.000016
 45,-0.00002831,0.00841749,0.00000991,-0.00000018,0.00033877,0.00000957
 ,-0.00002966,0.00641371,0.00003443,0.00004472,0.00002562,-0.00008200,-
 0.00003496,0.00145352,-0.00065479,-0.00063751,-0.03370850,0.00000472,-
 0.00000133,-0.00001729,-0.00000685,-0.00000196,0.00047531,-0.00000193,
 0.00002635,-0.00384679,0.00000424,0.00001656,-0.00360930,0.00068006,0.
 00064890,0.02527473,-0.00881093,0.01171207,0.00014334,-0.02052997,-0.0
 0310000,-0.00065503,0.00057181,-0.00170606,0.00014069,-0.00071445,0.00
 058520,0.00008365,0.00012877,0.00586672,0.00002214,-0.00021754,-0.0002
 6423,-0.00001508,-0.00209452,-0.00064606,0.00007412,-0.00204448,-0.006
 94127,-0.00012202,-0.00027185,0.00016012,-0.00000030,-0.00019973,-0.00
 059760,-0.00004250,-0.00016972,0.00001080,-0.00001098,-0.00054630,0.00
 011591,0.00000465,0.56739567,0.02196614,-0.00565766,0.00178115,-0.0019
 6840,0.00776356,-0.00048928,-0.01167450,-0.01041262,-0.00011159,0.0037
 3731,0.00197553,-0.00009778,0.00149537,0.00033504,-0.00001691,-0.00063
 385,-0.00182470,-0.00001963,-0.00057314,0.00155684,0.00003126,-0.01037
 549,0.00294592,-0.00538301,-0.00047572,0.00018794,-0.00000664,0.000316
 55,0.00011830,-0.00002129,0.00012863,0.00007492,0.00001229,-0.00004610
 ,0.00007548,0.00000266,0.08549705,0.19554539,-0.00141458,0.00229218,0.
 00523560,-0.00167054,0.00002024,0.00633693,-0.00013362,-0.00052744,-0.
 00078058,0.00009304,0.00005208,-0.00069478,0.00001471,-0.00001135,0.00
 014404,-0.00003816,-0.00009896,0.00007107,-0.00004471,0.00007998,-0.00
 055038,0.00088670,-0.00309943,-0.00947324,-0.00000209,0.00000306,0.000
 00740,0.00003207,0.00000619,0.00017758,0.00000605,0.00000395,0.0000773
 7,-0.00000990,-0.00000145,-0.00006400,0.19473911,-0.17382788,0.3588575
 5,0.00123050,0.00026885,0.00045217,-0.00187723,-0.00068619,0.00172129,
 -0.00074000,-0.00046963,-0.00027634,0.00019207,0.00004233,-0.00017110,
 -0.00054952,0.00021202,0.00000657,-0.00000826,-0.00005005,0.00002437,0
 .00000596,-0.00011517,-0.00015040,-0.00177730,0.00077079,-0.00084988,0
 .00000827,0.00001154,-0.00000152,-0.00006184,-0.00003707,0.00005082,0.
 00001946,-0.00000382,0.00002096,-0.00001471,0.00001599,-0.00001343,-0.
 18119943,0.06420649,-0.19471760,0.20092633,0.00213510,-0.00204659,-0.0
 0142497,-0.00142953,0.00029380,0.00041336,-0.00021707,-0.00069269,0.00
 007794,0.00011320,0.00010484,0.00005459,0.00009163,0.00042137,-0.00000
 892,0.00001081,-0.00003416,0.00001191,-0.00010592,-0.00005404,-0.00001
 586,-0.00107676,0.00294693,0.00392676,-0.00002224,0.00001322,0.0000054
 7,-0.00005901,-0.00007083,-0.00000952,0.00000946,0.00000088,-0.0000080
 0,-0.00003298,0.00000689,0.00000091,0.09293226,-0.08044225,0.15178750,
 -0.08205437,0.07320142,0.00216563,-0.00190883,-0.00026527,0.00129745,0
 .00008007,-0.00016988,-0.00048321,-0.00008169,0.00005915,0.00011934,-0
 .00000666,0.00000466,-0.00001042,-0.00009453,0.00000569,0.00001803,0.0
 0000009,-0.00000695,0.00008723,0.00001271,0.00000043,-0.00169325,0.002
 79322,0.00045353,0.00000341,-0.00000017,0.00001242,-0.00002516,0.00001
 825,0.00002093,0.00000828,-0.00000214,0.00000471,0.00002159,0.00000221
 ,0.00001000,-0.23341145,0.13587516,-0.31889178,0.22766042,-0.13815916,
 0.31882380,-0.01052744,-0.00231410,-0.00043927,0.00520416,-0.00217459,
 -0.00114920,0.00909624,0.01250410,0.00020531,-0.00236386,-0.00232378,0
 .00011928,-0.00308152,-0.00670202,-0.00002339,0.00096879,0.00200676,-0
 .00001546,0.00316805,-0.00102926,0.00011427,0.00999562,-0.00413004,0.0
 0060019,0.00074181,-0.00037764,-0.00000458,0.00025034,0.00064274,-0.00
 006092,0.00008072,-0.00005583,-0.00001830,0.00066332,-0.00016016,0.000
 00556,-0.35129733,-0.15160035,0.00225952,-0.01615431,-0.01029458,0.004
 24210,0.35325542,-0.00358938,0.00086257,-0.00011942,-0.00233814,-0.011
 07823,-0.00022319,0.00958217,0.00124335,-0.00004234,-0.00102393,-0.001
 02122,0.00004583,-0.00202574,0.00205918,0.00004588,0.00014843,0.000296
 04,-0.00000575,-0.00058287,-0.00082277,0.00001454,-0.00011017,-0.01171
 814,0.00033810,0.00025386,-0.00007218,0.00000405,-0.00040276,-0.000220
 35,0.00001140,-0.00003971,-0.00003077,-0.00000135,-0.00014386,0.000032
 48,-0.00000208,-0.18362491,-0.11224169,0.02332133,0.01788828,0.0063511
 9,0.00147145,0.16600875,0.12636056,-0.00110383,0.00034178,-0.00150899,
 0.00034626,-0.00031855,-0.00919576,0.00063980,0.00057208,0.00146066,-0
 .00018906,-0.00005022,0.00088043,-0.00020235,0.00006612,-0.00020991,0.
 00004971,0.00009290,-0.00014165,0.00000837,-0.00013766,0.00101918,0.00
 102869,-0.00129849,0.00309164,0.00001232,-0.00000999,-0.00000965,-0.00
 003564,-0.00001682,-0.00036305,-0.00000701,-0.00000255,-0.00012134,-0.
 00000546,0.00000036,0.00011150,0.03904965,0.04227149,-0.04045276,-0.03
 375633,-0.01665200,-0.00006144,-0.00583511,-0.02485844,0.04550114\\0.0
 0001471,0.00002624,-0.00001550,-0.00001224,-0.00002572,-0.00000280,0.0
 0001717,0.00000673,0.00000698,-0.00000780,-0.00000100,-0.00000099,0.00
 000316,0.00000092,0.00000437,0.00000433,0.00000550,0.00000617,0.000000
 82,-0.00000576,-0.00000345,-0.00002834,-0.00006211,0.00001318,-0.00000
 165,0.00000017,-0.00000044,0.00000095,-0.00000132,-0.00000116,-0.00000
 158,0.00000039,-0.00000121,-0.00000060,0.00000233,-0.00000060,0.000024
 72,-0.00001234,-0.00000067,-0.00000334,-0.00000155,0.00000227,-0.00001
 031,0.00006751,-0.00000614\\\@


 LOGIC IS A SYSTEMATIC METHOD OF COMING TO THE
 WRONG CONCLUSION WITH CONFIDENCE.
 Job cpu time:       0 days  1 hours 20 minutes  2.2 seconds.
 File lengths (MBytes):  RWF=    137 Int=      0 D2E=      0 Chk=      9 Scr=      1
 Normal termination of Gaussian 09 at Fri Aug 27 00:47:55 2021.
