 Entering Gaussian System, Link 0=g09
 AtFile(1): pc-2.gbs
            -H     0
            S    4   1.00
                  0.754230D+02           0.240650D-02
                  0.113500D+02           0.184870D-01
                  0.259930D+01           0.897420D-01
                  0.735130D+00           0.281110D+00
            S    1   1.00
                  0.231670D+00           0.100000D+01
            S    1   1.00
                  0.741470D-01           0.100000D+01
            P    1   1.00
                  0.160000D+01           0.100000D+01
            P    1   1.00
                  0.450000D+00           0.100000D+01
            D    1   1.00
                  0.125000D+01           0.100000D+01
            ****
            -C     0
            S    7   1.00
                  0.785710D+04           0.568250D-03
                  0.117870D+04           0.439150D-02
                  0.268320D+03           0.225040D-01
                  0.759480D+02           0.866530D-01
                  0.245590D+02           0.244050D+00
                  0.862120D+01           0.441480D+00
                  0.312780D+01           0.353320D+00
            S    7   1.00
                  0.117870D+04          -0.594920D-06
                  0.268320D+03          -0.627480D-04
                  0.759480D+02          -0.757730D-03
                  0.245590D+02          -0.733080D-02
                  0.862120D+01          -0.389320D-01
                  0.312780D+01          -0.889080D-01
                  0.822020D+00           0.216890D+00
            S    1   1.00
                  0.330170D+00           0.100000D+01
            S    1   1.00
                  0.114630D+00           0.100000D+01
            P    4   1.00
                  0.337750D+02           0.602940D-02
                  0.767660D+01           0.432280D-01
                  0.223570D+01           0.163010D+00
                  0.764470D+00           0.365040D+00
            P    1   1.00
                  0.262320D+00           0.100000D+01
            P    1   1.00
                  0.846380D-01           0.100000D+01
            D    1   1.00
                  0.140000D+01           0.100000D+01
            D    1   1.00
                  0.450000D+00           0.100000D+01
            F    1   1.00
                  0.950000D+00           0.100000D+01
            ****
            -N     0
            S    7   1.00
                  0.111010D+05           0.545700D-03
                  0.166530D+04           0.421810D-02
                  0.379080D+03           0.216450D-01
                  0.107300D+03           0.837760D-01
                  0.347470D+02           0.238810D+00
                  0.122490D+02           0.439940D+00
                  0.447430D+01           0.363640D+00
            S    7   1.00
                  0.166530D+04          -0.150060D-05
                  0.379080D+03          -0.587530D-04
                  0.107300D+03          -0.774530D-03
                  0.347470D+02          -0.721610D-02
                  0.122490D+02          -0.393380D-01
                  0.447430D+01          -0.906110D-01
                  0.124040D+01           0.198820D+00
            S    1   1.00
                  0.487430D+00           0.100000D+01
            S    1   1.00
                  0.164840D+00           0.100000D+01
            P    4   1.00
                  0.479340D+02           0.617060D-02
                  0.109990D+02           0.442600D-01
                  0.324720D+01           0.168250D+00
                  0.111140D+01           0.368480D+00
            P    1   1.00
                  0.379880D+00           0.100000D+01
            P    1   1.00
                  0.120680D+00           0.100000D+01
            D    1   1.00
                  0.180000D+01           0.100000D+01
            D    1   1.00
                  0.550000D+00           0.100000D+01
            F    1   1.00
                  0.102000D+01           0.100000D+01
            ****
            -O     0
            S    7   1.00
                  0.147820D+05           0.535190D-03
                  0.221730D+04           0.413750D-02
                  0.504740D+03           0.212450D-01
                  0.142870D+03           0.824530D-01
                  0.463000D+02           0.236710D+00
                  0.163370D+02           0.440390D+00
                  0.598280D+01           0.364650D+00
            S    7   1.00
                  0.221730D+04          -0.192750D-05
                  0.504740D+03          -0.579640D-04
                  0.142870D+03          -0.794940D-03
                  0.463000D+02          -0.731250D-02
                  0.163370D+02          -0.405740D-01
                  0.598280D+01          -0.915940D-01
                  0.167180D+01           0.209400D+00
            S    1   1.00
                  0.646620D+00           0.100000D+01
            S    1   1.00
                  0.216690D+00           0.100000D+01
            P    4   1.00
                  0.604240D+02           0.689490D-02
                  0.139350D+02           0.490050D-01
                  0.415310D+01           0.182550D+00
                  0.141580D+01           0.376330D+00
            P    1   1.00
                  0.475490D+00           0.100000D+01
            P    1   1.00
                  0.145290D+00           0.100000D+01
            D    1   1.00
                  0.220000D+01           0.100000D+01
            D    1   1.00
                  0.650000D+00           0.100000D+01
            F    1   1.00
                  0.110000D+01           0.100000D+01
            ****
 Initial command:
 /public3/home/sc51754/softwares/g09e01/l1.exe "./Gau-15942.inp" -scrdir="./"
 Entering Link 1 = /public3/home/sc51754/softwares/g09e01/l1.exe PID=     15943.
  
 Copyright (c) 1988,1990,1992,1993,1995,1998,2003,2009,2015,
            Gaussian, Inc.  All Rights Reserved.
  
 This is part of the Gaussian(R) 09 program.  It is based on
 the Gaussian(R) 03 system (copyright 2003, Gaussian, Inc.),
 the Gaussian(R) 98 system (copyright 1998, Gaussian, Inc.),
 the Gaussian(R) 94 system (copyright 1995, Gaussian, Inc.),
 the Gaussian 92(TM) system (copyright 1992, Gaussian, Inc.),
 the Gaussian 90(TM) system (copyright 1990, Gaussian, Inc.),
 the Gaussian 88(TM) system (copyright 1988, Gaussian, Inc.),
 the Gaussian 86(TM) system (copyright 1986, Carnegie Mellon
 University), and the Gaussian 82(TM) system (copyright 1983,
 Carnegie Mellon University). Gaussian is a federally registered
 trademark of Gaussian, Inc.
  
 This software contains proprietary and confidential information,
 including trade secrets, belonging to Gaussian, Inc.
  
 This software is provided under written license and may be
 used, copied, transmitted, or stored only in accord with that
 written license.
  
 The following legend is applicable only to US Government
 contracts under FAR:
  
                    RESTRICTED RIGHTS LEGEND
  
 Use, reproduction and disclosure by the US Government is
 subject to restrictions as set forth in subparagraphs (a)
 and (c) of the Commercial Computer Software - Restricted
 Rights clause in FAR 52.227-19.
  
 Gaussian, Inc.
 340 Quinnipiac St., Bldg. 40, Wallingford CT 06492
  
  
 ---------------------------------------------------------------
 Warning -- This program may not be used in any manner that
 competes with the business of Gaussian, Inc. or will provide
 assistance to any competitor of Gaussian, Inc.  The licensee
 of this program is prohibited from giving any competitor of
 Gaussian, Inc. access to this program.  By using this program,
 the user acknowledges that Gaussian, Inc. is engaged in the
 business of creating and licensing software in the field of
 computational chemistry and represents and warrants to the
 licensee that it is not a competitor of Gaussian, Inc. and that
 it will not use this program in any manner prohibited above.
 ---------------------------------------------------------------
  

 Cite this work as:
 Gaussian 09, Revision E.01,
 M. J. Frisch, G. W. Trucks, H. B. Schlegel, G. E. Scuseria, 
 M. A. Robb, J. R. Cheeseman, G. Scalmani, V. Barone, B. Mennucci, 
 G. A. Petersson, H. Nakatsuji, M. Caricato, X. Li, H. P. Hratchian, 
 A. F. Izmaylov, J. Bloino, G. Zheng, J. L. Sonnenberg, M. Hada, 
 M. Ehara, K. Toyota, R. Fukuda, J. Hasegawa, M. Ishida, T. Nakajima, 
 Y. Honda, O. Kitao, H. Nakai, T. Vreven, J. A. Montgomery, Jr., 
 J. E. Peralta, F. Ogliaro, M. Bearpark, J. J. Heyd, E. Brothers, 
 K. N. Kudin, V. N. Staroverov, T. Keith, R. Kobayashi, J. Normand, 
 K. Raghavachari, A. Rendell, J. C. Burant, S. S. Iyengar, J. Tomasi, 
 M. Cossi, N. Rega, J. M. Millam, M. Klene, J. E. Knox, J. B. Cross, 
 V. Bakken, C. Adamo, J. Jaramillo, R. Gomperts, R. E. Stratmann, 
 O. Yazyev, A. J. Austin, R. Cammi, C. Pomelli, J. W. Ochterski, 
 R. L. Martin, K. Morokuma, V. G. Zakrzewski, G. A. Voth, 
 P. Salvador, J. J. Dannenberg, S. Dapprich, A. D. Daniels, 
 O. Farkas, J. B. Foresman, J. V. Ortiz, J. Cioslowski, 
 and D. J. Fox, Gaussian, Inc., Wallingford CT, 2013.
 
 ******************************************
 Gaussian 09:  EM64L-G09RevE.01 30-Nov-2015
                27-Aug-2021 
 ******************************************
 %nprocshared=64
 Will use up to   64 processors via shared memory.
 %mem=128GB
 %chk=HY_H2O_wB97_PC2_OPT_FREQ.chk
 --------------------
 #p opt freq wB97/gen
 --------------------
 1/14=-1,18=20,19=15,26=3,38=1/1,3;
 2/9=110,12=2,17=6,18=5,40=1/2;
 3/5=7,11=2,16=1,25=1,30=1,71=1,74=-56/1,2,3;
 4//1;
 5/5=2,38=5/2;
 6/7=2,8=2,9=2,10=2,28=1/1;
 7//1,2,3,16;
 1/14=-1,18=20,19=15,26=3/3(2);
 2/9=110/2;
 99//99;
 2/9=110/2;
 3/5=7,6=1,11=2,16=1,25=1,30=1,71=1,74=-56,82=7/1,2,3;
 4/5=5,16=3,69=1/1;
 5/5=2,38=5/2;
 7//1,2,3,16;
 1/14=-1,18=20,19=15,26=3/3(-5);
 2/9=110/2;
 6/7=2,8=2,9=2,10=2,19=2,28=1/1;
 99/9=1/99;
 Leave Link    1 at Fri Aug 27 00:52:44 2021, MaxMem= 17179869184 cpu:         2.4
 (Enter /public3/home/sc51754/softwares/g09e01/l101.exe)
 ------------------------
 HY_H2O_wB97_PC2_OPT_FREQ
 ------------------------
 Symbolic Z-matrix:
 Charge =  0 Multiplicity = 1
 O                     1.216     1.44855  -0.00262 
 N                     0.30594  -0.66619  -0.00547 
 C                     0.13701   0.65516  -0.00009 
 C                    -1.12976   1.25518   0.00826 
 C                    -0.78318  -1.4465   -0.00563 
 C                    -2.23812   0.43549   0.00911 
 C                    -2.07199  -0.951     0.00173 
 H                     2.03022   0.90023  -0.0153 
 H                    -1.20631   2.3321    0.01208 
 H                    -0.59906  -2.51382  -0.01294 
 H                    -3.22982   0.86768   0.01456 
 H                    -2.91795  -1.62195   0.00074 
 O                     3.09571  -0.58722  -0.08503 
 H                     3.59397  -0.87925   0.68253 
 H                     2.20982  -1.00228  -0.02248 
 
 Add virtual bond connecting atoms O13        and H8         Dist= 3.46D+00.
 Add virtual bond connecting atoms H15        and N2         Dist= 3.65D+00.
 Add virtual bond connecting atoms H15        and H8         Dist= 3.61D+00.
 Add atom     13 valence  3 ND=      2 dihedral       8     13     14     15
 NAtoms=     15 NQM=       15 NQMF=       0 NMMI=      0 NMMIF=      0
                NMic=       0 NMicF=      0.
                    Isotopes and Nuclear Properties:
 (Nuclear quadrupole moments (NQMom) in fm**2, nuclear magnetic moments (NMagM)
  in nuclear magnetons)

  Atom         1           2           3           4           5           6           7           8           9          10
 IAtWgt=          16          14          12          12          12          12          12           1           1           1
 AtmWgt=  15.9949146  14.0030740  12.0000000  12.0000000  12.0000000  12.0000000  12.0000000   1.0078250   1.0078250   1.0078250
 NucSpn=           0           2           0           0           0           0           0           1           1           1
 AtZEff=   0.0000000   0.0000000   0.0000000   0.0000000   0.0000000   0.0000000   0.0000000   0.0000000   0.0000000   0.0000000
 NQMom=    0.0000000   2.0440000   0.0000000   0.0000000   0.0000000   0.0000000   0.0000000   0.0000000   0.0000000   0.0000000
 NMagM=    0.0000000   0.4037610   0.0000000   0.0000000   0.0000000   0.0000000   0.0000000   2.7928460   2.7928460   2.7928460
 AtZNuc=   8.0000000   7.0000000   6.0000000   6.0000000   6.0000000   6.0000000   6.0000000   1.0000000   1.0000000   1.0000000

  Atom        11          12          13          14          15
 IAtWgt=           1           1          16           1           1
 AtmWgt=   1.0078250   1.0078250  15.9949146   1.0078250   1.0078250
 NucSpn=           1           1           0           1           1
 AtZEff=   0.0000000   0.0000000   0.0000000   0.0000000   0.0000000
 NQMom=    0.0000000   0.0000000   0.0000000   0.0000000   0.0000000
 NMagM=    2.7928460   2.7928460   0.0000000   2.7928460   2.7928460
 AtZNuc=   1.0000000   1.0000000   8.0000000   1.0000000   1.0000000
 Leave Link  101 at Fri Aug 27 00:52:45 2021, MaxMem= 17179869184 cpu:         6.4
 (Enter /public3/home/sc51754/softwares/g09e01/l103.exe)

 GradGradGradGradGradGradGradGradGradGradGradGradGradGradGradGradGradGrad
 Berny optimization.
 Initialization pass.
                           ----------------------------
                           !    Initial Parameters    !
                           ! (Angstroms and Degrees)  !
 --------------------------                            --------------------------
 ! Name  Definition              Value          Derivative Info.                !
 --------------------------------------------------------------------------------
 ! R1    R(1,3)                  1.3393         estimate D2E/DX2                !
 ! R2    R(1,8)                  0.9817         estimate D2E/DX2                !
 ! R3    R(2,3)                  1.3321         estimate D2E/DX2                !
 ! R4    R(2,5)                  1.3398         estimate D2E/DX2                !
 ! R5    R(2,15)                 1.9334         estimate D2E/DX2                !
 ! R6    R(3,4)                  1.4017         estimate D2E/DX2                !
 ! R7    R(4,6)                  1.3785         estimate D2E/DX2                !
 ! R8    R(4,9)                  1.0796         estimate D2E/DX2                !
 ! R9    R(5,7)                  1.3808         estimate D2E/DX2                !
 ! R10   R(5,10)                 1.0831         estimate D2E/DX2                !
 ! R11   R(6,7)                  1.3964         estimate D2E/DX2                !
 ! R12   R(6,11)                 1.0818         estimate D2E/DX2                !
 ! R13   R(7,12)                 1.0797         estimate D2E/DX2                !
 ! R14   R(8,13)                 1.831          estimate D2E/DX2                !
 ! R15   R(8,15)                 1.911          estimate D2E/DX2                !
 ! R16   R(13,14)                0.9606         estimate D2E/DX2                !
 ! R17   R(13,15)                0.9803         estimate D2E/DX2                !
 ! A1    A(3,1,8)              109.7141         estimate D2E/DX2                !
 ! A2    A(3,2,5)              118.3342         estimate D2E/DX2                !
 ! A3    A(3,2,15)             107.2978         estimate D2E/DX2                !
 ! A4    A(5,2,15)             134.3668         estimate D2E/DX2                !
 ! A5    A(1,3,2)              119.0414         estimate D2E/DX2                !
 ! A6    A(1,3,4)              118.3271         estimate D2E/DX2                !
 ! A7    A(2,3,4)              122.6315         estimate D2E/DX2                !
 ! A8    A(3,4,6)              118.1694         estimate D2E/DX2                !
 ! A9    A(3,4,9)              119.4119         estimate D2E/DX2                !
 ! A10   A(6,4,9)              122.4186         estimate D2E/DX2                !
 ! A11   A(2,5,7)              123.3496         estimate D2E/DX2                !
 ! A12   A(2,5,10)             115.832          estimate D2E/DX2                !
 ! A13   A(7,5,10)             120.8184         estimate D2E/DX2                !
 ! A14   A(4,6,7)              119.6513         estimate D2E/DX2                !
 ! A15   A(4,6,11)             119.9667         estimate D2E/DX2                !
 ! A16   A(7,6,11)             120.382          estimate D2E/DX2                !
 ! A17   A(5,7,6)              117.8639         estimate D2E/DX2                !
 ! A18   A(5,7,12)             120.5506         estimate D2E/DX2                !
 ! A19   A(6,7,12)             121.5855         estimate D2E/DX2                !
 ! A20   A(1,8,13)             159.5294         estimate D2E/DX2                !
 ! A21   A(1,8,15)             129.3503         estimate D2E/DX2                !
 ! A22   A(8,13,14)            121.2243         estimate D2E/DX2                !
 ! A23   A(14,13,15)           106.8012         estimate D2E/DX2                !
 ! A24   A(2,15,8)              74.5948         estimate D2E/DX2                !
 ! A25   A(2,15,13)            144.7717         estimate D2E/DX2                !
 ! D1    D(8,1,3,2)              0.4232         estimate D2E/DX2                !
 ! D2    D(8,1,3,4)           -179.5823         estimate D2E/DX2                !
 ! D3    D(3,1,8,13)             4.1107         estimate D2E/DX2                !
 ! D4    D(3,1,8,15)            -0.4785         estimate D2E/DX2                !
 ! D5    D(5,2,3,1)           -179.8646         estimate D2E/DX2                !
 ! D6    D(5,2,3,4)              0.1411         estimate D2E/DX2                !
 ! D7    D(15,2,3,1)            -0.2046         estimate D2E/DX2                !
 ! D8    D(15,2,3,4)           179.8011         estimate D2E/DX2                !
 ! D9    D(3,2,5,7)             -0.1121         estimate D2E/DX2                !
 ! D10   D(3,2,5,10)           179.8324         estimate D2E/DX2                !
 ! D11   D(15,2,5,7)          -179.6581         estimate D2E/DX2                !
 ! D12   D(15,2,5,10)            0.2865         estimate D2E/DX2                !
 ! D13   D(3,2,15,8)            -0.0003         estimate D2E/DX2                !
 ! D14   D(3,2,15,13)           -5.7168         estimate D2E/DX2                !
 ! D15   D(5,2,15,8)           179.5811         estimate D2E/DX2                !
 ! D16   D(5,2,15,13)          173.8646         estimate D2E/DX2                !
 ! D17   D(1,3,4,6)            179.9187         estimate D2E/DX2                !
 ! D18   D(1,3,4,9)              0.0211         estimate D2E/DX2                !
 ! D19   D(2,3,4,6)             -0.0869         estimate D2E/DX2                !
 ! D20   D(2,3,4,9)           -179.9845         estimate D2E/DX2                !
 ! D21   D(3,4,6,7)             -0.0001         estimate D2E/DX2                !
 ! D22   D(3,4,6,11)          -179.9445         estimate D2E/DX2                !
 ! D23   D(9,4,6,7)            179.8942         estimate D2E/DX2                !
 ! D24   D(9,4,6,11)            -0.0502         estimate D2E/DX2                !
 ! D25   D(2,5,7,6)              0.0291         estimate D2E/DX2                !
 ! D26   D(2,5,7,12)           179.968          estimate D2E/DX2                !
 ! D27   D(10,5,7,6)          -179.9128         estimate D2E/DX2                !
 ! D28   D(10,5,7,12)            0.0261         estimate D2E/DX2                !
 ! D29   D(4,6,7,5)              0.0272         estimate D2E/DX2                !
 ! D30   D(4,6,7,12)          -179.911          estimate D2E/DX2                !
 ! D31   D(11,6,7,5)           179.9714         estimate D2E/DX2                !
 ! D32   D(11,6,7,12)            0.0332         estimate D2E/DX2                !
 ! D33   D(1,8,13,14)         -110.3582         estimate D2E/DX2                !
 ! D34   D(1,8,15,2)             0.3164         estimate D2E/DX2                !
 ! D35   D(8,13,14,15)          87.5843         estimate D2E/DX2                !
 ! D36   D(14,13,15,2)         125.4771         estimate D2E/DX2                !
 --------------------------------------------------------------------------------
 Trust Radius=3.00D-01 FncErr=1.00D-07 GrdErr=1.00D-06
 Number of steps in this run=     88 maximum allowed number of steps=    100.
 GradGradGradGradGradGradGradGradGradGradGradGradGradGradGradGradGradGrad

 Leave Link  103 at Fri Aug 27 00:52:45 2021, MaxMem= 17179869184 cpu:         0.1
 (Enter /public3/home/sc51754/softwares/g09e01/l202.exe)
                          Input orientation:                          
 ---------------------------------------------------------------------
 Center     Atomic      Atomic             Coordinates (Angstroms)
 Number     Number       Type             X           Y           Z
 ---------------------------------------------------------------------
      1          8           0        1.216003    1.448553   -0.002617
      2          7           0        0.305942   -0.666194   -0.005465
      3          6           0        0.137014    0.655155   -0.000094
      4          6           0       -1.129757    1.255183    0.008257
      5          6           0       -0.783175   -1.446498   -0.005634
      6          6           0       -2.238124    0.435485    0.009108
      7          6           0       -2.071986   -0.950998    0.001732
      8          1           0        2.030216    0.900227   -0.015295
      9          1           0       -1.206308    2.332099    0.012077
     10          1           0       -0.599059   -2.513820   -0.012944
     11          1           0       -3.229823    0.867678    0.014558
     12          1           0       -2.917952   -1.621952    0.000735
     13          8           0        3.095711   -0.587217   -0.085025
     14          1           0        3.593966   -0.879251    0.682533
     15          1           0        2.209819   -1.002278   -0.022484
 ---------------------------------------------------------------------
                    Distance matrix (angstroms):
                    1          2          3          4          5
     1  O    0.000000
     2  N    2.302254   0.000000
     3  C    1.339292   1.332114   0.000000
     4  C    2.353742   2.398564   1.401718   0.000000
     5  C    3.518244   1.339795   2.294281   2.723856   0.000000
     6  C    3.599644   2.772396   2.385292   1.378544   2.378856
     7  C    4.070471   2.394934   2.731192   2.398973   1.380800
     8  H    0.981715   2.329569   1.909059   3.179934   3.663657
     9  H    2.578461   3.358120   2.148675   1.079640   3.802256
    10  H    4.358320   2.057378   3.253363   3.806241   1.083111
    11  H    4.483646   3.854192   3.373570   2.135527   3.367774
    12  H    5.149524   3.362589   3.810254   3.387566   2.141984
    13  O    2.772085   2.792020   3.210076   4.610609   3.973717
    14  H    3.397471   3.365982   3.843293   5.227238   4.467069
    15  H    2.644738   1.933388   2.654073   4.031109   3.025827
                    6          7          8          9         10
     6  C    0.000000
     7  C    1.396421   0.000000
     8  H    4.293636   4.500598   0.000000
     9  H    2.159120   3.395325   3.539222   0.000000
    10  H    3.374229   2.147590   4.309154   4.883883   0.000000
    11  H    1.081798   2.155999   5.260224   2.497829   4.284414
    12  H    2.166860   1.079740   5.553918   4.308639   2.484528
    13  O    5.431812   5.181212   1.831019   5.199923   4.167532
    14  H    6.016253   5.707158   2.469579   5.814199   4.553786
    15  H    4.674651   4.282181   1.910977   4.773802   3.189772
                   11         12         13         14         15
    11  H    0.000000
    12  H    2.509126   0.000000
    13  O    6.491457   6.102637   0.000000
    14  H    7.075454   6.589501   0.960566   0.000000
    15  H    5.752201   5.165130   0.980302   1.558219   0.000000
 Stoichiometry    C5H7NO2
 Framework group  C1[X(C5H7NO2)]
 Deg. of freedom    39
 Full point group                 C1      NOp   1
 Largest Abelian subgroup         C1      NOp   1
 Largest concise Abelian subgroup C1      NOp   1
                         Standard orientation:                         
 ---------------------------------------------------------------------
 Center     Atomic      Atomic             Coordinates (Angstroms)
 Number     Number       Type             X           Y           Z
 ---------------------------------------------------------------------
      1          8           0        1.216003    1.448553   -0.002617
      2          7           0        0.305942   -0.666194   -0.005465
      3          6           0        0.137014    0.655155   -0.000094
      4          6           0       -1.129757    1.255183    0.008257
      5          6           0       -0.783175   -1.446498   -0.005634
      6          6           0       -2.238124    0.435485    0.009108
      7          6           0       -2.071986   -0.950998    0.001732
      8          1           0        2.030216    0.900227   -0.015295
      9          1           0       -1.206308    2.332099    0.012077
     10          1           0       -0.599059   -2.513820   -0.012944
     11          1           0       -3.229823    0.867678    0.014558
     12          1           0       -2.917952   -1.621952    0.000735
     13          8           0        3.095711   -0.587217   -0.085025
     14          1           0        3.593966   -0.879251    0.682533
     15          1           0        2.209819   -1.002278   -0.022484
 ---------------------------------------------------------------------
 Rotational constants (GHZ):      4.0123302      1.4179596      1.0501753
 Leave Link  202 at Fri Aug 27 00:52:45 2021, MaxMem= 17179869184 cpu:         4.1
 (Enter /public3/home/sc51754/softwares/g09e01/l301.exe)
 General basis read from cards:  (5D, 7F)
 Centers:       8      9     10     11     12     14     15
 S 4 1.00
     Exponent=  7.5423000000D+01 Coefficients=  2.4065000000D-03
     Exponent=  1.1350000000D+01 Coefficients=  1.8487000000D-02
     Exponent=  2.5993000000D+00 Coefficients=  8.9742000000D-02
     Exponent=  7.3513000000D-01 Coefficients=  2.8111000000D-01
 S 1 1.00
     Exponent=  2.3167000000D-01 Coefficients=  1.0000000000D+00
 S 1 1.00
     Exponent=  7.4147000000D-02 Coefficients=  1.0000000000D+00
 P 1 1.00
     Exponent=  1.6000000000D+00 Coefficients=  1.0000000000D+00
 P 1 1.00
     Exponent=  4.5000000000D-01 Coefficients=  1.0000000000D+00
 D 1 1.00
     Exponent=  1.2500000000D+00 Coefficients=  1.0000000000D+00
 ****
 Centers:       3      4      5      6      7
 S 7 1.00
     Exponent=  7.8571000000D+03 Coefficients=  5.6825000000D-04
     Exponent=  1.1787000000D+03 Coefficients=  4.3915000000D-03
     Exponent=  2.6832000000D+02 Coefficients=  2.2504000000D-02
     Exponent=  7.5948000000D+01 Coefficients=  8.6653000000D-02
     Exponent=  2.4559000000D+01 Coefficients=  2.4405000000D-01
     Exponent=  8.6212000000D+00 Coefficients=  4.4148000000D-01
     Exponent=  3.1278000000D+00 Coefficients=  3.5332000000D-01
 S 7 1.00
     Exponent=  1.1787000000D+03 Coefficients= -5.9492000000D-07
     Exponent=  2.6832000000D+02 Coefficients= -6.2748000000D-05
     Exponent=  7.5948000000D+01 Coefficients= -7.5773000000D-04
     Exponent=  2.4559000000D+01 Coefficients= -7.3308000000D-03
     Exponent=  8.6212000000D+00 Coefficients= -3.8932000000D-02
     Exponent=  3.1278000000D+00 Coefficients= -8.8908000000D-02
     Exponent=  8.2202000000D-01 Coefficients=  2.1689000000D-01
 S 1 1.00
     Exponent=  3.3017000000D-01 Coefficients=  1.0000000000D+00
 S 1 1.00
     Exponent=  1.1463000000D-01 Coefficients=  1.0000000000D+00
 P 4 1.00
     Exponent=  3.3775000000D+01 Coefficients=  6.0294000000D-03
     Exponent=  7.6766000000D+00 Coefficients=  4.3228000000D-02
     Exponent=  2.2357000000D+00 Coefficients=  1.6301000000D-01
     Exponent=  7.6447000000D-01 Coefficients=  3.6504000000D-01
 P 1 1.00
     Exponent=  2.6232000000D-01 Coefficients=  1.0000000000D+00
 P 1 1.00
     Exponent=  8.4638000000D-02 Coefficients=  1.0000000000D+00
 D 1 1.00
     Exponent=  1.4000000000D+00 Coefficients=  1.0000000000D+00
 D 1 1.00
     Exponent=  4.5000000000D-01 Coefficients=  1.0000000000D+00
 F 1 1.00
     Exponent=  9.5000000000D-01 Coefficients=  1.0000000000D+00
 ****
 Centers:       2
 S 7 1.00
     Exponent=  1.1101000000D+04 Coefficients=  5.4570000000D-04
     Exponent=  1.6653000000D+03 Coefficients=  4.2181000000D-03
     Exponent=  3.7908000000D+02 Coefficients=  2.1645000000D-02
     Exponent=  1.0730000000D+02 Coefficients=  8.3776000000D-02
     Exponent=  3.4747000000D+01 Coefficients=  2.3881000000D-01
     Exponent=  1.2249000000D+01 Coefficients=  4.3994000000D-01
     Exponent=  4.4743000000D+00 Coefficients=  3.6364000000D-01
 S 7 1.00
     Exponent=  1.6653000000D+03 Coefficients= -1.5006000000D-06
     Exponent=  3.7908000000D+02 Coefficients= -5.8753000000D-05
     Exponent=  1.0730000000D+02 Coefficients= -7.7453000000D-04
     Exponent=  3.4747000000D+01 Coefficients= -7.2161000000D-03
     Exponent=  1.2249000000D+01 Coefficients= -3.9338000000D-02
     Exponent=  4.4743000000D+00 Coefficients= -9.0611000000D-02
     Exponent=  1.2404000000D+00 Coefficients=  1.9882000000D-01
 S 1 1.00
     Exponent=  4.8743000000D-01 Coefficients=  1.0000000000D+00
 S 1 1.00
     Exponent=  1.6484000000D-01 Coefficients=  1.0000000000D+00
 P 4 1.00
     Exponent=  4.7934000000D+01 Coefficients=  6.1706000000D-03
     Exponent=  1.0999000000D+01 Coefficients=  4.4260000000D-02
     Exponent=  3.2472000000D+00 Coefficients=  1.6825000000D-01
     Exponent=  1.1114000000D+00 Coefficients=  3.6848000000D-01
 P 1 1.00
     Exponent=  3.7988000000D-01 Coefficients=  1.0000000000D+00
 P 1 1.00
     Exponent=  1.2068000000D-01 Coefficients=  1.0000000000D+00
 D 1 1.00
     Exponent=  1.8000000000D+00 Coefficients=  1.0000000000D+00
 D 1 1.00
     Exponent=  5.5000000000D-01 Coefficients=  1.0000000000D+00
 F 1 1.00
     Exponent=  1.0200000000D+00 Coefficients=  1.0000000000D+00
 ****
 Centers:       1     13
 S 7 1.00
     Exponent=  1.4782000000D+04 Coefficients=  5.3519000000D-04
     Exponent=  2.2173000000D+03 Coefficients=  4.1375000000D-03
     Exponent=  5.0474000000D+02 Coefficients=  2.1245000000D-02
     Exponent=  1.4287000000D+02 Coefficients=  8.2453000000D-02
     Exponent=  4.6300000000D+01 Coefficients=  2.3671000000D-01
     Exponent=  1.6337000000D+01 Coefficients=  4.4039000000D-01
     Exponent=  5.9828000000D+00 Coefficients=  3.6465000000D-01
 S 7 1.00
     Exponent=  2.2173000000D+03 Coefficients= -1.9275000000D-06
     Exponent=  5.0474000000D+02 Coefficients= -5.7964000000D-05
     Exponent=  1.4287000000D+02 Coefficients= -7.9494000000D-04
     Exponent=  4.6300000000D+01 Coefficients= -7.3125000000D-03
     Exponent=  1.6337000000D+01 Coefficients= -4.0574000000D-02
     Exponent=  5.9828000000D+00 Coefficients= -9.1594000000D-02
     Exponent=  1.6718000000D+00 Coefficients=  2.0940000000D-01
 S 1 1.00
     Exponent=  6.4662000000D-01 Coefficients=  1.0000000000D+00
 S 1 1.00
     Exponent=  2.1669000000D-01 Coefficients=  1.0000000000D+00
 P 4 1.00
     Exponent=  6.0424000000D+01 Coefficients=  6.8949000000D-03
     Exponent=  1.3935000000D+01 Coefficients=  4.9005000000D-02
     Exponent=  4.1531000000D+00 Coefficients=  1.8255000000D-01
     Exponent=  1.4158000000D+00 Coefficients=  3.7633000000D-01
 P 1 1.00
     Exponent=  4.7549000000D-01 Coefficients=  1.0000000000D+00
 P 1 1.00
     Exponent=  1.4529000000D-01 Coefficients=  1.0000000000D+00
 D 1 1.00
     Exponent=  2.2000000000D+00 Coefficients=  1.0000000000D+00
 D 1 1.00
     Exponent=  6.5000000000D-01 Coefficients=  1.0000000000D+00
 F 1 1.00
     Exponent=  1.1000000000D+00 Coefficients=  1.0000000000D+00
 ****
 Ernie: Thresh=  0.10000D-02 Tol=  0.10000D-05 Strict=F.
 Ernie:  8 primitive shells out of 263 were deleted.
 There are   385 symmetry adapted cartesian basis functions of A   symmetry.
 There are   338 symmetry adapted basis functions of A   symmetry.
   338 basis functions,   566 primitive gaussians,   385 cartesian basis functions
    30 alpha electrons       30 beta electrons
       nuclear repulsion energy       357.6226221683 Hartrees.
 IExCor= 4437 DFT=T Ex+Corr=wB97 ExCW=0 ScaHFX=  1.000000
 ScaDFX=  1.000000  1.000000  1.000000  1.000000 ScalE2=  1.000000  1.000000
 IRadAn=      0 IRanWt=     -1 IRanGd=            0 ICorTp=0 IEmpDi=  4
  HFx wShort=  0.000000 wLong=  0.400000 cFull=  0.000000 cShort=  0.000000 cLong=  1.000000
  DFx wShort=  0.000000 wLong=  0.400000 cFull=  0.000000 cShort=  0.000000 cLong=  1.000000
 NAtoms=   15 NActive=   15 NUniq=   15 SFac= 1.00D+00 NAtFMM=   60 NAOKFM=F Big=F
 Integral buffers will be    131072 words long.
 Raffenetti 2 integral format.
 Two-electron integral symmetry is turned on.
 Leave Link  301 at Fri Aug 27 00:52:45 2021, MaxMem= 17179869184 cpu:         1.8
 (Enter /public3/home/sc51754/softwares/g09e01/l302.exe)
 NPDir=0 NMtPBC=     1 NCelOv=     1 NCel=       1 NClECP=     1 NCelD=      1
         NCelK=      1 NCelE2=     1 NClLst=     1 CellRange=     0.0.
 One-electron integrals computed using PRISM.
 NBasis=   338 RedAO= T EigKep=  1.46D-04  NBF=   338
 NBsUse=   338 1.00D-06 EigRej= -1.00D+00 NBFU=   338
 Precomputing XC quadrature grid using
 IXCGrd= 4 IRadAn=           0 IRanWt=          -1 IRanGd=           0 AccXCQ= 0.00D+00.
 Generated NRdTot=       0 NPtTot=           0 NUsed=           0 NTot=          32
 NSgBfM=   384   384   384   384   385 MxSgAt=    15 MxSgA2=    15.
 Leave Link  302 at Fri Aug 27 00:52:46 2021, MaxMem= 17179869184 cpu:        44.7
 (Enter /public3/home/sc51754/softwares/g09e01/l303.exe)
 DipDrv:  MaxL=1.
 Leave Link  303 at Fri Aug 27 00:52:47 2021, MaxMem= 17179869184 cpu:        16.3
 (Enter /public3/home/sc51754/softwares/g09e01/l401.exe)
 ExpMin= 7.41D-02 ExpMax= 1.48D+04 ExpMxC= 5.05D+02 IAcc=2 IRadAn=         4 AccDes= 0.00D+00
 Harris functional with IExCor= 4437 and IRadAn=       4 diagonalized for initial guess.
 HarFok:  IExCor= 4437 AccDes= 0.00D+00 IRadAn=         4 IDoV= 1 UseB2=F ITyADJ=14
 ICtDFT=  3500011 ScaDFX=  1.000000  1.000000  1.000000  1.000000
 FoFCou: FMM=F IPFlag=           0 FMFlag=      100000 FMFlg1=           0
         NFxFlg=           0 DoJE=T BraDBF=F KetDBF=T FulRan=T
         wScrn=  0.000000 ICntrl=     500 IOpCl=  0 I1Cent=   200000004 NGrid=           0
         NMat0=    1 NMatS0=      1 NMatT0=    0 NMatD0=    1 NMtDS0=    0 NMtDT0=    0
 Petite list used in FoFCou.
 Harris En= -388.028480545035    
 JPrj=0 DoOrth=F DoCkMO=F.
 Leave Link  401 at Fri Aug 27 00:52:48 2021, MaxMem= 17179869184 cpu:        48.0
 (Enter /public3/home/sc51754/softwares/g09e01/l502.exe)
 Closed shell SCF:
 Using DIIS extrapolation, IDIIS=  1040.
 Integral symmetry usage will be decided dynamically.
 Keep R1 ints in memory in canonical form, NReq=3311562672.
 IVT=      490665 IEndB=      490665 NGot= 17179869184 MDV= 13897062548
 LenX= 13897062548 LenY= 13896913882
 Requested convergence on RMS density matrix=1.00D-08 within 128 cycles.
 Requested convergence on MAX density matrix=1.00D-06.
 Requested convergence on             energy=1.00D-06.
 No special actions if energy rises.
 FoFCou: FMM=F IPFlag=           0 FMFlag=           0 FMFlg1=           0
         NFxFlg=           0 DoJE=F BraDBF=F KetDBF=F FulRan=T
         wScrn=  0.000000 ICntrl=     600 IOpCl=  0 I1Cent=           0 NGrid=           0
         NMat0=    1 NMatS0=  57291 NMatT0=    0 NMatD0=    1 NMtDS0=    0 NMtDT0=    0
 Symmetry not used in FoFCou.
 Integral accuracy reduced to 1.0D-05 until final iterations.

 Cycle   1  Pass 0  IDiag  1:
 E= -399.966648723450    
 DIIS: error= 1.30D-02 at cycle   1 NSaved=   1.
 NSaved= 1 IEnMin= 1 EnMin= -399.966648723450     IErMin= 1 ErrMin= 1.30D-02
 ErrMax= 1.30D-02  0.00D+00 EMaxC= 1.00D-01 BMatC= 1.09D-01 BMatP= 1.09D-01
 IDIUse=3 WtCom= 8.70D-01 WtEn= 1.30D-01
 Coeff-Com:  0.100D+01
 Coeff-En:   0.100D+01
 Coeff:      0.100D+01
 Gap=     0.388 Goal=   None    Shift=    0.000
 GapD=    0.388 DampG=1.000 DampE=0.500 DampFc=0.5000 IDamp=-1.
 Damping current iteration by 5.00D-01
 RMSDP=1.14D-03 MaxDP=7.03D-02              OVMax= 1.11D-01

 Cycle   2  Pass 0  IDiag  1:
 E= -400.009794493152     Delta-E=       -0.043145769702 Rises=F Damp=T
 DIIS: error= 4.93D-03 at cycle   2 NSaved=   2.
 NSaved= 2 IEnMin= 2 EnMin= -400.009794493152     IErMin= 2 ErrMin= 4.93D-03
 ErrMax= 4.93D-03  0.00D+00 EMaxC= 1.00D-01 BMatC= 6.98D-03 BMatP= 1.09D-01
 IDIUse=3 WtCom= 9.51D-01 WtEn= 4.93D-02
 Coeff-Com: -0.872D-01 0.109D+01
 Coeff-En:   0.000D+00 0.100D+01
 Coeff:     -0.829D-01 0.108D+01
 Gap=     0.392 Goal=   None    Shift=    0.000
 RMSDP=4.03D-04 MaxDP=1.54D-02 DE=-4.31D-02 OVMax= 4.94D-02

 Cycle   3  Pass 0  IDiag  1:
 E= -400.051502644532     Delta-E=       -0.041708151380 Rises=F Damp=F
 DIIS: error= 1.64D-03 at cycle   3 NSaved=   3.
 NSaved= 3 IEnMin= 3 EnMin= -400.051502644532     IErMin= 3 ErrMin= 1.64D-03
 ErrMax= 1.64D-03  0.00D+00 EMaxC= 1.00D-01 BMatC= 1.43D-03 BMatP= 6.98D-03
 IDIUse=3 WtCom= 9.84D-01 WtEn= 1.64D-02
 Coeff-Com: -0.739D-01 0.291D+00 0.783D+00
 Coeff-En:   0.000D+00 0.000D+00 0.100D+01
 Coeff:     -0.727D-01 0.286D+00 0.786D+00
 Gap=     0.387 Goal=   None    Shift=    0.000
 RMSDP=1.12D-04 MaxDP=7.08D-03 DE=-4.17D-02 OVMax= 1.19D-02

 Cycle   4  Pass 0  IDiag  1:
 E= -400.052578345151     Delta-E=       -0.001075700619 Rises=F Damp=F
 DIIS: error= 6.45D-04 at cycle   4 NSaved=   4.
 NSaved= 4 IEnMin= 4 EnMin= -400.052578345151     IErMin= 4 ErrMin= 6.45D-04
 ErrMax= 6.45D-04  0.00D+00 EMaxC= 1.00D-01 BMatC= 2.61D-04 BMatP= 1.43D-03
 IDIUse=3 WtCom= 9.94D-01 WtEn= 6.45D-03
 Coeff-Com: -0.209D-01 0.308D-02 0.313D+00 0.705D+00
 Coeff-En:   0.000D+00 0.000D+00 0.000D+00 0.100D+01
 Coeff:     -0.208D-01 0.306D-02 0.311D+00 0.707D+00
 Gap=     0.388 Goal=   None    Shift=    0.000
 RMSDP=4.36D-05 MaxDP=3.80D-03 DE=-1.08D-03 OVMax= 3.89D-03

 Cycle   5  Pass 0  IDiag  1:
 E= -400.052801773287     Delta-E=       -0.000223428136 Rises=F Damp=F
 DIIS: error= 1.33D-04 at cycle   5 NSaved=   5.
 NSaved= 5 IEnMin= 5 EnMin= -400.052801773287     IErMin= 5 ErrMin= 1.33D-04
 ErrMax= 1.33D-04  0.00D+00 EMaxC= 1.00D-01 BMatC= 1.10D-05 BMatP= 2.61D-04
 IDIUse=3 WtCom= 9.99D-01 WtEn= 1.33D-03
 Coeff-Com: -0.258D-02-0.143D-01 0.405D-01 0.183D+00 0.794D+00
 Coeff-En:   0.000D+00 0.000D+00 0.000D+00 0.000D+00 0.100D+01
 Coeff:     -0.257D-02-0.143D-01 0.404D-01 0.183D+00 0.794D+00
 Gap=     0.388 Goal=   None    Shift=    0.000
 RMSDP=1.45D-05 MaxDP=5.55D-04 DE=-2.23D-04 OVMax= 1.40D-03

 Cycle   6  Pass 0  IDiag  1:
 E= -400.052815289082     Delta-E=       -0.000013515795 Rises=F Damp=F
 DIIS: error= 9.09D-05 at cycle   6 NSaved=   6.
 NSaved= 6 IEnMin= 6 EnMin= -400.052815289082     IErMin= 6 ErrMin= 9.09D-05
 ErrMax= 9.09D-05  0.00D+00 EMaxC= 1.00D-01 BMatC= 2.64D-06 BMatP= 1.10D-05
 IDIUse=1 WtCom= 1.00D+00 WtEn= 0.00D+00
 Coeff-Com:  0.148D-02-0.615D-02-0.268D-01-0.311D-01 0.300D+00 0.763D+00
 Coeff:      0.148D-02-0.615D-02-0.268D-01-0.311D-01 0.300D+00 0.763D+00
 Gap=     0.388 Goal=   None    Shift=    0.000
 RMSDP=6.33D-06 MaxDP=2.84D-04 DE=-1.35D-05 OVMax= 7.58D-04

 Initial convergence to 1.0D-05 achieved.  Increase integral accuracy.
 Cycle   7  Pass 1  IDiag  1:
 E= -400.052452248404     Delta-E=        0.000363040679 Rises=F Damp=F
 DIIS: error= 5.91D-05 at cycle   1 NSaved=   1.
 NSaved= 1 IEnMin= 1 EnMin= -400.052452248404     IErMin= 1 ErrMin= 5.91D-05
 ErrMax= 5.91D-05  0.00D+00 EMaxC= 1.00D-01 BMatC= 3.22D-06 BMatP= 3.22D-06
 IDIUse=1 WtCom= 1.00D+00 WtEn= 0.00D+00
 Coeff-Com:  0.100D+01
 Coeff:      0.100D+01
 Gap=     0.388 Goal=   None    Shift=    0.000
 RMSDP=6.33D-06 MaxDP=2.84D-04 DE= 3.63D-04 OVMax= 5.01D-04

 Cycle   8  Pass 1  IDiag  1:
 E= -400.052454094305     Delta-E=       -0.000001845901 Rises=F Damp=F
 DIIS: error= 2.88D-05 at cycle   2 NSaved=   2.
 NSaved= 2 IEnMin= 2 EnMin= -400.052454094305     IErMin= 2 ErrMin= 2.88D-05
 ErrMax= 2.88D-05  0.00D+00 EMaxC= 1.00D-01 BMatC= 1.51D-07 BMatP= 3.22D-06
 IDIUse=1 WtCom= 1.00D+00 WtEn= 0.00D+00
 Coeff-Com: -0.297D-03 0.100D+01
 Coeff:     -0.297D-03 0.100D+01
 Gap=     0.389 Goal=   None    Shift=    0.000
 RMSDP=1.62D-06 MaxDP=6.27D-05 DE=-1.85D-06 OVMax= 2.84D-04

 Cycle   9  Pass 1  IDiag  1:
 E= -400.052454248864     Delta-E=       -0.000000154560 Rises=F Damp=F
 DIIS: error= 1.81D-05 at cycle   3 NSaved=   3.
 NSaved= 3 IEnMin= 3 EnMin= -400.052454248864     IErMin= 3 ErrMin= 1.81D-05
 ErrMax= 1.81D-05  0.00D+00 EMaxC= 1.00D-01 BMatC= 1.12D-07 BMatP= 1.51D-07
 IDIUse=1 WtCom= 1.00D+00 WtEn= 0.00D+00
 Coeff-Com: -0.419D-01 0.475D+00 0.567D+00
 Coeff:     -0.419D-01 0.475D+00 0.567D+00
 Gap=     0.388 Goal=   None    Shift=    0.000
 RMSDP=7.15D-07 MaxDP=3.13D-05 DE=-1.55D-07 OVMax= 1.52D-04

 Cycle  10  Pass 1  IDiag  1:
 E= -400.052454361555     Delta-E=       -0.000000112691 Rises=F Damp=F
 DIIS: error= 9.58D-06 at cycle   4 NSaved=   4.
 NSaved= 4 IEnMin= 4 EnMin= -400.052454361555     IErMin= 4 ErrMin= 9.58D-06
 ErrMax= 9.58D-06  0.00D+00 EMaxC= 1.00D-01 BMatC= 6.31D-09 BMatP= 1.12D-07
 IDIUse=1 WtCom= 1.00D+00 WtEn= 0.00D+00
 Coeff-Com: -0.566D-04-0.106D+00 0.280D-01 0.108D+01
 Coeff:     -0.566D-04-0.106D+00 0.280D-01 0.108D+01
 Gap=     0.388 Goal=   None    Shift=    0.000
 RMSDP=4.82D-07 MaxDP=1.66D-05 DE=-1.13D-07 OVMax= 1.06D-04

 Cycle  11  Pass 1  IDiag  1:
 E= -400.052454389467     Delta-E=       -0.000000027912 Rises=F Damp=F
 DIIS: error= 3.75D-06 at cycle   5 NSaved=   5.
 NSaved= 5 IEnMin= 5 EnMin= -400.052454389467     IErMin= 5 ErrMin= 3.75D-06
 ErrMax= 3.75D-06  0.00D+00 EMaxC= 1.00D-01 BMatC= 2.16D-09 BMatP= 6.31D-09
 IDIUse=1 WtCom= 1.00D+00 WtEn= 0.00D+00
 Coeff-Com:  0.126D-01-0.183D+00-0.140D+00 0.396D+00 0.914D+00
 Coeff:      0.126D-01-0.183D+00-0.140D+00 0.396D+00 0.914D+00
 Gap=     0.388 Goal=   None    Shift=    0.000
 RMSDP=3.16D-07 MaxDP=1.10D-05 DE=-2.79D-08 OVMax= 7.49D-05

 Cycle  12  Pass 1  IDiag  1:
 E= -400.052454398550     Delta-E=       -0.000000009082 Rises=F Damp=F
 DIIS: error= 1.88D-06 at cycle   6 NSaved=   6.
 NSaved= 6 IEnMin= 6 EnMin= -400.052454398550     IErMin= 6 ErrMin= 1.88D-06
 ErrMax= 1.88D-06  0.00D+00 EMaxC= 1.00D-01 BMatC= 2.71D-10 BMatP= 2.16D-09
 IDIUse=1 WtCom= 1.00D+00 WtEn= 0.00D+00
 Coeff-Com:  0.311D-02-0.252D-01-0.327D-01-0.108D+00 0.205D+00 0.958D+00
 Coeff:      0.311D-02-0.252D-01-0.327D-01-0.108D+00 0.205D+00 0.958D+00
 Gap=     0.389 Goal=   None    Shift=    0.000
 RMSDP=1.23D-07 MaxDP=4.32D-06 DE=-9.08D-09 OVMax= 3.19D-05

 Cycle  13  Pass 1  IDiag  1:
 E= -400.052454399805     Delta-E=       -0.000000001255 Rises=F Damp=F
 DIIS: error= 4.28D-07 at cycle   7 NSaved=   7.
 NSaved= 7 IEnMin= 7 EnMin= -400.052454399805     IErMin= 7 ErrMin= 4.28D-07
 ErrMax= 4.28D-07  0.00D+00 EMaxC= 1.00D-01 BMatC= 4.92D-11 BMatP= 2.71D-10
 IDIUse=1 WtCom= 1.00D+00 WtEn= 0.00D+00
 Coeff-Com: -0.963D-03 0.195D-01 0.134D-01-0.913D-01-0.784D-01 0.282D+00
 Coeff-Com:  0.856D+00
 Coeff:     -0.963D-03 0.195D-01 0.134D-01-0.913D-01-0.784D-01 0.282D+00
 Coeff:      0.856D+00
 Gap=     0.389 Goal=   None    Shift=    0.000
 RMSDP=4.10D-08 MaxDP=1.35D-06 DE=-1.26D-09 OVMax= 1.04D-05

 Cycle  14  Pass 1  IDiag  1:
 E= -400.052454399946     Delta-E=       -0.000000000141 Rises=F Damp=F
 DIIS: error= 1.95D-07 at cycle   8 NSaved=   8.
 NSaved= 8 IEnMin= 8 EnMin= -400.052454399946     IErMin= 8 ErrMin= 1.95D-07
 ErrMax= 1.95D-07  0.00D+00 EMaxC= 1.00D-01 BMatC= 7.64D-12 BMatP= 4.92D-11
 IDIUse=1 WtCom= 1.00D+00 WtEn= 0.00D+00
 Coeff-Com: -0.830D-03 0.973D-02 0.104D-01-0.371D-02-0.585D-01-0.127D+00
 Coeff-Com:  0.211D+00 0.959D+00
 Coeff:     -0.830D-03 0.973D-02 0.104D-01-0.371D-02-0.585D-01-0.127D+00
 Coeff:      0.211D+00 0.959D+00
 Gap=     0.389 Goal=   None    Shift=    0.000
 RMSDP=1.96D-08 MaxDP=6.81D-07 DE=-1.41D-10 OVMax= 4.74D-06

 Cycle  15  Pass 1  IDiag  1:
 E= -400.052454399969     Delta-E=       -0.000000000023 Rises=F Damp=F
 DIIS: error= 5.36D-08 at cycle   9 NSaved=   9.
 NSaved= 9 IEnMin= 9 EnMin= -400.052454399969     IErMin= 9 ErrMin= 5.36D-08
 ErrMax= 5.36D-08  0.00D+00 EMaxC= 1.00D-01 BMatC= 6.73D-13 BMatP= 7.64D-12
 IDIUse=1 WtCom= 1.00D+00 WtEn= 0.00D+00
 Coeff-Com: -0.205D-04-0.673D-03 0.291D-03 0.825D-02 0.418D-02-0.500D-01
 Coeff-Com: -0.597D-01 0.149D+00 0.949D+00
 Coeff:     -0.205D-04-0.673D-03 0.291D-03 0.825D-02 0.418D-02-0.500D-01
 Coeff:     -0.597D-01 0.149D+00 0.949D+00
 Gap=     0.389 Goal=   None    Shift=    0.000
 RMSDP=5.07D-09 MaxDP=2.10D-07 DE=-2.34D-11 OVMax= 9.85D-07

 SCF Done:  E(RwB97) =  -400.052454400     A.U. after   15 cycles
            NFock= 15  Conv=0.51D-08     -V/T= 2.0037
 KE= 3.985638385975D+02 PE=-1.650899684993D+03 EE= 4.946607698273D+02
 Leave Link  502 at Fri Aug 27 00:53:14 2021, MaxMem= 17179869184 cpu:       453.6
 (Enter /public3/home/sc51754/softwares/g09e01/l601.exe)
 Copying SCF densities to generalized density rwf, IOpCl= 0 IROHF=0.

 **********************************************************************

            Population analysis using the SCF density.

 **********************************************************************

 Orbital symmetries:
       Occupied  (A) (A) (A) (A) (A) (A) (A) (A) (A) (A) (A) (A)
                 (A) (A) (A) (A) (A) (A) (A) (A) (A) (A) (A) (A)
                 (A) (A) (A) (A) (A) (A)
       Virtual   (A) (A) (A) (A) (A) (A) (A) (A) (A) (A) (A) (A)
                 (A) (A) (A) (A) (A) (A) (A) (A) (A) (A) (A) (A)
                 (A) (A) (A) (A) (A) (A) (A) (A) (A) (A) (A) (A)
                 (A) (A) (A) (A) (A) (A) (A) (A) (A) (A) (A) (A)
                 (A) (A) (A) (A) (A) (A) (A) (A) (A) (A) (A) (A)
                 (A) (A) (A) (A) (A) (A) (A) (A) (A) (A) (A) (A)
                 (A) (A) (A) (A) (A) (A) (A) (A) (A) (A) (A) (A)
                 (A) (A) (A) (A) (A) (A) (A) (A) (A) (A) (A) (A)
                 (A) (A) (A) (A) (A) (A) (A) (A) (A) (A) (A) (A)
                 (A) (A) (A) (A) (A) (A) (A) (A) (A) (A) (A) (A)
                 (A) (A) (A) (A) (A) (A) (A) (A) (A) (A) (A) (A)
                 (A) (A) (A) (A) (A) (A) (A) (A) (A) (A) (A) (A)
                 (A) (A) (A) (A) (A) (A) (A) (A) (A) (A) (A) (A)
                 (A) (A) (A) (A) (A) (A) (A) (A) (A) (A) (A) (A)
                 (A) (A) (A) (A) (A) (A) (A) (A) (A) (A) (A) (A)
                 (A) (A) (A) (A) (A) (A) (A) (A) (A) (A) (A) (A)
                 (A) (A) (A) (A) (A) (A) (A) (A) (A) (A) (A) (A)
                 (A) (A) (A) (A) (A) (A) (A) (A) (A) (A) (A) (A)
                 (A) (A) (A) (A) (A) (A) (A) (A) (A) (A) (A) (A)
                 (A) (A) (A) (A) (A) (A) (A) (A) (A) (A) (A) (A)
                 (A) (A) (A) (A) (A) (A) (A) (A) (A) (A) (A) (A)
                 (A) (A) (A) (A) (A) (A) (A) (A) (A) (A) (A) (A)
                 (A) (A) (A) (A) (A) (A) (A) (A) (A) (A) (A) (A)
                 (A) (A) (A) (A) (A) (A) (A) (A) (A) (A) (A) (A)
                 (A) (A) (A) (A) (A) (A) (A) (A) (A) (A) (A) (A)
                 (A) (A) (A) (A) (A) (A) (A) (A)
 The electronic state is 1-A.
 Alpha  occ. eigenvalues --  -19.01908 -18.99747 -14.23989 -10.23815 -10.18257
 Alpha  occ. eigenvalues --  -10.16410 -10.14386 -10.14143  -1.21202  -1.14458
 Alpha  occ. eigenvalues --   -1.09270  -0.96355  -0.90952  -0.79156  -0.77077
 Alpha  occ. eigenvalues --   -0.68854  -0.66923  -0.64144  -0.61313  -0.57583
 Alpha  occ. eigenvalues --   -0.57466  -0.53909  -0.52703  -0.50917  -0.48719
 Alpha  occ. eigenvalues --   -0.48118  -0.44143  -0.40595  -0.39805  -0.34200
 Alpha virt. eigenvalues --    0.04651   0.07726   0.09884   0.10926   0.12231
 Alpha virt. eigenvalues --    0.13887   0.15243   0.18477   0.20181   0.23058
 Alpha virt. eigenvalues --    0.23466   0.24631   0.25442   0.27088   0.27890
 Alpha virt. eigenvalues --    0.28391   0.29359   0.30045   0.32140   0.34202
 Alpha virt. eigenvalues --    0.35473   0.36710   0.37248   0.38195   0.38461
 Alpha virt. eigenvalues --    0.39267   0.40347   0.41781   0.42472   0.43728
 Alpha virt. eigenvalues --    0.45400   0.46577   0.47119   0.48132   0.49088
 Alpha virt. eigenvalues --    0.51376   0.51793   0.53489   0.54903   0.57345
 Alpha virt. eigenvalues --    0.59839   0.61758   0.62211   0.63360   0.64396
 Alpha virt. eigenvalues --    0.68715   0.72595   0.73176   0.74468   0.75512
 Alpha virt. eigenvalues --    0.76969   0.77810   0.79474   0.82616   0.84788
 Alpha virt. eigenvalues --    0.88328   0.89773   0.92802   0.93344   0.96110
 Alpha virt. eigenvalues --    0.99954   1.01481   1.02595   1.03970   1.05521
 Alpha virt. eigenvalues --    1.06909   1.08964   1.09586   1.11001   1.13560
 Alpha virt. eigenvalues --    1.15122   1.19645   1.20896   1.21249   1.23933
 Alpha virt. eigenvalues --    1.25189   1.26357   1.26829   1.28348   1.29571
 Alpha virt. eigenvalues --    1.31657   1.32454   1.35657   1.37461   1.39053
 Alpha virt. eigenvalues --    1.40554   1.41694   1.43194   1.44517   1.45880
 Alpha virt. eigenvalues --    1.53432   1.53779   1.56194   1.56541   1.60439
 Alpha virt. eigenvalues --    1.62345   1.62819   1.64141   1.66443   1.67842
 Alpha virt. eigenvalues --    1.69788   1.70543   1.72802   1.74071   1.77070
 Alpha virt. eigenvalues --    1.78364   1.79394   1.81750   1.82460   1.86086
 Alpha virt. eigenvalues --    1.89148   1.92785   1.94198   1.96822   1.98980
 Alpha virt. eigenvalues --    1.99015   2.00372   2.01676   2.03056   2.07972
 Alpha virt. eigenvalues --    2.10408   2.10907   2.13564   2.16450   2.20273
 Alpha virt. eigenvalues --    2.23850   2.25805   2.26463   2.29035   2.30408
 Alpha virt. eigenvalues --    2.31327   2.35015   2.36987   2.37825   2.40337
 Alpha virt. eigenvalues --    2.43440   2.51641   2.54603   2.62537   2.74305
 Alpha virt. eigenvalues --    2.81011   2.91522   2.97886   3.05722   3.07753
 Alpha virt. eigenvalues --    3.10791   3.14891   3.26432   3.29524   3.31557
 Alpha virt. eigenvalues --    3.33726   3.36761   3.36851   3.41590   3.47028
 Alpha virt. eigenvalues --    3.48517   3.49251   3.50168   3.53311   3.54037
 Alpha virt. eigenvalues --    3.56866   3.58755   3.61606   3.64003   3.68599
 Alpha virt. eigenvalues --    3.69663   3.71519   3.72847   3.73427   3.75148
 Alpha virt. eigenvalues --    3.79109   3.79929   3.81357   3.84072   3.85643
 Alpha virt. eigenvalues --    3.89426   3.90748   3.91781   3.94630   3.98332
 Alpha virt. eigenvalues --    4.01389   4.02937   4.04480   4.05398   4.08360
 Alpha virt. eigenvalues --    4.11193   4.12454   4.15844   4.17195   4.17513
 Alpha virt. eigenvalues --    4.18957   4.20335   4.21470   4.24537   4.27575
 Alpha virt. eigenvalues --    4.28668   4.28866   4.29063   4.31250   4.32879
 Alpha virt. eigenvalues --    4.34044   4.36173   4.38426   4.39934   4.41825
 Alpha virt. eigenvalues --    4.42396   4.42856   4.44536   4.45904   4.49704
 Alpha virt. eigenvalues --    4.50129   4.51451   4.52328   4.54584   4.54974
 Alpha virt. eigenvalues --    4.56491   4.56799   4.58080   4.58768   4.61623
 Alpha virt. eigenvalues --    4.62781   4.63546   4.64762   4.67391   4.69485
 Alpha virt. eigenvalues --    4.70990   4.72882   4.75575   4.76501   4.77470
 Alpha virt. eigenvalues --    4.79725   4.84389   4.86238   4.87562   4.92948
 Alpha virt. eigenvalues --    4.93708   4.97584   5.00193   5.00466   5.02040
 Alpha virt. eigenvalues --    5.03046   5.06529   5.08209   5.11940   5.13622
 Alpha virt. eigenvalues --    5.16252   5.20389   5.21293   5.25413   5.30379
 Alpha virt. eigenvalues --    5.30752   5.33566   5.34516   5.39015   5.44121
 Alpha virt. eigenvalues --    5.44879   5.45739   5.50106   5.51147   5.52338
 Alpha virt. eigenvalues --    5.54362   5.57210   5.57901   5.64110   5.66086
 Alpha virt. eigenvalues --    5.72884   5.73306   5.77744   5.80302   5.88372
 Alpha virt. eigenvalues --    5.89995   5.92003   5.95157   6.03371   6.07876
 Alpha virt. eigenvalues --    6.12632   6.15185   6.16652   6.17688   6.21788
 Alpha virt. eigenvalues --    6.29815   6.33020   6.34036   6.35146   6.39288
 Alpha virt. eigenvalues --    6.39620   6.41643   6.46735   6.51577   6.58714
 Alpha virt. eigenvalues --    6.62544   6.70114   6.73688   6.80667   6.98648
 Alpha virt. eigenvalues --    7.03122   7.06845   7.23251   7.43136   7.52573
 Alpha virt. eigenvalues --    9.37417  12.22082  12.77489  15.55939  15.59202
 Alpha virt. eigenvalues --   17.43321  18.69513  22.33766
          Condensed to atoms (all electrons):
               1          2          3          4          5          6
     1  O    7.897842  -0.088961   0.332154  -0.066464   0.004912   0.007474
     2  N   -0.088961   6.799594   0.494893  -0.022692   0.478409  -0.034610
     3  C    0.332154   0.494893   4.303721   0.538016  -0.068164  -0.041603
     4  C   -0.066464  -0.022692   0.538016   4.772894  -0.032299   0.538799
     5  C    0.004912   0.478409  -0.068164  -0.032299   4.510763  -0.066743
     6  C    0.007474  -0.034610  -0.041603   0.538799  -0.066743   4.658993
     7  C   -0.000166  -0.028980  -0.048751  -0.047451   0.545967   0.502426
     8  H    0.354335   0.005076  -0.020317   0.004130   0.000468  -0.000756
     9  H    0.002763   0.005105  -0.037686   0.450392  -0.001477  -0.035034
    10  H   -0.000408  -0.039675   0.004112  -0.003042   0.460070   0.007331
    11  H   -0.000270  -0.001923   0.006824  -0.039438   0.007700   0.448164
    12  H    0.000032   0.005340  -0.000951   0.006619  -0.032515  -0.036724
    13  O   -0.029186  -0.039275  -0.005872   0.000543  -0.000428   0.000160
    14  H    0.001028   0.001965   0.000376   0.000091  -0.000055  -0.000008
    15  H   -0.000393   0.019426  -0.002613   0.000451   0.001726  -0.000213
               7          8          9         10         11         12
     1  O   -0.000166   0.354335   0.002763  -0.000408  -0.000270   0.000032
     2  N   -0.028980   0.005076   0.005105  -0.039675  -0.001923   0.005340
     3  C   -0.048751  -0.020317  -0.037686   0.004112   0.006824  -0.000951
     4  C   -0.047451   0.004130   0.450392  -0.003042  -0.039438   0.006619
     5  C    0.545967   0.000468  -0.001477   0.460070   0.007700  -0.032515
     6  C    0.502426  -0.000756  -0.035034   0.007331   0.448164  -0.036724
     7  C    4.854720   0.000032   0.006306  -0.058324  -0.044090   0.447728
     8  H    0.000032   0.393562   0.000254   0.000025   0.000005  -0.000001
     9  H    0.006306   0.000254   0.568792   0.000131  -0.006586   0.000074
    10  H   -0.058324   0.000025   0.000131   0.598379   0.000036  -0.004411
    11  H   -0.044090   0.000005  -0.006586   0.000036   0.589399  -0.006892
    12  H    0.447728  -0.000001   0.000074  -0.004411  -0.006892   0.584128
    13  O   -0.000341   0.048950  -0.000005   0.000096  -0.000003   0.000005
    14  H    0.000034  -0.002561  -0.000001  -0.000004  -0.000000  -0.000000
    15  H    0.000691  -0.006444  -0.000044  -0.000456   0.000016  -0.000025
              13         14         15
     1  O   -0.029186   0.001028  -0.000393
     2  N   -0.039275   0.001965   0.019426
     3  C   -0.005872   0.000376  -0.002613
     4  C    0.000543   0.000091   0.000451
     5  C   -0.000428  -0.000055   0.001726
     6  C    0.000160  -0.000008  -0.000213
     7  C   -0.000341   0.000034   0.000691
     8  H    0.048950  -0.002561  -0.006444
     9  H   -0.000005  -0.000001  -0.000044
    10  H    0.000096  -0.000004  -0.000456
    11  H   -0.000003  -0.000000   0.000016
    12  H    0.000005  -0.000000  -0.000025
    13  O    7.758851   0.359340   0.346653
    14  H    0.359340   0.436730  -0.020038
    15  H    0.346653  -0.020038   0.427060
 Mulliken charges:
               1
     1  O   -0.414692
     2  N   -0.553693
     3  C    0.545862
     4  C   -0.100549
     5  C    0.191666
     6  C    0.052345
     7  C   -0.129803
     8  H    0.223240
     9  H    0.047014
    10  H    0.036139
    11  H    0.047057
    12  H    0.037593
    13  O   -0.439487
    14  H    0.223102
    15  H    0.234205
 Sum of Mulliken charges =  -0.00000
 Mulliken charges with hydrogens summed into heavy atoms:
               1
     1  O   -0.191452
     2  N   -0.553693
     3  C    0.545862
     4  C   -0.053534
     5  C    0.227805
     6  C    0.099402
     7  C   -0.092209
    13  O    0.017820
 Electronic spatial extent (au):  <R**2>=           1069.9365
 Charge=             -0.0000 electrons
 Dipole moment (field-independent basis, Debye):
    X=             -1.9271    Y=             -1.3770    Z=              1.3729  Tot=              2.7376
 Quadrupole moment (field-independent basis, Debye-Ang):
   XX=            -42.1328   YY=            -44.9597   ZZ=            -49.6051
   XY=             -2.9376   XZ=              5.4558   YZ=             -1.3743
 Traceless Quadrupole moment (field-independent basis, Debye-Ang):
   XX=              3.4331   YY=              0.6062   ZZ=             -4.0393
   XY=             -2.9376   XZ=              5.4558   YZ=             -1.3743
 Octapole moment (field-independent basis, Debye-Ang**2):
  XXX=             10.2553  YYY=             -8.4791  ZZZ=              1.1542  XYY=             -1.0110
  XXY=             -4.1891  XXZ=             20.6776  XZZ=             12.6149  YZZ=              0.2670
  YYZ=              1.3311  XYZ=             -5.2833
 Hexadecapole moment (field-independent basis, Debye-Ang**3):
 XXXX=           -836.1980 YYYY=           -355.2276 ZZZZ=            -54.2982 XXXY=            -22.9791
 XXXZ=             78.1105 YYYX=            -13.7630 YYYZ=             -1.6257 ZZZX=              5.3448
 ZZZY=             -1.4849 XXYY=           -201.7221 XXZZ=           -168.0082 YYZZ=            -77.2447
 XXYZ=            -19.0865 YYXZ=              5.4680 ZZXY=             -4.1277
 N-N= 3.576226221683D+02 E-N=-1.650899688809D+03  KE= 3.985638385975D+02
 No NMR shielding tensors so no spin-rotation constants.
 Leave Link  601 at Fri Aug 27 00:53:15 2021, MaxMem= 17179869184 cpu:        54.8
 (Enter /public3/home/sc51754/softwares/g09e01/l701.exe)
 Compute integral first derivatives.
 ... and contract with generalized density number  0.
 Leave Link  701 at Fri Aug 27 00:53:16 2021, MaxMem= 17179869184 cpu:        73.6
 (Enter /public3/home/sc51754/softwares/g09e01/l702.exe)
 L702 exits ... SP integral derivatives will be done elsewhere.
 Leave Link  702 at Fri Aug 27 00:53:16 2021, MaxMem= 17179869184 cpu:         0.3
 (Enter /public3/home/sc51754/softwares/g09e01/l703.exe)
 Compute integral first derivatives, UseDBF=F ICtDFT=           0.
 Integral derivatives from FoFJK, PRISM(SPDF).
 Calling FoFJK, ICntrl=      2127 FMM=F ISym2X=0 I1Cent= 0 IOpClX= 0 NMat=1 NMatS=1 NMatT=0.
 FoFJK:  IHMeth= 1 ICntrl=    2127 DoSepK=T KAlg= 0 I1Cent=   0 FoldK=F
 IRaf=         1 NMat=   1 IRICut=       1 DoRegI=T DoRafI=F ISym2E= 0.
 FoFCou: FMM=F IPFlag=           0 FMFlag=      100000 FMFlg1=         800
         NFxFlg=           0 DoJE=F BraDBF=F KetDBF=F FulRan=T
         wScrn=  0.000000 ICntrl=    2527 IOpCl=  0 I1Cent=           0 NGrid=           0
         NMat0=    1 NMatS0=      1 NMatT0=    0 NMatD0=    1 NMtDS0=    0 NMtDT0=    0
 Symmetry not used in FoFCou.
 Leave Link  703 at Fri Aug 27 00:53:22 2021, MaxMem= 17179869184 cpu:       337.8
 (Enter /public3/home/sc51754/softwares/g09e01/l716.exe)
 Dipole        =-7.58161706D-01-5.41750123D-01 5.40151792D-01
 ***** Axes restored to original set *****
 -------------------------------------------------------------------
 Center     Atomic                   Forces (Hartrees/Bohr)
 Number     Number              X              Y              Z
 -------------------------------------------------------------------
      1        8           0.000743402   -0.002459142    0.000130182
      2        7           0.000554798    0.002681328    0.000205115
      3        6          -0.000107715   -0.003816360   -0.000046496
      4        6          -0.001648493   -0.002464242   -0.000043828
      5        6          -0.003011372    0.005115232    0.000019695
      6        6           0.004891464    0.000352104   -0.000009909
      7        6           0.003275068   -0.000548949   -0.000041927
      8        1          -0.002577109    0.001382131   -0.000316312
      9        1           0.000171749    0.001629638    0.000007092
     10        1           0.000449208   -0.001652272   -0.000013077
     11        1          -0.001578914    0.000863220    0.000018349
     12        1          -0.001158695   -0.001083696   -0.000002127
     13        8          -0.002314016   -0.001834391    0.003033988
     14        1          -0.001511816    0.000690288   -0.002462831
     15        1           0.003822441    0.001145113   -0.000477915
 -------------------------------------------------------------------
 Cartesian Forces:  Max     0.005115232 RMS     0.001948038
 Leave Link  716 at Fri Aug 27 00:53:22 2021, MaxMem= 17179869184 cpu:         0.4
 (Enter /public3/home/sc51754/softwares/g09e01/l103.exe)

 GradGradGradGradGradGradGradGradGradGradGradGradGradGradGradGradGradGrad
 Berny optimization.
 FormGI is forming the generalized inverse of G from B-inverse, IUseBI=4.
 Internal  Forces:  Max     0.003774846 RMS     0.001082102
 Search for a local minimum.
 Step number   1 out of a maximum of   88
 All quantities printed in internal units (Hartrees-Bohrs-Radians)
 RMS Force = .10821D-02 SwitMx=.10000D-02 MixMth= 1
 Mixed Optimization -- RFO/linear search
 Second derivative matrix not updated -- first step.
 ITU=  0
     Eigenvalues ---    0.00525   0.00832   0.01684   0.02094   0.02184
     Eigenvalues ---    0.02225   0.02239   0.02286   0.02319   0.02409
     Eigenvalues ---    0.02460   0.05224   0.06028   0.06507   0.08515
     Eigenvalues ---    0.13089   0.16000   0.16000   0.16000   0.16000
     Eigenvalues ---    0.19207   0.20418   0.22000   0.22270   0.23481
     Eigenvalues ---    0.35621   0.35778   0.36026   0.36038   0.41939
     Eigenvalues ---    0.43696   0.46841   0.47322   0.48462   0.48884
     Eigenvalues ---    0.52273   0.55339   0.55352   0.56565
 RFO step:  Lambda=-2.11216224D-04 EMin= 5.24515301D-03
 Linear search not attempted -- first point.
 Iteration  1 RMS(Cart)=  0.00360480 RMS(Int)=  0.00001279
 Iteration  2 RMS(Cart)=  0.00001087 RMS(Int)=  0.00000617
 Iteration  3 RMS(Cart)=  0.00000000 RMS(Int)=  0.00000617
 ITry= 1 IFail=0 DXMaxC= 1.51D-02 DCOld= 1.00D+10 DXMaxT= 3.00D-01 DXLimC= 3.00D+00 Rises=F
 Variable       Old X    -DE/DX   Delta X   Delta X   Delta X     New X
                                 (Linear)    (Quad)   (Total)
    R1        2.53090  -0.00171   0.00000  -0.00336  -0.00335   2.52754
    R2        1.85517  -0.00302   0.00000  -0.00584  -0.00584   1.84933
    R3        2.51733  -0.00377   0.00000  -0.00688  -0.00688   2.51046
    R4        2.53185  -0.00097   0.00000  -0.00178  -0.00178   2.53007
    R5        3.65357  -0.00009   0.00000  -0.00062  -0.00062   3.65296
    R6        2.64886  -0.00097   0.00000  -0.00221  -0.00221   2.64666
    R7        2.60507  -0.00312   0.00000  -0.00621  -0.00621   2.59886
    R8        2.04022   0.00161   0.00000   0.00447   0.00447   2.04469
    R9        2.60933  -0.00310   0.00000  -0.00627  -0.00627   2.60307
   R10        2.04678   0.00171   0.00000   0.00479   0.00479   2.05157
   R11        2.63885  -0.00027   0.00000  -0.00042  -0.00042   2.63844
   R12        2.04430   0.00179   0.00000   0.00500   0.00500   2.04931
   R13        2.04041   0.00158   0.00000   0.00439   0.00439   2.04480
   R14        3.46012  -0.00005   0.00000  -0.00366  -0.00364   3.45648
   R15        3.61122  -0.00053   0.00000  -0.00117  -0.00118   3.61004
   R16        1.81521  -0.00296   0.00000  -0.00535  -0.00535   1.80985
   R17        1.85250  -0.00367   0.00000  -0.00764  -0.00764   1.84486
    A1        1.91487   0.00020   0.00000   0.00027   0.00027   1.91514
    A2        2.06532  -0.00100   0.00000  -0.00496  -0.00496   2.06036
    A3        1.87270   0.00038   0.00000   0.00133   0.00132   1.87402
    A4        2.34514   0.00062   0.00000   0.00362   0.00363   2.34877
    A5        2.07766   0.00016   0.00000  -0.00032  -0.00032   2.07734
    A6        2.06520  -0.00128   0.00000  -0.00426  -0.00426   2.06094
    A7        2.14032   0.00112   0.00000   0.00458   0.00458   2.14491
    A8        2.06244  -0.00052   0.00000  -0.00235  -0.00235   2.06010
    A9        2.08413  -0.00002   0.00000  -0.00060  -0.00060   2.08353
   A10        2.13661   0.00054   0.00000   0.00295   0.00295   2.13956
   A11        2.15286   0.00094   0.00000   0.00416   0.00416   2.15702
   A12        2.02165  -0.00064   0.00000  -0.00316  -0.00316   2.01849
   A13        2.10868  -0.00030   0.00000  -0.00100  -0.00100   2.10768
   A14        2.08831   0.00013   0.00000   0.00113   0.00113   2.08944
   A15        2.09381  -0.00022   0.00000  -0.00152  -0.00152   2.09229
   A16        2.10106   0.00009   0.00000   0.00039   0.00040   2.10146
   A17        2.05711  -0.00067   0.00000  -0.00257  -0.00257   2.05454
   A18        2.10400   0.00019   0.00000   0.00040   0.00040   2.10441
   A19        2.12207   0.00048   0.00000   0.00217   0.00217   2.12424
   A20        2.78431  -0.00055   0.00000  -0.00017  -0.00018   2.78413
   A21        2.25759   0.00047   0.00000   0.00142   0.00143   2.25901
   A22        2.11576   0.00015   0.00000   0.00316   0.00316   2.11892
   A23        1.86403  -0.00022   0.00000  -0.00075  -0.00074   1.86329
   A24        1.30192  -0.00122   0.00000  -0.00269  -0.00268   1.29924
   A25        2.52674  -0.00061   0.00000  -0.00259  -0.00263   2.52412
    D1        0.00739  -0.00003   0.00000  -0.00029  -0.00029   0.00710
    D2       -3.13430  -0.00001   0.00000  -0.00008  -0.00009  -3.13439
    D3        0.07175  -0.00009   0.00000  -0.00575  -0.00575   0.06600
    D4       -0.00835   0.00008   0.00000   0.00229   0.00230  -0.00605
    D5       -3.13923   0.00002   0.00000   0.00050   0.00049  -3.13874
    D6        0.00246   0.00001   0.00000   0.00028   0.00027   0.00274
    D7       -0.00357  -0.00003   0.00000  -0.00144  -0.00144  -0.00501
    D8        3.13812  -0.00004   0.00000  -0.00165  -0.00165   3.13647
    D9       -0.00196  -0.00001   0.00000  -0.00056  -0.00056  -0.00251
   D10        3.13867  -0.00002   0.00000  -0.00076  -0.00076   3.13791
   D11       -3.13562   0.00005   0.00000   0.00205   0.00205  -3.13358
   D12        0.00500   0.00005   0.00000   0.00185   0.00185   0.00685
   D13       -0.00000   0.00004   0.00000   0.00164   0.00164   0.00163
   D14       -0.09978   0.00014   0.00000   0.01506   0.01506  -0.08472
   D15        3.13428  -0.00002   0.00000  -0.00079  -0.00079   3.13349
   D16        3.03451   0.00007   0.00000   0.01264   0.01263   3.04714
   D17        3.14017  -0.00001   0.00000   0.00005   0.00005   3.14023
   D18        0.00037  -0.00001   0.00000  -0.00024  -0.00024   0.00013
   D19       -0.00152   0.00001   0.00000   0.00026   0.00026  -0.00125
   D20       -3.14132   0.00000   0.00000  -0.00003  -0.00003  -3.14135
   D21       -0.00000  -0.00002   0.00000  -0.00054  -0.00054  -0.00055
   D22       -3.14062  -0.00001   0.00000  -0.00034  -0.00034  -3.14097
   D23        3.13975  -0.00001   0.00000  -0.00025  -0.00025   3.13950
   D24       -0.00088  -0.00000   0.00000  -0.00005  -0.00005  -0.00092
   D25        0.00051   0.00001   0.00000   0.00029   0.00029   0.00079
   D26        3.14103   0.00001   0.00000   0.00022   0.00022   3.14126
   D27       -3.14007   0.00001   0.00000   0.00049   0.00050  -3.13958
   D28        0.00046   0.00001   0.00000   0.00043   0.00043   0.00089
   D29        0.00048   0.00001   0.00000   0.00029   0.00028   0.00076
   D30       -3.14004   0.00001   0.00000   0.00035   0.00035  -3.13969
   D31        3.14109  -0.00000   0.00000   0.00008   0.00008   3.14118
   D32        0.00058   0.00000   0.00000   0.00015   0.00015   0.00073
   D33       -1.92611   0.00012   0.00000   0.01164   0.01165  -1.91446
   D34        0.00552  -0.00008   0.00000  -0.00260  -0.00261   0.00291
   D35        1.52863   0.00042   0.00000   0.00357   0.00357   1.53220
   D36        2.18999   0.00011   0.00000  -0.00982  -0.00982   2.18017
         Item               Value     Threshold  Converged?
 Maximum Force            0.003775     0.000450     NO 
 RMS     Force            0.001082     0.000300     NO 
 Maximum Displacement     0.015075     0.001800     NO 
 RMS     Displacement     0.003609     0.001200     NO 
 Predicted change in Energy=-1.057549D-04
 Lowest energy point so far.  Saving SCF results.
 GradGradGradGradGradGradGradGradGradGradGradGradGradGradGradGradGradGrad

 Leave Link  103 at Fri Aug 27 00:53:23 2021, MaxMem= 17179869184 cpu:        34.3
 (Enter /public3/home/sc51754/softwares/g09e01/l202.exe)
                          Input orientation:                          
 ---------------------------------------------------------------------
 Center     Atomic      Atomic             Coordinates (Angstroms)
 Number     Number       Type             X           Y           Z
 ---------------------------------------------------------------------
      1          8           0        1.212288    1.444955   -0.003569
      2          7           0        0.307478   -0.666735   -0.005711
      3          6           0        0.136180    0.650640   -0.000423
      4          6           0       -1.128071    1.253249    0.008228
      5          6           0       -0.783063   -1.443429   -0.005798
      6          6           0       -2.233865    0.435603    0.009795
      7          6           0       -2.069443   -0.950861    0.002172
      8          1           0        2.025080    0.900056   -0.016276
      9          1           0       -1.201509    2.332751    0.011980
     10          1           0       -0.598146   -2.513180   -0.013811
     11          1           0       -3.227288    0.870455    0.015832
     12          1           0       -2.916590   -1.624066    0.001390
     13          8           0        3.092169   -0.584048   -0.082108
     14          1           0        3.585989   -0.878047    0.684025
     15          1           0        2.211278   -1.001173   -0.026285
 ---------------------------------------------------------------------
                    Distance matrix (angstroms):
                    1          2          3          4          5
     1  O    0.000000
     2  N    2.297372   0.000000
     3  C    1.337518   1.328476   0.000000
     4  C    2.348227   2.397359   1.400551   0.000000
     5  C    3.510583   1.338855   2.286954   2.718694   0.000000
     6  C    3.590952   2.770165   2.379802   1.375255   2.373990
     7  C    4.063216   2.393856   2.725727   2.396731   1.377484
     8  H    0.978625   2.324887   1.905361   3.172964   3.657553
     9  H    2.571933   3.357718   2.149200   1.082003   3.799335
    10  H    4.352541   2.056594   3.247949   3.803589   1.085646
    11  H    4.476635   3.854607   3.370683   2.133847   3.365823
    12  H    5.144565   3.363205   3.807059   3.387888   2.141172
    13  O    2.767125   2.786966   3.204528   4.603721   3.970111
    14  H    3.391693   3.356936   3.834910   5.217421   4.459162
    15  H    2.642355   1.933061   2.652392   4.029250   3.026894
                    6          7          8          9         10
     6  C    0.000000
     7  C    1.396200   0.000000
     8  H    4.284274   4.493479   0.000000
     9  H    2.159845   3.396397   3.530480   0.000000
    10  H    3.372159   2.146116   4.304822   4.883417   0.000000
    11  H    1.084446   2.158236   5.252549   2.498420   4.285120
    12  H    2.169890   1.082064   5.549018   4.312541   2.483131
    13  O    5.423539   5.175317   1.829092   5.191555   4.164690
    14  H    6.004245   5.696853   2.467490   5.803533   4.546165
    15  H    4.671714   4.281111   1.910350   4.771124   3.190483
                   11         12         13         14         15
    11  H    0.000000
    12  H    2.513837   0.000000
    13  O    6.485424   6.098672   0.000000
    14  H    7.065726   6.580734   0.957733   0.000000
    15  H    5.751762   5.165635   0.976258   1.552266   0.000000
 Stoichiometry    C5H7NO2
 Framework group  C1[X(C5H7NO2)]
 Deg. of freedom    39
 Full point group                 C1      NOp   1
 RotChk:  IX=0 Diff= 5.46D-04
 Largest Abelian subgroup         C1      NOp   1
 Largest concise Abelian subgroup C1      NOp   1
                         Standard orientation:                         
 ---------------------------------------------------------------------
 Center     Atomic      Atomic             Coordinates (Angstroms)
 Number     Number       Type             X           Y           Z
 ---------------------------------------------------------------------
      1          8           0        1.212535    1.445152   -0.003590
      2          7           0        0.307430   -0.666411   -0.006229
      3          6           0        0.136317    0.650986   -0.000500
      4          6           0       -1.127848    1.253768    0.008566
      5          6           0       -0.783220   -1.442953   -0.006363
      6          6           0       -2.233756    0.436277    0.010076
      7          6           0       -2.069530   -0.950208    0.001991
      8          1           0        2.025248    0.900142   -0.016613
      9          1           0       -1.201135    2.333279    0.012668
     10          1           0       -0.598453   -2.512727   -0.014742
     11          1           0       -3.227118    0.871266    0.016427
     12          1           0       -2.916771   -1.623294    0.001151
     13          8           0        3.092119   -0.584090   -0.083099
     14          1           0        3.586034   -0.878396    0.682854
     15          1           0        2.211179   -1.001109   -0.027248
 ---------------------------------------------------------------------
 Rotational constants (GHZ):      4.0266831      1.4219501      1.0533329
 Leave Link  202 at Fri Aug 27 00:53:23 2021, MaxMem= 17179869184 cpu:         2.5
 (Enter /public3/home/sc51754/softwares/g09e01/l301.exe)
 Basis read from rwf:  (5D, 7F)
 No pseudopotential information found on rwf file.
 There are   385 symmetry adapted cartesian basis functions of A   symmetry.
 There are   338 symmetry adapted basis functions of A   symmetry.
   338 basis functions,   566 primitive gaussians,   385 cartesian basis functions
    30 alpha electrons       30 beta electrons
       nuclear repulsion energy       358.1392601947 Hartrees.
 IExCor= 4437 DFT=T Ex+Corr=wB97 ExCW=0 ScaHFX=  1.000000
 ScaDFX=  1.000000  1.000000  1.000000  1.000000 ScalE2=  1.000000  1.000000
 IRadAn=      0 IRanWt=     -1 IRanGd=            0 ICorTp=0 IEmpDi=  4
  HFx wShort=  0.000000 wLong=  0.400000 cFull=  0.000000 cShort=  0.000000 cLong=  1.000000
  DFx wShort=  0.000000 wLong=  0.400000 cFull=  0.000000 cShort=  0.000000 cLong=  1.000000
 NAtoms=   15 NActive=   15 NUniq=   15 SFac= 1.00D+00 NAtFMM=   60 NAOKFM=F Big=F
 Integral buffers will be    131072 words long.
 Raffenetti 2 integral format.
 Two-electron integral symmetry is turned on.
 No density basis found on file   724.
 Leave Link  301 at Fri Aug 27 00:53:23 2021, MaxMem= 17179869184 cpu:         1.4
 (Enter /public3/home/sc51754/softwares/g09e01/l302.exe)
 NPDir=0 NMtPBC=     1 NCelOv=     1 NCel=       1 NClECP=     1 NCelD=      1
         NCelK=      1 NCelE2=     1 NClLst=     1 CellRange=     0.0.
 One-electron integrals computed using PRISM.
 NBasis=   338 RedAO= T EigKep=  1.45D-04  NBF=   338
 NBsUse=   338 1.00D-06 EigRej= -1.00D+00 NBFU=   338
 Precomputing XC quadrature grid using
 IXCGrd= 4 IRadAn=           0 IRanWt=          -1 IRanGd=           0 AccXCQ= 0.00D+00.
 Generated NRdTot=       0 NPtTot=           0 NUsed=           0 NTot=          32
 NSgBfM=   384   384   384   384   385 MxSgAt=    15 MxSgA2=    15.
 Leave Link  302 at Fri Aug 27 00:53:24 2021, MaxMem= 17179869184 cpu:        49.0
 (Enter /public3/home/sc51754/softwares/g09e01/l303.exe)
 DipDrv:  MaxL=1.
 Leave Link  303 at Fri Aug 27 00:53:24 2021, MaxMem= 17179869184 cpu:        13.7
 (Enter /public3/home/sc51754/softwares/g09e01/l401.exe)
 Initial guess from the checkpoint file:  "HY_H2O_wB97_PC2_OPT_FREQ.chk"
 B after Tr=     0.000000    0.000000    0.000000
         Rot=    1.000000   -0.000021    0.000012   -0.000032 Ang=  -0.00 deg.
 Guess basis will be translated and rotated to current coordinates.
 JPrj=2 DoOrth=T DoCkMO=T.
 Leave Link  401 at Fri Aug 27 00:53:25 2021, MaxMem= 17179869184 cpu:        41.6
 (Enter /public3/home/sc51754/softwares/g09e01/l502.exe)
 Closed shell SCF:
 Using DIIS extrapolation, IDIIS=  1040.
 Integral symmetry usage will be decided dynamically.
 Keep R1 ints in memory in canonical form, NReq=3311562672.
 IVT=      490665 IEndB=      490665 NGot= 17179869184 MDV= 13897062548
 LenX= 13897062548 LenY= 13896913882
 Requested convergence on RMS density matrix=1.00D-08 within 128 cycles.
 Requested convergence on MAX density matrix=1.00D-06.
 Requested convergence on             energy=1.00D-06.
 No special actions if energy rises.
 FoFCou: FMM=F IPFlag=           0 FMFlag=           0 FMFlg1=           0
         NFxFlg=           0 DoJE=F BraDBF=F KetDBF=F FulRan=T
         wScrn=  0.000000 ICntrl=     600 IOpCl=  0 I1Cent=           0 NGrid=           0
         NMat0=    1 NMatS0=  57291 NMatT0=    0 NMatD0=    1 NMtDS0=    0 NMtDT0=    0
 Symmetry not used in FoFCou.

 Cycle   1  Pass 1  IDiag  1:
 E= -400.052520536209    
 DIIS: error= 2.96D-04 at cycle   1 NSaved=   1.
 NSaved= 1 IEnMin= 1 EnMin= -400.052520536209     IErMin= 1 ErrMin= 2.96D-04
 ErrMax= 2.96D-04  0.00D+00 EMaxC= 1.00D-01 BMatC= 5.17D-05 BMatP= 5.17D-05
 IDIUse=3 WtCom= 9.97D-01 WtEn= 2.96D-03
 Coeff-Com:  0.100D+01
 Coeff-En:   0.100D+01
 Coeff:      0.100D+01
 Gap=     0.817 Goal=   None    Shift=    0.000
 RMSDP=2.10D-05 MaxDP=6.90D-04              OVMax= 1.26D-03

 Cycle   2  Pass 1  IDiag  1:
 E= -400.052562365496     Delta-E=       -0.000041829288 Rises=F Damp=F
 DIIS: error= 7.50D-05 at cycle   2 NSaved=   2.
 NSaved= 2 IEnMin= 2 EnMin= -400.052562365496     IErMin= 2 ErrMin= 7.50D-05
 ErrMax= 7.50D-05  0.00D+00 EMaxC= 1.00D-01 BMatC= 3.30D-06 BMatP= 5.17D-05
 IDIUse=1 WtCom= 1.00D+00 WtEn= 0.00D+00
 Coeff-Com:  0.274D-01 0.973D+00
 Coeff:      0.274D-01 0.973D+00
 Gap=     0.389 Goal=   None    Shift=    0.000
 RMSDP=6.43D-06 MaxDP=4.20D-04 DE=-4.18D-05 OVMax= 6.37D-04

 Cycle   3  Pass 1  IDiag  1:
 E= -400.052565296665     Delta-E=       -0.000002931169 Rises=F Damp=F
 DIIS: error= 5.22D-05 at cycle   3 NSaved=   3.
 NSaved= 3 IEnMin= 3 EnMin= -400.052565296665     IErMin= 3 ErrMin= 5.22D-05
 ErrMax= 5.22D-05  0.00D+00 EMaxC= 1.00D-01 BMatC= 1.57D-06 BMatP= 3.30D-06
 IDIUse=1 WtCom= 1.00D+00 WtEn= 0.00D+00
 Coeff-Com: -0.455D-01 0.398D+00 0.647D+00
 Coeff:     -0.455D-01 0.398D+00 0.647D+00
 Gap=     0.389 Goal=   None    Shift=    0.000
 RMSDP=2.66D-06 MaxDP=1.77D-04 DE=-2.93D-06 OVMax= 3.77D-04

 Cycle   4  Pass 1  IDiag  1:
 E= -400.052566748775     Delta-E=       -0.000001452110 Rises=F Damp=F
 DIIS: error= 2.83D-05 at cycle   4 NSaved=   4.
 NSaved= 4 IEnMin= 4 EnMin= -400.052566748775     IErMin= 4 ErrMin= 2.83D-05
 ErrMax= 2.83D-05  0.00D+00 EMaxC= 1.00D-01 BMatC= 1.25D-07 BMatP= 1.57D-06
 IDIUse=1 WtCom= 1.00D+00 WtEn= 0.00D+00
 Coeff-Com: -0.128D-01 0.327D-02 0.182D+00 0.827D+00
 Coeff:     -0.128D-01 0.327D-02 0.182D+00 0.827D+00
 Gap=     0.389 Goal=   None    Shift=    0.000
 RMSDP=1.22D-06 MaxDP=5.57D-05 DE=-1.45D-06 OVMax= 2.10D-04

 Cycle   5  Pass 1  IDiag  1:
 E= -400.052566978535     Delta-E=       -0.000000229760 Rises=F Damp=F
 DIIS: error= 1.23D-05 at cycle   5 NSaved=   5.
[...]
   A10        2.14171   0.00001   0.00000   0.00014   0.00014   2.14184
   A11        2.15801  -0.00001   0.00000  -0.00005  -0.00005   2.15795
   A12        2.01792  -0.00000   0.00000  -0.00005  -0.00005   2.01787
   A13        2.10726   0.00001   0.00000   0.00010   0.00010   2.10736
   A14        2.08865  -0.00000   0.00000  -0.00001  -0.00001   2.08864
   A15        2.09347   0.00000   0.00000   0.00007   0.00007   2.09354
   A16        2.10107  -0.00000   0.00000  -0.00006  -0.00006   2.10101
   A17        2.05477   0.00001   0.00000   0.00004   0.00004   2.05481
   A18        2.10452  -0.00000   0.00000   0.00001   0.00001   2.10453
   A19        2.12390  -0.00000   0.00000  -0.00005  -0.00005   2.12385
   A20        2.79562   0.00000   0.00000  -0.00156  -0.00157   2.79405
   A21        2.27348  -0.00001   0.00000  -0.00151  -0.00151   2.27198
   A22        2.15512   0.00003   0.00000   0.00920   0.00919   2.16431
   A23        1.86655   0.00001   0.00000   0.00101   0.00100   1.86756
   A24        1.28203   0.00000   0.00000   0.00132   0.00132   1.28335
   A25        2.49104   0.00000   0.00000   0.00042   0.00042   2.49146
    D1        0.01242  -0.00001   0.00000  -0.00297  -0.00298   0.00944
    D2       -3.12923  -0.00001   0.00000  -0.00300  -0.00301  -3.13224
    D3        0.05600   0.00001   0.00000   0.01417   0.01415   0.07016
    D4       -0.01027   0.00001   0.00000   0.00497   0.00498  -0.00530
    D5       -3.13881   0.00000   0.00000  -0.00014  -0.00014  -3.13895
    D6        0.00285   0.00001   0.00000  -0.00011  -0.00011   0.00274
    D7       -0.00909   0.00000   0.00000   0.00021   0.00021  -0.00888
    D8        3.13256   0.00001   0.00000   0.00025   0.00024   3.13281
    D9       -0.00246  -0.00000   0.00000   0.00015   0.00015  -0.00231
   D10        3.13851  -0.00000   0.00000  -0.00004  -0.00004   3.13847
   D11       -3.12814  -0.00001   0.00000  -0.00033  -0.00032  -3.12846
   D12        0.01283  -0.00001   0.00000  -0.00052  -0.00051   0.01231
   D13        0.00319  -0.00000   0.00000   0.00126   0.00127   0.00446
   D14       -0.07356   0.00001   0.00000  -0.00229  -0.00229  -0.07584
   D15        3.13005   0.00000   0.00000   0.00170   0.00171   3.13176
   D16        3.05330   0.00001   0.00000  -0.00185  -0.00185   3.05146
   D17        3.14015  -0.00000   0.00000   0.00003   0.00003   3.14019
   D18        0.00032   0.00000   0.00000  -0.00003  -0.00003   0.00029
   D19       -0.00150  -0.00000   0.00000  -0.00000  -0.00000  -0.00150
   D20       -3.14133  -0.00000   0.00000  -0.00007  -0.00007  -3.14140
   D21       -0.00034   0.00000   0.00000   0.00007   0.00007  -0.00027
   D22       -3.14082   0.00000   0.00000   0.00002   0.00002  -3.14080
   D23        3.13942  -0.00000   0.00000   0.00014   0.00014   3.13956
   D24       -0.00105   0.00000   0.00000   0.00009   0.00009  -0.00096
   D25        0.00070  -0.00000   0.00000  -0.00008  -0.00008   0.00062
   D26        3.14136  -0.00000   0.00000  -0.00009  -0.00009   3.14128
   D27       -3.14023  -0.00000   0.00000   0.00012   0.00012  -3.14011
   D28        0.00043   0.00000   0.00000   0.00011   0.00012   0.00054
   D29        0.00071   0.00000   0.00000  -0.00003  -0.00003   0.00068
   D30       -3.13993   0.00000   0.00000  -0.00003  -0.00003  -3.13996
   D31        3.14119   0.00000   0.00000   0.00002   0.00002   3.14120
   D32        0.00054  -0.00000   0.00000   0.00002   0.00002   0.00056
   D33       -1.91980  -0.00001   0.00000  -0.01565  -0.01565  -1.93545
   D34        0.00468  -0.00000   0.00000  -0.00413  -0.00413   0.00054
   D35        1.56853   0.00001   0.00000   0.00402   0.00403   1.57256
   D36        2.21302   0.00002   0.00000   0.01342   0.01342   2.22644
         Item               Value     Threshold  Converged?
 Maximum Force            0.000057     0.000450     YES
 RMS     Force            0.000015     0.000300     YES
 Maximum Displacement     0.010647     0.001800     NO 
 RMS     Displacement     0.002243     0.001200     NO 
 Predicted change in Energy=-7.338957D-07
 GradGradGradGradGradGradGradGradGradGradGradGradGradGradGradGradGradGrad

 Leave Link  103 at Fri Aug 27 00:58:11 2021, MaxMem= 17179869184 cpu:        76.3
 (Enter /public3/home/sc51754/softwares/g09e01/l9999.exe)
 1\1\GINC-S1512\Freq\RwB97\Gen\C5H7N1O2\SC51754\27-Aug-2021\0\\#P Geom=
 AllCheck Guess=TCheck SCRF=Check GenChk RwB97/ChkBas Freq\\HY_H2O_wB97
 _PC2_OPT_FREQ\\0,1\O,1.2079401491,1.4425097831,0.0021525995\N,0.302104
 4035,-0.6690574265,-0.0009083981\C,0.1322677843,0.647165953,0.00285857
 29\C,-1.1325750932,1.2531237107,0.0076687684\C,-0.7919487733,-1.444003
 7092,-0.0034050371\C,-2.2392602112,0.4385131234,0.0066600803\C,-2.0765
 344741,-0.9497722655,0.0005395948\H,2.0203547452,0.8982039011,-0.01272
 04532\H,-1.201360991,2.332787837,0.0103283847\H,-0.6091480443,-2.51424
 26476,-0.0094774042\H,-3.2322938921,0.8743576034,0.0095560947\H,-2.924
 6847989,-1.6214194516,-0.0019581031\O,3.1022179709,-0.5702044291,-0.07
 64843578\H,3.6192743911,-0.8781127439,0.6683486572\H,2.2361338339,-1.0
 136772383,-0.0237169992\\Version=EM64L-G09RevE.01\State=1-A\HF=-400.05
 26045\RMSD=9.823e-10\RMSF=3.731e-05\ZeroPoint=0.1202052\Thermal=0.1281
 003\Dipole=-0.7056563,-0.5622368,0.5191065\DipoleDeriv=-1.566982,-0.54
 16956,-0.0065237,-0.4488143,-0.676359,0.0022077,-0.0058334,0.0025082,-
 0.3630059,-0.8926742,0.1259099,-0.0023521,-0.3703022,-0.5744573,0.0000
 957,-0.0087559,0.002971,-0.2647155,1.6133056,0.8025627,0.002997,0.5927
 695,0.6450312,-0.0008153,-0.0030191,-0.0022102,0.2269915,-0.6005695,-0
 .4610316,-0.0021338,0.1050844,-0.0259651,-0.0002598,0.0033124,-0.00019
 17,-0.1669343,0.52574,-0.3120841,-0.0007565,0.1996382,0.3254242,0.0047
 69,-0.0019291,0.0040977,-0.0026869,0.2650414,0.1244761,0.0002153,0.060
 406,0.5192731,0.0022296,-0.000041,0.0020174,-0.0759387,-0.2401548,0.35
 19506,0.0010362,0.0681478,-0.4548124,-0.0010294,0.002127,-0.0007488,-0
 .1797671,0.7413631,-0.127029,0.0026327,-0.3026659,0.3555472,-0.0091823
 ,0.0008023,-0.0086119,0.280622,0.0756898,0.0030743,-0.0000325,0.005009
 2,-0.0235302,-0.0006266,0.0004662,-0.000043,0.1537432,0.0630802,0.0261
 982,-0.0002131,-0.0134906,-0.084649,-0.0006926,-0.0005391,-0.000729,0.
 108943,-0.0392788,0.0576439,0.000351,0.0594659,0.062541,-0.000339,0.00
 00902,-0.0004637,0.1252096,-0.0080051,-0.0659912,-0.0003168,-0.0642768
 ,0.0121215,-0.0004818,-0.0002643,-0.0008448,0.1575338,-1.1287133,0.146
 5415,0.0002993,0.1645334,-0.5901922,-0.1162981,0.0336913,-0.1023602,-0
 .4396757,0.3341966,-0.0159802,-0.0076243,0.0083487,0.2790333,0.0718091
 ,-0.0308624,0.0587937,0.2204751,0.8579611,-0.1145453,0.0124213,-0.0638
 534,0.2309937,0.0486139,0.0107547,0.0458153,0.219206\Polar=95.0595121,
 2.3930227,82.7413489,0.8911245,-0.139862,44.3334578\PG=C01 [X(C5H7N1O2
 )]\NImag=0\\0.64334925,-0.04914561,0.42790991,-0.00688910,0.00418656,0
 .04073878,0.01565839,-0.05200972,0.00000817,0.50283868,-0.02236538,-0.
 06356279,-0.00025477,0.11070395,0.64788497,0.00005470,-0.00004711,0.00
 746614,0.00026631,0.00190294,0.09521192,-0.26777463,-0.08378590,0.0014
 4967,-0.16972652,0.01596991,-0.00005916,0.75928797,-0.12393267,-0.1841
 6977,0.00018753,0.06685037,-0.32899061,-0.00086417,0.01798399,0.723155
 79,0.00023786,-0.00070983,-0.05551924,0.00032304,-0.00059663,-0.075060
 47,-0.00160678,0.00163062,0.19849006,-0.06977565,0.00619548,0.00006830
 ,0.04123890,0.09845588,0.00041168,-0.24650992,0.03131921,0.00048833,0.
 69199583,-0.03120295,0.01779156,0.00020099,0.03219483,-0.02439690,-0.0
 0018204,0.11649144,-0.17458531,-0.00060746,0.03852555,0.79771457,0.000
 30523,0.00019576,0.01081298,-0.00005974,-0.00020050,0.02103950,0.00067
 816,-0.00063438,-0.08073574,-0.00093944,0.00184618,0.12680025,-0.01143
 419,0.00940912,-0.00005272,-0.27995870,-0.08060643,0.00003155,0.068708
 83,-0.10431268,-0.00045852,-0.09413951,-0.00254978,0.00012433,0.705045
 41,0.00197151,0.00123917,-0.00003555,-0.12623337,-0.20037321,-0.000417
 54,-0.02571296,-0.07443554,-0.00016730,-0.01560952,-0.00252096,-0.0000
 0921,-0.03476352,0.78333130,0.00004542,-0.00002796,0.01073612,-0.00037
 698,-0.00065372,-0.06660819,-0.00019937,-0.00010024,-0.00317850,0.0000
 2877,0.00005790,-0.00610632,-0.00071611,0.00311697,0.16642101,0.004838
 57,0.00418803,0.00011543,-0.01429918,-0.03125139,-0.00013834,-0.061493
 07,0.01175112,0.00016822,-0.30545173,-0.15961629,-0.00018222,0.0309522
 7,0.03997920,0.00017432,0.77904711,0.02005335,-0.00521663,0.00002819,-
 0.04288805,-0.08474703,-0.00028397,-0.06105293,0.09319082,0.00040767,-
 0.08034754,-0.23148108,-0.00035328,0.10984830,-0.00608807,-0.00020565,
 -0.01527225,0.69117697,0.00005913,-0.00001529,0.00453289,-0.00010419,-
 0.00025171,-0.00822854,-0.00011934,0.00035270,0.00250808,0.00005559,-0
 .00032398,-0.06162578,0.00036702,-0.00009530,0.00883279,-0.00101522,0.
 00211233,0.15174864,0.00416463,-0.00707821,0.00000455,-0.07325407,-0.0
 6799003,-0.00020126,-0.04085104,0.06262351,0.00021623,0.05952177,-0.02
 467946,-0.00012026,-0.33019853,0.12421782,0.00086581,-0.13978099,-0.01
 804609,0.00000963,0.76082717,-0.01543028,-0.00025873,-0.00007579,0.013
 67913,0.07819497,0.00026753,0.05113456,-0.06008086,-0.00028160,-0.0807
 8930,-0.03301647,-0.00000090,0.03691938,-0.17766114,-0.00056458,0.0627
 5914,-0.32778484,-0.00121669,0.05050773,0.70444062,-0.00002880,0.00002
 580,-0.00112170,0.00006403,0.00028071,0.02293783,0.00021690,-0.0003008
 9,-0.00978376,-0.00032762,-0.00016397,0.00850205,0.00048986,-0.0006137
 3,-0.07243846,0.00028854,-0.00117986,-0.06675146,-0.00040985,0.0026298
 9,0.12907240,-0.30325738,0.16562583,0.00517512,0.00226266,0.00919544,-
 0.00010407,-0.05082141,0.00616172,0.00051995,0.00307170,-0.00268602,-0
 .00002109,0.00047178,0.00000779,-0.00004361,-0.00174033,-0.00103765,0.
 00001368,0.00046948,0.00193688,0.00001716,0.34416734,0.20438036,-0.189
 19794,-0.00450620,0.00189037,-0.00241038,0.00001733,-0.01947189,0.0261
 1478,0.00052620,-0.00829609,-0.00400438,0.00002150,-0.00242283,-0.0013
 3244,-0.00001698,0.00063235,0.00386913,-0.00002116,0.00139829,-0.00271
 446,-0.00000021,-0.17056743,0.17680880,0.00660520,-0.00424777,-0.01686
 951,-0.00014476,0.00003656,-0.00276142,-0.00037081,-0.00012166,-0.0008
 3678,0.00005928,-0.00004876,0.00373590,0.00004906,-0.00001193,-0.00068
 464,-0.00006548,-0.00005662,0.00146292,-0.00002646,0.00005494,0.000401
 20,-0.00578500,0.00538589,0.02203853,0.00166286,-0.00080072,-0.0000148
 1,-0.00582865,0.00507668,0.00002413,0.00553243,0.02801081,0.00006011,-
 0.06105084,0.02123191,0.00010918,-0.00214267,-0.00127797,-0.00000069,0
 .00768845,-0.02625344,-0.00006992,-0.00362860,-0.00288382,0.00000952,-
 0.00015991,0.00006358,-0.00000526,0.05606435,-0.00060951,0.00096247,0.
 00001311,0.00274730,-0.00049765,-0.00002132,-0.00448928,-0.00938330,-0
 .00001284,0.02366104,-0.35421418,-0.00084579,0.00051445,0.00110404,0.0
 0000802,0.00397994,-0.01084962,-0.00004363,-0.00336182,0.00066192,-0.0
 0000897,0.00018992,-0.00001999,0.00000174,-0.02246705,0.37202702,-0.00
 000938,-0.00000607,-0.00210889,0.00004036,-0.00007080,0.00544536,-0.00
 007403,-0.00006260,0.00257405,0.00016428,-0.00076200,-0.03473170,0.000
 03842,0.00001929,-0.00023110,-0.00001606,-0.00004781,0.00258109,-0.000
 01483,-0.00001602,0.00893742,-0.00000479,0.00000748,-0.00066988,-0.000
 10190,0.00090649,0.02435641,-0.00027273,-0.00118565,0.00000183,0.00289
 095,-0.03321564,-0.00017215,-0.00244405,-0.00423057,0.00000297,-0.0008
 4655,-0.00071665,-0.00000392,-0.07123823,0.05922058,0.00031765,-0.0055
 6533,0.00204002,0.00002543,0.00182913,0.02813117,0.00015113,0.00037594
 ,-0.00013904,-0.00000164,0.00015293,-0.00000679,-0.00000263,0.07464446
 ,-0.00038039,-0.00116271,0.00000183,-0.00514439,-0.01934461,-0.0000883
 0,-0.00236104,0.00119418,-0.00008049,0.00011996,0.00057177,0.00000964,
 0.05679742,-0.33074527,-0.00161601,0.00238159,0.00041925,-0.00005433,-
 0.00155249,-0.00580090,-0.00007417,0.00035480,-0.00003630,-0.00000431,
 0.00008376,-0.00008519,0.00000918,-0.05061065,0.35517588,-0.00001073,-
 0.00000144,0.00015771,0.00003481,0.00003818,-0.00247361,0.00003645,-0.
 00004740,0.01002823,-0.00002465,0.00000821,-0.00056164,0.00025405,-0.0
 0176824,-0.04426506,0.00002356,0.00000271,0.00792000,0.00003019,-0.000
 09629,0.00831165,-0.00000331,-0.00000645,-0.00017640,-0.00000529,0.000
 00262,-0.00155045,-0.00028876,0.00186306,0.02733250,-0.00162897,0.0006
 8928,0.00001493,0.00011719,-0.00085238,-0.00000637,-0.00178157,-0.0034
 6852,0.00000241,-0.01650422,0.01298635,0.00006764,0.00183463,0.0005665
 4,0.00000414,-0.30316590,0.10580480,0.00075861,0.00156040,-0.00128545,
 -0.00000237,-0.00000138,-0.00035456,-0.00000724,0.00100983,-0.00027587
 ,-0.00001132,-0.00007615,-0.00009575,-0.00000089,0.31818096,-0.0008016
 9,0.00068649,0.00001432,-0.00092022,-0.00052295,0.00000849,-0.00380359
 ,-0.00166822,-0.00003376,-0.01783430,0.01220810,0.00003011,0.00039452,
 -0.00646389,-0.00005981,0.10677635,-0.10897761,-0.00038440,0.02915929,
 -0.00464082,-0.00007395,-0.00017404,-0.00019503,-0.00000144,0.00067099
 ,0.00071925,0.00001904,0.00149998,-0.00044566,0.00000181,-0.11424646,0
 .10818965,-0.00001959,-0.00000994,-0.00061957,-0.00000173,0.00001257,-
 0.00302866,0.00002037,-0.00002084,0.01055612,-0.00002274,0.00002726,0.
 00633858,0.00000110,-0.00007029,0.00737426,0.00073485,-0.00037415,-0.0
 4440096,0.00013078,-0.00005834,0.00585945,-0.00000061,-0.00000189,-0.0
 0042290,-0.00000991,0.00001045,-0.00503556,0.00000519,0.00000025,-0.00
 062432,-0.00082516,0.00045975,0.02762125,0.00036727,-0.00030469,0.0000
 0039,-0.00545291,0.00231301,0.00002146,-0.00044987,0.00205574,0.000005
 75,0.00121534,0.00150680,0.00000574,-0.01456705,-0.02206036,-0.0000997
 7,0.00823694,0.00549371,0.00002319,-0.24163898,-0.14287567,-0.00049985
 ,0.00006412,0.00019610,-0.00000363,0.00027643,0.00029425,-0.00000056,0
 .00060396,0.00044503,0.00000099,0.00052191,-0.00067563,-0.00000524,0.2
 5074756,-0.00025650,0.00045115,0.00000767,0.00335649,0.00076699,-0.000
 04525,0.00144594,-0.00158309,-0.00000802,0.00196008,-0.00502469,-0.000
 05479,0.01094795,0.01150402,0.00004879,-0.02583816,-0.01199990,-0.0000
 4503,-0.14400704,-0.17208299,-0.00055019,0.00001819,-0.00010773,0.0000
 0082,-0.00122914,-0.00053759,-0.00000029,-0.00062860,0.00044121,0.0000
 2098,0.00044582,0.00107314,0.00002256,0.15380740,0.17699897,-0.0000151
 4,-0.00000060,-0.00130378,0.00003536,-0.00003558,0.00844315,0.00001459
 ,-0.00000792,0.00045672,0.00001811,-0.00004168,0.00637766,0.00006441,0
 .00007890,0.00017048,-0.00011311,-0.00004907,0.00147859,-0.00053447,-0
 .00059279,-0.03430446,0.00000579,-0.00000185,-0.00002230,-0.00000805,-
 0.00000312,0.00042861,-0.00000894,0.00002965,-0.00398537,-0.00000091,0
 .00002107,-0.00358536,0.00054615,0.00060122,0.02580262,-0.00816112,0.0
 1015984,0.00001132,-0.01737664,-0.00300707,-0.00076090,0.00112063,-0.0
 0115453,0.00013712,-0.00082112,0.00042384,0.00009413,0.00030546,0.0051
 7540,0.00002642,-0.00019142,-0.00019253,-0.00001293,-0.00192297,-0.000
 52340,0.00007935,-0.00192849,-0.00579732,0.00010862,-0.00022203,0.0001
 4595,-0.00000180,-0.00017059,-0.00053681,-0.00004519,-0.00016554,0.000
 00835,-0.00001170,-0.00048734,0.00009972,0.00000544,0.57281123,0.01934
 785,-0.00447558,0.00171891,-0.00101740,0.00703125,-0.00036250,-0.01074
 668,-0.00943675,-0.00013125,0.00353325,0.00174143,-0.00009448,0.001498
 79,0.00006751,-0.00000853,-0.00064355,-0.00178938,-0.00001742,-0.00053
 154,0.00159230,0.00002473,-0.00814161,0.00124534,-0.00499243,-0.000418
 14,0.00016056,-0.00000499,0.00029591,0.00014971,-0.00001673,0.00012166
 ,0.00006787,0.00001083,-0.00002559,0.00006386,0.00000046,0.10264936,0.
 20350313,-0.00108848,0.00202598,0.00477429,-0.00163064,0.00004328,0.00
 569903,-0.00029478,-0.00055982,-0.00083742,0.00012445,0.00006601,-0.00
 062794,0.00002097,0.00004244,0.00011368,-0.00005166,-0.00011506,0.0000
 5826,-0.00006855,0.00008437,-0.00048629,0.00072006,-0.00264049,-0.0084
 2713,-0.00000898,0.00000753,0.00000487,0.00003290,0.00000332,0.0001566
 0,0.00000416,0.00000398,0.00007156,-0.00001401,0.00000215,-0.00005713,
 0.19997998,-0.17397494,0.37251288,0.00104950,0.00028653,0.00048680,-0.
 00168282,-0.00057896,0.00162204,-0.00069160,-0.00040645,-0.00027553,0.
 00018049,0.00003835,-0.00016008,-0.00052077,0.00018190,-0.00000236,-0.
 00001177,-0.00004182,0.00001913,0.00001955,-0.00011095,-0.00013579,-0.
 00154311,0.00059130,-0.00090980,0.00000761,0.00000826,-0.00000001,-0.0
 0005675,-0.00003802,0.00004807,0.00001937,-0.00000442,0.00002005,-0.00
 001136,0.00001467,-0.00001242,-0.17898810,0.06074699,-0.19799671,0.198
 91159,0.00178831,-0.00181325,-0.00136140,-0.00117864,0.00024404,0.0003
 2023,-0.00013944,-0.00056275,0.00009971,0.00007471,0.00008665,0.000047
 52,0.00007772,0.00038110,-0.00001210,0.00001862,-0.00001393,0.00000890
 ,-0.00009095,-0.00006141,-0.00001024,-0.00090323,0.00255931,0.00365466
 ,-0.00001834,0.00000941,0.00000596,-0.00005646,-0.00006444,-0.00001116
 ,0.00000773,0.00000037,-0.00000682,-0.00002943,0.00000584,0.00000194,0
 .08995826,-0.07787130,0.15256944,-0.07810045,0.07079510,0.00181543,-0.
 00163708,-0.00025630,0.00122160,0.00008815,-0.00019658,-0.00038258,-0.
 00004258,0.00005183,0.00009686,-0.00001249,0.00000694,-0.00001142,-0.0
 0011105,0.00000181,0.00002282,0.00000707,-0.00000692,0.00009370,0.0000
 0875,0.00000252,-0.00146572,0.00235138,0.00036698,0.00000574,-0.000003
 87,0.00001218,-0.00002602,0.00001802,0.00001876,0.00000896,-0.00000234
 ,0.00000366,0.00002235,0.00000011,0.00000974,-0.23776011,0.13501723,-0
 .33318960,0.23179849,-0.13776070,0.33344356,-0.00878580,-0.00224362,-0
 .00037988,0.00257272,-0.00184760,-0.00098961,0.00789381,0.01074896,0.0
 0017886,-0.00212448,-0.00194792,0.00010234,-0.00311873,-0.00566302,-0.
 00002364,0.00093640,0.00189211,-0.00000981,0.00288306,-0.00116912,0.00
 008779,0.00856900,-0.00210318,0.00049792,0.00063781,-0.00033080,-0.000
 00575,0.00017302,0.00053698,-0.00004929,0.00007946,-0.00004913,-0.0000
 1566,0.00057398,-0.00013682,0.00000319,-0.36380195,-0.16666930,0.00027
 127,-0.01668185,-0.01140841,0.00455991,0.37019357,-0.00341640,0.000816
 64,-0.00012539,-0.00203066,-0.00927608,-0.00020432,0.00853787,0.001240
 63,-0.00003500,-0.00096841,-0.00087012,0.00004264,-0.00175241,0.001993
 38,0.00003390,0.00015530,0.00029193,-0.00000499,-0.00056900,-0.0007871
 9,0.00001506,0.00001942,-0.01057871,0.00035032,0.00021090,-0.00005713,
 0.00000314,-0.00039762,-0.00026691,0.00001013,-0.00004321,-0.00003067,
 -0.00000140,-0.00014065,0.00003082,-0.00000064,-0.19740906,-0.12204996
 ,0.02244180,0.01741306,0.00630526,0.00207939,0.18039087,0.13323810,-0.
 00106175,0.00026902,-0.00141991,0.00032436,-0.00033868,-0.00788546,0.0
 0069070,0.00059166,0.00128682,-0.00020119,-0.00006418,0.00077525,-0.00
 020198,0.00004254,-0.00013787,0.00005433,0.00010751,-0.00010960,0.0000
 2479,-0.00014248,0.00086160,0.00097645,-0.00111453,0.00286543,0.000016
 12,-0.00001042,-0.00001240,-0.00003301,-0.00001734,-0.00028860,-0.0000
 0661,-0.00000286,-0.00010754,-0.00000295,-0.00000075,0.00009082,0.0381
 5024,0.04283112,-0.03976565,-0.03450187,-0.01754595,-0.00026857,-0.004
 22761,-0.02460465,0.04411568\\-0.00000280,-0.00002634,0.00006179,-0.00
 009428,-0.00007538,0.00002391,-0.00002246,0.00006418,0.00001216,0.0000
 6828,-0.00000130,-0.00001793,0.00008088,0.00003796,-0.00001757,-0.0000
 1685,-0.00006466,-0.00000285,-0.00003687,0.00003990,0.00000128,-0.0000
 2538,0.00004565,-0.00006497,-0.00001646,-0.00000138,-0.00000284,0.0000
 0190,-0.00000366,0.00000958,-0.00000275,-0.00000295,0.00000063,0.00000
 135,-0.00000799,0.00000222,0.00000626,-0.00003068,-0.00002870,-0.00002
 136,0.00002304,0.00002789,0.00008054,0.00000360,-0.00000458\\\@


 MARY HAD A LITTLE LAMB
      HIS FEET WERE BLACK AS SOOT,
           AND EVERYWHERE THAT MARY WENT
                HIS SOOTY FOOT HE PUT.

                    -- NONAME
 Job cpu time:       0 days  1 hours 21 minutes 52.0 seconds.
 File lengths (MBytes):  RWF=    137 Int=      0 D2E=      0 Chk=      9 Scr=      1
 Normal termination of Gaussian 09 at Fri Aug 27 00:58:11 2021.
