 Entering Gaussian System, Link 0=g09
 AtFile(1): pc-2.gbs
            -H     0
            S    4   1.00
                  0.754230D+02           0.240650D-02
                  0.113500D+02           0.184870D-01
                  0.259930D+01           0.897420D-01
                  0.735130D+00           0.281110D+00
            S    1   1.00
                  0.231670D+00           0.100000D+01
            S    1   1.00
                  0.741470D-01           0.100000D+01
            P    1   1.00
                  0.160000D+01           0.100000D+01
            P    1   1.00
                  0.450000D+00           0.100000D+01
            D    1   1.00
                  0.125000D+01           0.100000D+01
            ****
            -C     0
            S    7   1.00
                  0.785710D+04           0.568250D-03
                  0.117870D+04           0.439150D-02
                  0.268320D+03           0.225040D-01
                  0.759480D+02           0.866530D-01
                  0.245590D+02           0.244050D+00
                  0.862120D+01           0.441480D+00
                  0.312780D+01           0.353320D+00
            S    7   1.00
                  0.117870D+04          -0.594920D-06
                  0.268320D+03          -0.627480D-04
                  0.759480D+02          -0.757730D-03
                  0.245590D+02          -0.733080D-02
                  0.862120D+01          -0.389320D-01
                  0.312780D+01          -0.889080D-01
                  0.822020D+00           0.216890D+00
            S    1   1.00
                  0.330170D+00           0.100000D+01
            S    1   1.00
                  0.114630D+00           0.100000D+01
            P    4   1.00
                  0.337750D+02           0.602940D-02
                  0.767660D+01           0.432280D-01
                  0.223570D+01           0.163010D+00
                  0.764470D+00           0.365040D+00
            P    1   1.00
                  0.262320D+00           0.100000D+01
            P    1   1.00
                  0.846380D-01           0.100000D+01
            D    1   1.00
                  0.140000D+01           0.100000D+01
            D    1   1.00
                  0.450000D+00           0.100000D+01
            F    1   1.00
                  0.950000D+00           0.100000D+01
            ****
            -N     0
            S    7   1.00
                  0.111010D+05           0.545700D-03
                  0.166530D+04           0.421810D-02
                  0.379080D+03           0.216450D-01
                  0.107300D+03           0.837760D-01
                  0.347470D+02           0.238810D+00
                  0.122490D+02           0.439940D+00
                  0.447430D+01           0.363640D+00
            S    7   1.00
                  0.166530D+04          -0.150060D-05
                  0.379080D+03          -0.587530D-04
                  0.107300D+03          -0.774530D-03
                  0.347470D+02          -0.721610D-02
                  0.122490D+02          -0.393380D-01
                  0.447430D+01          -0.906110D-01
                  0.124040D+01           0.198820D+00
            S    1   1.00
                  0.487430D+00           0.100000D+01
            S    1   1.00
                  0.164840D+00           0.100000D+01
            P    4   1.00
                  0.479340D+02           0.617060D-02
                  0.109990D+02           0.442600D-01
                  0.324720D+01           0.168250D+00
                  0.111140D+01           0.368480D+00
            P    1   1.00
                  0.379880D+00           0.100000D+01
            P    1   1.00
                  0.120680D+00           0.100000D+01
            D    1   1.00
                  0.180000D+01           0.100000D+01
            D    1   1.00
                  0.550000D+00           0.100000D+01
            F    1   1.00
                  0.102000D+01           0.100000D+01
            ****
            -O     0
            S    7   1.00
                  0.147820D+05           0.535190D-03
                  0.221730D+04           0.413750D-02
                  0.504740D+03           0.212450D-01
                  0.142870D+03           0.824530D-01
                  0.463000D+02           0.236710D+00
                  0.163370D+02           0.440390D+00
                  0.598280D+01           0.364650D+00
            S    7   1.00
                  0.221730D+04          -0.192750D-05
                  0.504740D+03          -0.579640D-04
                  0.142870D+03          -0.794940D-03
                  0.463000D+02          -0.731250D-02
                  0.163370D+02          -0.405740D-01
                  0.598280D+01          -0.915940D-01
                  0.167180D+01           0.209400D+00
            S    1   1.00
                  0.646620D+00           0.100000D+01
            S    1   1.00
                  0.216690D+00           0.100000D+01
            P    4   1.00
                  0.604240D+02           0.689490D-02
                  0.139350D+02           0.490050D-01
                  0.415310D+01           0.182550D+00
                  0.141580D+01           0.376330D+00
            P    1   1.00
                  0.475490D+00           0.100000D+01
            P    1   1.00
                  0.145290D+00           0.100000D+01
            D    1   1.00
                  0.220000D+01           0.100000D+01
            D    1   1.00
                  0.650000D+00           0.100000D+01
            F    1   1.00
                  0.110000D+01           0.100000D+01
            ****
 Initial command:
 /public3/home/sc51754/softwares/g09e01/l1.exe "./Gau-8464.inp" -scrdir="./"
 Entering Link 1 = /public3/home/sc51754/softwares/g09e01/l1.exe PID=      8465.
  
 Copyright (c) 1988,1990,1992,1993,1995,1998,2003,2009,2015,
            Gaussian, Inc.  All Rights Reserved.
  
 This is part of the Gaussian(R) 09 program.  It is based on
 the Gaussian(R) 03 system (copyright 2003, Gaussian, Inc.),
 the Gaussian(R) 98 system (copyright 1998, Gaussian, Inc.),
 the Gaussian(R) 94 system (copyright 1995, Gaussian, Inc.),
 the Gaussian 92(TM) system (copyright 1992, Gaussian, Inc.),
 the Gaussian 90(TM) system (copyright 1990, Gaussian, Inc.),
 the Gaussian 88(TM) system (copyright 1988, Gaussian, Inc.),
 the Gaussian 86(TM) system (copyright 1986, Carnegie Mellon
 University), and the Gaussian 82(TM) system (copyright 1983,
 Carnegie Mellon University). Gaussian is a federally registered
 trademark of Gaussian, Inc.
  
 This software contains proprietary and confidential information,
 including trade secrets, belonging to Gaussian, Inc.
  
 This software is provided under written license and may be
 used, copied, transmitted, or stored only in accord with that
 written license.
  
 The following legend is applicable only to US Government
 contracts under FAR:
  
                    RESTRICTED RIGHTS LEGEND
  
 Use, reproduction and disclosure by the US Government is
 subject to restrictions as set forth in subparagraphs (a)
 and (c) of the Commercial Computer Software - Restricted
 Rights clause in FAR 52.227-19.
  
 Gaussian, Inc.
 340 Quinnipiac St., Bldg. 40, Wallingford CT 06492
  
  
 ---------------------------------------------------------------
 Warning -- This program may not be used in any manner that
 competes with the business of Gaussian, Inc. or will provide
 assistance to any competitor of Gaussian, Inc.  The licensee
 of this program is prohibited from giving any competitor of
 Gaussian, Inc. access to this program.  By using this program,
 the user acknowledges that Gaussian, Inc. is engaged in the
 business of creating and licensing software in the field of
 computational chemistry and represents and warrants to the
 licensee that it is not a competitor of Gaussian, Inc. and that
 it will not use this program in any manner prohibited above.
 ---------------------------------------------------------------
  

 Cite this work as:
 Gaussian 09, Revision E.01,
 M. J. Frisch, G. W. Trucks, H. B. Schlegel, G. E. Scuseria, 
 M. A. Robb, J. R. Cheeseman, G. Scalmani, V. Barone, B. Mennucci, 
 G. A. Petersson, H. Nakatsuji, M. Caricato, X. Li, H. P. Hratchian, 
 A. F. Izmaylov, J. Bloino, G. Zheng, J. L. Sonnenberg, M. Hada, 
 M. Ehara, K. Toyota, R. Fukuda, J. Hasegawa, M. Ishida, T. Nakajima, 
 Y. Honda, O. Kitao, H. Nakai, T. Vreven, J. A. Montgomery, Jr., 
 J. E. Peralta, F. Ogliaro, M. Bearpark, J. J. Heyd, E. Brothers, 
 K. N. Kudin, V. N. Staroverov, T. Keith, R. Kobayashi, J. Normand, 
 K. Raghavachari, A. Rendell, J. C. Burant, S. S. Iyengar, J. Tomasi, 
 M. Cossi, N. Rega, J. M. Millam, M. Klene, J. E. Knox, J. B. Cross, 
 V. Bakken, C. Adamo, J. Jaramillo, R. Gomperts, R. E. Stratmann, 
 O. Yazyev, A. J. Austin, R. Cammi, C. Pomelli, J. W. Ochterski, 
 R. L. Martin, K. Morokuma, V. G. Zakrzewski, G. A. Voth, 
 P. Salvador, J. J. Dannenberg, S. Dapprich, A. D. Daniels, 
 O. Farkas, J. B. Foresman, J. V. Ortiz, J. Cioslowski, 
 and D. J. Fox, Gaussian, Inc., Wallingford CT, 2013.
 
 ******************************************
 Gaussian 09:  EM64L-G09RevE.01 30-Nov-2015
                27-Aug-2021 
 ******************************************
 %nprocshared=64
 Will use up to   64 processors via shared memory.
 %mem=128GB
 %chk=HY_H2O_LC-wPBE_PC2_OPT_FREQ.chk
 -----------------------
 #p opt freq LC-wPBE/gen
 -----------------------
 1/14=-1,18=20,19=15,26=3,38=1/1,3;
 2/9=110,12=2,17=6,18=5,40=1/2;
 3/5=7,11=2,16=1,25=1,30=1,71=1,74=-41/1,2,3;
 4//1;
 5/5=2,38=5/2;
 6/7=2,8=2,9=2,10=2,28=1/1;
 7//1,2,3,16;
 1/14=-1,18=20,19=15,26=3/3(2);
 2/9=110/2;
 99//99;
 2/9=110/2;
 3/5=7,6=1,11=2,16=1,25=1,30=1,71=1,74=-41,82=7/1,2,3;
 4/5=5,16=3,69=1/1;
 5/5=2,38=5/2;
 7//1,2,3,16;
 1/14=-1,18=20,19=15,26=3/3(-5);
 2/9=110/2;
 6/7=2,8=2,9=2,10=2,19=2,28=1/1;
 99/9=1/99;
 Leave Link    1 at Fri Aug 27 00:47:55 2021, MaxMem= 17179869184 cpu:         6.4
 (Enter /public3/home/sc51754/softwares/g09e01/l101.exe)
 ---------------------------
 HY_H2O_LC-wPBE_PC2_OPT_FREQ
 ---------------------------
 Symbolic Z-matrix:
 Charge =  0 Multiplicity = 1
 O                     1.216     1.44855  -0.00262 
 N                     0.30594  -0.66619  -0.00547 
 C                     0.13701   0.65516  -0.00009 
 C                    -1.12976   1.25518   0.00826 
 C                    -0.78318  -1.4465   -0.00563 
 C                    -2.23812   0.43549   0.00911 
 C                    -2.07199  -0.951     0.00173 
 H                     2.03022   0.90023  -0.0153 
 H                    -1.20631   2.3321    0.01208 
 H                    -0.59906  -2.51382  -0.01294 
 H                    -3.22982   0.86768   0.01456 
 H                    -2.91795  -1.62195   0.00074 
 O                     3.09571  -0.58722  -0.08503 
 H                     3.59397  -0.87925   0.68253 
 H                     2.20982  -1.00228  -0.02248 
 
 Add virtual bond connecting atoms O13        and H8         Dist= 3.46D+00.
 Add virtual bond connecting atoms H15        and N2         Dist= 3.65D+00.
 Add virtual bond connecting atoms H15        and H8         Dist= 3.61D+00.
 Add atom     13 valence  3 ND=      2 dihedral       8     13     14     15
 NAtoms=     15 NQM=       15 NQMF=       0 NMMI=      0 NMMIF=      0
                NMic=       0 NMicF=      0.
                    Isotopes and Nuclear Properties:
 (Nuclear quadrupole moments (NQMom) in fm**2, nuclear magnetic moments (NMagM)
  in nuclear magnetons)

  Atom         1           2           3           4           5           6           7           8           9          10
 IAtWgt=          16          14          12          12          12          12          12           1           1           1
 AtmWgt=  15.9949146  14.0030740  12.0000000  12.0000000  12.0000000  12.0000000  12.0000000   1.0078250   1.0078250   1.0078250
 NucSpn=           0           2           0           0           0           0           0           1           1           1
 AtZEff=   0.0000000   0.0000000   0.0000000   0.0000000   0.0000000   0.0000000   0.0000000   0.0000000   0.0000000   0.0000000
 NQMom=    0.0000000   2.0440000   0.0000000   0.0000000   0.0000000   0.0000000   0.0000000   0.0000000   0.0000000   0.0000000
 NMagM=    0.0000000   0.4037610   0.0000000   0.0000000   0.0000000   0.0000000   0.0000000   2.7928460   2.7928460   2.7928460
 AtZNuc=   8.0000000   7.0000000   6.0000000   6.0000000   6.0000000   6.0000000   6.0000000   1.0000000   1.0000000   1.0000000

  Atom        11          12          13          14          15
 IAtWgt=           1           1          16           1           1
 AtmWgt=   1.0078250   1.0078250  15.9949146   1.0078250   1.0078250
 NucSpn=           1           1           0           1           1
 AtZEff=   0.0000000   0.0000000   0.0000000   0.0000000   0.0000000
 NQMom=    0.0000000   0.0000000   0.0000000   0.0000000   0.0000000
 NMagM=    2.7928460   2.7928460   0.0000000   2.7928460   2.7928460
 AtZNuc=   1.0000000   1.0000000   8.0000000   1.0000000   1.0000000
 Leave Link  101 at Fri Aug 27 00:47:55 2021, MaxMem= 17179869184 cpu:         6.5
 (Enter /public3/home/sc51754/softwares/g09e01/l103.exe)

 GradGradGradGradGradGradGradGradGradGradGradGradGradGradGradGradGradGrad
 Berny optimization.
 Initialization pass.
                           ----------------------------
                           !    Initial Parameters    !
                           ! (Angstroms and Degrees)  !
 --------------------------                            --------------------------
 ! Name  Definition              Value          Derivative Info.                !
 --------------------------------------------------------------------------------
 ! R1    R(1,3)                  1.3393         estimate D2E/DX2                !
 ! R2    R(1,8)                  0.9817         estimate D2E/DX2                !
 ! R3    R(2,3)                  1.3321         estimate D2E/DX2                !
 ! R4    R(2,5)                  1.3398         estimate D2E/DX2                !
 ! R5    R(2,15)                 1.9334         estimate D2E/DX2                !
 ! R6    R(3,4)                  1.4017         estimate D2E/DX2                !
 ! R7    R(4,6)                  1.3785         estimate D2E/DX2                !
 ! R8    R(4,9)                  1.0796         estimate D2E/DX2                !
 ! R9    R(5,7)                  1.3808         estimate D2E/DX2                !
 ! R10   R(5,10)                 1.0831         estimate D2E/DX2                !
 ! R11   R(6,7)                  1.3964         estimate D2E/DX2                !
 ! R12   R(6,11)                 1.0818         estimate D2E/DX2                !
 ! R13   R(7,12)                 1.0797         estimate D2E/DX2                !
 ! R14   R(8,13)                 1.831          estimate D2E/DX2                !
 ! R15   R(8,15)                 1.911          estimate D2E/DX2                !
 ! R16   R(13,14)                0.9606         estimate D2E/DX2                !
 ! R17   R(13,15)                0.9803         estimate D2E/DX2                !
 ! A1    A(3,1,8)              109.7141         estimate D2E/DX2                !
 ! A2    A(3,2,5)              118.3342         estimate D2E/DX2                !
 ! A3    A(3,2,15)             107.2978         estimate D2E/DX2                !
 ! A4    A(5,2,15)             134.3668         estimate D2E/DX2                !
 ! A5    A(1,3,2)              119.0414         estimate D2E/DX2                !
 ! A6    A(1,3,4)              118.3271         estimate D2E/DX2                !
 ! A7    A(2,3,4)              122.6315         estimate D2E/DX2                !
 ! A8    A(3,4,6)              118.1694         estimate D2E/DX2                !
 ! A9    A(3,4,9)              119.4119         estimate D2E/DX2                !
 ! A10   A(6,4,9)              122.4186         estimate D2E/DX2                !
 ! A11   A(2,5,7)              123.3496         estimate D2E/DX2                !
 ! A12   A(2,5,10)             115.832          estimate D2E/DX2                !
 ! A13   A(7,5,10)             120.8184         estimate D2E/DX2                !
 ! A14   A(4,6,7)              119.6513         estimate D2E/DX2                !
 ! A15   A(4,6,11)             119.9667         estimate D2E/DX2                !
 ! A16   A(7,6,11)             120.382          estimate D2E/DX2                !
 ! A17   A(5,7,6)              117.8639         estimate D2E/DX2                !
 ! A18   A(5,7,12)             120.5506         estimate D2E/DX2                !
 ! A19   A(6,7,12)             121.5855         estimate D2E/DX2                !
 ! A20   A(1,8,13)             159.5294         estimate D2E/DX2                !
 ! A21   A(1,8,15)             129.3503         estimate D2E/DX2                !
 ! A22   A(8,13,14)            121.2243         estimate D2E/DX2                !
 ! A23   A(14,13,15)           106.8012         estimate D2E/DX2                !
 ! A24   A(2,15,8)              74.5948         estimate D2E/DX2                !
 ! A25   A(2,15,13)            144.7717         estimate D2E/DX2                !
 ! D1    D(8,1,3,2)              0.4232         estimate D2E/DX2                !
 ! D2    D(8,1,3,4)           -179.5823         estimate D2E/DX2                !
 ! D3    D(3,1,8,13)             4.1107         estimate D2E/DX2                !
 ! D4    D(3,1,8,15)            -0.4785         estimate D2E/DX2                !
 ! D5    D(5,2,3,1)           -179.8646         estimate D2E/DX2                !
 ! D6    D(5,2,3,4)              0.1411         estimate D2E/DX2                !
 ! D7    D(15,2,3,1)            -0.2046         estimate D2E/DX2                !
 ! D8    D(15,2,3,4)           179.8011         estimate D2E/DX2                !
 ! D9    D(3,2,5,7)             -0.1121         estimate D2E/DX2                !
 ! D10   D(3,2,5,10)           179.8324         estimate D2E/DX2                !
 ! D11   D(15,2,5,7)          -179.6581         estimate D2E/DX2                !
 ! D12   D(15,2,5,10)            0.2865         estimate D2E/DX2                !
 ! D13   D(3,2,15,8)            -0.0003         estimate D2E/DX2                !
 ! D14   D(3,2,15,13)           -5.7168         estimate D2E/DX2                !
 ! D15   D(5,2,15,8)           179.5811         estimate D2E/DX2                !
 ! D16   D(5,2,15,13)          173.8646         estimate D2E/DX2                !
 ! D17   D(1,3,4,6)            179.9187         estimate D2E/DX2                !
 ! D18   D(1,3,4,9)              0.0211         estimate D2E/DX2                !
 ! D19   D(2,3,4,6)             -0.0869         estimate D2E/DX2                !
 ! D20   D(2,3,4,9)           -179.9845         estimate D2E/DX2                !
 ! D21   D(3,4,6,7)             -0.0001         estimate D2E/DX2                !
 ! D22   D(3,4,6,11)          -179.9445         estimate D2E/DX2                !
 ! D23   D(9,4,6,7)            179.8942         estimate D2E/DX2                !
 ! D24   D(9,4,6,11)            -0.0502         estimate D2E/DX2                !
 ! D25   D(2,5,7,6)              0.0291         estimate D2E/DX2                !
 ! D26   D(2,5,7,12)           179.968          estimate D2E/DX2                !
 ! D27   D(10,5,7,6)          -179.9128         estimate D2E/DX2                !
 ! D28   D(10,5,7,12)            0.0261         estimate D2E/DX2                !
 ! D29   D(4,6,7,5)              0.0272         estimate D2E/DX2                !
 ! D30   D(4,6,7,12)          -179.911          estimate D2E/DX2                !
 ! D31   D(11,6,7,5)           179.9714         estimate D2E/DX2                !
 ! D32   D(11,6,7,12)            0.0332         estimate D2E/DX2                !
 ! D33   D(1,8,13,14)         -110.3582         estimate D2E/DX2                !
 ! D34   D(1,8,15,2)             0.3164         estimate D2E/DX2                !
 ! D35   D(8,13,14,15)          87.5843         estimate D2E/DX2                !
 ! D36   D(14,13,15,2)         125.4771         estimate D2E/DX2                !
 --------------------------------------------------------------------------------
 Trust Radius=3.00D-01 FncErr=1.00D-07 GrdErr=1.00D-06
 Number of steps in this run=     88 maximum allowed number of steps=    100.
 GradGradGradGradGradGradGradGradGradGradGradGradGradGradGradGradGradGrad

 Leave Link  103 at Fri Aug 27 00:47:55 2021, MaxMem= 17179869184 cpu:         0.1
 (Enter /public3/home/sc51754/softwares/g09e01/l202.exe)
                          Input orientation:                          
 ---------------------------------------------------------------------
 Center     Atomic      Atomic             Coordinates (Angstroms)
 Number     Number       Type             X           Y           Z
 ---------------------------------------------------------------------
      1          8           0        1.216003    1.448553   -0.002617
      2          7           0        0.305942   -0.666194   -0.005465
      3          6           0        0.137014    0.655155   -0.000094
      4          6           0       -1.129757    1.255183    0.008257
      5          6           0       -0.783175   -1.446498   -0.005634
      6          6           0       -2.238124    0.435485    0.009108
      7          6           0       -2.071986   -0.950998    0.001732
      8          1           0        2.030216    0.900227   -0.015295
      9          1           0       -1.206308    2.332099    0.012077
     10          1           0       -0.599059   -2.513820   -0.012944
     11          1           0       -3.229823    0.867678    0.014558
     12          1           0       -2.917952   -1.621952    0.000735
     13          8           0        3.095711   -0.587217   -0.085025
     14          1           0        3.593966   -0.879251    0.682533
     15          1           0        2.209819   -1.002278   -0.022484
 ---------------------------------------------------------------------
                    Distance matrix (angstroms):
                    1          2          3          4          5
     1  O    0.000000
     2  N    2.302254   0.000000
     3  C    1.339292   1.332114   0.000000
     4  C    2.353742   2.398564   1.401718   0.000000
     5  C    3.518244   1.339795   2.294281   2.723856   0.000000
     6  C    3.599644   2.772396   2.385292   1.378544   2.378856
     7  C    4.070471   2.394934   2.731192   2.398973   1.380800
     8  H    0.981715   2.329569   1.909059   3.179934   3.663657
     9  H    2.578461   3.358120   2.148675   1.079640   3.802256
    10  H    4.358320   2.057378   3.253363   3.806241   1.083111
    11  H    4.483646   3.854192   3.373570   2.135527   3.367774
    12  H    5.149524   3.362589   3.810254   3.387566   2.141984
    13  O    2.772085   2.792020   3.210076   4.610609   3.973717
    14  H    3.397471   3.365982   3.843293   5.227238   4.467069
    15  H    2.644738   1.933388   2.654073   4.031109   3.025827
                    6          7          8          9         10
     6  C    0.000000
     7  C    1.396421   0.000000
     8  H    4.293636   4.500598   0.000000
     9  H    2.159120   3.395325   3.539222   0.000000
    10  H    3.374229   2.147590   4.309154   4.883883   0.000000
    11  H    1.081798   2.155999   5.260224   2.497829   4.284414
    12  H    2.166860   1.079740   5.553918   4.308639   2.484528
    13  O    5.431812   5.181212   1.831019   5.199923   4.167532
    14  H    6.016253   5.707158   2.469579   5.814199   4.553786
    15  H    4.674651   4.282181   1.910977   4.773802   3.189772
                   11         12         13         14         15
    11  H    0.000000
    12  H    2.509126   0.000000
    13  O    6.491457   6.102637   0.000000
    14  H    7.075454   6.589501   0.960566   0.000000
    15  H    5.752201   5.165130   0.980302   1.558219   0.000000
 Stoichiometry    C5H7NO2
 Framework group  C1[X(C5H7NO2)]
 Deg. of freedom    39
 Full point group                 C1      NOp   1
 Largest Abelian subgroup         C1      NOp   1
 Largest concise Abelian subgroup C1      NOp   1
                         Standard orientation:                         
 ---------------------------------------------------------------------
 Center     Atomic      Atomic             Coordinates (Angstroms)
 Number     Number       Type             X           Y           Z
 ---------------------------------------------------------------------
      1          8           0        1.216003    1.448553   -0.002617
      2          7           0        0.305942   -0.666194   -0.005465
      3          6           0        0.137014    0.655155   -0.000094
      4          6           0       -1.129757    1.255183    0.008257
      5          6           0       -0.783175   -1.446498   -0.005634
      6          6           0       -2.238124    0.435485    0.009108
      7          6           0       -2.071986   -0.950998    0.001732
      8          1           0        2.030216    0.900227   -0.015295
      9          1           0       -1.206308    2.332099    0.012077
     10          1           0       -0.599059   -2.513820   -0.012944
     11          1           0       -3.229823    0.867678    0.014558
     12          1           0       -2.917952   -1.621952    0.000735
     13          8           0        3.095711   -0.587217   -0.085025
     14          1           0        3.593966   -0.879251    0.682533
     15          1           0        2.209819   -1.002278   -0.022484
 ---------------------------------------------------------------------
 Rotational constants (GHZ):      4.0123302      1.4179596      1.0501753
 Leave Link  202 at Fri Aug 27 00:47:55 2021, MaxMem= 17179869184 cpu:         2.3
 (Enter /public3/home/sc51754/softwares/g09e01/l301.exe)
 General basis read from cards:  (5D, 7F)
 Centers:       8      9     10     11     12     14     15
 S 4 1.00
     Exponent=  7.5423000000D+01 Coefficients=  2.4065000000D-03
     Exponent=  1.1350000000D+01 Coefficients=  1.8487000000D-02
     Exponent=  2.5993000000D+00 Coefficients=  8.9742000000D-02
     Exponent=  7.3513000000D-01 Coefficients=  2.8111000000D-01
 S 1 1.00
     Exponent=  2.3167000000D-01 Coefficients=  1.0000000000D+00
 S 1 1.00
     Exponent=  7.4147000000D-02 Coefficients=  1.0000000000D+00
 P 1 1.00
     Exponent=  1.6000000000D+00 Coefficients=  1.0000000000D+00
 P 1 1.00
     Exponent=  4.5000000000D-01 Coefficients=  1.0000000000D+00
 D 1 1.00
     Exponent=  1.2500000000D+00 Coefficients=  1.0000000000D+00
 ****
 Centers:       3      4      5      6      7
 S 7 1.00
     Exponent=  7.8571000000D+03 Coefficients=  5.6825000000D-04
     Exponent=  1.1787000000D+03 Coefficients=  4.3915000000D-03
     Exponent=  2.6832000000D+02 Coefficients=  2.2504000000D-02
     Exponent=  7.5948000000D+01 Coefficients=  8.6653000000D-02
     Exponent=  2.4559000000D+01 Coefficients=  2.4405000000D-01
     Exponent=  8.6212000000D+00 Coefficients=  4.4148000000D-01
     Exponent=  3.1278000000D+00 Coefficients=  3.5332000000D-01
 S 7 1.00
     Exponent=  1.1787000000D+03 Coefficients= -5.9492000000D-07
     Exponent=  2.6832000000D+02 Coefficients= -6.2748000000D-05
     Exponent=  7.5948000000D+01 Coefficients= -7.5773000000D-04
     Exponent=  2.4559000000D+01 Coefficients= -7.3308000000D-03
     Exponent=  8.6212000000D+00 Coefficients= -3.8932000000D-02
     Exponent=  3.1278000000D+00 Coefficients= -8.8908000000D-02
     Exponent=  8.2202000000D-01 Coefficients=  2.1689000000D-01
 S 1 1.00
     Exponent=  3.3017000000D-01 Coefficients=  1.0000000000D+00
 S 1 1.00
     Exponent=  1.1463000000D-01 Coefficients=  1.0000000000D+00
 P 4 1.00
     Exponent=  3.3775000000D+01 Coefficients=  6.0294000000D-03
     Exponent=  7.6766000000D+00 Coefficients=  4.3228000000D-02
     Exponent=  2.2357000000D+00 Coefficients=  1.6301000000D-01
     Exponent=  7.6447000000D-01 Coefficients=  3.6504000000D-01
 P 1 1.00
     Exponent=  2.6232000000D-01 Coefficients=  1.0000000000D+00
 P 1 1.00
     Exponent=  8.4638000000D-02 Coefficients=  1.0000000000D+00
 D 1 1.00
     Exponent=  1.4000000000D+00 Coefficients=  1.0000000000D+00
 D 1 1.00
     Exponent=  4.5000000000D-01 Coefficients=  1.0000000000D+00
 F 1 1.00
     Exponent=  9.5000000000D-01 Coefficients=  1.0000000000D+00
 ****
 Centers:       2
 S 7 1.00
     Exponent=  1.1101000000D+04 Coefficients=  5.4570000000D-04
     Exponent=  1.6653000000D+03 Coefficients=  4.2181000000D-03
     Exponent=  3.7908000000D+02 Coefficients=  2.1645000000D-02
     Exponent=  1.0730000000D+02 Coefficients=  8.3776000000D-02
     Exponent=  3.4747000000D+01 Coefficients=  2.3881000000D-01
     Exponent=  1.2249000000D+01 Coefficients=  4.3994000000D-01
     Exponent=  4.4743000000D+00 Coefficients=  3.6364000000D-01
 S 7 1.00
     Exponent=  1.6653000000D+03 Coefficients= -1.5006000000D-06
     Exponent=  3.7908000000D+02 Coefficients= -5.8753000000D-05
     Exponent=  1.0730000000D+02 Coefficients= -7.7453000000D-04
     Exponent=  3.4747000000D+01 Coefficients= -7.2161000000D-03
     Exponent=  1.2249000000D+01 Coefficients= -3.9338000000D-02
     Exponent=  4.4743000000D+00 Coefficients= -9.0611000000D-02
     Exponent=  1.2404000000D+00 Coefficients=  1.9882000000D-01
 S 1 1.00
     Exponent=  4.8743000000D-01 Coefficients=  1.0000000000D+00
 S 1 1.00
     Exponent=  1.6484000000D-01 Coefficients=  1.0000000000D+00
 P 4 1.00
     Exponent=  4.7934000000D+01 Coefficients=  6.1706000000D-03
     Exponent=  1.0999000000D+01 Coefficients=  4.4260000000D-02
     Exponent=  3.2472000000D+00 Coefficients=  1.6825000000D-01
     Exponent=  1.1114000000D+00 Coefficients=  3.6848000000D-01
 P 1 1.00
     Exponent=  3.7988000000D-01 Coefficients=  1.0000000000D+00
 P 1 1.00
     Exponent=  1.2068000000D-01 Coefficients=  1.0000000000D+00
 D 1 1.00
     Exponent=  1.8000000000D+00 Coefficients=  1.0000000000D+00
 D 1 1.00
     Exponent=  5.5000000000D-01 Coefficients=  1.0000000000D+00
 F 1 1.00
     Exponent=  1.0200000000D+00 Coefficients=  1.0000000000D+00
 ****
 Centers:       1     13
 S 7 1.00
     Exponent=  1.4782000000D+04 Coefficients=  5.3519000000D-04
     Exponent=  2.2173000000D+03 Coefficients=  4.1375000000D-03
     Exponent=  5.0474000000D+02 Coefficients=  2.1245000000D-02
     Exponent=  1.4287000000D+02 Coefficients=  8.2453000000D-02
     Exponent=  4.6300000000D+01 Coefficients=  2.3671000000D-01
     Exponent=  1.6337000000D+01 Coefficients=  4.4039000000D-01
     Exponent=  5.9828000000D+00 Coefficients=  3.6465000000D-01
 S 7 1.00
     Exponent=  2.2173000000D+03 Coefficients= -1.9275000000D-06
     Exponent=  5.0474000000D+02 Coefficients= -5.7964000000D-05
     Exponent=  1.4287000000D+02 Coefficients= -7.9494000000D-04
     Exponent=  4.6300000000D+01 Coefficients= -7.3125000000D-03
     Exponent=  1.6337000000D+01 Coefficients= -4.0574000000D-02
     Exponent=  5.9828000000D+00 Coefficients= -9.1594000000D-02
     Exponent=  1.6718000000D+00 Coefficients=  2.0940000000D-01
 S 1 1.00
     Exponent=  6.4662000000D-01 Coefficients=  1.0000000000D+00
 S 1 1.00
     Exponent=  2.1669000000D-01 Coefficients=  1.0000000000D+00
 P 4 1.00
     Exponent=  6.0424000000D+01 Coefficients=  6.8949000000D-03
     Exponent=  1.3935000000D+01 Coefficients=  4.9005000000D-02
     Exponent=  4.1531000000D+00 Coefficients=  1.8255000000D-01
     Exponent=  1.4158000000D+00 Coefficients=  3.7633000000D-01
 P 1 1.00
     Exponent=  4.7549000000D-01 Coefficients=  1.0000000000D+00
 P 1 1.00
     Exponent=  1.4529000000D-01 Coefficients=  1.0000000000D+00
 D 1 1.00
     Exponent=  2.2000000000D+00 Coefficients=  1.0000000000D+00
 D 1 1.00
     Exponent=  6.5000000000D-01 Coefficients=  1.0000000000D+00
 F 1 1.00
     Exponent=  1.1000000000D+00 Coefficients=  1.0000000000D+00
 ****
 Ernie: Thresh=  0.10000D-02 Tol=  0.10000D-05 Strict=F.
 Ernie:  8 primitive shells out of 263 were deleted.
 There are   385 symmetry adapted cartesian basis functions of A   symmetry.
 There are   338 symmetry adapted basis functions of A   symmetry.
   338 basis functions,   566 primitive gaussians,   385 cartesian basis functions
    30 alpha electrons       30 beta electrons
       nuclear repulsion energy       357.6226221683 Hartrees.
 IExCor=32609 DFT=T Ex+Corr=LC-wPBE ExCW=0 ScaHFX=  1.000000
 ScaDFX=  1.000000  0.000000  1.000000  1.000000 ScalE2=  1.000000  1.000000
 IRadAn=      0 IRanWt=     -1 IRanGd=            0 ICorTp=0 IEmpDi=  4
  HFx wShort=  0.000000 wLong=  0.400000 cFull=  0.000000 cShort=  0.000000 cLong=  1.000000
  DFx wShort=  0.000000 wLong=  0.400000 cFull=  0.000000 cShort=  0.000000 cLong=  1.000000
 NAtoms=   15 NActive=   15 NUniq=   15 SFac= 1.00D+00 NAtFMM=   60 NAOKFM=F Big=F
 Integral buffers will be    131072 words long.
 Raffenetti 2 integral format.
 Two-electron integral symmetry is turned on.
 Leave Link  301 at Fri Aug 27 00:47:56 2021, MaxMem= 17179869184 cpu:         2.0
 (Enter /public3/home/sc51754/softwares/g09e01/l302.exe)
 NPDir=0 NMtPBC=     1 NCelOv=     1 NCel=       1 NClECP=     1 NCelD=      1
         NCelK=      1 NCelE2=     1 NClLst=     1 CellRange=     0.0.
 One-electron integrals computed using PRISM.
 NBasis=   338 RedAO= T EigKep=  1.46D-04  NBF=   338
 NBsUse=   338 1.00D-06 EigRej= -1.00D+00 NBFU=   338
 Precomputing XC quadrature grid using
 IXCGrd= 4 IRadAn=           0 IRanWt=          -1 IRanGd=           0 AccXCQ= 0.00D+00.
 Generated NRdTot=       0 NPtTot=           0 NUsed=           0 NTot=          32
 NSgBfM=   384   384   384   384   385 MxSgAt=    15 MxSgA2=    15.
 Leave Link  302 at Fri Aug 27 00:47:56 2021, MaxMem= 17179869184 cpu:        47.6
 (Enter /public3/home/sc51754/softwares/g09e01/l303.exe)
 DipDrv:  MaxL=1.
 Leave Link  303 at Fri Aug 27 00:47:57 2021, MaxMem= 17179869184 cpu:        13.4
 (Enter /public3/home/sc51754/softwares/g09e01/l401.exe)
 ExpMin= 7.41D-02 ExpMax= 1.48D+04 ExpMxC= 5.05D+02 IAcc=2 IRadAn=         4 AccDes= 0.00D+00
 Harris functional with IExCor=32609 and IRadAn=       4 diagonalized for initial guess.
 HarFok:  IExCor=32609 AccDes= 0.00D+00 IRadAn=         4 IDoV= 1 UseB2=F ITyADJ=14
 ICtDFT=  3500011 ScaDFX=  1.000000  1.000000  1.000000  1.000000
 FoFCou: FMM=F IPFlag=           0 FMFlag=      100000 FMFlg1=           0
         NFxFlg=           0 DoJE=T BraDBF=F KetDBF=T FulRan=T
         wScrn=  0.000000 ICntrl=     500 IOpCl=  0 I1Cent=   200000004 NGrid=           0
         NMat0=    1 NMatS0=      1 NMatT0=    0 NMatD0=    1 NMtDS0=    0 NMtDT0=    0
 Petite list used in FoFCou.
 Harris En= -399.858460635935    
 JPrj=0 DoOrth=F DoCkMO=F.
 Leave Link  401 at Fri Aug 27 00:47:58 2021, MaxMem= 17179869184 cpu:        55.7
 (Enter /public3/home/sc51754/softwares/g09e01/l502.exe)
 Closed shell SCF:
 Using DIIS extrapolation, IDIIS=  1040.
 Integral symmetry usage will be decided dynamically.
 Keep R1 ints in memory in canonical form, NReq=3311562672.
 IVT=      490665 IEndB=      490665 NGot= 17179869184 MDV= 13897062548
 LenX= 13897062548 LenY= 13896913882
 Requested convergence on RMS density matrix=1.00D-08 within 128 cycles.
 Requested convergence on MAX density matrix=1.00D-06.
 Requested convergence on             energy=1.00D-06.
 No special actions if energy rises.
 FoFCou: FMM=F IPFlag=           0 FMFlag=           0 FMFlg1=           0
         NFxFlg=           0 DoJE=F BraDBF=F KetDBF=F FulRan=T
         wScrn=  0.000000 ICntrl=     600 IOpCl=  0 I1Cent=           0 NGrid=           0
         NMat0=    1 NMatS0=  57291 NMatT0=    0 NMatD0=    1 NMtDS0=    0 NMtDT0=    0
 Symmetry not used in FoFCou.
 Integral accuracy reduced to 1.0D-05 until final iterations.

 Cycle   1  Pass 0  IDiag  1:
 E= -399.663798666164    
 DIIS: error= 2.28D-02 at cycle   1 NSaved=   1.
 NSaved= 1 IEnMin= 1 EnMin= -399.663798666164     IErMin= 1 ErrMin= 2.28D-02
 ErrMax= 2.28D-02  0.00D+00 EMaxC= 1.00D-01 BMatC= 2.58D-01 BMatP= 2.58D-01
 IDIUse=3 WtCom= 7.72D-01 WtEn= 2.28D-01
 Coeff-Com:  0.100D+01
 Coeff-En:   0.100D+01
 Coeff:      0.100D+01
 Gap=     0.390 Goal=   None    Shift=    0.000
 GapD=    0.390 DampG=1.000 DampE=0.500 DampFc=0.5000 IDamp=-1.
 Damping current iteration by 5.00D-01
 RMSDP=1.71D-03 MaxDP=1.03D-01              OVMax= 1.26D-01

 Cycle   2  Pass 0  IDiag  1:
 E= -399.770749905437     Delta-E=       -0.106951239273 Rises=F Damp=T
 DIIS: error= 6.51D-03 at cycle   2 NSaved=   2.
 NSaved= 2 IEnMin= 2 EnMin= -399.770749905437     IErMin= 2 ErrMin= 6.51D-03
 ErrMax= 6.51D-03  0.00D+00 EMaxC= 1.00D-01 BMatC= 1.16D-02 BMatP= 2.58D-01
 IDIUse=3 WtCom= 9.35D-01 WtEn= 6.51D-02
 Coeff-Com: -0.802D-01 0.108D+01
 Coeff-En:   0.000D+00 0.100D+01
 Coeff:     -0.749D-01 0.107D+01
 Gap=     0.424 Goal=   None    Shift=    0.000
 RMSDP=4.29D-04 MaxDP=2.40D-02 DE=-1.07D-01 OVMax= 6.72D-02

 Cycle   3  Pass 0  IDiag  1:
 E= -399.868525183894     Delta-E=       -0.097775278457 Rises=F Damp=F
 DIIS: error= 1.96D-03 at cycle   3 NSaved=   3.
 NSaved= 3 IEnMin= 3 EnMin= -399.868525183894     IErMin= 3 ErrMin= 1.96D-03
 ErrMax= 1.96D-03  0.00D+00 EMaxC= 1.00D-01 BMatC= 2.67D-03 BMatP= 1.16D-02
 IDIUse=3 WtCom= 9.80D-01 WtEn= 1.96D-02
 Coeff-Com: -0.515D-01 0.339D+00 0.712D+00
 Coeff-En:   0.000D+00 0.000D+00 0.100D+01
 Coeff:     -0.505D-01 0.332D+00 0.718D+00
 Gap=     0.388 Goal=   None    Shift=    0.000
 RMSDP=1.26D-04 MaxDP=7.54D-03 DE=-9.78D-02 OVMax= 1.19D-02

 Cycle   4  Pass 0  IDiag  1:
 E= -399.870348345427     Delta-E=       -0.001823161533 Rises=F Damp=F
 DIIS: error= 6.80D-04 at cycle   4 NSaved=   4.
 NSaved= 4 IEnMin= 4 EnMin= -399.870348345427     IErMin= 4 ErrMin= 6.80D-04
 ErrMax= 6.80D-04  0.00D+00 EMaxC= 1.00D-01 BMatC= 2.97D-04 BMatP= 2.67D-03
 IDIUse=3 WtCom= 9.93D-01 WtEn= 6.80D-03
 Coeff-Com: -0.759D-02 0.300D-01 0.258D+00 0.720D+00
 Coeff-En:   0.000D+00 0.000D+00 0.000D+00 0.100D+01
 Coeff:     -0.754D-02 0.298D-01 0.256D+00 0.722D+00
 Gap=     0.389 Goal=   None    Shift=    0.000
 RMSDP=3.76D-05 MaxDP=3.39D-03 DE=-1.82D-03 OVMax= 4.10D-03

 Cycle   5  Pass 0  IDiag  1:
 E= -399.870575955053     Delta-E=       -0.000227609626 Rises=F Damp=F
 DIIS: error= 1.49D-04 at cycle   5 NSaved=   5.
 NSaved= 5 IEnMin= 5 EnMin= -399.870575955053     IErMin= 5 ErrMin= 1.49D-04
 ErrMax= 1.49D-04  0.00D+00 EMaxC= 1.00D-01 BMatC= 1.79D-05 BMatP= 2.97D-04
 IDIUse=3 WtCom= 9.99D-01 WtEn= 1.49D-03
 Coeff-Com:  0.107D-02-0.918D-02 0.431D-01 0.238D+00 0.727D+00
 Coeff-En:   0.000D+00 0.000D+00 0.000D+00 0.000D+00 0.100D+01
 Coeff:      0.107D-02-0.917D-02 0.430D-01 0.238D+00 0.727D+00
 Gap=     0.388 Goal=   None    Shift=    0.000
 RMSDP=1.20D-05 MaxDP=7.57D-04 DE=-2.28D-04 OVMax= 1.36D-03

 Cycle   6  Pass 0  IDiag  1:
 E= -399.870591024325     Delta-E=       -0.000015069272 Rises=F Damp=F
 DIIS: error= 9.92D-05 at cycle   6 NSaved=   6.
 NSaved= 6 IEnMin= 6 EnMin= -399.870591024325     IErMin= 6 ErrMin= 9.92D-05
 ErrMax= 9.92D-05  0.00D+00 EMaxC= 1.00D-01 BMatC= 3.18D-06 BMatP= 1.79D-05
 IDIUse=1 WtCom= 1.00D+00 WtEn= 0.00D+00
 Coeff-Com:  0.130D-02-0.714D-02-0.930D-02 0.223D-01 0.309D+00 0.684D+00
 Coeff:      0.130D-02-0.714D-02-0.930D-02 0.223D-01 0.309D+00 0.684D+00
 Gap=     0.389 Goal=   None    Shift=    0.000
 RMSDP=4.58D-06 MaxDP=2.94D-04 DE=-1.51D-05 OVMax= 6.26D-04

 Initial convergence to 1.0D-05 achieved.  Increase integral accuracy.
 Cycle   7  Pass 1  IDiag  1:
 E= -399.870606692610     Delta-E=       -0.000015668285 Rises=F Damp=F
 DIIS: error= 4.01D-05 at cycle   1 NSaved=   1.
 NSaved= 1 IEnMin= 1 EnMin= -399.870606692610     IErMin= 1 ErrMin= 4.01D-05
 ErrMax= 4.01D-05  0.00D+00 EMaxC= 1.00D-01 BMatC= 2.46D-07 BMatP= 2.46D-07
 IDIUse=1 WtCom= 1.00D+00 WtEn= 0.00D+00
 Coeff-Com:  0.100D+01
 Coeff:      0.100D+01
 Gap=     0.389 Goal=   None    Shift=    0.000
 RMSDP=4.58D-06 MaxDP=2.94D-04 DE=-1.57D-05 OVMax= 4.93D-04

 Cycle   8  Pass 1  IDiag  1:
 E= -399.870607373259     Delta-E=       -0.000000680649 Rises=F Damp=F
 DIIS: error= 2.64D-05 at cycle   2 NSaved=   2.
 NSaved= 2 IEnMin= 2 EnMin= -399.870607373259     IErMin= 2 ErrMin= 2.64D-05
 ErrMax= 2.64D-05  0.00D+00 EMaxC= 1.00D-01 BMatC= 1.12D-07 BMatP= 2.46D-07
 IDIUse=1 WtCom= 1.00D+00 WtEn= 0.00D+00
 Coeff-Com:  0.333D+00 0.667D+00
 Coeff:      0.333D+00 0.667D+00
 Gap=     0.389 Goal=   None    Shift=    0.000
 RMSDP=9.68D-07 MaxDP=4.35D-05 DE=-6.81D-07 OVMax= 1.81D-04

 Cycle   9  Pass 1  IDiag  1:
 E= -399.870607436596     Delta-E=       -0.000000063337 Rises=F Damp=F
 DIIS: error= 1.62D-05 at cycle   3 NSaved=   3.
 NSaved= 3 IEnMin= 3 EnMin= -399.870607436596     IErMin= 3 ErrMin= 1.62D-05
 ErrMax= 1.62D-05  0.00D+00 EMaxC= 1.00D-01 BMatC= 2.80D-08 BMatP= 1.12D-07
 IDIUse=1 WtCom= 1.00D+00 WtEn= 0.00D+00
 Coeff-Com: -0.166D+00 0.219D+00 0.947D+00
 Coeff:     -0.166D+00 0.219D+00 0.947D+00
 Gap=     0.389 Goal=   None    Shift=    0.000
 RMSDP=8.90D-07 MaxDP=2.99D-05 DE=-6.33D-08 OVMax= 2.18D-04

 Cycle  10  Pass 1  IDiag  1:
 E= -399.870607606442     Delta-E=       -0.000000169846 Rises=F Damp=F
 DIIS: error= 7.94D-06 at cycle   4 NSaved=   4.
 NSaved= 4 IEnMin= 4 EnMin= -399.870607606442     IErMin= 4 ErrMin= 7.94D-06
 ErrMax= 7.94D-06  0.00D+00 EMaxC= 1.00D-01 BMatC= 4.52D-09 BMatP= 2.80D-08
 IDIUse=1 WtCom= 1.00D+00 WtEn= 0.00D+00
 Coeff-Com: -0.717D-01-0.123D+00 0.106D+00 0.109D+01
 Coeff:     -0.717D-01-0.123D+00 0.106D+00 0.109D+01
 Gap=     0.389 Goal=   None    Shift=    0.000
 RMSDP=5.20D-07 MaxDP=1.86D-05 DE=-1.70D-07 OVMax= 1.29D-04

 Cycle  11  Pass 1  IDiag  1:
 E= -399.870607631407     Delta-E=       -0.000000024965 Rises=F Damp=F
 DIIS: error= 2.95D-06 at cycle   5 NSaved=   5.
 NSaved= 5 IEnMin= 5 EnMin= -399.870607631407     IErMin= 5 ErrMin= 2.95D-06
 ErrMax= 2.95D-06  0.00D+00 EMaxC= 1.00D-01 BMatC= 1.19D-09 BMatP= 4.52D-09
 IDIUse=1 WtCom= 1.00D+00 WtEn= 0.00D+00
 Coeff-Com:  0.112D-01-0.108D+00-0.167D+00 0.407D+00 0.857D+00
 Coeff:      0.112D-01-0.108D+00-0.167D+00 0.407D+00 0.857D+00
 Gap=     0.389 Goal=   None    Shift=    0.000
 RMSDP=2.32D-07 MaxDP=8.42D-06 DE=-2.50D-08 OVMax= 5.73D-05

 Cycle  12  Pass 1  IDiag  1:
 E= -399.870607635825     Delta-E=       -0.000000004417 Rises=F Damp=F
 DIIS: error= 1.04D-06 at cycle   6 NSaved=   6.
 NSaved= 6 IEnMin= 6 EnMin= -399.870607635825     IErMin= 6 ErrMin= 1.04D-06
 ErrMax= 1.04D-06  0.00D+00 EMaxC= 1.00D-01 BMatC= 1.12D-10 BMatP= 1.19D-09
 IDIUse=1 WtCom= 1.00D+00 WtEn= 0.00D+00
 Coeff-Com:  0.130D-01-0.164D-02-0.345D-01-0.971D-01 0.132D+00 0.988D+00
 Coeff:      0.130D-01-0.164D-02-0.345D-01-0.971D-01 0.132D+00 0.988D+00
 Gap=     0.389 Goal=   None    Shift=    0.000
 RMSDP=7.50D-08 MaxDP=2.43D-06 DE=-4.42D-09 OVMax= 1.86D-05

 Cycle  13  Pass 1  IDiag  1:
 E= -399.870607636266     Delta-E=       -0.000000000441 Rises=F Damp=F
 DIIS: error= 2.75D-07 at cycle   7 NSaved=   7.
 NSaved= 7 IEnMin= 7 EnMin= -399.870607636266     IErMin= 7 ErrMin= 2.75D-07
 ErrMax= 2.75D-07  0.00D+00 EMaxC= 1.00D-01 BMatC= 2.16D-11 BMatP= 1.12D-10
 IDIUse=1 WtCom= 1.00D+00 WtEn= 0.00D+00
 Coeff-Com:  0.146D-02 0.172D-01 0.224D-01-0.981D-01-0.104D+00 0.262D+00
 Coeff-Com:  0.899D+00
 Coeff:      0.146D-02 0.172D-01 0.224D-01-0.981D-01-0.104D+00 0.262D+00
 Coeff:      0.899D+00
 Gap=     0.389 Goal=   None    Shift=    0.000
 RMSDP=2.90D-08 MaxDP=9.02D-07 DE=-4.41D-10 OVMax= 6.27D-06

 Cycle  14  Pass 1  IDiag  1:
 E= -399.870607636314     Delta-E=       -0.000000000048 Rises=F Damp=F
 DIIS: error= 1.33D-07 at cycle   8 NSaved=   8.
 NSaved= 8 IEnMin= 8 EnMin= -399.870607636314     IErMin= 8 ErrMin= 1.33D-07
 ErrMax= 1.33D-07  0.00D+00 EMaxC= 1.00D-01 BMatC= 3.69D-12 BMatP= 2.16D-11
 IDIUse=1 WtCom= 1.00D+00 WtEn= 0.00D+00
 Coeff-Com: -0.176D-02 0.574D-02 0.138D-01-0.207D-01-0.531D-01-0.792D-01
 Coeff-Com:  0.320D+00 0.815D+00
 Coeff:     -0.176D-02 0.574D-02 0.138D-01-0.207D-01-0.531D-01-0.792D-01
 Coeff:      0.320D+00 0.815D+00
 Gap=     0.389 Goal=   None    Shift=    0.000
 RMSDP=1.03D-08 MaxDP=3.87D-07 DE=-4.83D-11 OVMax= 2.53D-06

 Cycle  15  Pass 1  IDiag  1:
 E= -399.870607636315     Delta-E=       -0.000000000001 Rises=F Damp=F
 DIIS: error= 2.32D-08 at cycle   9 NSaved=   9.
 NSaved= 9 IEnMin= 9 EnMin= -399.870607636315     IErMin= 9 ErrMin= 2.32D-08
 ErrMax= 2.32D-08  0.00D+00 EMaxC= 1.00D-01 BMatC= 2.36D-13 BMatP= 3.69D-12
 IDIUse=1 WtCom= 1.00D+00 WtEn= 0.00D+00
 Coeff-Com: -0.335D-03-0.189D-03 0.995D-03 0.217D-02 0.205D-02-0.320D-01
 Coeff-Com: -0.278D-01 0.128D+00 0.927D+00
 Coeff:     -0.335D-03-0.189D-03 0.995D-03 0.217D-02 0.205D-02-0.320D-01
 Coeff:     -0.278D-01 0.128D+00 0.927D+00
 Gap=     0.389 Goal=   None    Shift=    0.000
 RMSDP=2.82D-09 MaxDP=1.03D-07 DE=-1.14D-12 OVMax= 4.67D-07

 SCF Done:  E(RLC-wPBE) =  -399.870607636     A.U. after   15 cycles
            NFock= 15  Conv=0.28D-08     -V/T= 2.0041
 KE= 3.982317360725D+02 PE=-1.650964440050D+03 EE= 4.952394741733D+02
 Leave Link  502 at Fri Aug 27 00:48:23 2021, MaxMem= 17179869184 cpu:       445.5
 (Enter /public3/home/sc51754/softwares/g09e01/l601.exe)
 Copying SCF densities to generalized density rwf, IOpCl= 0 IROHF=0.

 **********************************************************************

            Population analysis using the SCF density.

 **********************************************************************

 Orbital symmetries:
       Occupied  (A) (A) (A) (A) (A) (A) (A) (A) (A) (A) (A) (A)
                 (A) (A) (A) (A) (A) (A) (A) (A) (A) (A) (A) (A)
                 (A) (A) (A) (A) (A) (A)
       Virtual   (A) (A) (A) (A) (A) (A) (A) (A) (A) (A) (A) (A)
                 (A) (A) (A) (A) (A) (A) (A) (A) (A) (A) (A) (A)
                 (A) (A) (A) (A) (A) (A) (A) (A) (A) (A) (A) (A)
                 (A) (A) (A) (A) (A) (A) (A) (A) (A) (A) (A) (A)
                 (A) (A) (A) (A) (A) (A) (A) (A) (A) (A) (A) (A)
                 (A) (A) (A) (A) (A) (A) (A) (A) (A) (A) (A) (A)
                 (A) (A) (A) (A) (A) (A) (A) (A) (A) (A) (A) (A)
                 (A) (A) (A) (A) (A) (A) (A) (A) (A) (A) (A) (A)
                 (A) (A) (A) (A) (A) (A) (A) (A) (A) (A) (A) (A)
                 (A) (A) (A) (A) (A) (A) (A) (A) (A) (A) (A) (A)
                 (A) (A) (A) (A) (A) (A) (A) (A) (A) (A) (A) (A)
                 (A) (A) (A) (A) (A) (A) (A) (A) (A) (A) (A) (A)
                 (A) (A) (A) (A) (A) (A) (A) (A) (A) (A) (A) (A)
                 (A) (A) (A) (A) (A) (A) (A) (A) (A) (A) (A) (A)
                 (A) (A) (A) (A) (A) (A) (A) (A) (A) (A) (A) (A)
                 (A) (A) (A) (A) (A) (A) (A) (A) (A) (A) (A) (A)
                 (A) (A) (A) (A) (A) (A) (A) (A) (A) (A) (A) (A)
                 (A) (A) (A) (A) (A) (A) (A) (A) (A) (A) (A) (A)
                 (A) (A) (A) (A) (A) (A) (A) (A) (A) (A) (A) (A)
                 (A) (A) (A) (A) (A) (A) (A) (A) (A) (A) (A) (A)
                 (A) (A) (A) (A) (A) (A) (A) (A) (A) (A) (A) (A)
                 (A) (A) (A) (A) (A) (A) (A) (A) (A) (A) (A) (A)
                 (A) (A) (A) (A) (A) (A) (A) (A) (A) (A) (A) (A)
                 (A) (A) (A) (A) (A) (A) (A) (A) (A) (A) (A) (A)
                 (A) (A) (A) (A) (A) (A) (A) (A) (A) (A) (A) (A)
                 (A) (A) (A) (A) (A) (A) (A) (A)
 The electronic state is 1-A.
 Alpha  occ. eigenvalues --  -18.98740 -18.96462 -14.21304 -10.21503 -10.15876
 Alpha  occ. eigenvalues --  -10.14011 -10.12087 -10.11846  -1.20898  -1.14093
 Alpha  occ. eigenvalues --   -1.09103  -0.96189  -0.90801  -0.79289  -0.77191
 Alpha  occ. eigenvalues --   -0.69234  -0.67236  -0.64541  -0.61638  -0.58096
 Alpha  occ. eigenvalues --   -0.57772  -0.54222  -0.52975  -0.51220  -0.49041
 Alpha  occ. eigenvalues --   -0.48584  -0.44471  -0.41142  -0.40195  -0.34722
 Alpha virt. eigenvalues --    0.04138   0.07139   0.08989   0.09920   0.11051
 Alpha virt. eigenvalues --    0.12749   0.14195   0.17734   0.19481   0.22770
 Alpha virt. eigenvalues --    0.23312   0.24445   0.25295   0.26743   0.27673
 Alpha virt. eigenvalues --    0.28126   0.29077   0.29789   0.31798   0.33850
 Alpha virt. eigenvalues --    0.35093   0.36238   0.36920   0.37771   0.38196
 Alpha virt. eigenvalues --    0.39001   0.40155   0.41510   0.42083   0.43344
 Alpha virt. eigenvalues --    0.45183   0.46243   0.46809   0.47769   0.48710
 Alpha virt. eigenvalues --    0.51718   0.52054   0.53640   0.54430   0.57288
 Alpha virt. eigenvalues --    0.59678   0.61712   0.62010   0.63167   0.64231
 Alpha virt. eigenvalues --    0.68639   0.72309   0.72660   0.73843   0.74752
 Alpha virt. eigenvalues --    0.76589   0.77202   0.79112   0.82842   0.84874
 Alpha virt. eigenvalues --    0.87813   0.89251   0.92256   0.92435   0.95973
 Alpha virt. eigenvalues --    0.99553   1.00834   1.02292   1.03407   1.05054
 Alpha virt. eigenvalues --    1.06576   1.08577   1.09140   1.10772   1.13303
 Alpha virt. eigenvalues --    1.14587   1.19454   1.20416   1.20674   1.23631
 Alpha virt. eigenvalues --    1.24903   1.25811   1.26219   1.27963   1.28552
 Alpha virt. eigenvalues --    1.31074   1.32262   1.34727   1.37121   1.37147
 Alpha virt. eigenvalues --    1.39586   1.39677   1.42837   1.43421   1.45042
 Alpha virt. eigenvalues --    1.52712   1.52941   1.55465   1.56099   1.59905
 Alpha virt. eigenvalues --    1.61223   1.62111   1.63541   1.65738   1.67241
 Alpha virt. eigenvalues --    1.69054   1.69944   1.72298   1.73382   1.76421
 Alpha virt. eigenvalues --    1.77693   1.78697   1.81129   1.81719   1.85115
 Alpha virt. eigenvalues --    1.88287   1.91958   1.93221   1.96190   1.97836
 Alpha virt. eigenvalues --    1.98254   1.99689   2.00824   2.01964   2.06914
 Alpha virt. eigenvalues --    2.09333   2.09923   2.12521   2.15675   2.19457
 Alpha virt. eigenvalues --    2.23044   2.25017   2.26387   2.28191   2.29483
 Alpha virt. eigenvalues --    2.30528   2.34583   2.35570   2.37119   2.39253
 Alpha virt. eigenvalues --    2.43103   2.50200   2.52912   2.61648   2.74035
 Alpha virt. eigenvalues --    2.81026   2.90531   2.97985   3.06310   3.06651
 Alpha virt. eigenvalues --    3.09753   3.13737   3.26375   3.29138   3.31512
 Alpha virt. eigenvalues --    3.34476   3.36761   3.37334   3.41668   3.46229
 Alpha virt. eigenvalues --    3.48325   3.48823   3.49434   3.52565   3.53373
 Alpha virt. eigenvalues --    3.56271   3.58327   3.60712   3.63470   3.67933
 Alpha virt. eigenvalues --    3.69062   3.70921   3.72195   3.73194   3.74583
 Alpha virt. eigenvalues --    3.78946   3.79630   3.80921   3.83850   3.85298
 Alpha virt. eigenvalues --    3.88990   3.90482   3.91513   3.94130   3.98178
 Alpha virt. eigenvalues --    4.01097   4.02622   4.04351   4.05271   4.07821
 Alpha virt. eigenvalues --    4.10612   4.11867   4.15299   4.16502   4.16750
 Alpha virt. eigenvalues --    4.18388   4.19619   4.20731   4.23881   4.27219
 Alpha virt. eigenvalues --    4.28019   4.28396   4.28739   4.30908   4.32656
 Alpha virt. eigenvalues --    4.33366   4.35777   4.38341   4.39713   4.41418
 Alpha virt. eigenvalues --    4.42055   4.42519   4.43980   4.45233   4.49345
 Alpha virt. eigenvalues --    4.49894   4.51104   4.51852   4.54269   4.54671
 Alpha virt. eigenvalues --    4.56069   4.56341   4.57788   4.58533   4.61331
 Alpha virt. eigenvalues --    4.62120   4.63098   4.64391   4.66885   4.68969
 Alpha virt. eigenvalues --    4.70513   4.72497   4.75176   4.76122   4.76940
 Alpha virt. eigenvalues --    4.79304   4.83780   4.86362   4.87239   4.92563
 Alpha virt. eigenvalues --    4.93908   4.97802   4.99744   4.99882   5.01461
 Alpha virt. eigenvalues --    5.02554   5.06659   5.07713   5.11551   5.12996
 Alpha virt. eigenvalues --    5.15947   5.20371   5.20504   5.24658   5.29934
 Alpha virt. eigenvalues --    5.30085   5.33666   5.34000   5.39113   5.43377
 Alpha virt. eigenvalues --    5.45057   5.45166   5.49263   5.51261   5.52495
 Alpha virt. eigenvalues --    5.53805   5.56767   5.57234   5.64356   5.65964
 Alpha virt. eigenvalues --    5.72373   5.73660   5.77271   5.79408   5.87968
 Alpha virt. eigenvalues --    5.89585   5.92378   5.95015   6.02893   6.07603
 Alpha virt. eigenvalues --    6.12411   6.14898   6.16268   6.16673   6.21089
 Alpha virt. eigenvalues --    6.30189   6.32974   6.34264   6.35584   6.39512
 Alpha virt. eigenvalues --    6.39855   6.41778   6.47151   6.51916   6.59364
 Alpha virt. eigenvalues --    6.61917   6.70367   6.73793   6.80868   6.99073
 Alpha virt. eigenvalues --    7.03273   7.07055   7.24101   7.43223   7.52677
 Alpha virt. eigenvalues --    9.37705  12.22200  12.77602  15.55896  15.59355
 Alpha virt. eigenvalues --   17.42844  18.68838  22.32654
          Condensed to atoms (all electrons):
               1          2          3          4          5          6
     1  O    7.849838  -0.084603   0.340911  -0.063311   0.003985   0.007739
     2  N   -0.084603   6.738274   0.470858  -0.025223   0.500345  -0.025532
     3  C    0.340911   0.470858   4.357948   0.534075  -0.074343  -0.052164
     4  C   -0.063311  -0.025223   0.534075   4.827692  -0.031759   0.534468
     5  C    0.003985   0.500345  -0.074343  -0.031759   4.543656  -0.075488
     6  C    0.007739  -0.025532  -0.052164   0.534468  -0.075488   4.684226
     7  C   -0.000469  -0.036671  -0.045019  -0.050419   0.548321   0.498324
     8  H    0.358167   0.006273  -0.024662   0.004953  -0.000186  -0.000988
     9  H    0.003783   0.005221  -0.026248   0.436581  -0.001733  -0.029168
    10  H   -0.000427  -0.035503   0.003878  -0.003139   0.443996   0.006495
    11  H   -0.000242  -0.000993   0.005261  -0.030561   0.005358   0.433424
    12  H    0.000027   0.005122  -0.000900   0.005101  -0.023884  -0.029251
    13  O   -0.027324  -0.040267  -0.005707   0.000640  -0.000708   0.000193
    14  H    0.001087   0.002194   0.000394   0.000086   0.000007  -0.000013
    15  H   -0.000129   0.020735  -0.003426   0.000493   0.002711  -0.000301
               7          8          9         10         11         12
     1  O   -0.000469   0.358167   0.003783  -0.000427  -0.000242   0.000027
     2  N   -0.036671   0.006273   0.005221  -0.035503  -0.000993   0.005122
     3  C   -0.045019  -0.024662  -0.026248   0.003878   0.005261  -0.000900
     4  C   -0.050419   0.004953   0.436581  -0.003139  -0.030561   0.005101
     5  C    0.548321  -0.000186  -0.001733   0.443996   0.005358  -0.023884
     6  C    0.498324  -0.000988  -0.029168   0.006495   0.433424  -0.029251
     7  C    4.898604   0.000216   0.005440  -0.054273  -0.033864   0.436147
     8  H    0.000216   0.389164   0.000240  -0.000022  -0.000006  -0.000001
     9  H    0.005440   0.000240   0.551499   0.000108  -0.004682  -0.000110
    10  H   -0.054273  -0.000022   0.000108   0.583442  -0.000131  -0.002869
    11  H   -0.033864  -0.000006  -0.004682  -0.000131   0.568733  -0.004469
    12  H    0.436147  -0.000001  -0.000110  -0.002869  -0.004469   0.567672
    13  O   -0.000354   0.051086  -0.000013   0.000121  -0.000002   0.000004
    14  H    0.000042  -0.003270   0.000000   0.000012  -0.000000  -0.000000
    15  H    0.000883  -0.006675  -0.000024  -0.000535   0.000013  -0.000021
              13         14         15
     1  O   -0.027324   0.001087  -0.000129
     2  N   -0.040267   0.002194   0.020735
     3  C   -0.005707   0.000394  -0.003426
     4  C    0.000640   0.000086   0.000493
     5  C   -0.000708   0.000007   0.002711
     6  C    0.000193  -0.000013  -0.000301
     7  C   -0.000354   0.000042   0.000883
     8  H    0.051086  -0.003270  -0.006675
     9  H   -0.000013   0.000000  -0.000024
    10  H    0.000121   0.000012  -0.000535
    11  H   -0.000002  -0.000000   0.000013
    12  H    0.000004  -0.000000  -0.000021
    13  O    7.753952   0.360320   0.355300
    14  H    0.360320   0.437811  -0.022220
    15  H    0.355300  -0.022220   0.413815
 Mulliken charges:
               1
     1  O   -0.389031
     2  N   -0.500228
     3  C    0.519143
     4  C   -0.139677
     5  C    0.159721
     6  C    0.048037
     7  C   -0.166908
     8  H    0.225710
     9  H    0.059104
    10  H    0.058848
    11  H    0.062162
    12  H    0.047432
    13  O   -0.447241
    14  H    0.223549
    15  H    0.239380
 Sum of Mulliken charges =  -0.00000
 Mulliken charges with hydrogens summed into heavy atoms:
               1
     1  O   -0.163322
     2  N   -0.500228
     3  C    0.519143
     4  C   -0.080573
     5  C    0.218568
     6  C    0.110200
     7  C   -0.119476
    13  O    0.015688
 Electronic spatial extent (au):  <R**2>=           1068.8456
 Charge=             -0.0000 electrons
 Dipole moment (field-independent basis, Debye):
    X=             -1.9368    Y=             -1.3914    Z=              1.3853  Tot=              2.7579
 Quadrupole moment (field-independent basis, Debye-Ang):
   XX=            -41.6315   YY=            -44.4040   ZZ=            -49.1947
   XY=             -2.9637   XZ=              5.4912   YZ=             -1.3784
 Traceless Quadrupole moment (field-independent basis, Debye-Ang):
   XX=              3.4452   YY=              0.6727   ZZ=             -4.1179
   XY=             -2.9637   XZ=              5.4912   YZ=             -1.3784
 Octapole moment (field-independent basis, Debye-Ang**2):
  XXX=              9.3735  YYY=             -8.5063  ZZZ=              1.1649  XYY=             -1.2584
  XXY=             -4.3807  XXZ=             20.7892  XZZ=             12.5139  YZZ=              0.2419
  YYZ=              1.3350  XYZ=             -5.2997
 Hexadecapole moment (field-independent basis, Debye-Ang**3):
 XXXX=           -827.9272 YYYY=           -350.9285 ZZZZ=            -52.8940 XXXY=            -22.9850
 XXXZ=             78.4289 YYYX=            -13.8037 YYYZ=             -1.6106 ZZZX=              5.3365
 ZZZY=             -1.4761 XXYY=           -199.2959 XXZZ=           -166.3581 YYZZ=            -76.3761
 XXYZ=            -19.1383 YYXZ=              5.4685 ZZXY=             -4.1223
 N-N= 3.576226221683D+02 E-N=-1.650964437620D+03  KE= 3.982317360725D+02
 No NMR shielding tensors so no spin-rotation constants.
 Leave Link  601 at Fri Aug 27 00:48:24 2021, MaxMem= 17179869184 cpu:        44.8
 (Enter /public3/home/sc51754/softwares/g09e01/l701.exe)
 Compute integral first derivatives.
 ... and contract with generalized density number  0.
 Leave Link  701 at Fri Aug 27 00:48:25 2021, MaxMem= 17179869184 cpu:        64.0
 (Enter /public3/home/sc51754/softwares/g09e01/l702.exe)
 L702 exits ... SP integral derivatives will be done elsewhere.
 Leave Link  702 at Fri Aug 27 00:48:25 2021, MaxMem= 17179869184 cpu:         0.2
 (Enter /public3/home/sc51754/softwares/g09e01/l703.exe)
 Compute integral first derivatives, UseDBF=F ICtDFT=           0.
 Integral derivatives from FoFJK, PRISM(SPDF).
 Calling FoFJK, ICntrl=      2127 FMM=F ISym2X=0 I1Cent= 0 IOpClX= 0 NMat=1 NMatS=1 NMatT=0.
 FoFJK:  IHMeth= 1 ICntrl=    2127 DoSepK=T KAlg= 0 I1Cent=   0 FoldK=F
 IRaf=         1 NMat=   1 IRICut=       1 DoRegI=T DoRafI=F ISym2E= 0.
 FoFCou: FMM=F IPFlag=           0 FMFlag=      100000 FMFlg1=         800
         NFxFlg=           0 DoJE=F BraDBF=F KetDBF=F FulRan=T
         wScrn=  0.000000 ICntrl=    2527 IOpCl=  0 I1Cent=           0 NGrid=           0
         NMat0=    1 NMatS0=      1 NMatT0=    0 NMatD0=    1 NMtDS0=    0 NMtDT0=    0
 Symmetry not used in FoFCou.
 Leave Link  703 at Fri Aug 27 00:48:31 2021, MaxMem= 17179869184 cpu:       351.8
 (Enter /public3/home/sc51754/softwares/g09e01/l716.exe)
 Dipole        =-7.62006458D-01-5.47422413D-01 5.44999878D-01
 ***** Axes restored to original set *****
 -------------------------------------------------------------------
 Center     Atomic                   Forces (Hartrees/Bohr)
 Number     Number              X              Y              Z
 -------------------------------------------------------------------
      1        8          -0.004718052   -0.005836035    0.000188954
      2        7          -0.005414849    0.006329325    0.000307304
      3        6           0.000222005   -0.004403277   -0.000069697
      4        6          -0.001514754   -0.008390038   -0.000081346
      5        6          -0.003058578    0.010409249    0.000041285
      6        6           0.010057263   -0.001554052   -0.000031874
      7        6           0.008171903    0.002883635   -0.000047091
      8        1          -0.001982614   -0.000162627   -0.000335285
      9        1           0.000219822    0.000586721    0.000000149
     10        1           0.000225729   -0.000683981    0.000004888
     11        1          -0.000666532    0.000389084    0.000005492
     12        1          -0.000469354   -0.000465207   -0.000002200
     13        8          -0.001930333   -0.001562241    0.003170616
     14        1          -0.001241389    0.000919760   -0.002351679
     15        1           0.002099733    0.001539684   -0.000799516
 -------------------------------------------------------------------
 Cartesian Forces:  Max     0.010409249 RMS     0.003502087
 Leave Link  716 at Fri Aug 27 00:48:31 2021, MaxMem= 17179869184 cpu:         0.4
 (Enter /public3/home/sc51754/softwares/g09e01/l103.exe)

 GradGradGradGradGradGradGradGradGradGradGradGradGradGradGradGradGradGrad
 Berny optimization.
 FormGI is forming the generalized inverse of G from B-inverse, IUseBI=4.
 Internal  Forces:  Max     0.010052865 RMS     0.002705875
 Search for a local minimum.
 Step number   1 out of a maximum of   88
 All quantities printed in internal units (Hartrees-Bohrs-Radians)
 RMS Force = .27059D-02 SwitMx=.10000D-02 MixMth= 1
 Mixed Optimization -- RFO/linear search
 Second derivative matrix not updated -- first step.
 ITU=  0
     Eigenvalues ---    0.00525   0.00832   0.01684   0.02094   0.02184
     Eigenvalues ---    0.02225   0.02239   0.02286   0.02319   0.02409
     Eigenvalues ---    0.02460   0.05224   0.06028   0.06507   0.08515
     Eigenvalues ---    0.13089   0.16000   0.16000   0.16000   0.16000
     Eigenvalues ---    0.19207   0.20418   0.22000   0.22270   0.23481
     Eigenvalues ---    0.35621   0.35778   0.36026   0.36038   0.41939
     Eigenvalues ---    0.43696   0.46841   0.47322   0.48462   0.48884
     Eigenvalues ---    0.52273   0.55339   0.55352   0.56565
 RFO step:  Lambda=-1.18033280D-03 EMin= 5.24515301D-03
 Linear search not attempted -- first point.
 Iteration  1 RMS(Cart)=  0.01009080 RMS(Int)=  0.00001607
 Iteration  2 RMS(Cart)=  0.00001386 RMS(Int)=  0.00000729
 Iteration  3 RMS(Cart)=  0.00000000 RMS(Int)=  0.00000729
 ITry= 1 IFail=0 DXMaxC= 3.15D-02 DCOld= 1.00D+10 DXMaxT= 3.00D-01 DXLimC= 3.00D+00 Rises=F
 Variable       Old X    -DE/DX   Delta X   Delta X   Delta X     New X
                                 (Linear)    (Quad)   (Total)
    R1        2.53090  -0.00730   0.00000  -0.01457  -0.01456   2.51634
    R2        1.85517  -0.00275   0.00000  -0.00466  -0.00467   1.85051
    R3        2.51733  -0.01005   0.00000  -0.01946  -0.01945   2.49788
    R4        2.53185  -0.00801   0.00000  -0.01426  -0.01426   2.51758
    R5        3.65357  -0.00100   0.00000  -0.01662  -0.01662   3.63696
    R6        2.64886  -0.00715   0.00000  -0.01594  -0.01594   2.63292
    R7        2.60507  -0.00997   0.00000  -0.01979  -0.01979   2.58528
    R8        2.04022   0.00057   0.00000   0.00157   0.00157   2.04180
    R9        2.60933  -0.00989   0.00000  -0.02000  -0.02000   2.58933
   R10        2.04678   0.00071   0.00000   0.00200   0.00200   2.04878
   R11        2.63885  -0.00694   0.00000  -0.01441  -0.01441   2.62444
   R12        2.04430   0.00077   0.00000   0.00213   0.00213   2.04644
   R13        2.04041   0.00066   0.00000   0.00182   0.00182   2.04223
   R14        3.46012  -0.00025   0.00000  -0.01267  -0.01266   3.44746
   R15        3.61122  -0.00231   0.00000  -0.01669  -0.01671   3.59452
   R16        1.81521  -0.00280   0.00000  -0.00505  -0.00505   1.81015
   R17        1.85250  -0.00298   0.00000  -0.00617  -0.00617   1.84633
    A1        1.91487   0.00053   0.00000  -0.00083  -0.00084   1.91403
    A2        2.06532  -0.00078   0.00000  -0.00455  -0.00455   2.06077
    A3        1.87270   0.00139   0.00000   0.00473   0.00473   1.87743
    A4        2.34514  -0.00061   0.00000  -0.00019  -0.00020   2.34495
    A5        2.07766   0.00121   0.00000  -0.00104  -0.00104   2.07663
    A6        2.06520  -0.00186   0.00000  -0.00286  -0.00286   2.06233
    A7        2.14032   0.00065   0.00000   0.00390   0.00390   2.14422
    A8        2.06244  -0.00032   0.00000  -0.00190  -0.00190   2.06055
    A9        2.08413  -0.00011   0.00000  -0.00068  -0.00068   2.08345
   A10        2.13661   0.00042   0.00000   0.00258   0.00258   2.13919
   A11        2.15286   0.00111   0.00000   0.00374   0.00374   2.15659
   A12        2.02165  -0.00067   0.00000  -0.00256  -0.00256   2.01909
   A13        2.10868  -0.00044   0.00000  -0.00118  -0.00118   2.10750
   A14        2.08831  -0.00000   0.00000   0.00109   0.00108   2.08939
   A15        2.09381  -0.00009   0.00000  -0.00109  -0.00109   2.09272
   A16        2.10106   0.00009   0.00000   0.00001   0.00001   2.10107
   A17        2.05711  -0.00066   0.00000  -0.00227  -0.00227   2.05485
   A18        2.10400   0.00025   0.00000   0.00065   0.00065   2.10465
   A19        2.12207   0.00041   0.00000   0.00162   0.00162   2.12368
   A20        2.78431  -0.00091   0.00000   0.00154   0.00152   2.78584
   A21        2.25759  -0.00028   0.00000   0.00069   0.00068   2.25827
   A22        2.11576   0.00034   0.00000   0.00194   0.00193   2.11769
   A23        1.86403   0.00055   0.00000   0.00289   0.00291   1.86694
   A24        1.30192  -0.00285   0.00000  -0.00353  -0.00353   1.29839
   A25        2.52674  -0.00158   0.00000  -0.00117  -0.00120   2.52554
    D1        0.00739  -0.00001   0.00000   0.00005   0.00004   0.00743
    D2       -3.13430   0.00002   0.00000   0.00023   0.00022  -3.13409
    D3        0.07175  -0.00021   0.00000  -0.00543  -0.00544   0.06630
    D4       -0.00835   0.00003   0.00000   0.00208   0.00210  -0.00625
    D5       -3.13923   0.00005   0.00000   0.00053   0.00053  -3.13870
    D6        0.00246   0.00001   0.00000   0.00035   0.00035   0.00281
    D7       -0.00357  -0.00000   0.00000  -0.00175  -0.00176  -0.00533
    D8        3.13812  -0.00004   0.00000  -0.00193  -0.00194   3.13618
    D9       -0.00196  -0.00002   0.00000  -0.00056  -0.00056  -0.00252
   D10        3.13867  -0.00001   0.00000  -0.00078  -0.00078   3.13789
   D11       -3.13562   0.00004   0.00000   0.00248   0.00248  -3.13314
   D12        0.00500   0.00004   0.00000   0.00226   0.00226   0.00726
   D13       -0.00000   0.00001   0.00000   0.00178   0.00179   0.00179
   D14       -0.09978   0.00017   0.00000   0.01507   0.01507  -0.08471
   D15        3.13428  -0.00005   0.00000  -0.00105  -0.00105   3.13323
   D16        3.03451   0.00012   0.00000   0.01223   0.01222   3.04673
   D17        3.14017  -0.00003   0.00000  -0.00000  -0.00000   3.14017
   D18        0.00037  -0.00003   0.00000  -0.00021  -0.00021   0.00016
   D19       -0.00152   0.00000   0.00000   0.00017   0.00017  -0.00134
   D20       -3.14132   0.00001   0.00000  -0.00003  -0.00003  -3.14135
   D21       -0.00000  -0.00002   0.00000  -0.00052  -0.00052  -0.00052
   D22       -3.14062  -0.00000   0.00000  -0.00014  -0.00014  -3.14077
   D23        3.13975  -0.00002   0.00000  -0.00032  -0.00031   3.13943
   D24       -0.00088  -0.00001   0.00000   0.00006   0.00006  -0.00081
   D25        0.00051   0.00001   0.00000   0.00023   0.00023   0.00073
   D26        3.14103   0.00000   0.00000   0.00009   0.00009   3.14113
   D27       -3.14007   0.00000   0.00000   0.00046   0.00046  -3.13961
   D28        0.00046   0.00000   0.00000   0.00033   0.00033   0.00078
   D29        0.00048   0.00001   0.00000   0.00033   0.00033   0.00081
   D30       -3.14004   0.00001   0.00000   0.00046   0.00046  -3.13957
   D31        3.14109  -0.00000   0.00000  -0.00005  -0.00005   3.14105
   D32        0.00058  -0.00000   0.00000   0.00009   0.00009   0.00066
   D33       -1.92611  -0.00006   0.00000   0.00968   0.00969  -1.91643
   D34        0.00552  -0.00003   0.00000  -0.00257  -0.00258   0.00294
   D35        1.52863  -0.00033   0.00000  -0.00027  -0.00029   1.52835
   D36        2.18999  -0.00011   0.00000  -0.01237  -0.01235   2.17764
         Item               Value     Threshold  Converged?
 Maximum Force            0.010053     0.000450     NO 
 RMS     Force            0.002706     0.000300     NO 
 Maximum Displacement     0.031518     0.001800     NO 
 RMS     Displacement     0.010098     0.001200     NO 
 Predicted change in Energy=-5.924945D-04
 Lowest energy point so far.  Saving SCF results.
 GradGradGradGradGradGradGradGradGradGradGradGradGradGradGradGradGradGrad

 Leave Link  103 at Fri Aug 27 00:48:32 2021, MaxMem= 17179869184 cpu:        52.9
 (Enter /public3/home/sc51754/softwares/g09e01/l202.exe)
                          Input orientation:                          
 ---------------------------------------------------------------------
 Center     Atomic      Atomic             Coordinates (Angstroms)
 Number     Number       Type             X           Y           Z
 ---------------------------------------------------------------------
      1          8           0        1.204589    1.440193   -0.003456
      2          7           0        0.304614   -0.661249   -0.005469
      3          6           0        0.133247    0.649407   -0.000273
      4          6           0       -1.125277    1.247137    0.008351
      5          6           0       -0.779684   -1.435317   -0.005564
      6          6           0       -2.224525    0.432723    0.009890
      7          6           0       -2.059612   -0.946225    0.002297
      8          1           0        2.017284    0.894044   -0.016460
      9          1           0       -1.200027    2.325014    0.012046
     10          1           0       -0.594473   -2.503517   -0.013534
     11          1           0       -3.217155    0.865600    0.015743
     12          1           0       -2.905399   -1.618952    0.001398
     13          8           0        3.082457   -0.585538   -0.082665
     14          1           0        3.577287   -0.877800    0.683678
     15          1           0        2.199161   -0.999350   -0.026541
 ---------------------------------------------------------------------
                    Distance matrix (angstroms):
                    1          2          3          4          5
     1  O    0.000000
     2  N    2.286049   0.000000
     3  C    1.331588   1.321822   0.000000
     4  C    2.337881   2.384684   1.393284   0.000000
     5  C    3.493695   1.332247   2.275862   2.704661   0.000000
     6  C    3.574073   2.755640   2.367730   1.368071   2.361647
     7  C    4.043517   2.381351   2.711951   2.384084   1.370215
     8  H    0.979245   2.313503   1.899922   3.162432   3.639927
     9  H    2.562289   3.343953   2.141362   1.080472   3.783793
    10  H    4.334694   2.049968   3.235843   3.788092   1.084167
    11  H    4.458963   3.838564   3.357409   2.126401   3.352006
    12  H    5.123514   3.349839   3.791943   3.373922   2.133644
    13  O    2.763376   2.779947   3.198392   4.590425   3.955275
    14  H    3.387468   3.351449   3.829042   5.204377   4.446243
    15  H    2.634593   1.924595   2.643310   4.012457   3.010652
                    6          7          8          9         10
     6  C    0.000000
     7  C    1.388795   0.000000
     8  H    4.266902   4.473033   0.000000
     9  H    2.151829   3.382305   3.521303   0.000000
    10  H    3.358441   2.138233   4.285406   4.866422   0.000000
    11  H    1.082928   2.150070   5.234616   2.489721   4.269692
    12  H    2.161719   1.080703   5.527050   4.296892   2.474482
    13  O    5.404579   5.155404   1.824319   5.178798   4.147678
    14  H    5.986024   5.678345   2.462364   5.790668   4.531296
    15  H    4.649856   4.259202   1.902136   4.754720   3.172866
                   11         12         13         14         15
    11  H    0.000000
    12  H    2.504076   0.000000
    13  O    6.465338   6.076959   0.000000
    14  H    7.046278   6.560491   0.957891   0.000000
    15  H    5.728553   5.142104   0.977037   1.555126   0.000000
 Stoichiometry    C5H7NO2
 Framework group  C1[X(C5H7NO2)]
 Deg. of freedom    39
 Full point group                 C1      NOp   1
 RotChk:  IX=0 Diff= 1.81D-03
 Largest Abelian subgroup         C1      NOp   1
 Largest concise Abelian subgroup C1      NOp   1
                         Standard orientation:                         
 ---------------------------------------------------------------------
 Center     Atomic      Atomic             Coordinates (Angstroms)
 Number     Number       Type             X           Y           Z
 ---------------------------------------------------------------------
      1          8           0        1.203298    1.442022   -0.003440
      2          7           0        0.305928   -0.660534   -0.005978
      3          6           0        0.132938    0.649908   -0.000385
      4          6           0       -1.126326    1.246075    0.008531
      5          6           0       -0.777409   -1.435945   -0.006195
      6          6           0       -2.224563    0.430298    0.009937
      7          6           0       -2.057942   -0.948442    0.001930
      8          1           0        2.016668    0.896885   -0.016679
      9          1           0       -1.202411    2.323857    0.012545
     10          1           0       -0.590874   -2.503912   -0.014491
     11          1           0       -3.217729    0.861942    0.016010
     12          1           0       -2.902894   -1.622217    0.000916
     13          8           0        3.083668   -0.581356   -0.083414
     14          1           0        3.578933   -0.873226    0.682798
     15          1           0        2.200892   -0.996279   -0.027326
 ---------------------------------------------------------------------
 Rotational constants (GHZ):      4.0599779      1.4328816      1.0616122
 Leave Link  202 at Fri Aug 27 00:48:32 2021, MaxMem= 17179869184 cpu:         4.6
 (Enter /public3/home/sc51754/softwares/g09e01/l301.exe)
 Basis read from rwf:  (5D, 7F)
 No pseudopotential information found on rwf file.
 There are   385 symmetry adapted cartesian basis functions of A   symmetry.
 There are   338 symmetry adapted basis functions of A   symmetry.
   338 basis functions,   566 primitive gaussians,   385 cartesian basis functions
    30 alpha electrons       30 beta electrons
       nuclear repulsion energy       359.6160636865 Hartrees.
 IExCor=32609 DFT=T Ex+Corr=LC-wPBE ExCW=0 ScaHFX=  1.000000
 ScaDFX=  1.000000  0.000000  1.000000  1.000000 ScalE2=  1.000000  1.000000
 IRadAn=      0 IRanWt=     -1 IRanGd=            0 ICorTp=0 IEmpDi=  4
  HFx wShort=  0.000000 wLong=  0.400000 cFull=  0.000000 cShort=  0.000000 cLong=  1.000000
  DFx wShort=  0.000000 wLong=  0.400000 cFull=  0.000000 cShort=  0.000000 cLong=  1.000000
 NAtoms=   15 NActive=   15 NUniq=   15 SFac= 1.00D+00 NAtFMM=   60 NAOKFM=F Big=F
 Integral buffers will be    131072 words long.
 Raffenetti 2 integral format.
 Two-electron integral symmetry is turned on.
 No density basis found on file   724.
 Leave Link  301 at Fri Aug 27 00:48:32 2021, MaxMem= 17179869184 cpu:         2.3
 (Enter /public3/home/sc51754/softwares/g09e01/l302.exe)
 NPDir=0 NMtPBC=     1 NCelOv=     1 NCel=       1 NClECP=     1 NCelD=      1
         NCelK=      1 NCelE2=     1 NClLst=     1 CellRange=     0.0.
 One-electron integrals computed using PRISM.
 NBasis=   338 RedAO= T EigKep=  1.41D-04  NBF=   338
 NBsUse=   338 1.00D-06 EigRej= -1.00D+00 NBFU=   338
 Precomputing XC quadrature grid using
 IXCGrd= 4 IRadAn=           0 IRanWt=          -1 IRanGd=           0 AccXCQ= 0.00D+00.
 Generated NRdTot=       0 NPtTot=           0 NUsed=           0 NTot=          32
 NSgBfM=   384   384   384   384   385 MxSgAt=    15 MxSgA2=    15.
 Leave Link  302 at Fri Aug 27 00:48:33 2021, MaxMem= 17179869184 cpu:        53.8
 (Enter /public3/home/sc51754/softwares/g09e01/l303.exe)
 DipDrv:  MaxL=1.
 Leave Link  303 at Fri Aug 27 00:48:34 2021, MaxMem= 17179869184 cpu:        13.5
 (Enter /public3/home/sc51754/softwares/g09e01/l401.exe)
 Initial guess from the checkpoint file:  "HY_H2O_LC-wPBE_PC2_OPT_FREQ.chk"
 B after Tr=    -0.000000    0.000000    0.000000
         Rot=    1.000000   -0.000020    0.000002   -0.000709 Ang=  -0.08 deg.
 Guess basis will be translated and rotated to current coordinates.
 JPrj=2 DoOrth=T DoCkMO=T.
 Generating alternative initial guess.
 ExpMin= 7.41D-02 ExpMax= 1.48D+04 ExpMxC= 5.05D+02 IAcc=2 IRadAn=         4 AccDes= 0.00D+00
 Harris functional with IExCor=32609 and IRadAn=       4 diagonalized for initial guess.
 HarFok:  IExCor=32609 AccDes= 0.00D+00 IRadAn=         4 IDoV= 1 UseB2=F ITyADJ=14
 ICtDFT=  3500011 ScaDFX=  1.000000  1.000000  1.000000  1.000000
 FoFCou: FMM=F IPFlag=           0 FMFlag=      100000 FMFlg1=           0
         NFxFlg=           0 DoJE=T BraDBF=F KetDBF=T FulRan=T
         wScrn=  0.000000 ICntrl=     500 IOpCl=  0 I1Cent=   200000004 NGrid=           0
         NMat0=    1 NMatS0=      1 NMatT0=    0 NMatD0=    1 NMtDS0=    0 NMtDT0=    0
 Petite list used in FoFCou.
 Harris En= -399.862666258591    
 Leave Link  401 at Fri Aug 27 00:48:36 2021, MaxMem= 17179869184 cpu:       103.2
 (Enter /public3/home/sc51754/softwares/g09e01/l502.exe)
 Closed shell SCF:
 Using DIIS extrapolation, IDIIS=  1040.
 Integral symmetry usage will be decided dynamically.
 Keep R1 ints in memory in canonical form, NReq=3311562672.
 IVT=      490665 IEndB=      490665 NGot= 17179869184 MDV= 13897062548
 LenX= 13897062548 LenY= 13896913882
 Requested convergence on RMS density matrix=1.00D-08 within 128 cycles.
 Requested convergence on MAX density matrix=1.00D-06.
 Requested convergence on             energy=1.00D-06.
 No special actions if energy rises.
 FoFCou: FMM=F IPFlag=           0 FMFlag=           0 FMFlg1=           0
         NFxFlg=           0 DoJE=F BraDBF=F KetDBF=F FulRan=T
         wScrn=  0.000000 ICntrl=     600 IOpCl=  0 I1Cent=           0 NGrid=           0
         NMat0=    1 NMatS0=  57291 NMatT0=    0 NMatD0=    1 NMtDS0=    0 NMtDT0=    0
 Symmetry not used in FoFCou.
 Integral accuracy reduced to 1.0D-05 until final iterations.

 Cycle   1  Pass 0  IDiag  1:
 E= -399.870972086649    
 DIIS: error= 7.49D-04 at cycle   1 NSaved=   1.
 NSaved= 1 IEnMin= 1 EnMin= -399.870972086649     IErMin= 1 ErrMin= 7.49D-04
 ErrMax= 7.49D-04  0.00D+00 EMaxC= 1.00D-01 BMatC= 1.83D-04 BMatP= 1.83D-04
 IDIUse=3 WtCom= 9.93D-01 WtEn= 7.49D-03
 Coeff-Com:  0.100D+01
 Coeff-En:   0.100D+01
 Coeff:      0.100D+01
 Gap=     0.817 Goal=   None    Shift=    0.000
 RMSDP=3.90D-05 MaxDP=1.30D-03              OVMax= 2.43D-03

 Cycle   2  Pass 0  IDiag  1:
 E= -399.871121013241     Delta-E=       -0.000148926591 Rises=F Damp=F
 DIIS: error= 2.07D-04 at cycle   2 NSaved=   2.
 NSaved= 2 IEnMin= 2 EnMin= -399.871121013241     IErMin= 2 ErrMin= 2.07D-04
 ErrMax= 2.07D-04  0.00D+00 EMaxC= 1.00D-01 BMatC= 1.62D-05 BMatP= 1.83D-04
 IDIUse=3 WtCom= 9.98D-01 WtEn= 2.07D-03
 Coeff-Com:  0.109D+00 0.891D+00
 Coeff-En:   0.000D+00 0.100D+01
 Coeff:      0.109D+00 0.891D+00
 Gap=     0.392 Goal=   None    Shift=    0.000
 RMSDP=1.51D-05 MaxDP=1.21D-03 DE=-1.49D-04 OVMax= 1.22D-03

 Cycle   3  Pass 0  IDiag  1:
 E= -399.871133590359     Delta-E=       -0.000012577118 Rises=F Damp=F
 DIIS: error= 1.10D-04 at cycle   3 NSaved=   3.
 NSaved= 3 IEnMin= 3 EnMin= -399.871133590359     IErMin= 3 ErrMin= 1.10D-04
 ErrMax= 1.10D-04  0.00D+00 EMaxC= 1.00D-01 BMatC= 5.16D-06 BMatP= 1.62D-05
 IDIUse=3 WtCom= 9.99D-01 WtEn= 1.10D-03
 Coeff-Com: -0.374D-01 0.328D+00 0.710D+00
 Coeff-En:   0.000D+00 0.000D+00 0.100D+01
[...]
   A12        2.02042   0.00001   0.00000   0.00012   0.00012   2.02054
   A13        2.10791  -0.00002   0.00000  -0.00014  -0.00014   2.10777
   A14        2.08994  -0.00000   0.00000   0.00001   0.00001   2.08995
   A15        2.09345  -0.00001   0.00000  -0.00012  -0.00012   2.09333
   A16        2.09980   0.00001   0.00000   0.00011   0.00011   2.09991
   A17        2.05472  -0.00001   0.00000  -0.00005  -0.00005   2.05466
   A18        2.10549  -0.00001   0.00000  -0.00010  -0.00010   2.10538
   A19        2.12298   0.00001   0.00000   0.00016   0.00016   2.12314
   A20        2.79284  -0.00003   0.00000  -0.00156  -0.00156   2.79129
   A21        2.25710  -0.00002   0.00000  -0.00144  -0.00144   2.25566
   A22        2.12575   0.00002   0.00000   0.00435   0.00434   2.13009
   A23        1.87072   0.00001   0.00000   0.00049   0.00049   1.87121
   A24        1.30963   0.00002   0.00000   0.00117   0.00116   1.31080
   A25        2.52497   0.00004   0.00000   0.00181   0.00181   2.52678
    D1        0.01208  -0.00001   0.00000  -0.00132  -0.00132   0.01076
    D2       -3.12999   0.00000   0.00000  -0.00096  -0.00097  -3.13096
    D3        0.05302   0.00000   0.00000   0.00728   0.00728   0.06029
    D4       -0.00755   0.00001   0.00000   0.00247   0.00247  -0.00507
    D5       -3.13897   0.00001   0.00000   0.00016   0.00016  -3.13881
    D6        0.00313  -0.00000   0.00000  -0.00022  -0.00022   0.00291
    D7       -0.01076   0.00001   0.00000  -0.00013  -0.00013  -0.01089
    D8        3.13134  -0.00000   0.00000  -0.00050  -0.00050   3.13083
    D9       -0.00247  -0.00000   0.00000   0.00003   0.00003  -0.00244
   D10        3.13833   0.00000   0.00000   0.00004   0.00004   3.13837
   D11       -3.12612  -0.00000   0.00000   0.00042   0.00042  -3.12570
   D12        0.01468  -0.00000   0.00000   0.00043   0.00043   0.01511
   D13        0.00509  -0.00000   0.00000   0.00081   0.00081   0.00590
   D14       -0.06318   0.00000   0.00000  -0.00136  -0.00136  -0.06454
   D15        3.13015  -0.00000   0.00000   0.00045   0.00045   3.13060
   D16        3.06188   0.00000   0.00000  -0.00171  -0.00172   3.06017
   D17        3.14023  -0.00000   0.00000  -0.00012  -0.00012   3.14011
   D18        0.00055  -0.00001   0.00000  -0.00022  -0.00022   0.00034
   D19       -0.00186   0.00001   0.00000   0.00025   0.00025  -0.00161
   D20       -3.14154   0.00000   0.00000   0.00015   0.00015  -3.14139
   D21       -0.00016  -0.00000   0.00000  -0.00009  -0.00009  -0.00025
   D22       -3.14051  -0.00000   0.00000  -0.00012  -0.00012  -3.14063
   D23        3.13945  -0.00000   0.00000   0.00001   0.00001   3.13945
   D24       -0.00090  -0.00000   0.00000  -0.00002  -0.00002  -0.00092
   D25        0.00053   0.00000   0.00000   0.00012   0.00012   0.00065
   D26        3.14115   0.00000   0.00000   0.00006   0.00006   3.14120
   D27       -3.14023   0.00000   0.00000   0.00011   0.00011  -3.14012
   D28        0.00038   0.00000   0.00000   0.00005   0.00005   0.00043
   D29        0.00079  -0.00000   0.00000  -0.00008  -0.00008   0.00071
   D30       -3.13982  -0.00000   0.00000  -0.00002  -0.00002  -3.13984
   D31        3.14113  -0.00000   0.00000  -0.00005  -0.00005   3.14108
   D32        0.00052   0.00000   0.00000   0.00001   0.00001   0.00053
   D33       -1.90383  -0.00001   0.00000  -0.00736  -0.00735  -1.91119
   D34        0.00161  -0.00000   0.00000  -0.00217  -0.00218  -0.00057
   D35        1.53884   0.00000   0.00000   0.00062   0.00062   1.53947
   D36        2.16903   0.00002   0.00000   0.00658   0.00658   2.17561
         Item               Value     Threshold  Converged?
 Maximum Force            0.000054     0.000450     YES
 RMS     Force            0.000015     0.000300     YES
 Maximum Displacement     0.006630     0.001800     NO 
 RMS     Displacement     0.001299     0.001200     NO 
 Predicted change in Energy=-2.789455D-07
 GradGradGradGradGradGradGradGradGradGradGradGradGradGradGradGradGradGrad

 Leave Link  103 at Fri Aug 27 00:52:44 2021, MaxMem= 17179869184 cpu:        39.3
 (Enter /public3/home/sc51754/softwares/g09e01/l9999.exe)
 1\1\GINC-S1512\Freq\RLC-wPBE\Gen\C5H7N1O2\SC51754\27-Aug-2021\0\\#P Ge
 om=AllCheck Guess=TCheck SCRF=Check GenChk RLC-wPBE/ChkBas Freq\\HY_H2
 O_LC-wPBE_PC2_OPT_FREQ\\0,1\O,1.2118098542,1.4349739193,-0.0011170388\
 N,0.3059886075,-0.6626783946,-0.0037423318\C,0.1387738934,0.6480623885
 ,0.0010418514\C,-1.1225781521,1.2470817145,0.0089021407\C,-0.779160803
 1,-1.438627853,-0.0045827342\C,-2.2221305417,0.4333727907,0.0094468451
 \C,-2.0584036158,-0.9483895133,0.0020710431\H,2.0224058753,0.882571673
 9,-0.0174844696\H,-1.1950218702,2.3251873503,0.0124775529\H,-0.5944671
 687,-2.5073072157,-0.0117481458\H,-3.2150640015,0.8661687317,0.0144367
 685\H,-2.9053890372,-1.6195931409,0.0006428444\O,3.0706449,-0.57267572
 34,-0.0806718221\H,3.5671673489,-0.8704500915,0.6822414193\H,2.1879117
 109,-0.9915246365,-0.0324719231\\Version=EM64L-G09RevE.01\State=1-A\HF
 =-399.8711997\RMSD=8.825e-10\RMSF=3.801e-05\ZeroPoint=0.1206803\Therma
 l=0.1284621\Dipole=-0.740741,-0.5515859,0.5336864\DipoleDeriv=-1.58322
 15,-0.529419,-0.0048617,-0.4321875,-0.6859816,0.0031429,-0.0038852,0.0
 027799,-0.3649134,-0.9246547,0.1335161,-0.0022863,-0.368174,-0.5681104
 ,0.0003256,-0.0073432,0.0027632,-0.261455,1.6088331,0.7937074,0.000707
 4,0.5886368,0.6389593,-0.0018658,-0.0052709,-0.0033035,0.231266,-0.600
 6313,-0.4553084,-0.0016641,0.1052,-0.0331263,-0.0003346,0.004232,0.000
 5966,-0.1662566,0.5175444,-0.3066239,-0.0018317,0.2050359,0.3156103,0.
 0050197,-0.0028357,0.0049637,-0.0056716,0.2527189,0.1240712,-0.0003728
 ,0.061321,0.5060602,0.0023823,-0.0005675,0.0021263,-0.0781614,-0.24570
 64,0.3457186,0.001183,0.0647056,-0.457356,-0.0013639,0.0024044,-0.0016
 252,-0.1756493,0.7687473,-0.1438044,0.0019699,-0.3277335,0.3793495,-0.
 0092624,-0.0010087,-0.0083736,0.2792357,0.0813008,0.00282,0.0001042,0.
 0048869,-0.0142615,-0.0007306,0.0005967,-0.0001611,0.1530124,0.0690293
 ,0.0265428,-0.0001471,-0.0138426,-0.075816,-0.0007585,-0.0004372,-0.00
 08039,0.1094957,-0.0302789,0.0556045,0.0006908,0.0576449,0.0696953,-0.
 0004739,0.0003909,-0.000544,0.1255868,-0.0000595,-0.064114,-0.0000907,
 -0.0629494,0.0195336,-0.0003981,-0.0000397,-0.0007603,0.1560229,-1.187
 0098,0.1587597,-0.0054017,0.177102,-0.6139413,-0.1109057,0.0259236,-0.
 0959601,-0.4384809,0.3432452,-0.0195012,-0.0023488,0.00226,0.2856242,0
 .0680301,-0.0222511,0.0544187,0.2196078,0.930143,-0.1219694,0.0143497,
 -0.0619062,0.2337609,0.047193,0.0100916,0.0438833,0.2163608\Polar=93.6
 716867,2.3682226,81.1613432,0.8469138,-0.1412303,43.1791148\PG=C01 [X(
 C5H7N1O2)]\NImag=0\\0.64577669,-0.04032322,0.43352171,-0.00774722,0.00
 438777,0.04299209,0.01669796,-0.05301871,-0.00003326,0.51162416,-0.024
 08190,-0.06552948,-0.00026170,0.11630287,0.66693073,0.00004712,0.00000
 290,0.00816658,-0.00045166,0.00208466,0.09699660,-0.27730657,-0.089718
 37,0.00178094,-0.17118999,0.01569900,0.00010754,0.77837118,-0.12829254
 ,-0.18823453,0.00038178,0.06841853,-0.33912221,-0.00119237,0.01945146,
 0.73990542,0.00055273,-0.00057860,-0.05754885,0.00054794,-0.00082489,-
 0.07682966,-0.00275281,0.00199485,0.20319626,-0.07091442,0.00600132,0.
 00023381,0.04120425,0.10010348,0.00045090,-0.25350126,0.03340789,0.000
 92399,0.70728293,-0.03136927,0.01815333,0.00025912,0.03400543,-0.02504
 884,-0.00029216,0.11949255,-0.17628977,-0.00093321,0.03932677,0.804344
 64,0.00044334,0.00019359,0.01128095,-0.00008052,-0.00041827,0.02171711
 ,0.00117884,-0.00080954,-0.08329768,-0.00211357,0.00223796,0.13081099,
 -0.01172011,0.00920297,-0.00000384,-0.28569594,-0.08439683,0.00042928,
 0.06928199,-0.10534752,-0.00067481,-0.09470608,-0.00328169,0.00028775,
 0.71994569,0.00191250,0.00132877,-0.00004628,-0.13237538,-0.20585718,-
 0.00024872,-0.02559610,-0.07555864,-0.00016570,-0.01617428,-0.00169085
 ,0.00003332,-0.03265535,0.78994589,0.00008373,-0.00005870,0.01081181,-
 0.00004763,-0.00060350,-0.06752088,-0.00035029,0.00006628,-0.00263712,
 0.00018219,0.00007235,-0.00666608,-0.00180580,0.00358109,0.16949742,0.
 00479768,0.00423379,0.00011362,-0.01374777,-0.03169481,-0.00015829,-0.
 06255877,0.01120419,0.00030135,-0.31168491,-0.16455524,0.00017698,0.03
 087706,0.04116492,0.00016527,0.78595290,0.02030959,-0.00523029,-0.0000
 1890,-0.04366775,-0.08539661,-0.00024906,-0.06184316,0.09388178,0.0005
 8413,-0.08358103,-0.23590500,-0.00031102,0.11139091,-0.00628907,-0.000
 43311,-0.01110657,0.70319505,0.00006928,-0.00003428,0.00456395,-0.0001
 2889,-0.00024306,-0.00892567,-0.00002857,0.00039380,0.00339550,0.00046
 774,-0.00012855,-0.06329795,0.00040820,-0.00018885,0.00968931,-0.00215
 883,0.00252600,0.15505242,0.00427274,-0.00708742,-0.00001173,-0.075331
 19,-0.06902954,-0.00005677,-0.04056428,0.06315542,0.00031397,0.0603270
 2,-0.02501716,-0.00023730,-0.33865374,0.12769471,0.00147940,-0.1405739
 1,-0.01810546,0.00013380,0.77102752,-0.01566977,-0.00025981,-0.0000449
 0,0.01332772,0.07927422,0.00028735,0.05189871,-0.06011690,-0.00041186,
 -0.08171730,-0.03430692,0.00011583,0.03862437,-0.17970262,-0.00072292,
 0.06470836,-0.33565875,-0.00156065,0.04712091,0.71611326,-0.00004969,0
 .00004120,-0.00116323,0.00025550,0.00046172,0.02366424,0.00031106,-0.0
 0045395,-0.01043705,-0.00048407,-0.00015242,0.00924073,0.00102973,-0.0
 0094205,-0.07432540,0.00048077,-0.00136917,-0.06865231,-0.00160869,0.0
 0299851,0.13179992,-0.29327498,0.16292241,0.00545039,0.00146273,0.0097
 1089,-0.00012737,-0.05294960,0.00494170,0.00062029,0.00340983,-0.00248
 823,-0.00002193,0.00052902,0.00002684,-0.00004179,-0.00174223,-0.00123
 529,0.00001925,0.00043625,0.00205019,0.00002056,0.33463113,0.19841690,
 -0.18763290,-0.00485062,0.00337657,-0.00233804,0.00001744,-0.01784862,
 0.02680023,0.00055986,-0.00865269,-0.00405435,0.00002790,-0.00247464,-
 0.00156509,-0.00001624,0.00070361,0.00404409,-0.00001973,0.00149727,-0
 .00285234,-0.00000580,-0.16389322,0.17269386,0.00697162,-0.00464756,-0
 .01864281,-0.00017342,0.00002016,-0.00295317,-0.00027964,-0.00010693,-
 0.00047797,0.00005302,-0.00004839,0.00382877,0.00004624,-0.00000860,-0
 .00070438,-0.00005637,-0.00005038,0.00138114,-0.00002604,0.00004624,0.
 00040984,-0.00611075,0.00583828,0.02440296,0.00182333,-0.00099218,-0.0
 0002514,-0.00593719,0.00511111,0.00005062,0.00546958,0.02845394,0.0000
 7572,-0.06167229,0.02201143,0.00018557,-0.00214195,-0.00127973,0.00000
 229,0.00774897,-0.02642070,-0.00009748,-0.00358071,-0.00294846,0.00003
 206,-0.00019666,0.00010858,-0.00000522,0.05656537,-0.00062338,0.001033
 02,0.00001630,0.00267007,-0.00041006,-0.00003222,-0.00422697,-0.009546
 26,-0.00001168,0.02441951,-0.35395701,-0.00107605,0.00047234,0.0010578
 4,0.00000908,0.00377242,-0.01114169,-0.00005966,-0.00322511,0.00063603
 ,-0.00001030,0.00021223,-0.00003819,0.00000198,-0.02331121,0.37208600,
 -0.00001894,-0.00000129,-0.00217101,0.00006697,-0.00008464,0.00539233,
 -0.00007667,-0.00013744,0.00298044,0.00023347,-0.00097785,-0.03624939,
 0.00004143,0.00002376,-0.00026302,-0.00002186,-0.00000660,0.00299708,0
 .00000818,-0.00001601,0.00896657,-0.00000504,0.00000818,-0.00064186,-0
 .00018994,0.00115368,0.02523148,-0.00030517,-0.00109731,0.00000205,0.0
 0302530,-0.03340734,-0.00020148,-0.00231598,-0.00421520,0.00002411,-0.
 00091156,-0.00071468,-0.00000383,-0.07101039,0.05949334,0.00038886,-0.
 00548981,0.00210516,0.00005185,0.00152066,0.02832850,0.00018720,0.0003
 8952,-0.00017363,-0.00000261,0.00013386,-0.00000501,-0.00000567,0.0744
 2212,-0.00034013,-0.00106471,0.00000232,-0.00572216,-0.01977632,-0.000
 09584,-0.00215592,0.00110223,-0.00008273,0.00011172,0.00053837,0.00001
 044,0.05739860,-0.32962279,-0.00188552,0.00225376,0.00042064,-0.000062
 38,-0.00123898,-0.00598984,-0.00008735,0.00034054,-0.00002764,-0.00000
 574,0.00008255,-0.00008198,0.00000992,-0.05102632,0.35459403,-0.000009
 60,0.00000129,0.00014887,0.00002525,0.00009662,-0.00223764,0.00006489,
 -0.00004770,0.01009962,-0.00002761,0.00001023,-0.00064430,0.00032237,-
 0.00205719,-0.04570776,0.00004869,-0.00000471,0.00789374,0.00004905,-0
 .00016283,0.00867676,-0.00000476,-0.00000620,-0.00018225,-0.00000859,0
 .00000353,-0.00152758,-0.00039582,0.00215781,0.02830318,-0.00155095,0.
 00067922,0.00001624,0.00013144,-0.00084840,-0.00001301,-0.00175324,-0.
 00338364,0.00002178,-0.01696789,0.01267698,0.00012171,0.00178129,0.000
 50119,0.00001476,-0.30270183,0.10492694,0.00125558,0.00143664,-0.00106
 052,0.00000648,0.00001360,-0.00034181,-0.00000814,0.00104127,-0.000231
 77,-0.00002192,-0.00006963,-0.00009324,-0.00000212,0.31812407,-0.00078
 679,0.00066237,0.00001628,-0.00098074,-0.00063869,0.00001145,-0.003811
 72,-0.00164372,-0.00003511,-0.01803364,0.01219921,0.00007082,0.0005424
 1,-0.00637955,-0.00007000,0.10576285,-0.10782079,-0.00059875,0.0293644
 3,-0.00503011,-0.00013815,-0.00015620,-0.00018755,-0.00000089,0.000601
 67,0.00075078,0.00002163,0.00144424,-0.00041707,-0.00000063,-0.1132889
 8,0.10736664,-0.00001637,-0.00001056,-0.00062858,-0.00001024,0.0000110
 2,-0.00302431,0.00003882,-0.00001986,0.01053819,0.00001624,0.00000884,
 0.00668361,0.00001690,-0.00007965,0.00735218,0.00122560,-0.00058895,-0
 .04581394,0.00015912,-0.00006282,0.00612708,-0.00000206,-0.00000062,-0
 .00041499,-0.00002246,0.00001502,-0.00513144,0.00000486,0.00000060,-0.
 00061214,-0.00138976,0.00069844,0.02859972,0.00035221,-0.00030368,-0.0
 0000284,-0.00543937,0.00225463,0.00004919,-0.00047968,0.00202645,0.000
 00843,0.00118974,0.00156996,0.00001655,-0.01489082,-0.02202038,-0.0000
 8500,0.00831404,0.00537616,0.00001413,-0.24150118,-0.14273574,-0.00021
 679,0.00005861,0.00020400,-0.00000385,0.00027184,0.00027906,-0.0000003
 7,0.00063439,0.00038592,-0.00000795,0.00057733,-0.00061347,-0.00001293
 ,0.25080634,-0.00026616,0.00041849,0.00000914,0.00348142,0.00072169,-0
 .00005785,0.00142477,-0.00154773,-0.00001173,0.00186403,-0.00498148,-0
 .00006632,0.01080212,0.01156107,0.00003231,-0.02593010,-0.01242662,-0.
 00001007,-0.14379102,-0.17291318,-0.00037194,0.00002460,-0.00011835,0.
 00000060,-0.00117713,-0.00051321,0.00000166,-0.00056552,0.00051754,0.0
 0002711,0.00037532,0.00110007,0.00002579,0.15379166,0.17806854,-0.0000
 1746,0.00000149,-0.00128074,0.00006396,-0.00004568,0.00847113,0.000016
 10,-0.00001152,0.00035890,0.00002909,-0.00005296,0.00640650,0.00010338
 ,0.00012478,0.00051084,-0.00014327,-0.00007248,0.00179293,-0.00025468,
 -0.00041766,-0.03476305,0.00000528,-0.00000205,-0.00000919,-0.00000820
 ,-0.00000405,0.00041470,-0.00001816,0.00003327,-0.00405118,-0.00000860
 ,0.00002560,-0.00363905,0.00023642,0.00041978,0.02573575,-0.00896427,0
 .01162438,0.00009008,-0.02128565,-0.00272842,-0.00067420,0.00071423,-0
 .00184596,0.00013575,-0.00075319,0.00060243,0.00009794,0.00031466,0.00
 581228,0.00003736,-0.00022464,-0.00032086,-0.00001503,-0.00220964,-0.0
 0054091,0.00008311,-0.00122056,-0.00705078,0.00005485,-0.00026107,0.00
 015221,-0.00000167,-0.00019768,-0.00060955,-0.00004456,-0.00016446,0.0
 0000757,-0.00001060,-0.00052836,0.00012217,0.00000535,0.56512879,0.023
 02855,-0.00597818,0.00172930,-0.00264226,0.00796640,-0.00038063,-0.012
 14218,-0.01055159,-0.00011411,0.00393941,0.00192374,-0.00010903,0.0016
 4202,0.00025211,-0.00000821,-0.00069841,-0.00199667,-0.00001651,-0.000
 64630,0.00174575,0.00002596,-0.01153860,0.00412320,-0.00537368,-0.0004
 6749,0.00018609,-0.00000384,0.00032888,0.00012298,-0.00001668,0.000124
 03,0.00006915,0.00001171,-0.00004116,0.00007069,0.00000082,0.09662346,
 0.18362633,-0.00121345,0.00213350,0.00526767,-0.00153257,0.00007730,0.
 00644441,-0.00021640,-0.00058255,-0.00086666,0.00012148,0.00006560,-0.
 00068745,0.00004469,0.00003566,0.00008538,-0.00004985,-0.00011277,0.00
 007512,-0.00006845,0.00009130,-0.00053565,0.00087102,-0.00307662,-0.00
 946482,-0.00000953,0.00000669,0.00000918,0.00003368,0.00000070,0.00018
 188,0.00000397,0.00000340,0.00007447,-0.00001346,0.00000109,-0.0000581
 9,0.19802605,-0.16911422,0.39137238,0.00105874,0.00030838,0.00053694,-
 0.00169606,-0.00056252,0.00181778,-0.00069891,-0.00041269,-0.00031027,
 0.00019105,0.00003580,-0.00017584,-0.00054633,0.00013242,-0.00001057,-
 0.00000549,-0.00004357,0.00002505,0.00003692,-0.00010696,-0.00015112,-
 0.00159648,0.00061171,-0.00103610,0.00000827,0.00000782,0.00000102,-0.
 00006142,-0.00003486,0.00005452,0.00001973,-0.00000373,0.00002047,-0.0
 0000823,0.00001328,-0.00001266,-0.16809896,0.05640116,-0.19487770,0.18
 715885,0.00187941,-0.00202135,-0.00148823,-0.00127212,0.00019712,0.000
 35638,-0.00003943,-0.00048875,0.00010091,0.00003929,0.00007147,0.00005
 610,0.00007652,0.00040756,-0.00001576,0.00002536,0.00000400,0.00000848
 ,-0.00009400,-0.00008508,-0.00000826,-0.00100624,0.00286007,0.00407195
 ,-0.00001496,0.00000932,0.00000584,-0.00006468,-0.00007028,-0.00001292
 ,0.00000588,-0.00000008,-0.00000794,-0.00003089,0.00000643,0.00000181,
 0.08312219,-0.07277205,0.15029467,-0.07285285,0.06627520,0.00201429,-0
 .00176723,-0.00027253,0.00125794,0.00004754,-0.00018360,-0.00044022,-0
 .00003374,0.00006788,0.00010909,-0.00001597,0.00000488,-0.00003938,-0.
 00013412,0.00000859,0.00002393,0.00000487,-0.00000759,0.00010527,0.000
 00912,-0.00000056,-0.00173501,0.00273039,0.00040627,0.00000724,-0.0000
 0393,0.00001223,-0.00002728,0.00002249,0.00001888,0.00000988,-0.000001
 97,0.00000419,0.00002393,0.00000031,0.00000975,-0.23453747,0.13388578,
 -0.35070015,0.22912680,-0.13669532,0.35122352,-0.01074288,-0.00243159,
 -0.00040006,0.00617732,-0.00243223,-0.00126965,0.00948131,0.01243796,0
 .00021183,-0.00249320,-0.00229508,0.00012432,-0.00336435,-0.00663698,-
 0.00001275,0.00103873,0.00221563,-0.00001606,0.00335691,-0.00127908,0.
 00010389,0.01004983,-0.00448322,0.00057640,0.00072740,-0.00036221,-0.0
 0000899,0.00023580,0.00064807,-0.00006375,0.00008266,-0.00004789,-0.00
 001759,0.00064315,-0.00016944,0.00000343,-0.36224920,-0.15391112,-0.00
 111947,-0.01576168,-0.00977348,0.00410100,0.36281822,-0.00379379,0.000
 83355,-0.00009138,-0.00190347,-0.01097272,-0.00021133,0.00941598,0.001
 41043,-0.00007014,-0.00105449,-0.00099655,0.00004425,-0.00199623,0.002
 11256,0.00005287,0.00015588,0.00031991,-0.00000581,-0.00059776,-0.0008
 5369,0.00001200,0.00008837,-0.01170701,0.00026295,0.00024260,-0.000070
 68,0.00000300,-0.00043041,-0.00024517,0.00001227,-0.00004120,-0.000030
 65,-0.00000102,-0.00014253,0.00003605,-0.00000114,-0.18497019,-0.10878
 792,0.02017626,0.01650661,0.00560641,0.00195176,0.16852065,0.12334550,
 -0.00110938,0.00033648,-0.00152418,0.00024062,-0.00031729,-0.00917746,
 0.00064640,0.00055888,0.00145820,-0.00019576,-0.00005258,0.00086932,-0
 .00020614,0.00007254,-0.00013089,0.00005226,0.00010214,-0.00014373,0.0
 0001486,-0.00014869,0.00099211,0.00106193,-0.00120416,0.00306247,0.000
 01305,-0.00000840,-0.00001971,-0.00003776,-0.00001800,-0.00036009,-0.0
 0000684,-0.00000212,-0.00011500,-0.00000544,0.00000012,0.00010091,0.03
 675305,0.03948334,-0.04119757,-0.03500831,-0.01666770,-0.00059176,-0.0
 0221253,-0.02213454,0.04677740\\0.00003125,0.00007036,0.00005126,0.000
 08028,0.00009066,0.00001951,-0.00005239,-0.00008094,-0.00004965,-0.000
 01433,0.00000356,0.00001256,-0.00009520,-0.00003312,0.00000814,0.00001
 128,0.00003657,0.00000329,0.00005211,-0.00003379,-0.00000544,-0.000020
 71,-0.00004078,-0.00003509,-0.00000053,-0.00000332,0.00000068,0.000013
 53,0.00001151,0.00000032,0.00000012,-0.00001314,-0.00000186,-0.0000064
 4,0.00000643,-0.00000115,0.00002789,0.00004871,-0.00002362,-0.00000998
 ,0.00000830,0.00002365,-0.00001688,-0.00007102,-0.00000259\\\@


 TO DETECT ERRORS, THE PROGRAMMER MUST HAVE A CONNIVING MIND,
 ONE THAT DELIGHTS IN UNCOVERING FLAWS WHERE BEAUTY AND
 PERFECTION WERE ONCE THOUGHT TO LIE.

             -- THE PSYCHOLOGY OF COMPUTER PROGRAMMING
                GERALD M. WEINBERG
 Job cpu time:       0 days  1 hours 19 minutes 36.1 seconds.
 File lengths (MBytes):  RWF=    137 Int=      0 D2E=      0 Chk=      9 Scr=      1
 Normal termination of Gaussian 09 at Fri Aug 27 00:52:44 2021.
