 Entering Gaussian System, Link 0=g09
 AtFile(1): pc-2.gbs
            -H     0
            S    4   1.00
                  0.754230D+02           0.240650D-02
                  0.113500D+02           0.184870D-01
                  0.259930D+01           0.897420D-01
                  0.735130D+00           0.281110D+00
            S    1   1.00
                  0.231670D+00           0.100000D+01
            S    1   1.00
                  0.741470D-01           0.100000D+01
            P    1   1.00
                  0.160000D+01           0.100000D+01
            P    1   1.00
                  0.450000D+00           0.100000D+01
            D    1   1.00
                  0.125000D+01           0.100000D+01
            ****
            -C     0
            S    7   1.00
                  0.785710D+04           0.568250D-03
                  0.117870D+04           0.439150D-02
                  0.268320D+03           0.225040D-01
                  0.759480D+02           0.866530D-01
                  0.245590D+02           0.244050D+00
                  0.862120D+01           0.441480D+00
                  0.312780D+01           0.353320D+00
            S    7   1.00
                  0.117870D+04          -0.594920D-06
                  0.268320D+03          -0.627480D-04
                  0.759480D+02          -0.757730D-03
                  0.245590D+02          -0.733080D-02
                  0.862120D+01          -0.389320D-01
                  0.312780D+01          -0.889080D-01
                  0.822020D+00           0.216890D+00
            S    1   1.00
                  0.330170D+00           0.100000D+01
            S    1   1.00
                  0.114630D+00           0.100000D+01
            P    4   1.00
                  0.337750D+02           0.602940D-02
                  0.767660D+01           0.432280D-01
                  0.223570D+01           0.163010D+00
                  0.764470D+00           0.365040D+00
            P    1   1.00
                  0.262320D+00           0.100000D+01
            P    1   1.00
                  0.846380D-01           0.100000D+01
            D    1   1.00
                  0.140000D+01           0.100000D+01
            D    1   1.00
                  0.450000D+00           0.100000D+01
            F    1   1.00
                  0.950000D+00           0.100000D+01
            ****
            -N     0
            S    7   1.00
                  0.111010D+05           0.545700D-03
                  0.166530D+04           0.421810D-02
                  0.379080D+03           0.216450D-01
                  0.107300D+03           0.837760D-01
                  0.347470D+02           0.238810D+00
                  0.122490D+02           0.439940D+00
                  0.447430D+01           0.363640D+00
            S    7   1.00
                  0.166530D+04          -0.150060D-05
                  0.379080D+03          -0.587530D-04
                  0.107300D+03          -0.774530D-03
                  0.347470D+02          -0.721610D-02
                  0.122490D+02          -0.393380D-01
                  0.447430D+01          -0.906110D-01
                  0.124040D+01           0.198820D+00
            S    1   1.00
                  0.487430D+00           0.100000D+01
            S    1   1.00
                  0.164840D+00           0.100000D+01
            P    4   1.00
                  0.479340D+02           0.617060D-02
                  0.109990D+02           0.442600D-01
                  0.324720D+01           0.168250D+00
                  0.111140D+01           0.368480D+00
            P    1   1.00
                  0.379880D+00           0.100000D+01
            P    1   1.00
                  0.120680D+00           0.100000D+01
            D    1   1.00
                  0.180000D+01           0.100000D+01
            D    1   1.00
                  0.550000D+00           0.100000D+01
            F    1   1.00
                  0.102000D+01           0.100000D+01
            ****
            -O     0
            S    7   1.00
                  0.147820D+05           0.535190D-03
                  0.221730D+04           0.413750D-02
                  0.504740D+03           0.212450D-01
                  0.142870D+03           0.824530D-01
                  0.463000D+02           0.236710D+00
                  0.163370D+02           0.440390D+00
                  0.598280D+01           0.364650D+00
            S    7   1.00
                  0.221730D+04          -0.192750D-05
                  0.504740D+03          -0.579640D-04
                  0.142870D+03          -0.794940D-03
                  0.463000D+02          -0.731250D-02
                  0.163370D+02          -0.405740D-01
                  0.598280D+01          -0.915940D-01
                  0.167180D+01           0.209400D+00
            S    1   1.00
                  0.646620D+00           0.100000D+01
            S    1   1.00
                  0.216690D+00           0.100000D+01
            P    4   1.00
                  0.604240D+02           0.689490D-02
                  0.139350D+02           0.490050D-01
                  0.415310D+01           0.182550D+00
                  0.141580D+01           0.376330D+00
            P    1   1.00
                  0.475490D+00           0.100000D+01
            P    1   1.00
                  0.145290D+00           0.100000D+01
            D    1   1.00
                  0.220000D+01           0.100000D+01
            D    1   1.00
                  0.650000D+00           0.100000D+01
            F    1   1.00
                  0.110000D+01           0.100000D+01
            ****
 Initial command:
 /public3/home/sc51754/softwares/g09e01/l1.exe "./Gau-33737.inp" -scrdir="./"
 Entering Link 1 = /public3/home/sc51754/softwares/g09e01/l1.exe PID=     33738.
  
 Copyright (c) 1988,1990,1992,1993,1995,1998,2003,2009,2015,
            Gaussian, Inc.  All Rights Reserved.
  
 This is part of the Gaussian(R) 09 program.  It is based on
 the Gaussian(R) 03 system (copyright 2003, Gaussian, Inc.),
 the Gaussian(R) 98 system (copyright 1998, Gaussian, Inc.),
 the Gaussian(R) 94 system (copyright 1995, Gaussian, Inc.),
 the Gaussian 92(TM) system (copyright 1992, Gaussian, Inc.),
 the Gaussian 90(TM) system (copyright 1990, Gaussian, Inc.),
 the Gaussian 88(TM) system (copyright 1988, Gaussian, Inc.),
 the Gaussian 86(TM) system (copyright 1986, Carnegie Mellon
 University), and the Gaussian 82(TM) system (copyright 1983,
 Carnegie Mellon University). Gaussian is a federally registered
 trademark of Gaussian, Inc.
  
 This software contains proprietary and confidential information,
 including trade secrets, belonging to Gaussian, Inc.
  
 This software is provided under written license and may be
 used, copied, transmitted, or stored only in accord with that
 written license.
  
 The following legend is applicable only to US Government
 contracts under FAR:
  
                    RESTRICTED RIGHTS LEGEND
  
 Use, reproduction and disclosure by the US Government is
 subject to restrictions as set forth in subparagraphs (a)
 and (c) of the Commercial Computer Software - Restricted
 Rights clause in FAR 52.227-19.
  
 Gaussian, Inc.
 340 Quinnipiac St., Bldg. 40, Wallingford CT 06492
  
  
 ---------------------------------------------------------------
 Warning -- This program may not be used in any manner that
 competes with the business of Gaussian, Inc. or will provide
 assistance to any competitor of Gaussian, Inc.  The licensee
 of this program is prohibited from giving any competitor of
 Gaussian, Inc. access to this program.  By using this program,
 the user acknowledges that Gaussian, Inc. is engaged in the
 business of creating and licensing software in the field of
 computational chemistry and represents and warrants to the
 licensee that it is not a competitor of Gaussian, Inc. and that
 it will not use this program in any manner prohibited above.
 ---------------------------------------------------------------
  

 Cite this work as:
 Gaussian 09, Revision E.01,
 M. J. Frisch, G. W. Trucks, H. B. Schlegel, G. E. Scuseria, 
 M. A. Robb, J. R. Cheeseman, G. Scalmani, V. Barone, B. Mennucci, 
 G. A. Petersson, H. Nakatsuji, M. Caricato, X. Li, H. P. Hratchian, 
 A. F. Izmaylov, J. Bloino, G. Zheng, J. L. Sonnenberg, M. Hada, 
 M. Ehara, K. Toyota, R. Fukuda, J. Hasegawa, M. Ishida, T. Nakajima, 
 Y. Honda, O. Kitao, H. Nakai, T. Vreven, J. A. Montgomery, Jr., 
 J. E. Peralta, F. Ogliaro, M. Bearpark, J. J. Heyd, E. Brothers, 
 K. N. Kudin, V. N. Staroverov, T. Keith, R. Kobayashi, J. Normand, 
 K. Raghavachari, A. Rendell, J. C. Burant, S. S. Iyengar, J. Tomasi, 
 M. Cossi, N. Rega, J. M. Millam, M. Klene, J. E. Knox, J. B. Cross, 
 V. Bakken, C. Adamo, J. Jaramillo, R. Gomperts, R. E. Stratmann, 
 O. Yazyev, A. J. Austin, R. Cammi, C. Pomelli, J. W. Ochterski, 
 R. L. Martin, K. Morokuma, V. G. Zakrzewski, G. A. Voth, 
 P. Salvador, J. J. Dannenberg, S. Dapprich, A. D. Daniels, 
 O. Farkas, J. B. Foresman, J. V. Ortiz, J. Cioslowski, 
 and D. J. Fox, Gaussian, Inc., Wallingford CT, 2013.
 
 ******************************************
 Gaussian 09:  EM64L-G09RevE.01 30-Nov-2015
                27-Aug-2021 
 ******************************************
 %nprocshared=64
 Will use up to   64 processors via shared memory.
 %mem=128GB
 %chk=HY_H2O_M06L_PC2_OPT_FREQ.chk
 --------------------
 #p opt freq M06L/gen
 --------------------
 1/14=-1,18=20,19=15,26=3,38=1/1,3;
 2/9=110,12=2,17=6,18=5,40=1/2;
 3/5=7,11=2,16=1,25=1,30=1,71=1,74=-53/1,2,3;
 4//1;
 5/5=2,38=5/2;
 6/7=2,8=2,9=2,10=2,28=1/1;
 7//1,2,3,16;
 1/14=-1,18=20,19=15,26=3/3(2);
 2/9=110/2;
 99//99;
 2/9=110/2;
 3/5=7,6=1,11=2,16=1,25=1,30=1,71=1,74=-53,82=7/1,2,3;
 4/5=5,16=3,69=1/1;
 5/5=2,38=5/2;
 7//1,2,3,16;
 1/14=-1,18=20,19=15,26=3/3(-5);
 2/9=110/2;
 6/7=2,8=2,9=2,10=2,19=2,28=1/1;
 99/9=1/99;
 Leave Link    1 at Fri Aug 27 00:25:40 2021, MaxMem= 17179869184 cpu:         3.3
 (Enter /public3/home/sc51754/softwares/g09e01/l101.exe)
 ------------------------
 HY_H2O_M06L_PC2_OPT_FREQ
 ------------------------
 Symbolic Z-matrix:
 Charge =  0 Multiplicity = 1
 O                     1.216     1.44855  -0.00262 
 N                     0.30594  -0.66619  -0.00547 
 C                     0.13701   0.65516  -0.00009 
 C                    -1.12976   1.25518   0.00826 
 C                    -0.78318  -1.4465   -0.00563 
 C                    -2.23812   0.43549   0.00911 
 C                    -2.07199  -0.951     0.00173 
 H                     2.03022   0.90023  -0.0153 
 H                    -1.20631   2.3321    0.01208 
 H                    -0.59906  -2.51382  -0.01294 
 H                    -3.22982   0.86768   0.01456 
 H                    -2.91795  -1.62195   0.00074 
 O                     3.09571  -0.58722  -0.08503 
 H                     3.59397  -0.87925   0.68253 
 H                     2.20982  -1.00228  -0.02248 
 
 Add virtual bond connecting atoms O13        and H8         Dist= 3.46D+00.
 Add virtual bond connecting atoms H15        and N2         Dist= 3.65D+00.
 Add virtual bond connecting atoms H15        and H8         Dist= 3.61D+00.
 Add atom     13 valence  3 ND=      2 dihedral       8     13     14     15
 NAtoms=     15 NQM=       15 NQMF=       0 NMMI=      0 NMMIF=      0
                NMic=       0 NMicF=      0.
                    Isotopes and Nuclear Properties:
 (Nuclear quadrupole moments (NQMom) in fm**2, nuclear magnetic moments (NMagM)
  in nuclear magnetons)

  Atom         1           2           3           4           5           6           7           8           9          10
 IAtWgt=          16          14          12          12          12          12          12           1           1           1
 AtmWgt=  15.9949146  14.0030740  12.0000000  12.0000000  12.0000000  12.0000000  12.0000000   1.0078250   1.0078250   1.0078250
 NucSpn=           0           2           0           0           0           0           0           1           1           1
 AtZEff=   0.0000000   0.0000000   0.0000000   0.0000000   0.0000000   0.0000000   0.0000000   0.0000000   0.0000000   0.0000000
 NQMom=    0.0000000   2.0440000   0.0000000   0.0000000   0.0000000   0.0000000   0.0000000   0.0000000   0.0000000   0.0000000
 NMagM=    0.0000000   0.4037610   0.0000000   0.0000000   0.0000000   0.0000000   0.0000000   2.7928460   2.7928460   2.7928460
 AtZNuc=   8.0000000   7.0000000   6.0000000   6.0000000   6.0000000   6.0000000   6.0000000   1.0000000   1.0000000   1.0000000

  Atom        11          12          13          14          15
 IAtWgt=           1           1          16           1           1
 AtmWgt=   1.0078250   1.0078250  15.9949146   1.0078250   1.0078250
 NucSpn=           1           1           0           1           1
 AtZEff=   0.0000000   0.0000000   0.0000000   0.0000000   0.0000000
 NQMom=    0.0000000   0.0000000   0.0000000   0.0000000   0.0000000
 NMagM=    2.7928460   2.7928460   0.0000000   2.7928460   2.7928460
 AtZNuc=   1.0000000   1.0000000   8.0000000   1.0000000   1.0000000
 Leave Link  101 at Fri Aug 27 00:25:40 2021, MaxMem= 17179869184 cpu:         7.6
 (Enter /public3/home/sc51754/softwares/g09e01/l103.exe)

 GradGradGradGradGradGradGradGradGradGradGradGradGradGradGradGradGradGrad
 Berny optimization.
 Initialization pass.
                           ----------------------------
                           !    Initial Parameters    !
                           ! (Angstroms and Degrees)  !
 --------------------------                            --------------------------
 ! Name  Definition              Value          Derivative Info.                !
 --------------------------------------------------------------------------------
 ! R1    R(1,3)                  1.3393         estimate D2E/DX2                !
 ! R2    R(1,8)                  0.9817         estimate D2E/DX2                !
 ! R3    R(2,3)                  1.3321         estimate D2E/DX2                !
 ! R4    R(2,5)                  1.3398         estimate D2E/DX2                !
 ! R5    R(2,15)                 1.9334         estimate D2E/DX2                !
 ! R6    R(3,4)                  1.4017         estimate D2E/DX2                !
 ! R7    R(4,6)                  1.3785         estimate D2E/DX2                !
 ! R8    R(4,9)                  1.0796         estimate D2E/DX2                !
 ! R9    R(5,7)                  1.3808         estimate D2E/DX2                !
 ! R10   R(5,10)                 1.0831         estimate D2E/DX2                !
 ! R11   R(6,7)                  1.3964         estimate D2E/DX2                !
 ! R12   R(6,11)                 1.0818         estimate D2E/DX2                !
 ! R13   R(7,12)                 1.0797         estimate D2E/DX2                !
 ! R14   R(8,13)                 1.831          estimate D2E/DX2                !
 ! R15   R(8,15)                 1.911          estimate D2E/DX2                !
 ! R16   R(13,14)                0.9606         estimate D2E/DX2                !
 ! R17   R(13,15)                0.9803         estimate D2E/DX2                !
 ! A1    A(3,1,8)              109.7141         estimate D2E/DX2                !
 ! A2    A(3,2,5)              118.3342         estimate D2E/DX2                !
 ! A3    A(3,2,15)             107.2978         estimate D2E/DX2                !
 ! A4    A(5,2,15)             134.3668         estimate D2E/DX2                !
 ! A5    A(1,3,2)              119.0414         estimate D2E/DX2                !
 ! A6    A(1,3,4)              118.3271         estimate D2E/DX2                !
 ! A7    A(2,3,4)              122.6315         estimate D2E/DX2                !
 ! A8    A(3,4,6)              118.1694         estimate D2E/DX2                !
 ! A9    A(3,4,9)              119.4119         estimate D2E/DX2                !
 ! A10   A(6,4,9)              122.4186         estimate D2E/DX2                !
 ! A11   A(2,5,7)              123.3496         estimate D2E/DX2                !
 ! A12   A(2,5,10)             115.832          estimate D2E/DX2                !
 ! A13   A(7,5,10)             120.8184         estimate D2E/DX2                !
 ! A14   A(4,6,7)              119.6513         estimate D2E/DX2                !
 ! A15   A(4,6,11)             119.9667         estimate D2E/DX2                !
 ! A16   A(7,6,11)             120.382          estimate D2E/DX2                !
 ! A17   A(5,7,6)              117.8639         estimate D2E/DX2                !
 ! A18   A(5,7,12)             120.5506         estimate D2E/DX2                !
 ! A19   A(6,7,12)             121.5855         estimate D2E/DX2                !
 ! A20   A(1,8,13)             159.5294         estimate D2E/DX2                !
 ! A21   A(1,8,15)             129.3503         estimate D2E/DX2                !
 ! A22   A(8,13,14)            121.2243         estimate D2E/DX2                !
 ! A23   A(14,13,15)           106.8012         estimate D2E/DX2                !
 ! A24   A(2,15,8)              74.5948         estimate D2E/DX2                !
 ! A25   A(2,15,13)            144.7717         estimate D2E/DX2                !
 ! D1    D(8,1,3,2)              0.4232         estimate D2E/DX2                !
 ! D2    D(8,1,3,4)           -179.5823         estimate D2E/DX2                !
 ! D3    D(3,1,8,13)             4.1107         estimate D2E/DX2                !
 ! D4    D(3,1,8,15)            -0.4785         estimate D2E/DX2                !
 ! D5    D(5,2,3,1)           -179.8646         estimate D2E/DX2                !
 ! D6    D(5,2,3,4)              0.1411         estimate D2E/DX2                !
 ! D7    D(15,2,3,1)            -0.2046         estimate D2E/DX2                !
 ! D8    D(15,2,3,4)           179.8011         estimate D2E/DX2                !
 ! D9    D(3,2,5,7)             -0.1121         estimate D2E/DX2                !
 ! D10   D(3,2,5,10)           179.8324         estimate D2E/DX2                !
 ! D11   D(15,2,5,7)          -179.6581         estimate D2E/DX2                !
 ! D12   D(15,2,5,10)            0.2865         estimate D2E/DX2                !
 ! D13   D(3,2,15,8)            -0.0003         estimate D2E/DX2                !
 ! D14   D(3,2,15,13)           -5.7168         estimate D2E/DX2                !
 ! D15   D(5,2,15,8)           179.5811         estimate D2E/DX2                !
 ! D16   D(5,2,15,13)          173.8646         estimate D2E/DX2                !
 ! D17   D(1,3,4,6)            179.9187         estimate D2E/DX2                !
 ! D18   D(1,3,4,9)              0.0211         estimate D2E/DX2                !
 ! D19   D(2,3,4,6)             -0.0869         estimate D2E/DX2                !
 ! D20   D(2,3,4,9)           -179.9845         estimate D2E/DX2                !
 ! D21   D(3,4,6,7)             -0.0001         estimate D2E/DX2                !
 ! D22   D(3,4,6,11)          -179.9445         estimate D2E/DX2                !
 ! D23   D(9,4,6,7)            179.8942         estimate D2E/DX2                !
 ! D24   D(9,4,6,11)            -0.0502         estimate D2E/DX2                !
 ! D25   D(2,5,7,6)              0.0291         estimate D2E/DX2                !
 ! D26   D(2,5,7,12)           179.968          estimate D2E/DX2                !
 ! D27   D(10,5,7,6)          -179.9128         estimate D2E/DX2                !
 ! D28   D(10,5,7,12)            0.0261         estimate D2E/DX2                !
 ! D29   D(4,6,7,5)              0.0272         estimate D2E/DX2                !
 ! D30   D(4,6,7,12)          -179.911          estimate D2E/DX2                !
 ! D31   D(11,6,7,5)           179.9714         estimate D2E/DX2                !
 ! D32   D(11,6,7,12)            0.0332         estimate D2E/DX2                !
 ! D33   D(1,8,13,14)         -110.3582         estimate D2E/DX2                !
 ! D34   D(1,8,15,2)             0.3164         estimate D2E/DX2                !
 ! D35   D(8,13,14,15)          87.5843         estimate D2E/DX2                !
 ! D36   D(14,13,15,2)         125.4771         estimate D2E/DX2                !
 --------------------------------------------------------------------------------
 Trust Radius=3.00D-01 FncErr=1.00D-07 GrdErr=1.00D-06
 Number of steps in this run=     88 maximum allowed number of steps=    100.
 GradGradGradGradGradGradGradGradGradGradGradGradGradGradGradGradGradGrad

 Leave Link  103 at Fri Aug 27 00:25:40 2021, MaxMem= 17179869184 cpu:         0.1
 (Enter /public3/home/sc51754/softwares/g09e01/l202.exe)
                          Input orientation:                          
 ---------------------------------------------------------------------
 Center     Atomic      Atomic             Coordinates (Angstroms)
 Number     Number       Type             X           Y           Z
 ---------------------------------------------------------------------
      1          8           0        1.216003    1.448553   -0.002617
      2          7           0        0.305942   -0.666194   -0.005465
      3          6           0        0.137014    0.655155   -0.000094
      4          6           0       -1.129757    1.255183    0.008257
      5          6           0       -0.783175   -1.446498   -0.005634
      6          6           0       -2.238124    0.435485    0.009108
      7          6           0       -2.071986   -0.950998    0.001732
      8          1           0        2.030216    0.900227   -0.015295
      9          1           0       -1.206308    2.332099    0.012077
     10          1           0       -0.599059   -2.513820   -0.012944
     11          1           0       -3.229823    0.867678    0.014558
     12          1           0       -2.917952   -1.621952    0.000735
     13          8           0        3.095711   -0.587217   -0.085025
     14          1           0        3.593966   -0.879251    0.682533
     15          1           0        2.209819   -1.002278   -0.022484
 ---------------------------------------------------------------------
                    Distance matrix (angstroms):
                    1          2          3          4          5
     1  O    0.000000
     2  N    2.302254   0.000000
     3  C    1.339292   1.332114   0.000000
     4  C    2.353742   2.398564   1.401718   0.000000
     5  C    3.518244   1.339795   2.294281   2.723856   0.000000
     6  C    3.599644   2.772396   2.385292   1.378544   2.378856
     7  C    4.070471   2.394934   2.731192   2.398973   1.380800
     8  H    0.981715   2.329569   1.909059   3.179934   3.663657
     9  H    2.578461   3.358120   2.148675   1.079640   3.802256
    10  H    4.358320   2.057378   3.253363   3.806241   1.083111
    11  H    4.483646   3.854192   3.373570   2.135527   3.367774
    12  H    5.149524   3.362589   3.810254   3.387566   2.141984
    13  O    2.772085   2.792020   3.210076   4.610609   3.973717
    14  H    3.397471   3.365982   3.843293   5.227238   4.467069
    15  H    2.644738   1.933388   2.654073   4.031109   3.025827
                    6          7          8          9         10
     6  C    0.000000
     7  C    1.396421   0.000000
     8  H    4.293636   4.500598   0.000000
     9  H    2.159120   3.395325   3.539222   0.000000
    10  H    3.374229   2.147590   4.309154   4.883883   0.000000
    11  H    1.081798   2.155999   5.260224   2.497829   4.284414
    12  H    2.166860   1.079740   5.553918   4.308639   2.484528
    13  O    5.431812   5.181212   1.831019   5.199923   4.167532
    14  H    6.016253   5.707158   2.469579   5.814199   4.553786
    15  H    4.674651   4.282181   1.910977   4.773802   3.189772
                   11         12         13         14         15
    11  H    0.000000
    12  H    2.509126   0.000000
    13  O    6.491457   6.102637   0.000000
    14  H    7.075454   6.589501   0.960566   0.000000
    15  H    5.752201   5.165130   0.980302   1.558219   0.000000
 Stoichiometry    C5H7NO2
 Framework group  C1[X(C5H7NO2)]
 Deg. of freedom    39
 Full point group                 C1      NOp   1
 Largest Abelian subgroup         C1      NOp   1
 Largest concise Abelian subgroup C1      NOp   1
                         Standard orientation:                         
 ---------------------------------------------------------------------
 Center     Atomic      Atomic             Coordinates (Angstroms)
 Number     Number       Type             X           Y           Z
 ---------------------------------------------------------------------
      1          8           0        1.216003    1.448553   -0.002617
      2          7           0        0.305942   -0.666194   -0.005465
      3          6           0        0.137014    0.655155   -0.000094
      4          6           0       -1.129757    1.255183    0.008257
      5          6           0       -0.783175   -1.446498   -0.005634
      6          6           0       -2.238124    0.435485    0.009108
      7          6           0       -2.071986   -0.950998    0.001732
      8          1           0        2.030216    0.900227   -0.015295
      9          1           0       -1.206308    2.332099    0.012077
     10          1           0       -0.599059   -2.513820   -0.012944
     11          1           0       -3.229823    0.867678    0.014558
     12          1           0       -2.917952   -1.621952    0.000735
     13          8           0        3.095711   -0.587217   -0.085025
     14          1           0        3.593966   -0.879251    0.682533
     15          1           0        2.209819   -1.002278   -0.022484
 ---------------------------------------------------------------------
 Rotational constants (GHZ):      4.0123302      1.4179596      1.0501753
 Leave Link  202 at Fri Aug 27 00:25:40 2021, MaxMem= 17179869184 cpu:         3.2
 (Enter /public3/home/sc51754/softwares/g09e01/l301.exe)
 General basis read from cards:  (5D, 7F)
 Centers:       8      9     10     11     12     14     15
 S 4 1.00
     Exponent=  7.5423000000D+01 Coefficients=  2.4065000000D-03
     Exponent=  1.1350000000D+01 Coefficients=  1.8487000000D-02
     Exponent=  2.5993000000D+00 Coefficients=  8.9742000000D-02
     Exponent=  7.3513000000D-01 Coefficients=  2.8111000000D-01
 S 1 1.00
     Exponent=  2.3167000000D-01 Coefficients=  1.0000000000D+00
 S 1 1.00
     Exponent=  7.4147000000D-02 Coefficients=  1.0000000000D+00
 P 1 1.00
     Exponent=  1.6000000000D+00 Coefficients=  1.0000000000D+00
 P 1 1.00
     Exponent=  4.5000000000D-01 Coefficients=  1.0000000000D+00
 D 1 1.00
     Exponent=  1.2500000000D+00 Coefficients=  1.0000000000D+00
 ****
 Centers:       3      4      5      6      7
 S 7 1.00
     Exponent=  7.8571000000D+03 Coefficients=  5.6825000000D-04
     Exponent=  1.1787000000D+03 Coefficients=  4.3915000000D-03
     Exponent=  2.6832000000D+02 Coefficients=  2.2504000000D-02
     Exponent=  7.5948000000D+01 Coefficients=  8.6653000000D-02
     Exponent=  2.4559000000D+01 Coefficients=  2.4405000000D-01
     Exponent=  8.6212000000D+00 Coefficients=  4.4148000000D-01
     Exponent=  3.1278000000D+00 Coefficients=  3.5332000000D-01
 S 7 1.00
     Exponent=  1.1787000000D+03 Coefficients= -5.9492000000D-07
     Exponent=  2.6832000000D+02 Coefficients= -6.2748000000D-05
     Exponent=  7.5948000000D+01 Coefficients= -7.5773000000D-04
     Exponent=  2.4559000000D+01 Coefficients= -7.3308000000D-03
     Exponent=  8.6212000000D+00 Coefficients= -3.8932000000D-02
     Exponent=  3.1278000000D+00 Coefficients= -8.8908000000D-02
     Exponent=  8.2202000000D-01 Coefficients=  2.1689000000D-01
 S 1 1.00
     Exponent=  3.3017000000D-01 Coefficients=  1.0000000000D+00
 S 1 1.00
     Exponent=  1.1463000000D-01 Coefficients=  1.0000000000D+00
 P 4 1.00
     Exponent=  3.3775000000D+01 Coefficients=  6.0294000000D-03
     Exponent=  7.6766000000D+00 Coefficients=  4.3228000000D-02
     Exponent=  2.2357000000D+00 Coefficients=  1.6301000000D-01
     Exponent=  7.6447000000D-01 Coefficients=  3.6504000000D-01
 P 1 1.00
     Exponent=  2.6232000000D-01 Coefficients=  1.0000000000D+00
 P 1 1.00
     Exponent=  8.4638000000D-02 Coefficients=  1.0000000000D+00
 D 1 1.00
     Exponent=  1.4000000000D+00 Coefficients=  1.0000000000D+00
 D 1 1.00
     Exponent=  4.5000000000D-01 Coefficients=  1.0000000000D+00
 F 1 1.00
     Exponent=  9.5000000000D-01 Coefficients=  1.0000000000D+00
 ****
 Centers:       2
 S 7 1.00
     Exponent=  1.1101000000D+04 Coefficients=  5.4570000000D-04
     Exponent=  1.6653000000D+03 Coefficients=  4.2181000000D-03
     Exponent=  3.7908000000D+02 Coefficients=  2.1645000000D-02
     Exponent=  1.0730000000D+02 Coefficients=  8.3776000000D-02
     Exponent=  3.4747000000D+01 Coefficients=  2.3881000000D-01
     Exponent=  1.2249000000D+01 Coefficients=  4.3994000000D-01
     Exponent=  4.4743000000D+00 Coefficients=  3.6364000000D-01
 S 7 1.00
     Exponent=  1.6653000000D+03 Coefficients= -1.5006000000D-06
     Exponent=  3.7908000000D+02 Coefficients= -5.8753000000D-05
     Exponent=  1.0730000000D+02 Coefficients= -7.7453000000D-04
     Exponent=  3.4747000000D+01 Coefficients= -7.2161000000D-03
     Exponent=  1.2249000000D+01 Coefficients= -3.9338000000D-02
     Exponent=  4.4743000000D+00 Coefficients= -9.0611000000D-02
     Exponent=  1.2404000000D+00 Coefficients=  1.9882000000D-01
 S 1 1.00
     Exponent=  4.8743000000D-01 Coefficients=  1.0000000000D+00
 S 1 1.00
     Exponent=  1.6484000000D-01 Coefficients=  1.0000000000D+00
 P 4 1.00
     Exponent=  4.7934000000D+01 Coefficients=  6.1706000000D-03
     Exponent=  1.0999000000D+01 Coefficients=  4.4260000000D-02
     Exponent=  3.2472000000D+00 Coefficients=  1.6825000000D-01
     Exponent=  1.1114000000D+00 Coefficients=  3.6848000000D-01
 P 1 1.00
     Exponent=  3.7988000000D-01 Coefficients=  1.0000000000D+00
 P 1 1.00
     Exponent=  1.2068000000D-01 Coefficients=  1.0000000000D+00
 D 1 1.00
     Exponent=  1.8000000000D+00 Coefficients=  1.0000000000D+00
 D 1 1.00
     Exponent=  5.5000000000D-01 Coefficients=  1.0000000000D+00
 F 1 1.00
     Exponent=  1.0200000000D+00 Coefficients=  1.0000000000D+00
 ****
 Centers:       1     13
 S 7 1.00
     Exponent=  1.4782000000D+04 Coefficients=  5.3519000000D-04
     Exponent=  2.2173000000D+03 Coefficients=  4.1375000000D-03
     Exponent=  5.0474000000D+02 Coefficients=  2.1245000000D-02
     Exponent=  1.4287000000D+02 Coefficients=  8.2453000000D-02
     Exponent=  4.6300000000D+01 Coefficients=  2.3671000000D-01
     Exponent=  1.6337000000D+01 Coefficients=  4.4039000000D-01
     Exponent=  5.9828000000D+00 Coefficients=  3.6465000000D-01
 S 7 1.00
     Exponent=  2.2173000000D+03 Coefficients= -1.9275000000D-06
     Exponent=  5.0474000000D+02 Coefficients= -5.7964000000D-05
     Exponent=  1.4287000000D+02 Coefficients= -7.9494000000D-04
     Exponent=  4.6300000000D+01 Coefficients= -7.3125000000D-03
     Exponent=  1.6337000000D+01 Coefficients= -4.0574000000D-02
     Exponent=  5.9828000000D+00 Coefficients= -9.1594000000D-02
     Exponent=  1.6718000000D+00 Coefficients=  2.0940000000D-01
 S 1 1.00
     Exponent=  6.4662000000D-01 Coefficients=  1.0000000000D+00
 S 1 1.00
     Exponent=  2.1669000000D-01 Coefficients=  1.0000000000D+00
 P 4 1.00
     Exponent=  6.0424000000D+01 Coefficients=  6.8949000000D-03
     Exponent=  1.3935000000D+01 Coefficients=  4.9005000000D-02
     Exponent=  4.1531000000D+00 Coefficients=  1.8255000000D-01
     Exponent=  1.4158000000D+00 Coefficients=  3.7633000000D-01
 P 1 1.00
     Exponent=  4.7549000000D-01 Coefficients=  1.0000000000D+00
 P 1 1.00
     Exponent=  1.4529000000D-01 Coefficients=  1.0000000000D+00
 D 1 1.00
     Exponent=  2.2000000000D+00 Coefficients=  1.0000000000D+00
 D 1 1.00
     Exponent=  6.5000000000D-01 Coefficients=  1.0000000000D+00
 F 1 1.00
     Exponent=  1.1000000000D+00 Coefficients=  1.0000000000D+00
 ****
 Ernie: Thresh=  0.10000D-02 Tol=  0.10000D-05 Strict=F.
 Ernie:  8 primitive shells out of 263 were deleted.
 There are   385 symmetry adapted cartesian basis functions of A   symmetry.
 There are   338 symmetry adapted basis functions of A   symmetry.
   338 basis functions,   566 primitive gaussians,   385 cartesian basis functions
    30 alpha electrons       30 beta electrons
       nuclear repulsion energy       357.6226221683 Hartrees.
 IExCor= 4134 DFT=T Ex+Corr=M06L ExCW=0 ScaHFX=  0.000000
 ScaDFX=  1.000000  1.000000  1.000000  1.000000 ScalE2=  1.000000  1.000000
 IRadAn=      0 IRanWt=     -1 IRanGd=            0 ICorTp=0 IEmpDi=  4
 NAtoms=   15 NActive=   15 NUniq=   15 SFac= 1.00D+00 NAtFMM=   60 NAOKFM=F Big=F
 Integral buffers will be    131072 words long.
 Raffenetti 2 integral format.
 Two-electron integral symmetry is turned on.
 Leave Link  301 at Fri Aug 27 00:25:41 2021, MaxMem= 17179869184 cpu:         2.7
 (Enter /public3/home/sc51754/softwares/g09e01/l302.exe)
 NPDir=0 NMtPBC=     1 NCelOv=     1 NCel=       1 NClECP=     1 NCelD=      1
         NCelK=      1 NCelE2=     1 NClLst=     1 CellRange=     0.0.
 One-electron integrals computed using PRISM.
 NBasis=   338 RedAO= T EigKep=  1.46D-04  NBF=   338
 NBsUse=   338 1.00D-06 EigRej= -1.00D+00 NBFU=   338
 Precomputing XC quadrature grid using
 IXCGrd= 4 IRadAn=           0 IRanWt=          -1 IRanGd=           0 AccXCQ= 0.00D+00.
 Generated NRdTot=       0 NPtTot=           0 NUsed=           0 NTot=          32
 NSgBfM=   384   384   384   384   385 MxSgAt=    15 MxSgA2=    15.
 Leave Link  302 at Fri Aug 27 00:25:41 2021, MaxMem= 17179869184 cpu:        44.7
 (Enter /public3/home/sc51754/softwares/g09e01/l303.exe)
 DipDrv:  MaxL=1.
 Leave Link  303 at Fri Aug 27 00:25:42 2021, MaxMem= 17179869184 cpu:        14.9
 (Enter /public3/home/sc51754/softwares/g09e01/l401.exe)
 ExpMin= 7.41D-02 ExpMax= 1.48D+04 ExpMxC= 5.05D+02 IAcc=2 IRadAn=         4 AccDes= 0.00D+00
 Harris functional with IExCor= 1009 and IRadAn=       4 diagonalized for initial guess.
 HarFok:  IExCor= 1009 AccDes= 0.00D+00 IRadAn=         4 IDoV= 1 UseB2=F ITyADJ=14
 ICtDFT=  3500011 ScaDFX=  1.000000  1.000000  1.000000  1.000000
 FoFCou: FMM=F IPFlag=           0 FMFlag=      100000 FMFlg1=           0
         NFxFlg=           0 DoJE=T BraDBF=F KetDBF=T FulRan=T
         wScrn=  0.000000 ICntrl=     500 IOpCl=  0 I1Cent=   200000004 NGrid=           0
         NMat0=    1 NMatS0=      1 NMatT0=    0 NMatD0=    1 NMtDS0=    0 NMtDT0=    0
 Petite list used in FoFCou.
 Harris En= -399.801169270425    
 JPrj=0 DoOrth=F DoCkMO=F.
 Leave Link  401 at Fri Aug 27 00:25:43 2021, MaxMem= 17179869184 cpu:        51.2
 (Enter /public3/home/sc51754/softwares/g09e01/l502.exe)
 Closed shell SCF:
 Using DIIS extrapolation, IDIIS=  1040.
 Integral symmetry usage will be decided dynamically.
 Keep J ints in memory in canonical form, NReq=1670404686.
 IVT=      490665 IEndB=      490665 NGot= 17179869184 MDV= 15538220534
 LenX= 15538220534 LenY= 15538071868
 Requested convergence on RMS density matrix=1.00D-08 within 128 cycles.
 Requested convergence on MAX density matrix=1.00D-06.
 Requested convergence on             energy=1.00D-06.
 No special actions if energy rises.
 FoFCou: FMM=F IPFlag=           0 FMFlag=           0 FMFlg1=           0
         NFxFlg=           0 DoJE=F BraDBF=F KetDBF=F FulRan=T
         wScrn=  0.000000 ICntrl=     600 IOpCl=  0 I1Cent=           0 NGrid=           0
         NMat0=    1 NMatS0=  57291 NMatT0=    0 NMatD0=    1 NMtDS0=    0 NMtDT0=    0
 Symmetry not used in FoFCou.
 Integral accuracy reduced to 1.0D-05 until final iterations.

 Cycle   1  Pass 0  IDiag  1:
 E= -399.849409567831    
 DIIS: error= 2.23D-02 at cycle   1 NSaved=   1.
 NSaved= 1 IEnMin= 1 EnMin= -399.849409567831     IErMin= 1 ErrMin= 2.23D-02
 ErrMax= 2.23D-02  0.00D+00 EMaxC= 1.00D-01 BMatC= 2.83D-01 BMatP= 2.83D-01
 IDIUse=3 WtCom= 7.77D-01 WtEn= 2.23D-01
 Coeff-Com:  0.100D+01
 Coeff-En:   0.100D+01
 Coeff:      0.100D+01
 Gap=     0.155 Goal=   None    Shift=    0.000
 GapD=    0.155 DampG=1.000 DampE=0.500 DampFc=0.5000 IDamp=-1.
 Damping current iteration by 5.00D-01
 RMSDP=2.83D-03 MaxDP=1.20D-01              OVMax= 2.16D-01

 Cycle   2  Pass 0  IDiag  1:
 E= -399.917202175097     Delta-E=       -0.067792607267 Rises=F Damp=T
 DIIS: error= 7.47D-03 at cycle   2 NSaved=   2.
 NSaved= 2 IEnMin= 2 EnMin= -399.917202175097     IErMin= 2 ErrMin= 7.47D-03
 ErrMax= 7.47D-03  0.00D+00 EMaxC= 1.00D-01 BMatC= 3.22D-02 BMatP= 2.83D-01
 IDIUse=3 WtCom= 9.25D-01 WtEn= 7.47D-02
 Coeff-Com:  0.152D+00 0.848D+00
 Coeff-En:   0.300D+00 0.700D+00
 Coeff:      0.163D+00 0.837D+00
 Gap=     0.163 Goal=   None    Shift=    0.000
 RMSDP=9.88D-04 MaxDP=3.63D-02 DE=-6.78D-02 OVMax= 2.00D-01

 Cycle   3  Pass 0  IDiag  1:
 E= -400.039201055674     Delta-E=       -0.121998880576 Rises=F Damp=F
 DIIS: error= 1.08D-02 at cycle   3 NSaved=   3.
 NSaved= 3 IEnMin= 3 EnMin= -400.039201055674     IErMin= 2 ErrMin= 7.47D-03
 ErrMax= 1.08D-02  0.00D+00 EMaxC= 1.00D-01 BMatC= 2.03D-02 BMatP= 3.22D-02
 IDIUse=3 WtCom= 8.92D-01 WtEn= 1.08D-01
 Coeff-Com:  0.358D-02 0.430D+00 0.567D+00
 Coeff-En:   0.000D+00 0.000D+00 0.100D+01
 Coeff:      0.320D-02 0.383D+00 0.613D+00
 Gap=     0.164 Goal=   None    Shift=    0.000
 RMSDP=5.77D-04 MaxDP=2.51D-02 DE=-1.22D-01 OVMax= 1.07D-01

 Cycle   4  Pass 0  IDiag  1:
 E= -400.043442892861     Delta-E=       -0.004241837187 Rises=F Damp=F
 DIIS: error= 1.05D-02 at cycle   4 NSaved=   4.
 NSaved= 4 IEnMin= 4 EnMin= -400.043442892861     IErMin= 2 ErrMin= 7.47D-03
 ErrMax= 1.05D-02  0.00D+00 EMaxC= 1.00D-01 BMatC= 1.53D-02 BMatP= 2.03D-02
 IDIUse=3 WtCom= 8.95D-01 WtEn= 1.05D-01
 Coeff-Com: -0.285D-01 0.125D+00 0.473D+00 0.430D+00
 Coeff-En:   0.000D+00 0.000D+00 0.457D+00 0.543D+00
 Coeff:     -0.255D-01 0.112D+00 0.471D+00 0.442D+00
 Gap=     0.161 Goal=   None    Shift=    0.000
 RMSDP=3.10D-04 MaxDP=1.59D-02 DE=-4.24D-03 OVMax= 5.43D-02

 Cycle   5  Pass 0  IDiag  1:
 E= -400.059084793608     Delta-E=       -0.015641900747 Rises=F Damp=F
 DIIS: error= 1.16D-03 at cycle   5 NSaved=   5.
 NSaved= 5 IEnMin= 5 EnMin= -400.059084793608     IErMin= 5 ErrMin= 1.16D-03
 ErrMax= 1.16D-03  0.00D+00 EMaxC= 1.00D-01 BMatC= 6.43D-04 BMatP= 1.53D-02
 IDIUse=3 WtCom= 9.88D-01 WtEn= 1.16D-02
 Coeff-Com: -0.155D-01 0.347D-01 0.235D+00 0.261D+00 0.484D+00
 Coeff-En:   0.000D+00 0.000D+00 0.000D+00 0.000D+00 0.100D+01
 Coeff:     -0.154D-01 0.343D-01 0.233D+00 0.258D+00 0.490D+00
 Gap=     0.161 Goal=   None    Shift=    0.000
 RMSDP=6.47D-05 MaxDP=2.65D-03 DE=-1.56D-02 OVMax= 9.88D-03

 Cycle   6  Pass 0  IDiag  1:
 E= -400.059625990080     Delta-E=       -0.000541196473 Rises=F Damp=F
 DIIS: error= 3.19D-04 at cycle   6 NSaved=   6.
 NSaved= 6 IEnMin= 6 EnMin= -400.059625990080     IErMin= 6 ErrMin= 3.19D-04
 ErrMax= 3.19D-04  0.00D+00 EMaxC= 1.00D-01 BMatC= 5.39D-05 BMatP= 6.43D-04
 IDIUse=3 WtCom= 9.97D-01 WtEn= 3.19D-03
 Coeff-Com: -0.560D-02 0.593D-02 0.724D-01 0.853D-01 0.271D+00 0.571D+00
 Coeff-En:   0.000D+00 0.000D+00 0.000D+00 0.000D+00 0.304D-01 0.970D+00
 Coeff:     -0.558D-02 0.591D-02 0.722D-01 0.850D-01 0.271D+00 0.572D+00
 Gap=     0.161 Goal=   None    Shift=    0.000
 RMSDP=1.86D-05 MaxDP=6.73D-04 DE=-5.41D-04 OVMax= 3.30D-03

 Cycle   7  Pass 0  IDiag  1:
 E= -400.059664679671     Delta-E=       -0.000038689590 Rises=F Damp=F
 DIIS: error= 2.12D-04 at cycle   7 NSaved=   7.
 NSaved= 7 IEnMin= 7 EnMin= -400.059664679671     IErMin= 7 ErrMin= 2.12D-04
 ErrMax= 2.12D-04  0.00D+00 EMaxC= 1.00D-01 BMatC= 6.30D-06 BMatP= 5.39D-05
 IDIUse=3 WtCom= 9.98D-01 WtEn= 2.12D-03
 Coeff-Com: -0.273D-02 0.249D-02 0.314D-01 0.357D-01 0.135D+00 0.342D+00
 Coeff-Com:  0.456D+00
 Coeff-En:   0.000D+00 0.000D+00 0.000D+00 0.000D+00 0.000D+00 0.366D-01
 Coeff-En:   0.963D+00
 Coeff:     -0.272D-02 0.248D-02 0.313D-01 0.356D-01 0.135D+00 0.341D+00
 Coeff:      0.457D+00
 Gap=     0.161 Goal=   None    Shift=    0.000
 RMSDP=8.69D-06 MaxDP=3.13D-04 DE=-3.87D-05 OVMax= 2.03D-03

 Initial convergence to 1.0D-05 achieved.  Increase integral accuracy.
 Cycle   8  Pass 1  IDiag  1:
 E= -400.060086558098     Delta-E=       -0.000421878428 Rises=F Damp=F
 DIIS: error= 4.35D-04 at cycle   1 NSaved=   1.
 NSaved= 1 IEnMin= 1 EnMin= -400.060086558098     IErMin= 1 ErrMin= 4.35D-04
 ErrMax= 4.35D-04  0.00D+00 EMaxC= 1.00D-01 BMatC= 1.12D-04 BMatP= 1.12D-04
 IDIUse=3 WtCom= 9.96D-01 WtEn= 4.35D-03
 Coeff-Com:  0.100D+01
 Coeff-En:   0.100D+01
 Coeff:      0.100D+01
 Gap=     0.161 Goal=   None    Shift=    0.000
 RMSDP=8.69D-06 MaxDP=3.13D-04 DE=-4.22D-04 OVMax= 2.34D-03

 Cycle   9  Pass 1  IDiag  1:
 E= -400.060121402714     Delta-E=       -0.000034844616 Rises=F Damp=F
 DIIS: error= 2.35D-04 at cycle   2 NSaved=   2.
 NSaved= 2 IEnMin= 2 EnMin= -400.060121402714     IErMin= 2 ErrMin= 2.35D-04
 ErrMax= 2.35D-04  0.00D+00 EMaxC= 1.00D-01 BMatC= 1.29D-05 BMatP= 1.12D-04
 IDIUse=3 WtCom= 9.98D-01 WtEn= 2.35D-03
 Coeff-Com:  0.169D+00 0.831D+00
 Coeff-En:   0.000D+00 0.100D+01
 Coeff:      0.169D+00 0.831D+00
 Gap=     0.161 Goal=   None    Shift=    0.000
 RMSDP=2.15D-05 MaxDP=7.16D-04 DE=-3.48D-05 OVMax= 5.19D-03

 Cycle  10  Pass 1  IDiag  1:
 E= -400.060094385681     Delta-E=        0.000027017033 Rises=F Damp=F
 DIIS: error= 4.93D-04 at cycle   3 NSaved=   3.
 NSaved= 3 IEnMin= 2 EnMin= -400.060121402714     IErMin= 2 ErrMin= 2.35D-04
 ErrMax= 4.93D-04  0.00D+00 EMaxC= 1.00D-01 BMatC= 3.55D-05 BMatP= 1.29D-05
 IDIUse=3 WtCom= 3.11D-01 WtEn= 6.89D-01
 Coeff-Com:  0.492D-01 0.612D+00 0.339D+00
 Coeff-En:   0.000D+00 0.707D+00 0.293D+00
 Coeff:      0.153D-01 0.678D+00 0.307D+00
 Gap=     0.161 Goal=   None    Shift=    0.000
 RMSDP=1.28D-05 MaxDP=4.66D-04 DE= 2.70D-05 OVMax= 3.16D-03

 Cycle  11  Pass 1  IDiag  1:
 E= -400.060133060423     Delta-E=       -0.000038674742 Rises=F Damp=F
 DIIS: error= 4.81D-05 at cycle   4 NSaved=   4.
 NSaved= 4 IEnMin= 4 EnMin= -400.060133060423     IErMin= 4 ErrMin= 4.81D-05
 ErrMax= 4.81D-05  0.00D+00 EMaxC= 1.00D-01 BMatC= 5.78D-07 BMatP= 1.29D-05
 IDIUse=1 WtCom= 1.00D+00 WtEn= 0.00D+00
 Coeff-Com: -0.136D-02 0.192D+00 0.249D-01 0.784D+00
 Coeff:     -0.136D-02 0.192D+00 0.249D-01 0.784D+00
 Gap=     0.161 Goal=   None    Shift=    0.000
 RMSDP=1.95D-06 MaxDP=1.19D-04 DE=-3.87D-05 OVMax= 3.58D-04

 Cycle  12  Pass 1  IDiag  1:
 E= -400.060133525524     Delta-E=       -0.000000465100 Rises=F Damp=F
 DIIS: error= 1.79D-05 at cycle   5 NSaved=   5.
 NSaved= 5 IEnMin= 5 EnMin= -400.060133525524     IErMin= 5 ErrMin= 1.79D-05
 ErrMax= 1.79D-05  0.00D+00 EMaxC= 1.00D-01 BMatC= 7.37D-08 BMatP= 5.78D-07
 IDIUse=1 WtCom= 1.00D+00 WtEn= 0.00D+00
 Coeff-Com: -0.330D-02 0.805D-01-0.242D-02 0.456D+00 0.469D+00
 Coeff:     -0.330D-02 0.805D-01-0.242D-02 0.456D+00 0.469D+00
 Gap=     0.161 Goal=   None    Shift=    0.000
 RMSDP=7.58D-07 MaxDP=5.38D-05 DE=-4.65D-07 OVMax= 1.68D-04

 Cycle  13  Pass 1  IDiag  1:
 E= -400.060133589455     Delta-E=       -0.000000063931 Rises=F Damp=F
 DIIS: error= 9.05D-06 at cycle   6 NSaved=   6.
 NSaved= 6 IEnMin= 6 EnMin= -400.060133589455     IErMin= 6 ErrMin= 9.05D-06
 ErrMax= 9.05D-06  0.00D+00 EMaxC= 1.00D-01 BMatC= 1.00D-08 BMatP= 7.37D-08
 IDIUse=1 WtCom= 1.00D+00 WtEn= 0.00D+00
 Coeff-Com: -0.191D-02 0.267D-01-0.423D-02 0.185D+00 0.299D+00 0.495D+00
 Coeff:     -0.191D-02 0.267D-01-0.423D-02 0.185D+00 0.299D+00 0.495D+00
 Gap=     0.161 Goal=   None    Shift=    0.000
 RMSDP=3.31D-07 MaxDP=1.29D-05 DE=-6.39D-08 OVMax= 6.90D-05

 Cycle  14  Pass 1  IDiag  1:
 E= -400.060133598708     Delta-E=       -0.000000009253 Rises=F Damp=F
 DIIS: error= 4.01D-06 at cycle   7 NSaved=   7.
 NSaved= 7 IEnMin= 7 EnMin= -400.060133598708     IErMin= 7 ErrMin= 4.01D-06
 ErrMax= 4.01D-06  0.00D+00 EMaxC= 1.00D-01 BMatC= 2.19D-09 BMatP= 1.00D-08
 IDIUse=1 WtCom= 1.00D+00 WtEn= 0.00D+00
 Coeff-Com: -0.587D-03 0.140D-03-0.256D-02 0.259D-01 0.105D+00 0.350D+00
 Coeff-Com:  0.522D+00
 Coeff:     -0.587D-03 0.140D-03-0.256D-02 0.259D-01 0.105D+00 0.350D+00
 Coeff:      0.522D+00
 Gap=     0.161 Goal=   None    Shift=    0.000
 RMSDP=1.19D-07 MaxDP=5.31D-06 DE=-9.25D-09 OVMax= 2.46D-05

 Cycle  15  Pass 1  IDiag  1:
 E= -400.060133600896     Delta-E=       -0.000000002188 Rises=F Damp=F
 DIIS: error= 6.10D-07 at cycle   8 NSaved=   8.
 NSaved= 8 IEnMin= 8 EnMin= -400.060133600896     IErMin= 8 ErrMin= 6.10D-07
 ErrMax= 6.10D-07  0.00D+00 EMaxC= 1.00D-01 BMatC= 1.17D-10 BMatP= 2.19D-09
 IDIUse=1 WtCom= 1.00D+00 WtEn= 0.00D+00
 Coeff-Com: -0.150D-03-0.219D-02-0.871D-03-0.275D-02 0.308D-01 0.152D+00
 Coeff-Com:  0.275D+00 0.549D+00
 Coeff:     -0.150D-03-0.219D-02-0.871D-03-0.275D-02 0.308D-01 0.152D+00
 Coeff:      0.275D+00 0.549D+00
 Gap=     0.161 Goal=   None    Shift=    0.000
 RMSDP=2.95D-08 MaxDP=1.65D-06 DE=-2.19D-09 OVMax= 4.72D-06

 Cycle  16  Pass 1  IDiag  1:
 E= -400.060133601000     Delta-E=       -0.000000000104 Rises=F Damp=F
 DIIS: error= 2.66D-07 at cycle   9 NSaved=   9.
 NSaved= 9 IEnMin= 9 EnMin= -400.060133601000     IErMin= 9 ErrMin= 2.66D-07
 ErrMax= 2.66D-07  0.00D+00 EMaxC= 1.00D-01 BMatC= 1.89D-11 BMatP= 1.17D-10
 IDIUse=1 WtCom= 1.00D+00 WtEn= 0.00D+00
 Coeff-Com:  0.215D-04-0.122D-02 0.238D-04-0.636D-02-0.676D-03 0.258D-01
 Coeff-Com:  0.663D-01 0.315D+00 0.601D+00
 Coeff:      0.215D-04-0.122D-02 0.238D-04-0.636D-02-0.676D-03 0.258D-01
 Coeff:      0.663D-01 0.315D+00 0.601D+00
 Gap=     0.161 Goal=   None    Shift=    0.000
 RMSDP=1.05D-08 MaxDP=6.78D-07 DE=-1.04D-10 OVMax= 1.73D-06

 Cycle  17  Pass 1  IDiag  1:
 E= -400.060133601013     Delta-E=       -0.000000000013 Rises=F Damp=F
 DIIS: error= 7.28D-08 at cycle  10 NSaved=  10.
 NSaved=10 IEnMin=10 EnMin= -400.060133601013     IErMin=10 ErrMin= 7.28D-08
 ErrMax= 7.28D-08  0.00D+00 EMaxC= 1.00D-01 BMatC= 1.62D-12 BMatP= 1.89D-11
 IDIUse=1 WtCom= 1.00D+00 WtEn= 0.00D+00
 Coeff-Com:  0.219D-04-0.458D-03 0.663D-04-0.304D-02-0.255D-02 0.366D-03
 Coeff-Com:  0.128D-01 0.121D+00 0.314D+00 0.559D+00
 Coeff:      0.219D-04-0.458D-03 0.663D-04-0.304D-02-0.255D-02 0.366D-03
 Coeff:      0.128D-01 0.121D+00 0.314D+00 0.559D+00
 Gap=     0.161 Goal=   None    Shift=    0.000
 RMSDP=3.80D-09 MaxDP=1.45D-07 DE=-1.27D-11 OVMax= 5.18D-07

 SCF Done:  E(RM06L) =  -400.060133601     A.U. after   17 cycles
            NFock= 17  Conv=0.38D-08     -V/T= 2.0038
 KE= 3.985541672557D+02 PE=-1.651456476216D+03 EE= 4.952195531911D+02
 Leave Link  502 at Fri Aug 27 00:26:08 2021, MaxMem= 17179869184 cpu:       416.8
 (Enter /public3/home/sc51754/softwares/g09e01/l601.exe)
 Copying SCF densities to generalized density rwf, IOpCl= 0 IROHF=0.

 **********************************************************************

            Population analysis using the SCF density.

 **********************************************************************

 Orbital symmetries:
       Occupied  (A) (A) (A) (A) (A) (A) (A) (A) (A) (A) (A) (A)
                 (A) (A) (A) (A) (A) (A) (A) (A) (A) (A) (A) (A)
                 (A) (A) (A) (A) (A) (A)
       Virtual   (A) (A) (A) (A) (A) (A) (A) (A) (A) (A) (A) (A)
                 (A) (A) (A) (A) (A) (A) (A) (A) (A) (A) (A) (A)
                 (A) (A) (A) (A) (A) (A) (A) (A) (A) (A) (A) (A)
                 (A) (A) (A) (A) (A) (A) (A) (A) (A) (A) (A) (A)
                 (A) (A) (A) (A) (A) (A) (A) (A) (A) (A) (A) (A)
                 (A) (A) (A) (A) (A) (A) (A) (A) (A) (A) (A) (A)
                 (A) (A) (A) (A) (A) (A) (A) (A) (A) (A) (A) (A)
                 (A) (A) (A) (A) (A) (A) (A) (A) (A) (A) (A) (A)
                 (A) (A) (A) (A) (A) (A) (A) (A) (A) (A) (A) (A)
                 (A) (A) (A) (A) (A) (A) (A) (A) (A) (A) (A) (A)
                 (A) (A) (A) (A) (A) (A) (A) (A) (A) (A) (A) (A)
                 (A) (A) (A) (A) (A) (A) (A) (A) (A) (A) (A) (A)
                 (A) (A) (A) (A) (A) (A) (A) (A) (A) (A) (A) (A)
                 (A) (A) (A) (A) (A) (A) (A) (A) (A) (A) (A) (A)
                 (A) (A) (A) (A) (A) (A) (A) (A) (A) (A) (A) (A)
                 (A) (A) (A) (A) (A) (A) (A) (A) (A) (A) (A) (A)
                 (A) (A) (A) (A) (A) (A) (A) (A) (A) (A) (A) (A)
                 (A) (A) (A) (A) (A) (A) (A) (A) (A) (A) (A) (A)
                 (A) (A) (A) (A) (A) (A) (A) (A) (A) (A) (A) (A)
                 (A) (A) (A) (A) (A) (A) (A) (A) (A) (A) (A) (A)
                 (A) (A) (A) (A) (A) (A) (A) (A) (A) (A) (A) (A)
                 (A) (A) (A) (A) (A) (A) (A) (A) (A) (A) (A) (A)
                 (A) (A) (A) (A) (A) (A) (A) (A) (A) (A) (A) (A)
                 (A) (A) (A) (A) (A) (A) (A) (A) (A) (A) (A) (A)
                 (A) (A) (A) (A) (A) (A) (A) (A) (A) (A) (A) (A)
                 (A) (A) (A) (A) (A) (A) (A) (A)
 The electronic state is 1-A.
 Alpha  occ. eigenvalues --  -18.98388 -18.96109 -14.17327 -10.14406 -10.08996
 Alpha  occ. eigenvalues --  -10.07069 -10.05619 -10.05379  -1.04061  -0.98168
 Alpha  occ. eigenvalues --   -0.90595  -0.77483  -0.72342  -0.61265  -0.59432
 Alpha  occ. eigenvalues --   -0.51715  -0.49871  -0.47371  -0.44854  -0.41272
 Alpha  occ. eigenvalues --   -0.40327  -0.37854  -0.36578  -0.35121  -0.33005
 Alpha  occ. eigenvalues --   -0.32224  -0.27861  -0.27167  -0.24765  -0.21725
 Alpha virt. eigenvalues --   -0.05640  -0.02735   0.02899   0.03778   0.05201
 Alpha virt. eigenvalues --    0.06837   0.08264   0.10859   0.10913   0.12993
 Alpha virt. eigenvalues --    0.15000   0.17964   0.18514   0.19205   0.19864
 Alpha virt. eigenvalues --    0.21131   0.21917   0.23148   0.23340   0.24590
 Alpha virt. eigenvalues --    0.25525   0.26867   0.27267   0.27564   0.28109
 Alpha virt. eigenvalues --    0.28948   0.29937   0.30833   0.31577   0.34195
 Alpha virt. eigenvalues --    0.34784   0.36182   0.36617   0.36837   0.39612
 Alpha virt. eigenvalues --    0.42280   0.43191   0.44050   0.44980   0.47546
 Alpha virt. eigenvalues --    0.49270   0.51901   0.51998   0.53401   0.53584
 Alpha virt. eigenvalues --    0.57839   0.59919   0.60764   0.62386   0.63602
 Alpha virt. eigenvalues --    0.64070   0.65454   0.68090   0.71191   0.72858
 Alpha virt. eigenvalues --    0.75540   0.77676   0.80015   0.80802   0.83699
 Alpha virt. eigenvalues --    0.87608   0.89830   0.90541   0.91176   0.93456
 Alpha virt. eigenvalues --    0.94726   0.96511   0.97404   0.98355   1.01448
 Alpha virt. eigenvalues --    1.03007   1.07597   1.09182   1.09458   1.11750
 Alpha virt. eigenvalues --    1.13554   1.13677   1.15159   1.16723   1.17834
 Alpha virt. eigenvalues --    1.19688   1.20597   1.24639   1.26467   1.27825
 Alpha virt. eigenvalues --    1.29542   1.29859   1.31866   1.33230   1.34959
 Alpha virt. eigenvalues --    1.42152   1.42891   1.43782   1.45547   1.49918
 Alpha virt. eigenvalues --    1.51572   1.52236   1.53163   1.56159   1.57572
 Alpha virt. eigenvalues --    1.59759   1.60715   1.62516   1.63907   1.66980
 Alpha virt. eigenvalues --    1.68714   1.69281   1.71348   1.72485   1.76497
 Alpha virt. eigenvalues --    1.79312   1.82915   1.84640   1.87315   1.89055
 Alpha virt. eigenvalues --    1.89368   1.90528   1.92339   1.93900   1.98413
 Alpha virt. eigenvalues --    2.01398   2.01809   2.03915   2.06547   2.11565
 Alpha virt. eigenvalues --    2.12047   2.14670   2.17338   2.19769   2.20469
 Alpha virt. eigenvalues --    2.21638   2.25065   2.27767   2.29377   2.30479
 Alpha virt. eigenvalues --    2.32335   2.43912   2.48518   2.53094   2.63538
 Alpha virt. eigenvalues --    2.69739   2.84510   2.93228   2.95816   3.00522
 Alpha virt. eigenvalues --    3.05060   3.08178   3.20070   3.20823   3.22874
 Alpha virt. eigenvalues --    3.25616   3.28951   3.30458   3.36657   3.38868
 Alpha virt. eigenvalues --    3.41264   3.42567   3.46302   3.47984   3.50475
 Alpha virt. eigenvalues --    3.53587   3.55063   3.57464   3.59425   3.63561
 Alpha virt. eigenvalues --    3.65944   3.67660   3.68139   3.70153   3.71183
 Alpha virt. eigenvalues --    3.73431   3.76183   3.77542   3.79675   3.82092
 Alpha virt. eigenvalues --    3.85088   3.85284   3.88058   3.90758   3.94327
 Alpha virt. eigenvalues --    3.96143   3.99487   4.00893   4.02676   4.06550
 Alpha virt. eigenvalues --    4.08435   4.10840   4.13274   4.16762   4.17341
 Alpha virt. eigenvalues --    4.17894   4.20112   4.21008   4.22599   4.25521
 Alpha virt. eigenvalues --    4.26391   4.29024   4.30120   4.30339   4.32063
 Alpha virt. eigenvalues --    4.33009   4.35719   4.37671   4.37852   4.39612
 Alpha virt. eigenvalues --    4.41200   4.41448   4.43707   4.44149   4.49201
 Alpha virt. eigenvalues --    4.49351   4.49840   4.50844   4.51564   4.54114
 Alpha virt. eigenvalues --    4.55543   4.56325   4.57749   4.59078   4.59218
 Alpha virt. eigenvalues --    4.63139   4.64380   4.65508   4.69224   4.71326
 Alpha virt. eigenvalues --    4.72776   4.73708   4.77614   4.79622   4.80921
 Alpha virt. eigenvalues --    4.81237   4.87469   4.88855   4.89689   4.95822
 Alpha virt. eigenvalues --    4.96876   5.00448   5.03053   5.04027   5.04893
 Alpha virt. eigenvalues --    5.07672   5.09646   5.12402   5.14534   5.16718
 Alpha virt. eigenvalues --    5.19513   5.22942   5.25460   5.28676   5.32228
 Alpha virt. eigenvalues --    5.33369   5.34843   5.37655   5.39094   5.44693
 Alpha virt. eigenvalues --    5.45738   5.47770   5.52203   5.52682   5.54739
 Alpha virt. eigenvalues --    5.56707   5.57769   5.59115   5.64445   5.67454
 Alpha virt. eigenvalues --    5.72794   5.79104   5.79665   5.83396   5.89666
 Alpha virt. eigenvalues --    5.94937   5.95136   6.00818   6.08530   6.11627
 Alpha virt. eigenvalues --    6.18299   6.20793   6.21298   6.25114   6.27384
 Alpha virt. eigenvalues --    6.32353   6.37254   6.39480   6.41475   6.44278
 Alpha virt. eigenvalues --    6.46926   6.48012   6.53512   6.57647   6.65637
 Alpha virt. eigenvalues --    6.69837   6.77405   6.81782   6.88463   7.06262
 Alpha virt. eigenvalues --    7.10688   7.19642   7.32045   7.51569   7.61686
 Alpha virt. eigenvalues --    9.42020  12.30503  12.86478  15.71363  15.79469
 Alpha virt. eigenvalues --   17.58457  18.86782  22.54255
          Condensed to atoms (all electrons):
               1          2          3          4          5          6
     1  O    8.075137  -0.075059   0.218227  -0.048497   0.004656   0.008973
     2  N   -0.075059   6.968220   0.391698   0.013094   0.418889  -0.056455
     3  C    0.218227   0.391698   4.450725   0.438019  -0.066679  -0.007466
     4  C   -0.048497   0.013094   0.438019   4.883342  -0.054948   0.411397
     5  C    0.004656   0.418889  -0.066679  -0.054948   4.605340  -0.029029
     6  C    0.008973  -0.056455  -0.007466   0.411397  -0.029029   4.781074
     7  C    0.000293   0.013018  -0.067637   0.005593   0.440891   0.383228
     8  H    0.332482   0.005579  -0.012956   0.002944   0.001143  -0.000451
     9  H    0.002116   0.008578  -0.067174   0.492386  -0.003367  -0.068582
    10  H   -0.000284  -0.051316   0.000047  -0.003693   0.474751   0.009371
    11  H   -0.000436  -0.002929   0.011927  -0.070689   0.010359   0.483294
    12  H    0.000056   0.010717  -0.001660   0.009933  -0.060513  -0.073770
    13  O   -0.028500  -0.037145  -0.002303   0.000236   0.000329   0.000063
    14  H    0.000978   0.002578  -0.000064   0.000107  -0.000001  -0.000012
    15  H   -0.001222   0.019275  -0.002348   0.000432   0.002744  -0.000005
               7          8          9         10         11         12
     1  O    0.000293   0.332482   0.002116  -0.000284  -0.000436   0.000056
     2  N    0.013018   0.005579   0.008578  -0.051316  -0.002929   0.010717
     3  C   -0.067637  -0.012956  -0.067174   0.000047   0.011927  -0.001660
     4  C    0.005593   0.002944   0.492386  -0.003693  -0.070689   0.009933
     5  C    0.440891   0.001143  -0.003367   0.474751   0.010359  -0.060513
     6  C    0.383228  -0.000451  -0.068582   0.009371   0.483294  -0.073770
     7  C    4.975013  -0.000123   0.011270  -0.079436  -0.073853   0.491371
     8  H   -0.000123   0.398580  -0.000313  -0.000050   0.000025  -0.000019
     9  H    0.011270  -0.000313   0.664533   0.000133  -0.019016   0.000241
    10  H   -0.079436  -0.000050   0.000133   0.663631  -0.000350  -0.013455
    11  H   -0.073853   0.000025  -0.019016  -0.000350   0.699118  -0.017252
    12  H    0.491371  -0.000019   0.000241  -0.013455  -0.017252   0.696696
    13  O   -0.000283   0.042041   0.000067   0.000158  -0.000006   0.000012
    14  H    0.000059  -0.001455  -0.000003  -0.000050   0.000000  -0.000001
    15  H    0.000217  -0.004009  -0.000048   0.000072   0.000024  -0.000031
              13         14         15
     1  O   -0.028500   0.000978  -0.001222
     2  N   -0.037145   0.002578   0.019275
     3  C   -0.002303  -0.000064  -0.002348
     4  C    0.000236   0.000107   0.000432
     5  C    0.000329  -0.000001   0.002744
     6  C    0.000063  -0.000012  -0.000005
     7  C   -0.000283   0.000059   0.000217
     8  H    0.042041  -0.001455  -0.004009
     9  H    0.000067  -0.000003  -0.000048
    10  H    0.000158  -0.000050   0.000072
    11  H   -0.000006   0.000000   0.000024
    12  H    0.000012  -0.000001  -0.000031
    13  O    7.853960   0.344540   0.304477
    14  H    0.344540   0.420262  -0.010760
    15  H    0.304477  -0.010760   0.445563
 Mulliken charges:
               1
     1  O   -0.488919
     2  N   -0.628741
     3  C    0.717644
     4  C   -0.079657
     5  C    0.255438
     6  C    0.158369
     7  C   -0.099621
     8  H    0.236582
     9  H   -0.020822
    10  H    0.000470
    11  H   -0.020214
    12  H   -0.042325
    13  O   -0.477644
    14  H    0.243822
    15  H    0.245618
 Sum of Mulliken charges =  -0.00000
 Mulliken charges with hydrogens summed into heavy atoms:
               1
     1  O   -0.252337
     2  N   -0.628741
     3  C    0.717644
     4  C   -0.100479
     5  C    0.255908
     6  C    0.138155
     7  C   -0.141945
    13  O    0.011795
 Electronic spatial extent (au):  <R**2>=           1068.3403
 Charge=             -0.0000 electrons
 Dipole moment (field-independent basis, Debye):
    X=             -1.5946    Y=             -1.1891    Z=              1.3065  Tot=              2.3798
 Quadrupole moment (field-independent basis, Debye-Ang):
   XX=            -41.7780   YY=            -44.5676   ZZ=            -48.2049
   XY=             -2.5866   XZ=              5.2127   YZ=             -1.3196
 Traceless Quadrupole moment (field-independent basis, Debye-Ang):
   XX=              3.0721   YY=              0.2826   ZZ=             -3.3547
   XY=             -2.5866   XZ=              5.2127   YZ=             -1.3196
 Octapole moment (field-independent basis, Debye-Ang**2):
  XXX=             14.2014  YYY=             -6.8854  ZZZ=              1.0257  XYY=              0.3940
  XXY=             -3.9963  XXZ=             19.7902  XZZ=             12.1533  YZZ=              0.3323
  YYZ=              1.2586  XYZ=             -5.0664
 Hexadecapole moment (field-independent basis, Debye-Ang**3):
 XXXX=           -824.8025 YYYY=           -350.6061 ZZZZ=            -49.5040 XXXY=            -20.5333
 XXXZ=             74.8797 YYYX=            -12.6773 YYYZ=             -1.5322 ZZZX=              4.8265
 ZZZY=             -1.3523 XXYY=           -198.3998 XXZZ=           -162.4699 YYZZ=            -74.0143
 XXYZ=            -18.3780 YYXZ=              5.1686 ZZXY=             -3.6810
 N-N= 3.576226221683D+02 E-N=-1.651456481257D+03  KE= 3.985541672557D+02
 No NMR shielding tensors so no spin-rotation constants.
 Leave Link  601 at Fri Aug 27 00:26:09 2021, MaxMem= 17179869184 cpu:        50.9
 (Enter /public3/home/sc51754/softwares/g09e01/l701.exe)
 Compute integral first derivatives.
 ... and contract with generalized density number  0.
 Leave Link  701 at Fri Aug 27 00:26:11 2021, MaxMem= 17179869184 cpu:        63.1
 (Enter /public3/home/sc51754/softwares/g09e01/l702.exe)
 L702 exits ... SP integral derivatives will be done elsewhere.
 Leave Link  702 at Fri Aug 27 00:26:11 2021, MaxMem= 17179869184 cpu:         0.2
 (Enter /public3/home/sc51754/softwares/g09e01/l703.exe)
 Compute integral first derivatives, UseDBF=F ICtDFT=           0.
 Integral derivatives from FoFJK, PRISM(SPDF).
 Calling FoFJK, ICntrl=      2527 FMM=F ISym2X=0 I1Cent= 0 IOpClX= 0 NMat=1 NMatS=1 NMatT=0.
 FoFJK:  IHMeth= 1 ICntrl=    2527 DoSepK=F KAlg= 0 I1Cent=   0 FoldK=F
 IRaf=         0 NMat=   1 IRICut=       1 DoRegI=T DoRafI=F ISym2E= 0.
 FoFCou: FMM=F IPFlag=           0 FMFlag=      100000 FMFlg1=         800
         NFxFlg=           0 DoJE=F BraDBF=F KetDBF=F FulRan=T
         wScrn=  0.000000 ICntrl=    2527 IOpCl=  0 I1Cent=           0 NGrid=           0
         NMat0=    1 NMatS0=      1 NMatT0=    0 NMatD0=    1 NMtDS0=    0 NMtDT0=    0
 Symmetry not used in FoFCou.
 Leave Link  703 at Fri Aug 27 00:26:14 2021, MaxMem= 17179869184 cpu:       188.6
 (Enter /public3/home/sc51754/softwares/g09e01/l716.exe)
 Dipole        =-6.27359979D-01-4.67827595D-01 5.14006100D-01
 ***** Axes restored to original set *****
 -------------------------------------------------------------------
 Center     Atomic                   Forces (Hartrees/Bohr)
 Number     Number              X              Y              Z
 -------------------------------------------------------------------
      1        8          -0.002643825   -0.002622128   -0.000056122
      2        7          -0.000512085   -0.001880718   -0.000013180
      3        6           0.001810201    0.001260946    0.000002290
      4        6           0.000040281   -0.001462031   -0.000016513
      5        6          -0.000950614    0.004895326    0.000014523
      6        6           0.003234334   -0.001466342   -0.000011005
      7        6           0.001220686    0.001355767   -0.000018294
      8        1          -0.003364066   -0.000287208    0.000172525
      9        1          -0.000029600   -0.000920857    0.000001382
     10        1           0.000179962    0.000309530    0.000018620
     11        1           0.000689888   -0.000216296    0.000001538
     12        1           0.000658164    0.000771941    0.000004265
     13        8          -0.000591883   -0.001402571    0.002472273
     14        1          -0.004446635    0.000861214   -0.003810598
     15        1           0.004705192    0.000803427    0.001238295
 -------------------------------------------------------------------
 Cartesian Forces:  Max     0.004895326 RMS     0.001808761
 Leave Link  716 at Fri Aug 27 00:26:14 2021, MaxMem= 17179869184 cpu:         0.4
 (Enter /public3/home/sc51754/softwares/g09e01/l103.exe)

 GradGradGradGradGradGradGradGradGradGradGradGradGradGradGradGradGradGrad
 Berny optimization.
 FormGI is forming the generalized inverse of G from B-inverse, IUseBI=4.
 Internal  Forces:  Max     0.005620059 RMS     0.001520169
 Search for a local minimum.
 Step number   1 out of a maximum of   88
 All quantities printed in internal units (Hartrees-Bohrs-Radians)
 RMS Force = .15202D-02 SwitMx=.10000D-02 MixMth= 1
 Mixed Optimization -- RFO/linear search
 Second derivative matrix not updated -- first step.
 ITU=  0
     Eigenvalues ---    0.00525   0.00832   0.01684   0.02094   0.02184
     Eigenvalues ---    0.02225   0.02239   0.02286   0.02319   0.02409
     Eigenvalues ---    0.02460   0.05224   0.06028   0.06507   0.08515
     Eigenvalues ---    0.13089   0.16000   0.16000   0.16000   0.16000
     Eigenvalues ---    0.19207   0.20418   0.22000   0.22270   0.23481
     Eigenvalues ---    0.35621   0.35778   0.36026   0.36038   0.41939
     Eigenvalues ---    0.43696   0.46841   0.47322   0.48462   0.48884
     Eigenvalues ---    0.52273   0.55339   0.55352   0.56565
 RFO step:  Lambda=-4.51382847D-04 EMin= 5.24515301D-03
 Linear search not attempted -- first point.
 Iteration  1 RMS(Cart)=  0.00803026 RMS(Int)=  0.00003798
 Iteration  2 RMS(Cart)=  0.00003330 RMS(Int)=  0.00000652
 Iteration  3 RMS(Cart)=  0.00000000 RMS(Int)=  0.00000652
 ITry= 1 IFail=0 DXMaxC= 4.73D-02 DCOld= 1.00D+10 DXMaxT= 3.00D-01 DXLimC= 3.00D+00 Rises=F
 Variable       Old X    -DE/DX   Delta X   Delta X   Delta X     New X
                                 (Linear)    (Quad)   (Total)
    R1        2.53090  -0.00554   0.00000  -0.01038  -0.01038   2.52052
    R2        1.85517  -0.00236   0.00000  -0.00504  -0.00504   1.85013
    R3        2.51733  -0.00133   0.00000  -0.00227  -0.00227   2.51507
    R4        2.53185  -0.00355   0.00000  -0.00609  -0.00609   2.52576
    R5        3.65357  -0.00103   0.00000  -0.01414  -0.01414   3.63943
    R6        2.64886  -0.00308   0.00000  -0.00666  -0.00666   2.64220
    R7        2.60507  -0.00380   0.00000  -0.00781  -0.00781   2.59726
    R8        2.04022  -0.00093   0.00000  -0.00256  -0.00256   2.03766
    R9        2.60933  -0.00299   0.00000  -0.00620  -0.00620   2.60313
   R10        2.04678  -0.00027   0.00000  -0.00075  -0.00075   2.04604
   R11        2.63885  -0.00378   0.00000  -0.00844  -0.00844   2.63042
   R12        2.04430  -0.00072   0.00000  -0.00202  -0.00202   2.04229
   R13        2.04041  -0.00099   0.00000  -0.00274  -0.00274   2.03767
   R14        3.46012  -0.00039   0.00000  -0.00494  -0.00492   3.45521
   R15        3.61122  -0.00015   0.00000  -0.00183  -0.00185   3.60938
   R16        1.81521  -0.00562   0.00000  -0.01015  -0.01015   1.80506
   R17        1.85250  -0.00476   0.00000  -0.00944  -0.00944   1.84307
    A1        1.91487  -0.00068   0.00000  -0.00690  -0.00690   1.90797
    A2        2.06532  -0.00145   0.00000  -0.00672  -0.00672   2.05860
    A3        1.87270   0.00001   0.00000   0.00141   0.00141   1.87411
    A4        2.34514   0.00144   0.00000   0.00531   0.00531   2.35045
    A5        2.07766   0.00104   0.00000   0.00312   0.00312   2.08079
    A6        2.06520  -0.00160   0.00000  -0.00656  -0.00656   2.05864
    A7        2.14032   0.00057   0.00000   0.00344   0.00343   2.14376
    A8        2.06244  -0.00026   0.00000  -0.00100  -0.00100   2.06144
    A9        2.08413   0.00025   0.00000   0.00126   0.00126   2.08539
   A10        2.13661   0.00001   0.00000  -0.00026  -0.00026   2.13635
   A11        2.15286   0.00096   0.00000   0.00466   0.00466   2.15752
   A12        2.02165  -0.00074   0.00000  -0.00394  -0.00394   2.01771
   A13        2.10868  -0.00022   0.00000  -0.00072  -0.00072   2.10795
   A14        2.08831   0.00035   0.00000   0.00098   0.00098   2.08928
   A15        2.09381  -0.00022   0.00000  -0.00078  -0.00078   2.09304
   A16        2.10106  -0.00013   0.00000  -0.00020  -0.00020   2.10087
   A17        2.05711  -0.00017   0.00000  -0.00135  -0.00135   2.05576
   A18        2.10400   0.00026   0.00000   0.00173   0.00173   2.10573
   A19        2.12207  -0.00008   0.00000  -0.00038  -0.00038   2.12169
   A20        2.78431   0.00004   0.00000   0.00307   0.00307   2.78738
   A21        2.25759   0.00143   0.00000   0.00551   0.00551   2.26310
   A22        2.11576  -0.00050   0.00000  -0.00221  -0.00223   2.11353
   A23        1.86403  -0.00215   0.00000  -0.01991  -0.01992   1.84411
   A24        1.30192  -0.00180   0.00000  -0.00314  -0.00314   1.29878
   A25        2.52674  -0.00149   0.00000  -0.00405  -0.00404   2.52270
    D1        0.00739   0.00004   0.00000  -0.00040  -0.00040   0.00699
    D2       -3.13430  -0.00007   0.00000  -0.00077  -0.00077  -3.13507
    D3        0.07175   0.00068   0.00000   0.00443   0.00443   0.07618
    D4       -0.00835   0.00013   0.00000   0.00138   0.00138  -0.00698
    D5       -3.13923  -0.00013   0.00000  -0.00030  -0.00031  -3.13954
    D6        0.00246  -0.00001   0.00000   0.00008   0.00008   0.00255
    D7       -0.00357  -0.00016   0.00000  -0.00059  -0.00058  -0.00415
    D8        3.13812  -0.00004   0.00000  -0.00020  -0.00019   3.13793
    D9       -0.00196   0.00002   0.00000  -0.00002  -0.00002  -0.00197
   D10        3.13867   0.00000   0.00000   0.00021   0.00021   3.13888
   D11       -3.13562   0.00007   0.00000   0.00040   0.00040  -3.13523
   D12        0.00500   0.00005   0.00000   0.00063   0.00063   0.00563
   D13       -0.00000   0.00014   0.00000   0.00079   0.00078   0.00078
   D14       -0.09978  -0.00020   0.00000   0.00062   0.00063  -0.09914
   D15        3.13428   0.00009   0.00000   0.00038   0.00037   3.13465
   D16        3.03451  -0.00025   0.00000   0.00021   0.00022   3.03473
   D17        3.14017   0.00011   0.00000   0.00038   0.00038   3.14056
   D18        0.00037   0.00009   0.00000   0.00013   0.00013   0.00050
   D19       -0.00152  -0.00000   0.00000  -0.00000  -0.00000  -0.00152
   D20       -3.14132  -0.00003   0.00000  -0.00026  -0.00026  -3.14158
   D21       -0.00000   0.00001   0.00000  -0.00016  -0.00016  -0.00016
   D22       -3.14062  -0.00001   0.00000  -0.00020  -0.00020  -3.14082
   D23        3.13975   0.00004   0.00000   0.00011   0.00010   3.13985
   D24       -0.00088   0.00002   0.00000   0.00006   0.00006  -0.00081
   D25        0.00051  -0.00001   0.00000  -0.00013  -0.00013   0.00038
   D26        3.14103  -0.00001   0.00000   0.00015   0.00015   3.14119
   D27       -3.14007   0.00001   0.00000  -0.00037  -0.00037  -3.14044
   D28        0.00046   0.00001   0.00000  -0.00009  -0.00009   0.00037
   D29        0.00048  -0.00001   0.00000   0.00022   0.00022   0.00070
   D30       -3.14004  -0.00001   0.00000  -0.00007  -0.00007  -3.14011
   D31        3.14109   0.00001   0.00000   0.00026   0.00026   3.14135
   D32        0.00058   0.00001   0.00000  -0.00003  -0.00003   0.00055
   D33       -1.92611   0.00091   0.00000   0.01669   0.01669  -1.90942
   D34        0.00552  -0.00018   0.00000  -0.00141  -0.00141   0.00411
   D35        1.52863  -0.00019   0.00000  -0.00857  -0.00854   1.52010
   D36        2.18999   0.00010   0.00000  -0.00055  -0.00054   2.18945
         Item               Value     Threshold  Converged?
 Maximum Force            0.005620     0.000450     NO 
 RMS     Force            0.001520     0.000300     NO 
 Maximum Displacement     0.047272     0.001800     NO 
 RMS     Displacement     0.008032     0.001200     NO 
 Predicted change in Energy=-2.261024D-04
 Lowest energy point so far.  Saving SCF results.
 GradGradGradGradGradGradGradGradGradGradGradGradGradGradGradGradGradGrad

 Leave Link  103 at Fri Aug 27 00:26:16 2021, MaxMem= 17179869184 cpu:        84.2
 (Enter /public3/home/sc51754/softwares/g09e01/l202.exe)
                          Input orientation:                          
 ---------------------------------------------------------------------
 Center     Atomic      Atomic             Coordinates (Angstroms)
 Number     Number       Type             X           Y           Z
 ---------------------------------------------------------------------
      1          8           0        1.208296    1.447803   -0.003052
      2          7           0        0.310479   -0.668196   -0.005678
      3          6           0        0.138271    0.651521   -0.000498
      4          6           0       -1.124811    1.251094    0.008162
      5          6           0       -0.779216   -1.442140   -0.005385
      6          6           0       -2.229716    0.433671    0.009560
      7          6           0       -2.065231   -0.948513    0.002234
      8          1           0        2.019653    0.900004   -0.015237
      9          1           0       -1.201721    2.326624    0.012034
     10          1           0       -0.595363   -2.509109   -0.012345
     11          1           0       -3.220170    0.866045    0.015456
     12          1           0       -2.910853   -1.617563    0.001731
     13          8           0        3.086542   -0.583169   -0.086319
     14          1           0        3.568951   -0.881171    0.682367
     15          1           0        2.207375   -1.000730   -0.023587
 ---------------------------------------------------------------------
                    Distance matrix (angstroms):
                    1          2          3          4          5
     1  O    0.000000
     2  N    2.298594   0.000000
     3  C    1.333801   1.330916   0.000000
     4  C    2.341412   2.396649   1.398192   0.000000
     5  C    3.507418   1.336572   2.285875   2.715351   0.000000
     6  C    3.584488   2.768924   2.378009   1.374408   2.371253
     7  C    4.056887   2.392204   2.723149   2.392215   1.377519
     8  H    0.979047   2.319616   1.897777   3.164090   3.649576
     9  H    2.565294   3.354997   2.145158   1.078283   3.792413
    10  H    4.348612   2.051720   3.244679   3.797350   1.082716
    11  H    4.466553   3.849653   3.365324   2.130457   3.359525
    12  H    5.134577   3.358323   3.800777   3.379228   2.138854
    13  O    2.767596   2.778535   3.197518   4.594447   3.960867
    14  H    3.386238   3.337125   3.819033   5.199279   4.437820
    15  H    2.644597   1.925905   2.647953   4.021838   3.019089
                    6          7          8          9         10
     6  C    0.000000
     7  C    1.391956   0.000000
     8  H    4.274953   4.483703   0.000000
     9  H    2.154078   3.387073   3.523242   0.000000
    10  H    3.366236   2.143872   4.296553   4.873662   0.000000
    11  H    1.080731   2.150972   5.240023   2.491473   4.275752
    12  H    2.161381   1.078288   5.536092   4.298587   2.481239
    13  O    5.413479   5.165470   1.828416   5.183219   4.155856
    14  H    5.983813   5.675484   2.461617   5.787797   4.524855
    15  H    4.663302   4.273003   1.909999   4.763872   3.182872
                   11         12         13         14         15
    11  H    0.000000
    12  H    2.502833   0.000000
    13  O    6.471877   6.086581   0.000000
    14  H    7.041995   6.556935   0.955198   0.000000
    15  H    5.739740   5.155325   0.975309   1.538361   0.000000
 Stoichiometry    C5H7NO2
 Framework group  C1[X(C5H7NO2)]
 Deg. of freedom    39
 Full point group                 C1      NOp   1
 RotChk:  IX=0 Diff= 5.57D-04
 Largest Abelian subgroup         C1      NOp   1
 Largest concise Abelian subgroup C1      NOp   1
                         Standard orientation:                         
 ---------------------------------------------------------------------
 Center     Atomic      Atomic             Coordinates (Angstroms)
 Number     Number       Type             X           Y           Z
 ---------------------------------------------------------------------
      1          8           0        1.207879    1.447695   -0.002266
      2          7           0        0.309804   -0.668193   -0.005499
      3          6           0        0.137756    0.651544   -0.000195
      4          6           0       -1.125256    1.251271    0.008109
      5          6           0       -0.779986   -1.442004   -0.005692
      6          6           0       -2.230262    0.433983    0.009009
      7          6           0       -2.065943   -0.948220    0.001548
      8          1           0        2.019173    0.899799   -0.014245
      9          1           0       -1.202035    2.326809    0.012104
     10          1           0       -0.596261   -2.508995   -0.012737
     11          1           0       -3.220664    0.866477    0.014621
     12          1           0       -2.911646   -1.617167    0.000658
     13          8           0        3.085905   -0.583495   -0.085162
     14          1           0        3.568010   -0.881663    0.683650
     15          1           0        2.206665   -1.000956   -0.022794
 ---------------------------------------------------------------------
 Rotational constants (GHZ):      4.0297854      1.4280036      1.0568871
 Leave Link  202 at Fri Aug 27 00:26:16 2021, MaxMem= 17179869184 cpu:         5.9
 (Enter /public3/home/sc51754/softwares/g09e01/l301.exe)
 Basis read from rwf:  (5D, 7F)
 No pseudopotential information found on rwf file.
 There are   385 symmetry adapted cartesian basis functions of A   symmetry.
 There are   338 symmetry adapted basis functions of A   symmetry.
   338 basis functions,   566 primitive gaussians,   385 cartesian basis functions
    30 alpha electrons       30 beta electrons
       nuclear repulsion energy       358.6484395680 Hartrees.
 IExCor= 4134 DFT=T Ex+Corr=M06L ExCW=0 ScaHFX=  0.000000
 ScaDFX=  1.000000  1.000000  1.000000  1.000000 ScalE2=  1.000000  1.000000
 IRadAn=      0 IRanWt=     -1 IRanGd=            0 ICorTp=0 IEmpDi=  4
 NAtoms=   15 NActive=   15 NUniq=   15 SFac= 1.00D+00 NAtFMM=   60 NAOKFM=F Big=F
 Integral buffers will be    131072 words long.
 Raffenetti 2 integral format.
 Two-electron integral symmetry is turned on.
 No density basis found on file   724.
 Leave Link  301 at Fri Aug 27 00:26:16 2021, MaxMem= 17179869184 cpu:         1.1
 (Enter /public3/home/sc51754/softwares/g09e01/l302.exe)
 NPDir=0 NMtPBC=     1 NCelOv=     1 NCel=       1 NClECP=     1 NCelD=      1
         NCelK=      1 NCelE2=     1 NClLst=     1 CellRange=     0.0.
 One-electron integrals computed using PRISM.
 NBasis=   338 RedAO= T EigKep=  1.43D-04  NBF=   338
 NBsUse=   338 1.00D-06 EigRej= -1.00D+00 NBFU=   338
 Precomputing XC quadrature grid using
 IXCGrd= 4 IRadAn=           0 IRanWt=          -1 IRanGd=           0 AccXCQ= 0.00D+00.
 Generated NRdTot=       0 NPtTot=           0 NUsed=           0 NTot=          32
 NSgBfM=   384   384   384   384   385 MxSgAt=    15 MxSgA2=    15.
 Leave Link  302 at Fri Aug 27 00:26:17 2021, MaxMem= 17179869184 cpu:        41.0
 (Enter /public3/home/sc51754/softwares/g09e01/l303.exe)
 DipDrv:  MaxL=1.
 Leave Link  303 at Fri Aug 27 00:26:17 2021, MaxMem= 17179869184 cpu:         9.9
 (Enter /public3/home/sc51754/softwares/g09e01/l401.exe)
 Initial guess from the checkpoint file:  "HY_H2O_M06L_PC2_OPT_FREQ.chk"
 B after Tr=    -0.000000   -0.000000   -0.000000
         Rot=    1.000000   -0.000065    0.000051   -0.000201 Ang=  -0.02 deg.
 Guess basis will be translated and rotated to current coordinates.
 JPrj=2 DoOrth=T DoCkMO=T.
 Generating alternative initial guess.
 ExpMin= 7.41D-02 ExpMax= 1.48D+04 ExpMxC= 5.05D+02 IAcc=2 IRadAn=         4 AccDes= 0.00D+00
 Harris functional with IExCor= 1009 and IRadAn=       4 diagonalized for initial guess.
 HarFok:  IExCor= 1009 AccDes= 0.00D+00 IRadAn=         4 IDoV= 1 UseB2=F ITyADJ=14
 ICtDFT=  3500011 ScaDFX=  1.000000  1.000000  1.000000  1.000000
 FoFCou: FMM=F IPFlag=           0 FMFlag=      100000 FMFlg1=           0
         NFxFlg=           0 DoJE=T BraDBF=F KetDBF=T FulRan=T
         wScrn=  0.000000 ICntrl=     500 IOpCl=  0 I1Cent=   200000004 NGrid=           0
         NMat0=    1 NMatS0=      1 NMatT0=    0 NMatD0=    1 NMtDS0=    0 NMtDT0=    0
 Petite list used in FoFCou.
 Harris En= -399.803430230036    
 Leave Link  401 at Fri Aug 27 00:26:19 2021, MaxMem= 17179869184 cpu:        81.0
 (Enter /public3/home/sc51754/softwares/g09e01/l502.exe)
 Closed shell SCF:
 Using DIIS extrapolation, IDIIS=  1040.
 Integral symmetry usage will be decided dynamically.
 Keep J ints in memory in canonical form, NReq=1670404686.
 IVT=      490665 IEndB=      490665 NGot= 17179869184 MDV= 15538220534
 LenX= 15538220534 LenY= 15538071868
 Requested convergence on RMS density matrix=1.00D-08 within 128 cycles.
 Requested convergence on MAX density matrix=1.00D-06.
 Requested convergence on             energy=1.00D-06.
 No special actions if energy rises.
 FoFCou: FMM=F IPFlag=           0 FMFlag=           0 FMFlg1=           0
         NFxFlg=           0 DoJE=F BraDBF=F KetDBF=F FulRan=T
         wScrn=  0.000000 ICntrl=     600 IOpCl=  0 I1Cent=           0 NGrid=           0
         NMat0=    1 NMatS0=  57291 NMatT0=    0 NMatD0=    1 NMtDS0=    0 NMtDT0=    0
 Symmetry not used in FoFCou.
 Integral accuracy reduced to 1.0D-05 until final iterations.

 Cycle   1  Pass 0  IDiag  1:
 E= -400.059743514779    
 DIIS: error= 5.50D-04 at cycle   1 NSaved=   1.
 NSaved= 1 IEnMin= 1 EnMin= -400.059743514779     IErMin= 1 ErrMin= 5.50D-04
[...]
   A10        2.13667  -0.00000   0.00000  -0.00005  -0.00005   2.13662
   A11        2.15902   0.00002   0.00000   0.00016   0.00016   2.15918
   A12        2.01794  -0.00000   0.00000   0.00001   0.00001   2.01796
   A13        2.10623  -0.00002   0.00000  -0.00017  -0.00017   2.10605
   A14        2.08907  -0.00000   0.00000  -0.00005  -0.00005   2.08902
   A15        2.09308  -0.00000   0.00000  -0.00005  -0.00005   2.09303
   A16        2.10103   0.00001   0.00000   0.00010   0.00010   2.10113
   A17        2.05541  -0.00000   0.00000  -0.00005  -0.00005   2.05536
   A18        2.10542  -0.00000   0.00000  -0.00007  -0.00007   2.10535
   A19        2.12236   0.00001   0.00000   0.00013   0.00013   2.12248
   A20        2.81898  -0.00002   0.00000  -0.00062  -0.00062   2.81836
   A21        2.29233  -0.00002   0.00000  -0.00044  -0.00044   2.29188
   A22        2.07481  -0.00001   0.00000  -0.00208  -0.00208   2.07273
   A23        1.84084  -0.00000   0.00000  -0.00025  -0.00025   1.84059
   A24        1.28228   0.00000   0.00000  -0.00026  -0.00027   1.28201
   A25        2.49789   0.00000   0.00000   0.00011   0.00011   2.49800
    D1        0.00796   0.00000   0.00000   0.00032   0.00033   0.00828
    D2       -3.13365  -0.00000   0.00000   0.00020   0.00021  -3.13345
    D3        0.08469  -0.00001   0.00000  -0.00556  -0.00556   0.07913
    D4       -0.00157  -0.00000   0.00000  -0.00139  -0.00139  -0.00297
    D5       -3.13938  -0.00000   0.00000  -0.00008  -0.00008  -3.13946
    D6        0.00222   0.00000   0.00000   0.00005   0.00005   0.00227
    D7       -0.00978  -0.00000   0.00000   0.00062   0.00062  -0.00916
    D8        3.13182   0.00000   0.00000   0.00074   0.00074   3.13257
    D9       -0.00175   0.00000   0.00000   0.00001   0.00001  -0.00174
   D10        3.13923  -0.00000   0.00000   0.00001   0.00001   3.13923
   D11       -3.12720   0.00000   0.00000  -0.00093  -0.00093  -3.12813
   D12        0.01378  -0.00000   0.00000  -0.00093  -0.00093   0.01285
   D13        0.00611   0.00000   0.00000  -0.00081  -0.00081   0.00530
   D14       -0.07391  -0.00000   0.00000   0.00077   0.00077  -0.07314
   D15        3.13276   0.00000   0.00000   0.00006   0.00006   3.13281
   D16        3.05274  -0.00000   0.00000   0.00163   0.00163   3.05437
   D17        3.14024   0.00000   0.00000   0.00007   0.00007   3.14031
   D18        0.00033   0.00000   0.00000   0.00009   0.00009   0.00042
   D19       -0.00137  -0.00000   0.00000  -0.00005  -0.00005  -0.00142
   D20       -3.14127  -0.00000   0.00000  -0.00003  -0.00003  -3.14131
   D21       -0.00004   0.00000   0.00000   0.00000   0.00000  -0.00003
   D22       -3.14074   0.00000   0.00000   0.00003   0.00003  -3.14071
   D23        3.13981  -0.00000   0.00000  -0.00002  -0.00002   3.13980
   D24       -0.00089   0.00000   0.00000   0.00001   0.00001  -0.00088
   D25        0.00042  -0.00000   0.00000  -0.00005  -0.00005   0.00036
   D26        3.14119  -0.00000   0.00000  -0.00004  -0.00004   3.14115
   D27       -3.14053  -0.00000   0.00000  -0.00005  -0.00005  -3.14058
   D28        0.00025  -0.00000   0.00000  -0.00004  -0.00004   0.00020
   D29        0.00048   0.00000   0.00000   0.00005   0.00005   0.00053
   D30       -3.14028   0.00000   0.00000   0.00003   0.00003  -3.14025
   D31        3.14118   0.00000   0.00000   0.00002   0.00002   3.14121
   D32        0.00042   0.00000   0.00000   0.00001   0.00001   0.00043
   D33       -1.91284   0.00000   0.00000   0.00625   0.00625  -1.90659
   D34       -0.00306  -0.00000   0.00000   0.00147   0.00147  -0.00159
   D35        1.51690   0.00000   0.00000  -0.00060  -0.00060   1.51630
   D36        2.13044  -0.00001   0.00000  -0.00376  -0.00376   2.12667
         Item               Value     Threshold  Converged?
 Maximum Force            0.000064     0.000450     YES
 RMS     Force            0.000015     0.000300     YES
 Maximum Displacement     0.004031     0.001800     NO 
 RMS     Displacement     0.000829     0.001200     YES
 Predicted change in Energy=-1.583673D-07
 GradGradGradGradGradGradGradGradGradGradGradGradGradGradGradGradGradGrad

 Leave Link  103 at Fri Aug 27 00:31:03 2021, MaxMem= 17179869184 cpu:        82.4
 (Enter /public3/home/sc51754/softwares/g09e01/l9999.exe)
 1\1\GINC-S1512\Freq\RM06L\Gen\C5H7N1O2\SC51754\27-Aug-2021\0\\#P Geom=
 AllCheck Guess=TCheck SCRF=Check GenChk RM06L/ChkBas Freq\\HY_H2O_M06L
 _PC2_OPT_FREQ\\0,1\O,1.2122200414,1.436346351,-0.0016122232\N,0.306052
 5049,-0.6739864641,-0.0064292254\C,0.1374707439,0.64779884,0.000537698
 7\C,-1.1245882311,1.2505026682,0.0100910826\C,-0.7869486731,-1.4435965
 704,-0.0067033023\C,-2.2324111163,0.4362988273,0.0106588301\C,-2.07195
 08201,-0.9465642453,0.0017978278\H,2.0160575431,0.8770804713,-0.015861
 2699\H,-1.1977723513,2.3263054504,0.0151179101\H,-0.6076219389,-2.5117
 549619,-0.0147804415\H,-3.2217342349,0.871825106,0.0171352363\H,-2.919
 0478153,-1.6136711837,0.000766564\O,3.1002240044,-0.575049228,-0.09140
 53104\H,3.5707126826,-0.8412888912,0.6967202902\H,2.2318246608,-1.0140
 741695,-0.0365916671\\Version=EM64L-G09RevE.01\State=1-A\HF=-400.06040
 14\RMSD=2.727e-09\RMSF=4.152e-05\ZeroPoint=0.1192163\Thermal=0.1270654
 \Dipole=-0.6019392,-0.4622258,0.5211769\DipoleDeriv=-1.5433517,-0.4898
 22,-0.002888,-0.4221399,-0.6557383,0.0010707,-0.00525,0.0034177,-0.321
 7008,-0.8724618,0.104624,-0.0009073,-0.3679737,-0.5920477,-0.0006358,-
 0.0098389,0.0011556,-0.2396987,1.5359058,0.7204435,0.0001943,0.6068451
 ,0.6591481,-0.0016834,-0.005376,-0.0024671,0.1984088,-0.5129825,-0.369
 8372,-0.0016101,0.1065515,0.0285468,0.0002653,0.0049413,0.0008523,-0.1
 437388,0.515124,-0.2255261,-0.0022948,0.2091969,0.3533626,0.0063631,-0
 .0018324,0.0051247,-0.0117544,0.2474535,0.0843745,-0.0008483,0.0472722
 ,0.4024816,0.0027916,-0.0008766,0.0020071,-0.0752159,-0.1952091,0.2797
 613,0.0011351,0.0504692,-0.3330811,-0.0017238,0.0027611,-0.0013115,-0.
 1442744,0.7621758,-0.1540591,0.000162,-0.3449303,0.3647544,-0.0067479,
 0.0024874,-0.0109025,0.2602811,0.0583401,0.006976,0.0000255,0.0104294,
 -0.0659763,-0.0009913,0.0006617,-0.0006807,0.1341866,0.0472265,0.03207
 01,-0.0000098,-0.0166821,-0.1258264,-0.0015423,-0.0008878,-0.0010937,0
 .093464,-0.0668975,0.0634006,0.0008713,0.0671979,0.0480125,-0.0005942,
 0.0004923,-0.0005976,0.1085984,-0.0366887,-0.0748797,-0.0001532,-0.071
 2117,-0.0025404,-0.0004259,0.000135,-0.0007877,0.138204,-1.1262176,0.1
 648408,-0.000459,0.1678574,-0.5565196,-0.1117603,0.0331344,-0.0935411,
 -0.3688349,0.3036973,-0.0116623,-0.0109329,0.0095677,0.2634019,0.06971
 87,-0.0349056,0.0546349,0.1722842,0.883886,-0.1307046,0.0177153,-0.052
 4497,0.2120219,0.0458955,0.0143542,0.0441896,0.1997909\Polar=97.229208
 ,2.6453829,83.5494557,0.8410607,-0.0711271,43.3567297\PG=C01 [X(C5H7N1
 O2)]\NImag=0\\0.61696561,-0.04539154,0.42281390,-0.00643328,0.00384991
 ,0.04039392,0.01228429,-0.05300749,-0.00009941,0.48649998,-0.02481385,
 -0.06261901,-0.00033697,0.11902140,0.61831423,0.00006328,-0.00000919,0
 .00706162,-0.00067023,0.00227189,0.09112312,-0.26442642,-0.07762390,0.
 00164011,-0.15277286,0.02676743,0.00018027,0.74956514,-0.11757358,-0.1
 8005944,0.00034278,0.05014799,-0.30176392,-0.00133061,0.01209388,0.683
 87725,0.00052718,-0.00060702,-0.05277276,0.00056172,-0.00103725,-0.070
 83532,-0.00296946,0.00243916,0.18878236,-0.06715551,0.00698287,0.00031
 121,0.02767975,0.07460991,0.00044299,-0.24678915,0.04290042,0.00115092
 ,0.68205708,-0.03125718,0.01782975,0.00026470,0.03110484,-0.03152685,-
 0.00040244,0.10782255,-0.16276255,-0.00108205,0.03691592,0.77167603,0.
 00040360,0.00017472,0.00934369,-0.00002286,-0.00052814,0.01900669,0.00
 143322,-0.00092928,-0.07622684,-0.00251745,0.00303487,0.12245354,-0.00
 835497,0.00890324,0.00004138,-0.27054014,-0.09776832,0.00043874,0.0439
 8918,-0.07903268,-0.00062907,-0.06489257,-0.00099725,0.00025009,0.6824
 9903,0.00142842,-0.00003604,-0.00007621,-0.11399658,-0.19279130,-0.000
 25133,-0.02858298,-0.07254060,-0.00019302,-0.00963615,0.00109517,0.000
 05171,-0.03128486,0.75508246,0.00009511,-0.00007680,0.01032656,0.00008
 329,-0.00044081,-0.06277035,-0.00040958,-0.00003048,-0.00375610,0.0002
 0245,0.00006547,-0.00515399,-0.00219751,0.00389182,0.15701855,0.002575
 76,0.00402000,0.00009154,-0.00693643,-0.02271402,-0.00015060,-0.057968
 58,0.00588924,0.00031636,-0.29349896,-0.14833901,0.00024925,0.01769387
 ,0.03700315,0.00020684,0.75529546,0.01642585,-0.00572359,-0.00005180,-
 0.03181765,-0.05808718,-0.00018523,-0.04266289,0.06907505,0.00054353,-
 0.09226916,-0.21950549,-0.00035177,0.08592873,-0.01633754,-0.00052364,
 -0.01228712,0.68440413,0.00008876,-0.00005241,0.00454749,-0.00013556,-
 0.00019423,-0.00780314,0.00004238,0.00033854,0.00185748,0.00050086,-0.
 00019400,-0.05807807,0.00043110,-0.00027785,0.00826182,-0.00285063,0.0
 0301690,0.14435986,0.00294151,-0.00623195,-0.00002508,-0.07143577,-0.0
 5293991,0.00004221,-0.02757439,0.04697176,0.00029037,0.04180114,-0.025
 80557,-0.00025643,-0.31221390,0.11129598,0.00160089,-0.12910446,-0.006
 99856,0.00023112,0.73326405,-0.01150415,-0.00009933,-0.00001382,0.0029
 1539,0.05474939,0.00021486,0.03405853,-0.04081611,-0.00034117,-0.06193
 303,-0.03662520,0.00004123,0.04912215,-0.16234624,-0.00077746,0.052773
 15,-0.32517535,-0.00165650,0.04670362,0.69070492,-0.00005840,0.0000424
 5,-0.00142654,0.00031571,0.00039044,0.02208980,0.00026609,-0.00038015,
 -0.00926750,-0.00047130,-0.00018055,0.00740711,0.00118896,-0.00100081,
 -0.06751253,0.00055985,-0.00147895,-0.06331965,-0.00203551,0.00320765,
 0.12239079,-0.27816854,0.15566609,0.00427479,0.00252559,0.00984366,-0.
 00010332,-0.05343590,0.00638557,0.00054588,0.00270233,-0.00315001,-0.0
 0002512,0.00020189,0.00025529,-0.00002183,-0.00175836,-0.00071660,0.00
 002257,0.00062496,0.00180634,0.00002122,0.32103494,0.19586090,-0.18706
 266,-0.00413020,0.00209699,-0.00271743,0.00002070,-0.02024566,0.026962
 63,0.00053259,-0.00842298,-0.00434838,0.00002162,-0.00179927,-0.001578
 73,-0.00001523,0.00022636,0.00350711,-0.00001366,0.00106598,-0.0020941
 3,-0.00000832,-0.16067051,0.17456539,0.00590773,-0.00413332,-0.0174230
 3,-0.00011741,0.00005509,-0.00305839,-0.00028479,-0.00010573,-0.001250
 08,0.00005632,-0.00004067,0.00414797,0.00002517,-0.00001607,-0.0006465
 2,-0.00003699,-0.00004022,0.00165723,-0.00001188,0.00002843,0.00046143
 ,-0.00504017,0.00528768,0.02304953,0.00217028,-0.00079894,-0.00002828,
 -0.00626089,0.00549105,0.00006763,0.00520344,0.02843577,0.00010799,-0.
 06124442,0.02165232,0.00023824,-0.00240516,-0.00151274,0.00000270,0.00
 735511,-0.02677202,-0.00014073,-0.00386260,-0.00280664,0.00004275,-0.0
 0014417,0.00012550,-0.00000729,0.05697472,-0.00070457,0.00112574,0.000
 01868,0.00337994,-0.00054465,-0.00004347,-0.00456317,-0.01084350,-0.00
 002180,0.02376065,-0.34374640,-0.00152240,0.00068553,0.00130902,0.0000
 1055,0.00384948,-0.01267188,-0.00008055,-0.00379695,0.00115966,-0.0000
 1385,0.00014936,-0.00011082,0.00000531,-0.02284741,0.36397320,-0.00002
 657,0.00000219,-0.00197353,0.00009038,-0.00008562,0.00597537,-0.000066
 32,-0.00019135,0.00187945,0.00026484,-0.00141912,-0.03392403,0.0000353
 6,0.00002872,-0.00046716,-0.00001899,0.00000861,0.00165141,0.00002097,
 -0.00002812,0.00906789,-0.00000582,0.00000690,-0.00064949,-0.00024653,
 0.00163438,0.02440427,-0.00032771,-0.00150206,-0.00000103,0.00218355,-
 0.03387046,-0.00024976,-0.00277139,-0.00387226,0.00003883,-0.00063463,
 -0.00087637,-0.00000520,-0.06889404,0.05719824,0.00048333,-0.00597330,
 0.00157501,0.00006639,0.00123271,0.02896547,0.00021110,0.00043944,-0.0
 0012739,-0.00000160,0.00021508,-0.00001218,-0.00000970,0.07384734,-0.0
 0043599,-0.00132315,-0.00000279,-0.00797296,-0.02184231,-0.00009410,-0
 .00222497,0.00185857,-0.00008061,-0.00002947,0.00050229,0.00001176,0.0
 5667030,-0.31829713,-0.00206349,0.00298059,0.00071836,-0.00006653,-0.0
 0113836,-0.00759356,-0.00009091,0.00044060,-0.00001758,-0.00000417,0.0
 0013741,-0.00014122,0.00001151,-0.04854364,0.34634138,-0.00000596,0.00
 000109,0.00040090,-0.00000168,0.00009517,-0.00368286,0.00006547,-0.000
 03994,0.01039001,-0.00001565,0.00001461,-0.00076261,0.00043127,-0.0022
 1440,-0.04189216,0.00006446,-0.00002484,0.00777359,0.00004050,-0.00019
 861,0.00680702,-0.00000567,-0.00000486,-0.00019097,-0.00001153,0.00000
 687,-0.00179661,-0.00049583,0.00234958,0.02707472,-0.00191911,0.000881
 14,0.00001911,0.00029346,-0.00071659,-0.00001802,-0.00125131,-0.004210
 99,0.00002587,-0.01863580,0.01300609,0.00016531,0.00196577,0.00093425,
 0.00002600,-0.29559481,0.10292101,0.00174276,0.00020676,-0.00084147,0.
 00000864,-0.00001327,-0.00048010,-0.00000850,0.00125287,-0.00009962,-0
 .00003053,-0.00013954,-0.00011031,-0.00000258,0.31325056,-0.00100032,0
 .00071383,0.00001530,-0.00082779,-0.00025814,0.00001989,-0.00358783,-0
 .00187678,-0.00005098,-0.01796634,0.01167815,0.00010038,-0.00029182,-0
 .00692453,-0.00008669,0.10363866,-0.10549871,-0.00081979,0.03024698,-0
 .00629281,-0.00018643,-0.00022296,-0.00024880,0.00000163,0.00056930,0.
 00095952,0.00002945,0.00172261,-0.00057859,-0.00000378,-0.11167397,0.1
 0686855,-0.00001157,-0.00001152,-0.00036186,-0.00000783,0.00001612,-0.
 00337432,0.00004114,-0.00003488,0.01051789,0.00001906,0.00000510,0.005
 07564,0.00002068,-0.00009864,0.00763294,0.00171597,-0.00081214,-0.0415
 7752,0.00019670,-0.00006826,0.00490199,-0.00000245,0.00000015,-0.00053
 134,-0.00002795,0.00002278,-0.00483648,0.00000802,-0.00000112,-0.00046
 185,-0.00192103,0.00094755,0.02669660,0.00036412,-0.00044167,-0.000006
 13,-0.00569705,0.00258590,0.00007277,-0.00039451,0.00231148,0.00001081
 ,0.00125902,0.00151859,0.00002477,-0.01603827,-0.02279178,-0.00009406,
 0.00735434,0.00521505,0.00001229,-0.23668801,-0.13772489,-0.00009409,0
 .00006814,0.00026034,-0.00000268,0.00028026,0.00042335,0.00000193,0.00
 082827,0.00023232,-0.00001411,0.00068093,-0.00054523,-0.00001910,0.247
 90243,-0.00027407,0.00050572,0.00001116,0.00344447,0.00094624,-0.00006
 415,0.00152163,-0.00152889,-0.00001342,0.00252935,-0.00532515,-0.00008
 458,0.01037472,0.01081126,0.00003527,-0.02670937,-0.01335241,0.0000095
 0,-0.13832995,-0.16601244,-0.00032488,0.00001321,-0.00012169,0.0000009
 6,-0.00143331,-0.00060932,-0.00000003,-0.00057465,0.00054919,0.0000285
 6,0.00026137,0.00140178,0.00003055,0.14920174,0.17262353,-0.00001670,0
 .00000461,-0.00138804,0.00007963,-0.00006068,0.00849980,0.00001453,-0.
 00001231,0.00022431,0.00004071,-0.00007071,0.00656192,0.00012975,0.000
 17343,-0.00092960,-0.00017740,-0.00009195,0.00075767,-0.00012989,-0.00
 036849,-0.03200848,0.00000397,-0.00000202,-0.00005615,-0.00000911,-0.0
 0000753,0.00065900,-0.00001920,0.00002845,-0.00351378,-0.00001558,0.00
 003436,-0.00364856,0.00010349,0.00036979,0.02478315,-0.00814183,0.0102
 7687,-0.00001250,-0.01696559,-0.00293791,-0.00079307,0.00027166,-0.001
 55874,0.00015333,-0.00059308,0.00063049,0.00012647,-0.00006457,0.00606
 791,0.00003373,-0.00010014,-0.00013439,-0.00001862,-0.00189041,-0.0009
 8337,0.00010732,-0.00207011,-0.00543369,0.00016227,-0.00034673,0.00028
 663,-0.00000010,-0.00017991,-0.00078195,-0.00005490,-0.00020386,0.0000
 1981,-0.00001810,-0.00065563,0.00011739,0.00001034,0.53540477,0.020442
 11,-0.00466736,0.00169254,-0.00134612,0.00708190,-0.00034158,-0.011419
 86,-0.01039187,-0.00010064,0.00346430,0.00199930,-0.00012486,0.0011258
 0,0.00050734,0.00000371,-0.00046734,-0.00162275,-0.00001878,-0.0004475
 9,0.00121519,0.00001707,-0.00859311,0.00144386,-0.00533914,-0.00048906
 ,0.00021004,-0.00000281,0.00027317,0.00011703,-0.00001065,0.00016461,0
 .00008987,0.00001839,-0.00006598,0.00009063,0.00000394,0.11597650,0.17
 996414,-0.00168622,0.00236258,0.00469917,-0.00187445,0.00013428,0.0056
 3128,-0.00012862,-0.00056793,-0.00068989,0.00007940,0.00006581,-0.0006
 7781,0.00006009,0.00003746,0.00016827,-0.00003176,-0.00010276,0.000060
 65,-0.00006507,0.00007585,-0.00054036,0.00106968,-0.00298462,-0.008472
 96,-0.00000489,0.00000944,0.00002121,0.00002981,-0.00000121,0.00018653
 ,0.00000817,0.00000546,0.00009427,-0.00001950,-0.00000100,-0.00006311,
 0.18734163,-0.15974984,0.41171849,0.00080565,0.00047972,0.00064547,-0.
 00169988,-0.00053599,0.00183866,-0.00062047,-0.00045022,-0.00029781,0.
 00012855,0.00005445,-0.00019907,-0.00048329,0.00024858,0.00001665,-0.0
 0000317,-0.00003648,0.00002298,-0.00001794,-0.00012081,-0.00017452,-0.
 00131919,0.00021264,-0.00121685,0.00000498,0.00000704,0.00000206,-0.00
 004479,-0.00004528,0.00006407,0.00002004,-0.00000500,0.00003036,-0.000
 02138,0.00001708,-0.00001768,-0.15265891,0.04000743,-0.18292344,0.1721
 5102,0.00224770,-0.00213966,-0.00150045,-0.00113956,0.00026059,0.00029
 539,-0.00019064,-0.00051508,0.00008971,0.00008582,0.00008602,0.0000715
 5,0.00005799,0.00035181,-0.00001311,0.00002198,-0.00001810,0.00001128,
 -0.00008347,-0.00006128,-0.00000377,-0.00129797,0.00289820,0.00411655,
 -0.00001983,0.00000925,0.00000479,-0.00004056,-0.00007367,-0.00001526,
 0.00001063,-0.00000043,-0.00001282,-0.00003064,0.00000457,0.00000134,0
 .06802046,-0.06269156,0.14011151,-0.05584681,0.05685657,0.00224976,-0.
 00186102,-0.00020290,0.00135296,-0.00001390,-0.00008401,-0.00042320,-0
 .00009242,0.00002846,0.00010233,-0.00000422,-0.00000083,-0.00002386,-0
 .00011090,-0.00000139,0.00001840,0.00000385,-0.00000715,0.00008609,0.0
 0001373,0.00000104,-0.00175803,0.00250083,0.00033758,0.00000545,-0.000
 00831,0.00000699,-0.00002328,0.00002618,0.00001737,0.00000935,-0.00000
 262,0.00000472,0.00003010,0.00000320,0.00000624,-0.22895847,0.12005929
 ,-0.36856739,0.22087772,-0.12398359,0.36944589,-0.00961311,-0.00221237
 ,-0.00041788,0.00084200,-0.00202230,-0.00116156,0.00897556,0.01156233,
 0.00016710,-0.00218374,-0.00227986,0.00013518,-0.00246282,-0.00662675,
 -0.00002800,0.00066368,0.00162924,-0.00001567,0.00271635,-0.00043029,0
 .00011219,0.00931224,-0.00266911,0.00057666,0.00080722,-0.00051808,-0.
 00001098,0.00021893,0.00082171,-0.00005785,0.00008731,-0.00007611,-0.0
 0002388,0.00075734,-0.00015960,0.00000313,-0.35180565,-0.15862488,-0.0
 0185485,-0.01624125,-0.01179510,0.00645468,0.35792593,-0.00344973,0.00
 074129,-0.00008283,-0.00200290,-0.00920154,-0.00010064,0.00883788,0.00
 132524,-0.00007703,-0.00099211,-0.00102670,0.00003319,-0.00169426,0.00
 169507,0.00002090,0.00011423,0.00028833,-0.00000194,-0.00051201,-0.000
 71270,0.00001101,0.00009103,-0.01107695,0.00018366,0.00026861,-0.00007
 865,0.00000050,-0.00031492,-0.00021959,0.00001645,-0.00004604,-0.00003
 291,-0.00000126,-0.00014858,0.00001698,-0.00000224,-0.18956600,-0.1133
 4576,0.02060497,0.01601365,0.00503277,0.00346991,0.17340116,0.12659513
 ,-0.00109673,0.00031371,-0.00122470,0.00044575,-0.00026538,-0.00777929
 ,0.00059878,0.00059460,0.00111852,-0.00016669,-0.00005680,0.00082763,-
 0.00020215,0.00005609,-0.00027832,0.00004369,0.00009041,-0.00014167,0.
 00001502,-0.00012932,0.00094800,0.00102430,-0.00121157,0.00262520,0.00
 001157,-0.00001008,-0.00001827,-0.00003186,-0.00002255,-0.00034927,-0.
 00000897,-0.00000374,-0.00013214,-0.00000651,-0.00000094,0.00011563,0.
 04192069,0.04389336,-0.04356834,-0.03866861,-0.01917312,-0.00098461,-0
 .00387827,-0.02407466,0.04884163\\0.00001801,0.00011490,-0.00002133,0.
 00003162,0.00012036,-0.00000128,-0.00002311,-0.00014164,0.00001096,-0.
 00003415,0.00000699,-0.00000356,-0.00003804,-0.00006225,-0.00000323,0.
 00001408,0.00002176,-0.00000542,0.00004637,-0.00004529,0.00000231,-0.0
 0001411,-0.00007586,0.00001490,-0.00002432,-0.00000803,-0.00000344,0.0
 0002681,0.00000338,0.00000274,-0.00000790,-0.00003187,-0.00000161,0.00
 000881,-0.00002058,0.00000234,0.00000755,0.00006596,0.00000496,0.00001
 466,0.00002560,-0.00000395,-0.00002627,0.00002657,0.00000562\\\@


 CHRISTMAS IS ON TOP OF A STEEP HILL.
 THE CLOSER YOU GET, THE STEEPER THE HILL IS.
          -- LINUS, OF PEANUTS
 Job cpu time:       0 days  1 hours 14 minutes 39.3 seconds.
 File lengths (MBytes):  RWF=    137 Int=      0 D2E=      0 Chk=      9 Scr=      1
 Normal termination of Gaussian 09 at Fri Aug 27 00:31:03 2021.
