 Entering Gaussian System, Link 0=g09
 AtFile(1): pc-2.gbs
            -H     0
            S    4   1.00
                  0.754230D+02           0.240650D-02
                  0.113500D+02           0.184870D-01
                  0.259930D+01           0.897420D-01
                  0.735130D+00           0.281110D+00
            S    1   1.00
                  0.231670D+00           0.100000D+01
            S    1   1.00
                  0.741470D-01           0.100000D+01
            P    1   1.00
                  0.160000D+01           0.100000D+01
            P    1   1.00
                  0.450000D+00           0.100000D+01
            D    1   1.00
                  0.125000D+01           0.100000D+01
            ****
            -C     0
            S    7   1.00
                  0.785710D+04           0.568250D-03
                  0.117870D+04           0.439150D-02
                  0.268320D+03           0.225040D-01
                  0.759480D+02           0.866530D-01
                  0.245590D+02           0.244050D+00
                  0.862120D+01           0.441480D+00
                  0.312780D+01           0.353320D+00
            S    7   1.00
                  0.117870D+04          -0.594920D-06
                  0.268320D+03          -0.627480D-04
                  0.759480D+02          -0.757730D-03
                  0.245590D+02          -0.733080D-02
                  0.862120D+01          -0.389320D-01
                  0.312780D+01          -0.889080D-01
                  0.822020D+00           0.216890D+00
            S    1   1.00
                  0.330170D+00           0.100000D+01
            S    1   1.00
                  0.114630D+00           0.100000D+01
            P    4   1.00
                  0.337750D+02           0.602940D-02
                  0.767660D+01           0.432280D-01
                  0.223570D+01           0.163010D+00
                  0.764470D+00           0.365040D+00
            P    1   1.00
                  0.262320D+00           0.100000D+01
            P    1   1.00
                  0.846380D-01           0.100000D+01
            D    1   1.00
                  0.140000D+01           0.100000D+01
            D    1   1.00
                  0.450000D+00           0.100000D+01
            F    1   1.00
                  0.950000D+00           0.100000D+01
            ****
            -N     0
            S    7   1.00
                  0.111010D+05           0.545700D-03
                  0.166530D+04           0.421810D-02
                  0.379080D+03           0.216450D-01
                  0.107300D+03           0.837760D-01
                  0.347470D+02           0.238810D+00
                  0.122490D+02           0.439940D+00
                  0.447430D+01           0.363640D+00
            S    7   1.00
                  0.166530D+04          -0.150060D-05
                  0.379080D+03          -0.587530D-04
                  0.107300D+03          -0.774530D-03
                  0.347470D+02          -0.721610D-02
                  0.122490D+02          -0.393380D-01
                  0.447430D+01          -0.906110D-01
                  0.124040D+01           0.198820D+00
            S    1   1.00
                  0.487430D+00           0.100000D+01
            S    1   1.00
                  0.164840D+00           0.100000D+01
            P    4   1.00
                  0.479340D+02           0.617060D-02
                  0.109990D+02           0.442600D-01
                  0.324720D+01           0.168250D+00
                  0.111140D+01           0.368480D+00
            P    1   1.00
                  0.379880D+00           0.100000D+01
            P    1   1.00
                  0.120680D+00           0.100000D+01
            D    1   1.00
                  0.180000D+01           0.100000D+01
            D    1   1.00
                  0.550000D+00           0.100000D+01
            F    1   1.00
                  0.102000D+01           0.100000D+01
            ****
            -O     0
            S    7   1.00
                  0.147820D+05           0.535190D-03
                  0.221730D+04           0.413750D-02
                  0.504740D+03           0.212450D-01
                  0.142870D+03           0.824530D-01
                  0.463000D+02           0.236710D+00
                  0.163370D+02           0.440390D+00
                  0.598280D+01           0.364650D+00
            S    7   1.00
                  0.221730D+04          -0.192750D-05
                  0.504740D+03          -0.579640D-04
                  0.142870D+03          -0.794940D-03
                  0.463000D+02          -0.731250D-02
                  0.163370D+02          -0.405740D-01
                  0.598280D+01          -0.915940D-01
                  0.167180D+01           0.209400D+00
            S    1   1.00
                  0.646620D+00           0.100000D+01
            S    1   1.00
                  0.216690D+00           0.100000D+01
            P    4   1.00
                  0.604240D+02           0.689490D-02
                  0.139350D+02           0.490050D-01
                  0.415310D+01           0.182550D+00
                  0.141580D+01           0.376330D+00
            P    1   1.00
                  0.475490D+00           0.100000D+01
            P    1   1.00
                  0.145290D+00           0.100000D+01
            D    1   1.00
                  0.220000D+01           0.100000D+01
            D    1   1.00
                  0.650000D+00           0.100000D+01
            F    1   1.00
                  0.110000D+01           0.100000D+01
            ****
 Initial command:
 /public3/home/sc51754/softwares/g09e01/l1.exe "./Gau-24112.inp" -scrdir="./"
 Entering Link 1 = /public3/home/sc51754/softwares/g09e01/l1.exe PID=     24113.
  
 Copyright (c) 1988,1990,1992,1993,1995,1998,2003,2009,2015,
            Gaussian, Inc.  All Rights Reserved.
  
 This is part of the Gaussian(R) 09 program.  It is based on
 the Gaussian(R) 03 system (copyright 2003, Gaussian, Inc.),
 the Gaussian(R) 98 system (copyright 1998, Gaussian, Inc.),
 the Gaussian(R) 94 system (copyright 1995, Gaussian, Inc.),
 the Gaussian 92(TM) system (copyright 1992, Gaussian, Inc.),
 the Gaussian 90(TM) system (copyright 1990, Gaussian, Inc.),
 the Gaussian 88(TM) system (copyright 1988, Gaussian, Inc.),
 the Gaussian 86(TM) system (copyright 1986, Carnegie Mellon
 University), and the Gaussian 82(TM) system (copyright 1983,
 Carnegie Mellon University). Gaussian is a federally registered
 trademark of Gaussian, Inc.
  
 This software contains proprietary and confidential information,
 including trade secrets, belonging to Gaussian, Inc.
  
 This software is provided under written license and may be
 used, copied, transmitted, or stored only in accord with that
 written license.
  
 The following legend is applicable only to US Government
 contracts under FAR:
  
                    RESTRICTED RIGHTS LEGEND
  
 Use, reproduction and disclosure by the US Government is
 subject to restrictions as set forth in subparagraphs (a)
 and (c) of the Commercial Computer Software - Restricted
 Rights clause in FAR 52.227-19.
  
 Gaussian, Inc.
 340 Quinnipiac St., Bldg. 40, Wallingford CT 06492
  
  
 ---------------------------------------------------------------
 Warning -- This program may not be used in any manner that
 competes with the business of Gaussian, Inc. or will provide
 assistance to any competitor of Gaussian, Inc.  The licensee
 of this program is prohibited from giving any competitor of
 Gaussian, Inc. access to this program.  By using this program,
 the user acknowledges that Gaussian, Inc. is engaged in the
 business of creating and licensing software in the field of
 computational chemistry and represents and warrants to the
 licensee that it is not a competitor of Gaussian, Inc. and that
 it will not use this program in any manner prohibited above.
 ---------------------------------------------------------------
  

 Cite this work as:
 Gaussian 09, Revision E.01,
 M. J. Frisch, G. W. Trucks, H. B. Schlegel, G. E. Scuseria, 
 M. A. Robb, J. R. Cheeseman, G. Scalmani, V. Barone, B. Mennucci, 
 G. A. Petersson, H. Nakatsuji, M. Caricato, X. Li, H. P. Hratchian, 
 A. F. Izmaylov, J. Bloino, G. Zheng, J. L. Sonnenberg, M. Hada, 
 M. Ehara, K. Toyota, R. Fukuda, J. Hasegawa, M. Ishida, T. Nakajima, 
 Y. Honda, O. Kitao, H. Nakai, T. Vreven, J. A. Montgomery, Jr., 
 J. E. Peralta, F. Ogliaro, M. Bearpark, J. J. Heyd, E. Brothers, 
 K. N. Kudin, V. N. Staroverov, T. Keith, R. Kobayashi, J. Normand, 
 K. Raghavachari, A. Rendell, J. C. Burant, S. S. Iyengar, J. Tomasi, 
 M. Cossi, N. Rega, J. M. Millam, M. Klene, J. E. Knox, J. B. Cross, 
 V. Bakken, C. Adamo, J. Jaramillo, R. Gomperts, R. E. Stratmann, 
 O. Yazyev, A. J. Austin, R. Cammi, C. Pomelli, J. W. Ochterski, 
 R. L. Martin, K. Morokuma, V. G. Zakrzewski, G. A. Voth, 
 P. Salvador, J. J. Dannenberg, S. Dapprich, A. D. Daniels, 
 O. Farkas, J. B. Foresman, J. V. Ortiz, J. Cioslowski, 
 and D. J. Fox, Gaussian, Inc., Wallingford CT, 2013.
 
 ******************************************
 Gaussian 09:  EM64L-G09RevE.01 30-Nov-2015
                27-Aug-2021 
 ******************************************
 %nprocshared=64
 Will use up to   64 processors via shared memory.
 %mem=128GB
 %chk=HY_H2O_M06_PC2_OPT_FREQ.chk
 -------------------
 #p opt freq M06/gen
 -------------------
 1/14=-1,18=20,19=15,26=3,38=1/1,3;
 2/9=110,12=2,17=6,18=5,40=1/2;
 3/5=7,11=2,16=1,25=1,30=1,71=1,74=-54/1,2,3;
 4//1;
 5/5=2,38=5/2;
 6/7=2,8=2,9=2,10=2,28=1/1;
 7//1,2,3,16;
 1/14=-1,18=20,19=15,26=3/3(2);
 2/9=110/2;
 99//99;
 2/9=110/2;
 3/5=7,6=1,11=2,16=1,25=1,30=1,71=1,74=-54,82=7/1,2,3;
 4/5=5,16=3,69=1/1;
 5/5=2,38=5/2;
 7//1,2,3,16;
 1/14=-1,18=20,19=15,26=3/3(-5);
 2/9=110/2;
 6/7=2,8=2,9=2,10=2,19=2,28=1/1;
 99/9=1/99;
 Leave Link    1 at Fri Aug 27 00:58:11 2021, MaxMem= 17179869184 cpu:         3.6
 (Enter /public3/home/sc51754/softwares/g09e01/l101.exe)
 -----------------------
 HY_H2O_M06_PC2_OPT_FREQ
 -----------------------
 Symbolic Z-matrix:
 Charge =  0 Multiplicity = 1
 O                     1.216     1.44855  -0.00262 
 N                     0.30594  -0.66619  -0.00547 
 C                     0.13701   0.65516  -0.00009 
 C                    -1.12976   1.25518   0.00826 
 C                    -0.78318  -1.4465   -0.00563 
 C                    -2.23812   0.43549   0.00911 
 C                    -2.07199  -0.951     0.00173 
 H                     2.03022   0.90023  -0.0153 
 H                    -1.20631   2.3321    0.01208 
 H                    -0.59906  -2.51382  -0.01294 
 H                    -3.22982   0.86768   0.01456 
 H                    -2.91795  -1.62195   0.00074 
 O                     3.09571  -0.58722  -0.08503 
 H                     3.59397  -0.87925   0.68253 
 H                     2.20982  -1.00228  -0.02248 
 
 Add virtual bond connecting atoms O13        and H8         Dist= 3.46D+00.
 Add virtual bond connecting atoms H15        and N2         Dist= 3.65D+00.
 Add virtual bond connecting atoms H15        and H8         Dist= 3.61D+00.
 Add atom     13 valence  3 ND=      2 dihedral       8     13     14     15
 NAtoms=     15 NQM=       15 NQMF=       0 NMMI=      0 NMMIF=      0
                NMic=       0 NMicF=      0.
                    Isotopes and Nuclear Properties:
 (Nuclear quadrupole moments (NQMom) in fm**2, nuclear magnetic moments (NMagM)
  in nuclear magnetons)

  Atom         1           2           3           4           5           6           7           8           9          10
 IAtWgt=          16          14          12          12          12          12          12           1           1           1
 AtmWgt=  15.9949146  14.0030740  12.0000000  12.0000000  12.0000000  12.0000000  12.0000000   1.0078250   1.0078250   1.0078250
 NucSpn=           0           2           0           0           0           0           0           1           1           1
 AtZEff=   0.0000000   0.0000000   0.0000000   0.0000000   0.0000000   0.0000000   0.0000000   0.0000000   0.0000000   0.0000000
 NQMom=    0.0000000   2.0440000   0.0000000   0.0000000   0.0000000   0.0000000   0.0000000   0.0000000   0.0000000   0.0000000
 NMagM=    0.0000000   0.4037610   0.0000000   0.0000000   0.0000000   0.0000000   0.0000000   2.7928460   2.7928460   2.7928460
 AtZNuc=   8.0000000   7.0000000   6.0000000   6.0000000   6.0000000   6.0000000   6.0000000   1.0000000   1.0000000   1.0000000

  Atom        11          12          13          14          15
 IAtWgt=           1           1          16           1           1
 AtmWgt=   1.0078250   1.0078250  15.9949146   1.0078250   1.0078250
 NucSpn=           1           1           0           1           1
 AtZEff=   0.0000000   0.0000000   0.0000000   0.0000000   0.0000000
 NQMom=    0.0000000   0.0000000   0.0000000   0.0000000   0.0000000
 NMagM=    2.7928460   2.7928460   0.0000000   2.7928460   2.7928460
 AtZNuc=   1.0000000   1.0000000   8.0000000   1.0000000   1.0000000
 Leave Link  101 at Fri Aug 27 00:58:11 2021, MaxMem= 17179869184 cpu:         6.3
 (Enter /public3/home/sc51754/softwares/g09e01/l103.exe)

 GradGradGradGradGradGradGradGradGradGradGradGradGradGradGradGradGradGrad
 Berny optimization.
 Initialization pass.
                           ----------------------------
                           !    Initial Parameters    !
                           ! (Angstroms and Degrees)  !
 --------------------------                            --------------------------
 ! Name  Definition              Value          Derivative Info.                !
 --------------------------------------------------------------------------------
 ! R1    R(1,3)                  1.3393         estimate D2E/DX2                !
 ! R2    R(1,8)                  0.9817         estimate D2E/DX2                !
 ! R3    R(2,3)                  1.3321         estimate D2E/DX2                !
 ! R4    R(2,5)                  1.3398         estimate D2E/DX2                !
 ! R5    R(2,15)                 1.9334         estimate D2E/DX2                !
 ! R6    R(3,4)                  1.4017         estimate D2E/DX2                !
 ! R7    R(4,6)                  1.3785         estimate D2E/DX2                !
 ! R8    R(4,9)                  1.0796         estimate D2E/DX2                !
 ! R9    R(5,7)                  1.3808         estimate D2E/DX2                !
 ! R10   R(5,10)                 1.0831         estimate D2E/DX2                !
 ! R11   R(6,7)                  1.3964         estimate D2E/DX2                !
 ! R12   R(6,11)                 1.0818         estimate D2E/DX2                !
 ! R13   R(7,12)                 1.0797         estimate D2E/DX2                !
 ! R14   R(8,13)                 1.831          estimate D2E/DX2                !
 ! R15   R(8,15)                 1.911          estimate D2E/DX2                !
 ! R16   R(13,14)                0.9606         estimate D2E/DX2                !
 ! R17   R(13,15)                0.9803         estimate D2E/DX2                !
 ! A1    A(3,1,8)              109.7141         estimate D2E/DX2                !
 ! A2    A(3,2,5)              118.3342         estimate D2E/DX2                !
 ! A3    A(3,2,15)             107.2978         estimate D2E/DX2                !
 ! A4    A(5,2,15)             134.3668         estimate D2E/DX2                !
 ! A5    A(1,3,2)              119.0414         estimate D2E/DX2                !
 ! A6    A(1,3,4)              118.3271         estimate D2E/DX2                !
 ! A7    A(2,3,4)              122.6315         estimate D2E/DX2                !
 ! A8    A(3,4,6)              118.1694         estimate D2E/DX2                !
 ! A9    A(3,4,9)              119.4119         estimate D2E/DX2                !
 ! A10   A(6,4,9)              122.4186         estimate D2E/DX2                !
 ! A11   A(2,5,7)              123.3496         estimate D2E/DX2                !
 ! A12   A(2,5,10)             115.832          estimate D2E/DX2                !
 ! A13   A(7,5,10)             120.8184         estimate D2E/DX2                !
 ! A14   A(4,6,7)              119.6513         estimate D2E/DX2                !
 ! A15   A(4,6,11)             119.9667         estimate D2E/DX2                !
 ! A16   A(7,6,11)             120.382          estimate D2E/DX2                !
 ! A17   A(5,7,6)              117.8639         estimate D2E/DX2                !
 ! A18   A(5,7,12)             120.5506         estimate D2E/DX2                !
 ! A19   A(6,7,12)             121.5855         estimate D2E/DX2                !
 ! A20   A(1,8,13)             159.5294         estimate D2E/DX2                !
 ! A21   A(1,8,15)             129.3503         estimate D2E/DX2                !
 ! A22   A(8,13,14)            121.2243         estimate D2E/DX2                !
 ! A23   A(14,13,15)           106.8012         estimate D2E/DX2                !
 ! A24   A(2,15,8)              74.5948         estimate D2E/DX2                !
 ! A25   A(2,15,13)            144.7717         estimate D2E/DX2                !
 ! D1    D(8,1,3,2)              0.4232         estimate D2E/DX2                !
 ! D2    D(8,1,3,4)           -179.5823         estimate D2E/DX2                !
 ! D3    D(3,1,8,13)             4.1107         estimate D2E/DX2                !
 ! D4    D(3,1,8,15)            -0.4785         estimate D2E/DX2                !
 ! D5    D(5,2,3,1)           -179.8646         estimate D2E/DX2                !
 ! D6    D(5,2,3,4)              0.1411         estimate D2E/DX2                !
 ! D7    D(15,2,3,1)            -0.2046         estimate D2E/DX2                !
 ! D8    D(15,2,3,4)           179.8011         estimate D2E/DX2                !
 ! D9    D(3,2,5,7)             -0.1121         estimate D2E/DX2                !
 ! D10   D(3,2,5,10)           179.8324         estimate D2E/DX2                !
 ! D11   D(15,2,5,7)          -179.6581         estimate D2E/DX2                !
 ! D12   D(15,2,5,10)            0.2865         estimate D2E/DX2                !
 ! D13   D(3,2,15,8)            -0.0003         estimate D2E/DX2                !
 ! D14   D(3,2,15,13)           -5.7168         estimate D2E/DX2                !
 ! D15   D(5,2,15,8)           179.5811         estimate D2E/DX2                !
 ! D16   D(5,2,15,13)          173.8646         estimate D2E/DX2                !
 ! D17   D(1,3,4,6)            179.9187         estimate D2E/DX2                !
 ! D18   D(1,3,4,9)              0.0211         estimate D2E/DX2                !
 ! D19   D(2,3,4,6)             -0.0869         estimate D2E/DX2                !
 ! D20   D(2,3,4,9)           -179.9845         estimate D2E/DX2                !
 ! D21   D(3,4,6,7)             -0.0001         estimate D2E/DX2                !
 ! D22   D(3,4,6,11)          -179.9445         estimate D2E/DX2                !
 ! D23   D(9,4,6,7)            179.8942         estimate D2E/DX2                !
 ! D24   D(9,4,6,11)            -0.0502         estimate D2E/DX2                !
 ! D25   D(2,5,7,6)              0.0291         estimate D2E/DX2                !
 ! D26   D(2,5,7,12)           179.968          estimate D2E/DX2                !
 ! D27   D(10,5,7,6)          -179.9128         estimate D2E/DX2                !
 ! D28   D(10,5,7,12)            0.0261         estimate D2E/DX2                !
 ! D29   D(4,6,7,5)              0.0272         estimate D2E/DX2                !
 ! D30   D(4,6,7,12)          -179.911          estimate D2E/DX2                !
 ! D31   D(11,6,7,5)           179.9714         estimate D2E/DX2                !
 ! D32   D(11,6,7,12)            0.0332         estimate D2E/DX2                !
 ! D33   D(1,8,13,14)         -110.3582         estimate D2E/DX2                !
 ! D34   D(1,8,15,2)             0.3164         estimate D2E/DX2                !
 ! D35   D(8,13,14,15)          87.5843         estimate D2E/DX2                !
 ! D36   D(14,13,15,2)         125.4771         estimate D2E/DX2                !
 --------------------------------------------------------------------------------
 Trust Radius=3.00D-01 FncErr=1.00D-07 GrdErr=1.00D-06
 Number of steps in this run=     88 maximum allowed number of steps=    100.
 GradGradGradGradGradGradGradGradGradGradGradGradGradGradGradGradGradGrad

 Leave Link  103 at Fri Aug 27 00:58:11 2021, MaxMem= 17179869184 cpu:         0.2
 (Enter /public3/home/sc51754/softwares/g09e01/l202.exe)
                          Input orientation:                          
 ---------------------------------------------------------------------
 Center     Atomic      Atomic             Coordinates (Angstroms)
 Number     Number       Type             X           Y           Z
 ---------------------------------------------------------------------
      1          8           0        1.216003    1.448553   -0.002617
      2          7           0        0.305942   -0.666194   -0.005465
      3          6           0        0.137014    0.655155   -0.000094
      4          6           0       -1.129757    1.255183    0.008257
      5          6           0       -0.783175   -1.446498   -0.005634
      6          6           0       -2.238124    0.435485    0.009108
      7          6           0       -2.071986   -0.950998    0.001732
      8          1           0        2.030216    0.900227   -0.015295
      9          1           0       -1.206308    2.332099    0.012077
     10          1           0       -0.599059   -2.513820   -0.012944
     11          1           0       -3.229823    0.867678    0.014558
     12          1           0       -2.917952   -1.621952    0.000735
     13          8           0        3.095711   -0.587217   -0.085025
     14          1           0        3.593966   -0.879251    0.682533
     15          1           0        2.209819   -1.002278   -0.022484
 ---------------------------------------------------------------------
                    Distance matrix (angstroms):
                    1          2          3          4          5
     1  O    0.000000
     2  N    2.302254   0.000000
     3  C    1.339292   1.332114   0.000000
     4  C    2.353742   2.398564   1.401718   0.000000
     5  C    3.518244   1.339795   2.294281   2.723856   0.000000
     6  C    3.599644   2.772396   2.385292   1.378544   2.378856
     7  C    4.070471   2.394934   2.731192   2.398973   1.380800
     8  H    0.981715   2.329569   1.909059   3.179934   3.663657
     9  H    2.578461   3.358120   2.148675   1.079640   3.802256
    10  H    4.358320   2.057378   3.253363   3.806241   1.083111
    11  H    4.483646   3.854192   3.373570   2.135527   3.367774
    12  H    5.149524   3.362589   3.810254   3.387566   2.141984
    13  O    2.772085   2.792020   3.210076   4.610609   3.973717
    14  H    3.397471   3.365982   3.843293   5.227238   4.467069
    15  H    2.644738   1.933388   2.654073   4.031109   3.025827
                    6          7          8          9         10
     6  C    0.000000
     7  C    1.396421   0.000000
     8  H    4.293636   4.500598   0.000000
     9  H    2.159120   3.395325   3.539222   0.000000
    10  H    3.374229   2.147590   4.309154   4.883883   0.000000
    11  H    1.081798   2.155999   5.260224   2.497829   4.284414
    12  H    2.166860   1.079740   5.553918   4.308639   2.484528
    13  O    5.431812   5.181212   1.831019   5.199923   4.167532
    14  H    6.016253   5.707158   2.469579   5.814199   4.553786
    15  H    4.674651   4.282181   1.910977   4.773802   3.189772
                   11         12         13         14         15
    11  H    0.000000
    12  H    2.509126   0.000000
    13  O    6.491457   6.102637   0.000000
    14  H    7.075454   6.589501   0.960566   0.000000
    15  H    5.752201   5.165130   0.980302   1.558219   0.000000
 Stoichiometry    C5H7NO2
 Framework group  C1[X(C5H7NO2)]
 Deg. of freedom    39
 Full point group                 C1      NOp   1
 Largest Abelian subgroup         C1      NOp   1
 Largest concise Abelian subgroup C1      NOp   1
                         Standard orientation:                         
 ---------------------------------------------------------------------
 Center     Atomic      Atomic             Coordinates (Angstroms)
 Number     Number       Type             X           Y           Z
 ---------------------------------------------------------------------
      1          8           0        1.216003    1.448553   -0.002617
      2          7           0        0.305942   -0.666194   -0.005465
      3          6           0        0.137014    0.655155   -0.000094
      4          6           0       -1.129757    1.255183    0.008257
      5          6           0       -0.783175   -1.446498   -0.005634
      6          6           0       -2.238124    0.435485    0.009108
      7          6           0       -2.071986   -0.950998    0.001732
      8          1           0        2.030216    0.900227   -0.015295
      9          1           0       -1.206308    2.332099    0.012077
     10          1           0       -0.599059   -2.513820   -0.012944
     11          1           0       -3.229823    0.867678    0.014558
     12          1           0       -2.917952   -1.621952    0.000735
     13          8           0        3.095711   -0.587217   -0.085025
     14          1           0        3.593966   -0.879251    0.682533
     15          1           0        2.209819   -1.002278   -0.022484
 ---------------------------------------------------------------------
 Rotational constants (GHZ):      4.0123302      1.4179596      1.0501753
 Leave Link  202 at Fri Aug 27 00:58:12 2021, MaxMem= 17179869184 cpu:         1.7
 (Enter /public3/home/sc51754/softwares/g09e01/l301.exe)
 General basis read from cards:  (5D, 7F)
 Centers:       8      9     10     11     12     14     15
 S 4 1.00
     Exponent=  7.5423000000D+01 Coefficients=  2.4065000000D-03
     Exponent=  1.1350000000D+01 Coefficients=  1.8487000000D-02
     Exponent=  2.5993000000D+00 Coefficients=  8.9742000000D-02
     Exponent=  7.3513000000D-01 Coefficients=  2.8111000000D-01
 S 1 1.00
     Exponent=  2.3167000000D-01 Coefficients=  1.0000000000D+00
 S 1 1.00
     Exponent=  7.4147000000D-02 Coefficients=  1.0000000000D+00
 P 1 1.00
     Exponent=  1.6000000000D+00 Coefficients=  1.0000000000D+00
 P 1 1.00
     Exponent=  4.5000000000D-01 Coefficients=  1.0000000000D+00
 D 1 1.00
     Exponent=  1.2500000000D+00 Coefficients=  1.0000000000D+00
 ****
 Centers:       3      4      5      6      7
 S 7 1.00
     Exponent=  7.8571000000D+03 Coefficients=  5.6825000000D-04
     Exponent=  1.1787000000D+03 Coefficients=  4.3915000000D-03
     Exponent=  2.6832000000D+02 Coefficients=  2.2504000000D-02
     Exponent=  7.5948000000D+01 Coefficients=  8.6653000000D-02
     Exponent=  2.4559000000D+01 Coefficients=  2.4405000000D-01
     Exponent=  8.6212000000D+00 Coefficients=  4.4148000000D-01
     Exponent=  3.1278000000D+00 Coefficients=  3.5332000000D-01
 S 7 1.00
     Exponent=  1.1787000000D+03 Coefficients= -5.9492000000D-07
     Exponent=  2.6832000000D+02 Coefficients= -6.2748000000D-05
     Exponent=  7.5948000000D+01 Coefficients= -7.5773000000D-04
     Exponent=  2.4559000000D+01 Coefficients= -7.3308000000D-03
     Exponent=  8.6212000000D+00 Coefficients= -3.8932000000D-02
     Exponent=  3.1278000000D+00 Coefficients= -8.8908000000D-02
     Exponent=  8.2202000000D-01 Coefficients=  2.1689000000D-01
 S 1 1.00
     Exponent=  3.3017000000D-01 Coefficients=  1.0000000000D+00
 S 1 1.00
     Exponent=  1.1463000000D-01 Coefficients=  1.0000000000D+00
 P 4 1.00
     Exponent=  3.3775000000D+01 Coefficients=  6.0294000000D-03
     Exponent=  7.6766000000D+00 Coefficients=  4.3228000000D-02
     Exponent=  2.2357000000D+00 Coefficients=  1.6301000000D-01
     Exponent=  7.6447000000D-01 Coefficients=  3.6504000000D-01
 P 1 1.00
     Exponent=  2.6232000000D-01 Coefficients=  1.0000000000D+00
 P 1 1.00
     Exponent=  8.4638000000D-02 Coefficients=  1.0000000000D+00
 D 1 1.00
     Exponent=  1.4000000000D+00 Coefficients=  1.0000000000D+00
 D 1 1.00
     Exponent=  4.5000000000D-01 Coefficients=  1.0000000000D+00
 F 1 1.00
     Exponent=  9.5000000000D-01 Coefficients=  1.0000000000D+00
 ****
 Centers:       2
 S 7 1.00
     Exponent=  1.1101000000D+04 Coefficients=  5.4570000000D-04
     Exponent=  1.6653000000D+03 Coefficients=  4.2181000000D-03
     Exponent=  3.7908000000D+02 Coefficients=  2.1645000000D-02
     Exponent=  1.0730000000D+02 Coefficients=  8.3776000000D-02
     Exponent=  3.4747000000D+01 Coefficients=  2.3881000000D-01
     Exponent=  1.2249000000D+01 Coefficients=  4.3994000000D-01
     Exponent=  4.4743000000D+00 Coefficients=  3.6364000000D-01
 S 7 1.00
     Exponent=  1.6653000000D+03 Coefficients= -1.5006000000D-06
     Exponent=  3.7908000000D+02 Coefficients= -5.8753000000D-05
     Exponent=  1.0730000000D+02 Coefficients= -7.7453000000D-04
     Exponent=  3.4747000000D+01 Coefficients= -7.2161000000D-03
     Exponent=  1.2249000000D+01 Coefficients= -3.9338000000D-02
     Exponent=  4.4743000000D+00 Coefficients= -9.0611000000D-02
     Exponent=  1.2404000000D+00 Coefficients=  1.9882000000D-01
 S 1 1.00
     Exponent=  4.8743000000D-01 Coefficients=  1.0000000000D+00
 S 1 1.00
     Exponent=  1.6484000000D-01 Coefficients=  1.0000000000D+00
 P 4 1.00
     Exponent=  4.7934000000D+01 Coefficients=  6.1706000000D-03
     Exponent=  1.0999000000D+01 Coefficients=  4.4260000000D-02
     Exponent=  3.2472000000D+00 Coefficients=  1.6825000000D-01
     Exponent=  1.1114000000D+00 Coefficients=  3.6848000000D-01
 P 1 1.00
     Exponent=  3.7988000000D-01 Coefficients=  1.0000000000D+00
 P 1 1.00
     Exponent=  1.2068000000D-01 Coefficients=  1.0000000000D+00
 D 1 1.00
     Exponent=  1.8000000000D+00 Coefficients=  1.0000000000D+00
 D 1 1.00
     Exponent=  5.5000000000D-01 Coefficients=  1.0000000000D+00
 F 1 1.00
     Exponent=  1.0200000000D+00 Coefficients=  1.0000000000D+00
 ****
 Centers:       1     13
 S 7 1.00
     Exponent=  1.4782000000D+04 Coefficients=  5.3519000000D-04
     Exponent=  2.2173000000D+03 Coefficients=  4.1375000000D-03
     Exponent=  5.0474000000D+02 Coefficients=  2.1245000000D-02
     Exponent=  1.4287000000D+02 Coefficients=  8.2453000000D-02
     Exponent=  4.6300000000D+01 Coefficients=  2.3671000000D-01
     Exponent=  1.6337000000D+01 Coefficients=  4.4039000000D-01
     Exponent=  5.9828000000D+00 Coefficients=  3.6465000000D-01
 S 7 1.00
     Exponent=  2.2173000000D+03 Coefficients= -1.9275000000D-06
     Exponent=  5.0474000000D+02 Coefficients= -5.7964000000D-05
     Exponent=  1.4287000000D+02 Coefficients= -7.9494000000D-04
     Exponent=  4.6300000000D+01 Coefficients= -7.3125000000D-03
     Exponent=  1.6337000000D+01 Coefficients= -4.0574000000D-02
     Exponent=  5.9828000000D+00 Coefficients= -9.1594000000D-02
     Exponent=  1.6718000000D+00 Coefficients=  2.0940000000D-01
 S 1 1.00
     Exponent=  6.4662000000D-01 Coefficients=  1.0000000000D+00
 S 1 1.00
     Exponent=  2.1669000000D-01 Coefficients=  1.0000000000D+00
 P 4 1.00
     Exponent=  6.0424000000D+01 Coefficients=  6.8949000000D-03
     Exponent=  1.3935000000D+01 Coefficients=  4.9005000000D-02
     Exponent=  4.1531000000D+00 Coefficients=  1.8255000000D-01
     Exponent=  1.4158000000D+00 Coefficients=  3.7633000000D-01
 P 1 1.00
     Exponent=  4.7549000000D-01 Coefficients=  1.0000000000D+00
 P 1 1.00
     Exponent=  1.4529000000D-01 Coefficients=  1.0000000000D+00
 D 1 1.00
     Exponent=  2.2000000000D+00 Coefficients=  1.0000000000D+00
 D 1 1.00
     Exponent=  6.5000000000D-01 Coefficients=  1.0000000000D+00
 F 1 1.00
     Exponent=  1.1000000000D+00 Coefficients=  1.0000000000D+00
 ****
 Ernie: Thresh=  0.10000D-02 Tol=  0.10000D-05 Strict=F.
 Ernie:  8 primitive shells out of 263 were deleted.
 There are   385 symmetry adapted cartesian basis functions of A   symmetry.
 There are   338 symmetry adapted basis functions of A   symmetry.
   338 basis functions,   566 primitive gaussians,   385 cartesian basis functions
    30 alpha electrons       30 beta electrons
       nuclear repulsion energy       357.6226221683 Hartrees.
 IExCor= 4235 DFT=T Ex+Corr=M06 ExCW=0 ScaHFX=  0.270000
 ScaDFX=  1.000000  1.000000  1.000000  1.000000 ScalE2=  1.000000  1.000000
 IRadAn=      0 IRanWt=     -1 IRanGd=            0 ICorTp=0 IEmpDi=  4
 NAtoms=   15 NActive=   15 NUniq=   15 SFac= 1.00D+00 NAtFMM=   60 NAOKFM=F Big=F
 Integral buffers will be    131072 words long.
 Raffenetti 2 integral format.
 Two-electron integral symmetry is turned on.
 Leave Link  301 at Fri Aug 27 00:58:12 2021, MaxMem= 17179869184 cpu:         2.2
 (Enter /public3/home/sc51754/softwares/g09e01/l302.exe)
 NPDir=0 NMtPBC=     1 NCelOv=     1 NCel=       1 NClECP=     1 NCelD=      1
         NCelK=      1 NCelE2=     1 NClLst=     1 CellRange=     0.0.
 One-electron integrals computed using PRISM.
 NBasis=   338 RedAO= T EigKep=  1.46D-04  NBF=   338
 NBsUse=   338 1.00D-06 EigRej= -1.00D+00 NBFU=   338
 Precomputing XC quadrature grid using
 IXCGrd= 4 IRadAn=           0 IRanWt=          -1 IRanGd=           0 AccXCQ= 0.00D+00.
 Generated NRdTot=       0 NPtTot=           0 NUsed=           0 NTot=          32
 NSgBfM=   384   384   384   384   385 MxSgAt=    15 MxSgA2=    15.
 Leave Link  302 at Fri Aug 27 00:58:13 2021, MaxMem= 17179869184 cpu:        47.9
 (Enter /public3/home/sc51754/softwares/g09e01/l303.exe)
 DipDrv:  MaxL=1.
 Leave Link  303 at Fri Aug 27 00:58:13 2021, MaxMem= 17179869184 cpu:        10.6
 (Enter /public3/home/sc51754/softwares/g09e01/l401.exe)
 ExpMin= 7.41D-02 ExpMax= 1.48D+04 ExpMxC= 5.05D+02 IAcc=2 IRadAn=         4 AccDes= 0.00D+00
 Harris functional with IExCor= 1009 and IRadAn=       4 diagonalized for initial guess.
 HarFok:  IExCor= 1009 AccDes= 0.00D+00 IRadAn=         4 IDoV= 1 UseB2=F ITyADJ=14
 ICtDFT=  3500011 ScaDFX=  1.000000  1.000000  1.000000  1.000000
 FoFCou: FMM=F IPFlag=           0 FMFlag=      100000 FMFlg1=           0
         NFxFlg=           0 DoJE=T BraDBF=F KetDBF=T FulRan=T
         wScrn=  0.000000 ICntrl=     500 IOpCl=  0 I1Cent=   200000004 NGrid=           0
         NMat0=    1 NMatS0=      1 NMatT0=    0 NMatD0=    1 NMtDS0=    0 NMtDT0=    0
 Petite list used in FoFCou.
 Harris En= -399.801169270425    
 JPrj=0 DoOrth=F DoCkMO=F.
 Leave Link  401 at Fri Aug 27 00:58:14 2021, MaxMem= 17179869184 cpu:        50.2
 (Enter /public3/home/sc51754/softwares/g09e01/l502.exe)
 Closed shell SCF:
 Using DIIS extrapolation, IDIIS=  1040.
 Integral symmetry usage will be decided dynamically.
 Keep R1 ints in memory in canonical form, NReq=1670404686.
 IVT=      490665 IEndB=      490665 NGot= 17179869184 MDV= 15538220534
 LenX= 15538220534 LenY= 15538071868
 Requested convergence on RMS density matrix=1.00D-08 within 128 cycles.
 Requested convergence on MAX density matrix=1.00D-06.
 Requested convergence on             energy=1.00D-06.
 No special actions if energy rises.
 FoFCou: FMM=F IPFlag=           0 FMFlag=           0 FMFlg1=           0
         NFxFlg=           0 DoJE=F BraDBF=F KetDBF=F FulRan=T
         wScrn=  0.000000 ICntrl=     600 IOpCl=  0 I1Cent=           0 NGrid=           0
         NMat0=    1 NMatS0=  57291 NMatT0=    0 NMatD0=    1 NMtDS0=    0 NMtDT0=    0
 Symmetry not used in FoFCou.
 Integral accuracy reduced to 1.0D-05 until final iterations.

 Cycle   1  Pass 0  IDiag  1:
 E= -399.692819898545    
 DIIS: error= 2.22D-02 at cycle   1 NSaved=   1.
 NSaved= 1 IEnMin= 1 EnMin= -399.692819898545     IErMin= 1 ErrMin= 2.22D-02
 ErrMax= 2.22D-02  0.00D+00 EMaxC= 1.00D-01 BMatC= 2.35D-01 BMatP= 2.35D-01
 IDIUse=3 WtCom= 7.78D-01 WtEn= 2.22D-01
 Coeff-Com:  0.100D+01
 Coeff-En:   0.100D+01
 Coeff:      0.100D+01
 Gap=     0.221 Goal=   None    Shift=    0.000
 GapD=    0.221 DampG=1.000 DampE=0.500 DampFc=0.5000 IDamp=-1.
 Damping current iteration by 5.00D-01
 RMSDP=2.35D-03 MaxDP=1.09D-01              OVMax= 1.89D-01

 Cycle   2  Pass 0  IDiag  1:
 E= -399.767752690654     Delta-E=       -0.074932792109 Rises=F Damp=T
 DIIS: error= 3.88D-03 at cycle   2 NSaved=   2.
 NSaved= 2 IEnMin= 2 EnMin= -399.767752690654     IErMin= 2 ErrMin= 3.88D-03
 ErrMax= 3.88D-03  0.00D+00 EMaxC= 1.00D-01 BMatC= 1.33D-02 BMatP= 2.35D-01
 IDIUse=3 WtCom= 9.61D-01 WtEn= 3.88D-02
 Coeff-Com:  0.110D+00 0.890D+00
 Coeff-En:   0.202D+00 0.798D+00
 Coeff:      0.114D+00 0.886D+00
 Gap=     0.255 Goal=   None    Shift=    0.000
 RMSDP=7.63D-04 MaxDP=3.00D-02 DE=-7.49D-02 OVMax= 1.27D-01

 Cycle   3  Pass 0  IDiag  1:
 E= -399.874098712171     Delta-E=       -0.106346021517 Rises=F Damp=F
 DIIS: error= 5.30D-03 at cycle   3 NSaved=   3.
 NSaved= 3 IEnMin= 3 EnMin= -399.874098712171     IErMin= 2 ErrMin= 3.88D-03
 ErrMax= 5.30D-03  0.00D+00 EMaxC= 1.00D-01 BMatC= 7.65D-03 BMatP= 1.33D-02
 IDIUse=3 WtCom= 9.47D-01 WtEn= 5.30D-02
 Coeff-Com:  0.101D-01 0.424D+00 0.565D+00
 Coeff-En:   0.000D+00 0.000D+00 0.100D+01
 Coeff:      0.959D-02 0.402D+00 0.588D+00
 Gap=     0.222 Goal=   None    Shift=    0.000
 RMSDP=2.82D-04 MaxDP=1.58D-02 DE=-1.06D-01 OVMax= 4.07D-02

 Cycle   4  Pass 0  IDiag  1:
 E= -399.879171401934     Delta-E=       -0.005072689763 Rises=F Damp=F
 DIIS: error= 3.19D-03 at cycle   4 NSaved=   4.
 NSaved= 4 IEnMin= 4 EnMin= -399.879171401934     IErMin= 4 ErrMin= 3.19D-03
 ErrMax= 3.19D-03  0.00D+00 EMaxC= 1.00D-01 BMatC= 1.90D-03 BMatP= 7.65D-03
 IDIUse=3 WtCom= 9.68D-01 WtEn= 3.19D-02
 Coeff-Com: -0.112D-01 0.120D+00 0.359D+00 0.532D+00
 Coeff-En:   0.000D+00 0.000D+00 0.222D+00 0.778D+00
 Coeff:     -0.108D-01 0.116D+00 0.355D+00 0.540D+00
 Gap=     0.222 Goal=   None    Shift=    0.000
 RMSDP=1.10D-04 MaxDP=7.01D-03 DE=-5.07D-03 OVMax= 1.96D-02

 Cycle   5  Pass 0  IDiag  1:
 E= -399.880848174197     Delta-E=       -0.001676772263 Rises=F Damp=F
 DIIS: error= 5.54D-04 at cycle   5 NSaved=   5.
 NSaved= 5 IEnMin= 5 EnMin= -399.880848174197     IErMin= 5 ErrMin= 5.54D-04
 ErrMax= 5.54D-04  0.00D+00 EMaxC= 1.00D-01 BMatC= 1.20D-04 BMatP= 1.90D-03
 IDIUse=3 WtCom= 9.94D-01 WtEn= 5.54D-03
 Coeff-Com: -0.683D-02 0.276D-01 0.137D+00 0.278D+00 0.564D+00
 Coeff-En:   0.000D+00 0.000D+00 0.000D+00 0.000D+00 0.100D+01
 Coeff:     -0.680D-02 0.275D-01 0.136D+00 0.277D+00 0.567D+00
 Gap=     0.222 Goal=   None    Shift=    0.000
 RMSDP=2.88D-05 MaxDP=1.36D-03 DE=-1.68D-03 OVMax= 4.40D-03

 Cycle   6  Pass 0  IDiag  1:
 E= -399.880945959964     Delta-E=       -0.000097785767 Rises=F Damp=F
 DIIS: error= 1.60D-04 at cycle   6 NSaved=   6.
 NSaved= 6 IEnMin= 6 EnMin= -399.880945959964     IErMin= 6 ErrMin= 1.60D-04
 ErrMax= 1.60D-04  0.00D+00 EMaxC= 1.00D-01 BMatC= 1.55D-05 BMatP= 1.20D-04
 IDIUse=3 WtCom= 9.98D-01 WtEn= 1.60D-03
 Coeff-Com: -0.235D-02 0.706D-03 0.286D-01 0.762D-01 0.308D+00 0.588D+00
 Coeff-En:   0.000D+00 0.000D+00 0.000D+00 0.000D+00 0.713D-01 0.929D+00
 Coeff:     -0.234D-02 0.704D-03 0.286D-01 0.761D-01 0.308D+00 0.589D+00
 Gap=     0.222 Goal=   None    Shift=    0.000
 RMSDP=8.26D-06 MaxDP=3.42D-04 DE=-9.78D-05 OVMax= 9.11D-04

 Initial convergence to 1.0D-05 achieved.  Increase integral accuracy.
 Cycle   7  Pass 1  IDiag  1:
 E= -399.881475970192     Delta-E=       -0.000530010228 Rises=F Damp=F
 DIIS: error= 4.84D-04 at cycle   1 NSaved=   1.
 NSaved= 1 IEnMin= 1 EnMin= -399.881475970192     IErMin= 1 ErrMin= 4.84D-04
 ErrMax= 4.84D-04  0.00D+00 EMaxC= 1.00D-01 BMatC= 1.24D-04 BMatP= 1.24D-04
 IDIUse=3 WtCom= 9.95D-01 WtEn= 4.84D-03
 Coeff-Com:  0.100D+01
 Coeff-En:   0.100D+01
 Coeff:      0.100D+01
 Gap=     0.222 Goal=   None    Shift=    0.000
 RMSDP=8.26D-06 MaxDP=3.42D-04 DE=-5.30D-04 OVMax= 1.14D-03

 Cycle   8  Pass 1  IDiag  1:
 E= -399.881525795337     Delta-E=       -0.000049825145 Rises=F Damp=F
 DIIS: error= 1.06D-04 at cycle   2 NSaved=   2.
 NSaved= 2 IEnMin= 2 EnMin= -399.881525795337     IErMin= 2 ErrMin= 1.06D-04
 ErrMax= 1.06D-04  0.00D+00 EMaxC= 1.00D-01 BMatC= 4.60D-06 BMatP= 1.24D-04
 IDIUse=3 WtCom= 9.99D-01 WtEn= 1.06D-03
 Coeff-Com:  0.105D+00 0.895D+00
 Coeff-En:   0.000D+00 0.100D+01
 Coeff:      0.104D+00 0.896D+00
 Gap=     0.222 Goal=   None    Shift=    0.000
 RMSDP=8.84D-06 MaxDP=3.40D-04 DE=-4.98D-05 OVMax= 9.80D-04

 Cycle   9  Pass 1  IDiag  1:
 E= -399.881525638366     Delta-E=        0.000000156971 Rises=F Damp=F
 DIIS: error= 1.09D-04 at cycle   3 NSaved=   3.
 NSaved= 3 IEnMin= 2 EnMin= -399.881525795337     IErMin= 2 ErrMin= 1.06D-04
 ErrMax= 1.09D-04  0.00D+00 EMaxC= 1.00D-01 BMatC= 3.52D-06 BMatP= 4.60D-06
 IDIUse=3 WtCom= 9.99D-01 WtEn= 1.09D-03
 Coeff-Com:  0.360D-01 0.481D+00 0.483D+00
 Coeff-En:   0.000D+00 0.514D+00 0.486D+00
 Coeff:      0.360D-01 0.481D+00 0.483D+00
 Gap=     0.222 Goal=   None    Shift=    0.000
 RMSDP=5.01D-06 MaxDP=2.65D-04 DE= 1.57D-07 OVMax= 8.50D-04

 Cycle  10  Pass 1  IDiag  1:
 E= -399.881528267111     Delta-E=       -0.000002628745 Rises=F Damp=F
 DIIS: error= 3.75D-05 at cycle   4 NSaved=   4.
 NSaved= 4 IEnMin= 4 EnMin= -399.881528267111     IErMin= 4 ErrMin= 3.75D-05
 ErrMax= 3.75D-05  0.00D+00 EMaxC= 1.00D-01 BMatC= 3.99D-07 BMatP= 3.52D-06
 IDIUse=1 WtCom= 1.00D+00 WtEn= 0.00D+00
 Coeff-Com: -0.229D-02 0.786D-01 0.265D+00 0.659D+00
 Coeff:     -0.229D-02 0.786D-01 0.265D+00 0.659D+00
 Gap=     0.222 Goal=   None    Shift=    0.000
 RMSDP=1.47D-06 MaxDP=6.15D-05 DE=-2.63D-06 OVMax= 2.63D-04

 Cycle  11  Pass 1  IDiag  1:
 E= -399.881528581884     Delta-E=       -0.000000314773 Rises=F Damp=F
 DIIS: error= 8.46D-06 at cycle   5 NSaved=   5.
 NSaved= 5 IEnMin= 5 EnMin= -399.881528581884     IErMin= 5 ErrMin= 8.46D-06
 ErrMax= 8.46D-06  0.00D+00 EMaxC= 1.00D-01 BMatC= 2.50D-08 BMatP= 3.99D-07
 IDIUse=1 WtCom= 1.00D+00 WtEn= 0.00D+00
 Coeff-Com: -0.251D-02 0.248D-01 0.126D+00 0.353D+00 0.498D+00
 Coeff:     -0.251D-02 0.248D-01 0.126D+00 0.353D+00 0.498D+00
 Gap=     0.222 Goal=   None    Shift=    0.000
 RMSDP=4.09D-07 MaxDP=2.11D-05 DE=-3.15D-07 OVMax= 6.08D-05

 Cycle  12  Pass 1  IDiag  1:
 E= -399.881528603353     Delta-E=       -0.000000021469 Rises=F Damp=F
 DIIS: error= 2.04D-06 at cycle   6 NSaved=   6.
 NSaved= 6 IEnMin= 6 EnMin= -399.881528603353     IErMin= 6 ErrMin= 2.04D-06
 ErrMax= 2.04D-06  0.00D+00 EMaxC= 1.00D-01 BMatC= 2.14D-09 BMatP= 2.50D-08
 IDIUse=1 WtCom= 1.00D+00 WtEn= 0.00D+00
 Coeff-Com: -0.794D-03-0.364D-02 0.101D-01 0.415D-01 0.231D+00 0.721D+00
 Coeff:     -0.794D-03-0.364D-02 0.101D-01 0.415D-01 0.231D+00 0.721D+00
 Gap=     0.222 Goal=   None    Shift=    0.000
 RMSDP=1.34D-07 MaxDP=6.73D-06 DE=-2.15D-08 OVMax= 1.73D-05

 Cycle  13  Pass 1  IDiag  1:
 E= -399.881528604904     Delta-E=       -0.000000001550 Rises=F Damp=F
 DIIS: error= 9.35D-07 at cycle   7 NSaved=   7.
 NSaved= 7 IEnMin= 7 EnMin= -399.881528604904     IErMin= 7 ErrMin= 9.35D-07
 ErrMax= 9.35D-07  0.00D+00 EMaxC= 1.00D-01 BMatC= 3.90D-10 BMatP= 2.14D-09
 IDIUse=1 WtCom= 1.00D+00 WtEn= 0.00D+00
 Coeff-Com: -0.173D-03-0.436D-02-0.748D-02-0.138D-01 0.779D-01 0.395D+00
 Coeff-Com:  0.553D+00
 Coeff:     -0.173D-03-0.436D-02-0.748D-02-0.138D-01 0.779D-01 0.395D+00
 Coeff:      0.553D+00
 Gap=     0.222 Goal=   None    Shift=    0.000
 RMSDP=5.60D-08 MaxDP=2.87D-06 DE=-1.55D-09 OVMax= 1.16D-05

 Cycle  14  Pass 1  IDiag  1:
 E= -399.881528605248     Delta-E=       -0.000000000344 Rises=F Damp=F
 DIIS: error= 5.54D-07 at cycle   8 NSaved=   8.
 NSaved= 8 IEnMin= 8 EnMin= -399.881528605248     IErMin= 8 ErrMin= 5.54D-07
 ErrMax= 5.54D-07  0.00D+00 EMaxC= 1.00D-01 BMatC= 3.44D-11 BMatP= 3.90D-10
 IDIUse=1 WtCom= 1.00D+00 WtEn= 0.00D+00
 Coeff-Com:  0.400D-04-0.134D-02-0.467D-02-0.120D-01 0.217D-02 0.683D-01
 Coeff-Com:  0.260D+00 0.687D+00
 Coeff:      0.400D-04-0.134D-02-0.467D-02-0.120D-01 0.217D-02 0.683D-01
 Coeff:      0.260D+00 0.687D+00
 Gap=     0.222 Goal=   None    Shift=    0.000
 RMSDP=1.91D-08 MaxDP=1.21D-06 DE=-3.44D-10 OVMax= 3.41D-06

 Cycle  15  Pass 1  IDiag  1:
 E= -399.881528605279     Delta-E=       -0.000000000031 Rises=F Damp=F
 DIIS: error= 1.68D-07 at cycle   9 NSaved=   9.
 NSaved= 9 IEnMin= 9 EnMin= -399.881528605279     IErMin= 9 ErrMin= 1.68D-07
 ErrMax= 1.68D-07  0.00D+00 EMaxC= 1.00D-01 BMatC= 7.55D-12 BMatP= 3.44D-11
 IDIUse=1 WtCom= 1.00D+00 WtEn= 0.00D+00
 Coeff-Com:  0.438D-04-0.330D-03-0.203D-02-0.604D-02-0.800D-02-0.378D-02
 Coeff-Com:  0.925D-01 0.407D+00 0.521D+00
 Coeff:      0.438D-04-0.330D-03-0.203D-02-0.604D-02-0.800D-02-0.378D-02
 Coeff:      0.925D-01 0.407D+00 0.521D+00
 Gap=     0.222 Goal=   None    Shift=    0.000
 RMSDP=6.83D-09 MaxDP=3.44D-07 DE=-3.13D-11 OVMax= 1.21D-06

 SCF Done:  E(RM06) =  -399.881528605     A.U. after   15 cycles
            NFock= 15  Conv=0.68D-08     -V/T= 2.0032
 KE= 3.986251813794D+02 PE=-1.651575295502D+03 EE= 4.954459633490D+02
 Leave Link  502 at Fri Aug 27 00:58:40 2021, MaxMem= 17179869184 cpu:       427.2
 (Enter /public3/home/sc51754/softwares/g09e01/l601.exe)
 Copying SCF densities to generalized density rwf, IOpCl= 0 IROHF=0.

 **********************************************************************

            Population analysis using the SCF density.

 **********************************************************************

 Orbital symmetries:
       Occupied  (A) (A) (A) (A) (A) (A) (A) (A) (A) (A) (A) (A)
                 (A) (A) (A) (A) (A) (A) (A) (A) (A) (A) (A) (A)
                 (A) (A) (A) (A) (A) (A)
       Virtual   (A) (A) (A) (A) (A) (A) (A) (A) (A) (A) (A) (A)
                 (A) (A) (A) (A) (A) (A) (A) (A) (A) (A) (A) (A)
                 (A) (A) (A) (A) (A) (A) (A) (A) (A) (A) (A) (A)
                 (A) (A) (A) (A) (A) (A) (A) (A) (A) (A) (A) (A)
                 (A) (A) (A) (A) (A) (A) (A) (A) (A) (A) (A) (A)
                 (A) (A) (A) (A) (A) (A) (A) (A) (A) (A) (A) (A)
                 (A) (A) (A) (A) (A) (A) (A) (A) (A) (A) (A) (A)
                 (A) (A) (A) (A) (A) (A) (A) (A) (A) (A) (A) (A)
                 (A) (A) (A) (A) (A) (A) (A) (A) (A) (A) (A) (A)
                 (A) (A) (A) (A) (A) (A) (A) (A) (A) (A) (A) (A)
                 (A) (A) (A) (A) (A) (A) (A) (A) (A) (A) (A) (A)
                 (A) (A) (A) (A) (A) (A) (A) (A) (A) (A) (A) (A)
                 (A) (A) (A) (A) (A) (A) (A) (A) (A) (A) (A) (A)
                 (A) (A) (A) (A) (A) (A) (A) (A) (A) (A) (A) (A)
                 (A) (A) (A) (A) (A) (A) (A) (A) (A) (A) (A) (A)
                 (A) (A) (A) (A) (A) (A) (A) (A) (A) (A) (A) (A)
                 (A) (A) (A) (A) (A) (A) (A) (A) (A) (A) (A) (A)
                 (A) (A) (A) (A) (A) (A) (A) (A) (A) (A) (A) (A)
                 (A) (A) (A) (A) (A) (A) (A) (A) (A) (A) (A) (A)
                 (A) (A) (A) (A) (A) (A) (A) (A) (A) (A) (A) (A)
                 (A) (A) (A) (A) (A) (A) (A) (A) (A) (A) (A) (A)
                 (A) (A) (A) (A) (A) (A) (A) (A) (A) (A) (A) (A)
                 (A) (A) (A) (A) (A) (A) (A) (A) (A) (A) (A) (A)
                 (A) (A) (A) (A) (A) (A) (A) (A) (A) (A) (A) (A)
                 (A) (A) (A) (A) (A) (A) (A) (A) (A) (A) (A) (A)
                 (A) (A) (A) (A) (A) (A) (A) (A)
 The electronic state is 1-A.
 Alpha  occ. eigenvalues --  -19.22676 -19.20300 -14.39103 -10.34137 -10.28466
 Alpha  occ. eigenvalues --  -10.26482 -10.24751 -10.24539  -1.09536  -1.03481
 Alpha  occ. eigenvalues --   -0.95932  -0.82533  -0.77281  -0.66398  -0.64456
 Alpha  occ. eigenvalues --   -0.57110  -0.55246  -0.52704  -0.49898  -0.46252
 Alpha  occ. eigenvalues --   -0.45722  -0.43013  -0.41927  -0.40386  -0.38278
 Alpha  occ. eigenvalues --   -0.37349  -0.33679  -0.31166  -0.29804  -0.25580
 Alpha virt. eigenvalues --   -0.03404  -0.00554   0.00650   0.01188   0.02025
 Alpha virt. eigenvalues --    0.03554   0.04871   0.08861   0.10766   0.13141
 Alpha virt. eigenvalues --    0.14686   0.16440   0.16748   0.17788   0.18927
 Alpha virt. eigenvalues --    0.19831   0.20798   0.21166   0.22436   0.24135
 Alpha virt. eigenvalues --    0.25790   0.25960   0.26059   0.27275   0.28157
 Alpha virt. eigenvalues --    0.28493   0.29705   0.30698   0.31350   0.33471
 Alpha virt. eigenvalues --    0.34745   0.35750   0.36279   0.37450   0.38428
 Alpha virt. eigenvalues --    0.40657   0.41857   0.42819   0.43295   0.46603
 Alpha virt. eigenvalues --    0.47860   0.49786   0.50550   0.51853   0.52647
 Alpha virt. eigenvalues --    0.56454   0.59964   0.60133   0.61574   0.63371
 Alpha virt. eigenvalues --    0.63737   0.64306   0.66737   0.69974   0.72644
 Alpha virt. eigenvalues --    0.76132   0.78624   0.80172   0.80492   0.83889
 Alpha virt. eigenvalues --    0.87516   0.89201   0.89671   0.90868   0.92187
 Alpha virt. eigenvalues --    0.93593   0.95494   0.96807   0.97762   1.00406
 Alpha virt. eigenvalues --    1.01653   1.05341   1.06990   1.08232   1.09891
 Alpha virt. eigenvalues --    1.11051   1.11494   1.13767   1.14391   1.16536
 Alpha virt. eigenvalues --    1.17787   1.18705   1.22231   1.24293   1.25451
 Alpha virt. eigenvalues --    1.27573   1.27711   1.29650   1.30780   1.32628
 Alpha virt. eigenvalues --    1.39464   1.39730   1.41553   1.42513   1.45825
 Alpha virt. eigenvalues --    1.48060   1.48649   1.50504   1.52637   1.54602
 Alpha virt. eigenvalues --    1.56080   1.57204   1.59583   1.60964   1.63519
 Alpha virt. eigenvalues --    1.64673   1.65698   1.66459   1.68735   1.71906
 Alpha virt. eigenvalues --    1.76914   1.79190   1.79871   1.82704   1.83787
 Alpha virt. eigenvalues --    1.85686   1.87955   1.88925   1.89766   1.93714
 Alpha virt. eigenvalues --    1.98752   1.99309   2.00822   2.03601   2.07753
 Alpha virt. eigenvalues --    2.08165   2.11041   2.13467   2.15802   2.16825
 Alpha virt. eigenvalues --    2.18069   2.21429   2.22858   2.24624   2.24886
 Alpha virt. eigenvalues --    2.27106   2.39256   2.45852   2.49114   2.58383
 Alpha virt. eigenvalues --    2.64185   2.79512   2.87643   2.89724   2.93462
 Alpha virt. eigenvalues --    2.99037   3.02337   3.12016   3.13758   3.15092
 Alpha virt. eigenvalues --    3.17574   3.20730   3.22728   3.27637   3.30397
 Alpha virt. eigenvalues --    3.32305   3.34864   3.37449   3.39375   3.41214
 Alpha virt. eigenvalues --    3.44326   3.45748   3.47904   3.49531   3.53333
 Alpha virt. eigenvalues --    3.55542   3.56838   3.58099   3.58982   3.61035
 Alpha virt. eigenvalues --    3.62859   3.66084   3.67011   3.69048   3.71386
 Alpha virt. eigenvalues --    3.73872   3.74645   3.77414   3.79842   3.83077
 Alpha virt. eigenvalues --    3.85102   3.89101   3.89753   3.91188   3.95010
 Alpha virt. eigenvalues --    3.96780   3.98538   4.00763   4.03589   4.04088
 Alpha virt. eigenvalues --    4.05205   4.06240   4.07598   4.08630   4.11484
 Alpha virt. eigenvalues --    4.13983   4.14534   4.15614   4.16656   4.18966
 Alpha virt. eigenvalues --    4.19111   4.21362   4.24255   4.24588   4.27099
 Alpha virt. eigenvalues --    4.27677   4.28303   4.28542   4.29565   4.34347
 Alpha virt. eigenvalues --    4.34913   4.35139   4.36723   4.37685   4.39943
 Alpha virt. eigenvalues --    4.40311   4.41967   4.42381   4.43251   4.44918
 Alpha virt. eigenvalues --    4.46640   4.47643   4.49040   4.52612   4.55293
 Alpha virt. eigenvalues --    4.56657   4.57828   4.61347   4.62083   4.63502
 Alpha virt. eigenvalues --    4.64804   4.69766   4.70764   4.73179   4.77811
 Alpha virt. eigenvalues --    4.78462   4.82255   4.85353   4.85926   4.87938
 Alpha virt. eigenvalues --    4.90061   4.91056   4.94435   4.96646   4.99505
 Alpha virt. eigenvalues --    5.01641   5.04648   5.06434   5.11264   5.13475
 Alpha virt. eigenvalues --    5.15098   5.16228   5.18650   5.18791   5.24182
 Alpha virt. eigenvalues --    5.27690   5.29095   5.33269   5.33464   5.35166
 Alpha virt. eigenvalues --    5.37690   5.41524   5.42126   5.44853   5.47477
 Alpha virt. eigenvalues --    5.52019   5.57586   5.62465   5.62711   5.69812
 Alpha virt. eigenvalues --    5.70633   5.74770   5.82612   5.86138   5.89619
 Alpha virt. eigenvalues --    5.96563   5.98504   5.99469   6.02686   6.05525
 Alpha virt. eigenvalues --    6.11797   6.20865   6.22266   6.23510   6.25139
 Alpha virt. eigenvalues --    6.31373   6.36140   6.37562   6.42333   6.48268
 Alpha virt. eigenvalues --    6.55548   6.58060   6.65062   6.72419   6.92264
 Alpha virt. eigenvalues --    6.94938   6.95479   7.06046   7.33049   7.42579
 Alpha virt. eigenvalues --    9.25012  12.12470  12.68056  15.50316  15.54629
 Alpha virt. eigenvalues --   17.37613  18.64810  22.31431
          Condensed to atoms (all electrons):
               1          2          3          4          5          6
     1  O    7.962364  -0.080015   0.250754  -0.054372   0.004664   0.009206
     2  N   -0.080015   6.821483   0.424233  -0.012523   0.454698  -0.045146
     3  C    0.250754   0.424233   4.527584   0.455118  -0.069648  -0.019879
     4  C   -0.054372  -0.012523   0.455118   4.949140  -0.049258   0.433859
     5  C    0.004664   0.454698  -0.069648  -0.049258   4.697969  -0.037749
     6  C    0.009206  -0.045146  -0.019879   0.433859  -0.037749   4.846647
     7  C    0.000235  -0.018402  -0.065057  -0.018231   0.462668   0.401935
     8  H    0.346989   0.009257  -0.019727   0.003815   0.000878  -0.000863
     9  H    0.003057   0.007131  -0.060446   0.478285  -0.003871  -0.061679
    10  H   -0.000307  -0.041466   0.004544  -0.004040   0.465188   0.009475
    11  H   -0.000452  -0.002707   0.012300  -0.059770   0.010996   0.469829
    12  H    0.000063   0.009709  -0.001803   0.009993  -0.050103  -0.067800
    13  O   -0.030058  -0.038735  -0.003230   0.000617  -0.000734   0.000137
    14  H    0.001234   0.003394  -0.000144   0.000103   0.000137  -0.000017
    15  H   -0.000922   0.014245  -0.002795   0.000458   0.003174  -0.000030
               7          8          9         10         11         12
     1  O    0.000235   0.346989   0.003057  -0.000307  -0.000452   0.000063
     2  N   -0.018402   0.009257   0.007131  -0.041466  -0.002707   0.009709
     3  C   -0.065057  -0.019727  -0.060446   0.004544   0.012300  -0.001803
     4  C   -0.018231   0.003815   0.478285  -0.004040  -0.059770   0.009993
     5  C    0.462668   0.000878  -0.003871   0.465188   0.010996  -0.050103
     6  C    0.401935  -0.000863  -0.061679   0.009475   0.469829  -0.067800
     7  C    5.016136   0.000115   0.012227  -0.080978  -0.066812   0.474524
     8  H    0.000115   0.402510   0.000032  -0.000028   0.000009  -0.000015
     9  H    0.012227   0.000032   0.592729   0.000134  -0.016840   0.000397
    10  H   -0.080978  -0.000028   0.000134   0.597765  -0.000167  -0.011372
    11  H   -0.066812   0.000009  -0.016840  -0.000167   0.617900  -0.015530
    12  H    0.474524  -0.000015   0.000397  -0.011372  -0.015530   0.619810
    13  O   -0.000363   0.051409   0.000032   0.000169  -0.000005   0.000012
    14  H    0.000068  -0.002584  -0.000004  -0.000026   0.000001  -0.000002
    15  H    0.000580  -0.007249  -0.000065  -0.000329   0.000026  -0.000029
              13         14         15
     1  O   -0.030058   0.001234  -0.000922
     2  N   -0.038735   0.003394   0.014245
     3  C   -0.003230  -0.000144  -0.002795
     4  C    0.000617   0.000103   0.000458
     5  C   -0.000734   0.000137   0.003174
     6  C    0.000137  -0.000017  -0.000030
     7  C   -0.000363   0.000068   0.000580
     8  H    0.051409  -0.002584  -0.007249
     9  H    0.000032  -0.000004  -0.000065
    10  H    0.000169  -0.000026  -0.000329
    11  H   -0.000005   0.000001   0.000026
    12  H    0.000012  -0.000002  -0.000029
    13  O    7.786016   0.352470   0.327201
    14  H    0.352470   0.433640  -0.016552
    15  H    0.327201  -0.016552   0.446582
 Mulliken charges:
               1
     1  O   -0.412440
     2  N   -0.505156
     3  C    0.568195
     4  C   -0.133196
     5  C    0.110990
     6  C    0.062074
     7  C   -0.118644
     8  H    0.215452
     9  H    0.048879
    10  H    0.061436
    11  H    0.051222
    12  H    0.032145
    13  O   -0.444940
    14  H    0.228280
    15  H    0.235704
 Sum of Mulliken charges =  -0.00000
 Mulliken charges with hydrogens summed into heavy atoms:
               1
     1  O   -0.196988
     2  N   -0.505156
     3  C    0.568195
     4  C   -0.084317
     5  C    0.172426
     6  C    0.113295
     7  C   -0.086499
    13  O    0.019044
 Electronic spatial extent (au):  <R**2>=           1068.9204
 Charge=             -0.0000 electrons
 Dipole moment (field-independent basis, Debye):
    X=             -1.7741    Y=             -1.3037    Z=              1.3474  Tot=              2.5812
 Quadrupole moment (field-independent basis, Debye-Ang):
   XX=            -41.7753   YY=            -44.6898   ZZ=            -48.8658
   XY=             -2.8255   XZ=              5.3580   YZ=             -1.3478
 Traceless Quadrupole moment (field-independent basis, Debye-Ang):
   XX=              3.3350   YY=              0.4205   ZZ=             -3.7555
   XY=             -2.8255   XZ=              5.3580   YZ=             -1.3478
 Octapole moment (field-independent basis, Debye-Ang**2):
  XXX=             12.7527  YYY=             -7.6251  ZZZ=              1.0659  XYY=             -0.0909
  XXY=             -4.2308  XXZ=             20.2928  XZZ=             12.6816  YZZ=              0.3221
  YYZ=              1.2835  XYZ=             -5.1816
 Hexadecapole moment (field-independent basis, Debye-Ang**3):
 XXXX=           -828.1303 YYYY=           -353.1686 ZZZZ=            -52.4337 XXXY=            -22.2424
 XXXZ=             76.6033 YYYX=            -13.4880 YYYZ=             -1.5429 ZZZX=              5.0104
 ZZZY=             -1.3924 XXYY=           -199.4923 XXZZ=           -164.9673 YYZZ=            -75.7337
 XXYZ=            -18.7453 YYXZ=              5.2863 ZZXY=             -3.9569
 N-N= 3.576226221683D+02 E-N=-1.651575286914D+03  KE= 3.986251813794D+02
 No NMR shielding tensors so no spin-rotation constants.
 Leave Link  601 at Fri Aug 27 00:58:41 2021, MaxMem= 17179869184 cpu:        52.4
 (Enter /public3/home/sc51754/softwares/g09e01/l701.exe)
 Compute integral first derivatives.
 ... and contract with generalized density number  0.
 Leave Link  701 at Fri Aug 27 00:58:43 2021, MaxMem= 17179869184 cpu:        79.9
 (Enter /public3/home/sc51754/softwares/g09e01/l702.exe)
 L702 exits ... SP integral derivatives will be done elsewhere.
 Leave Link  702 at Fri Aug 27 00:58:43 2021, MaxMem= 17179869184 cpu:         0.3
 (Enter /public3/home/sc51754/softwares/g09e01/l703.exe)
 Compute integral first derivatives, UseDBF=F ICtDFT=           0.
 Integral derivatives from FoFJK, PRISM(SPDF).
 Calling FoFJK, ICntrl=      2127 FMM=F ISym2X=0 I1Cent= 0 IOpClX= 0 NMat=1 NMatS=1 NMatT=0.
 FoFJK:  IHMeth= 1 ICntrl=    2127 DoSepK=F KAlg= 0 I1Cent=   0 FoldK=F
 IRaf=         0 NMat=   1 IRICut=       1 DoRegI=T DoRafI=F ISym2E= 0.
 FoFCou: FMM=F IPFlag=           0 FMFlag=      100000 FMFlg1=         800
         NFxFlg=           0 DoJE=F BraDBF=F KetDBF=F FulRan=T
         wScrn=  0.000000 ICntrl=    2127 IOpCl=  0 I1Cent=           0 NGrid=           0
         NMat0=    1 NMatS0=      1 NMatT0=    0 NMatD0=    1 NMtDS0=    0 NMtDT0=    0
 Symmetry not used in FoFCou.
 Leave Link  703 at Fri Aug 27 00:58:46 2021, MaxMem= 17179869184 cpu:       195.7
 (Enter /public3/home/sc51754/softwares/g09e01/l716.exe)
 Dipole        =-6.97973128D-01-5.12914700D-01 5.30098818D-01
 ***** Axes restored to original set *****
 -------------------------------------------------------------------
 Center     Atomic                   Forces (Hartrees/Bohr)
 Number     Number              X              Y              Z
 -------------------------------------------------------------------
      1        8          -0.006346820   -0.006109716    0.000111879
      2        7          -0.005076304    0.002981623    0.000176321
      3        6           0.004475609   -0.000651438   -0.000050753
      4        6          -0.000436210   -0.005198384   -0.000050901
      5        6          -0.000539279    0.008169698    0.000012705
      6        6           0.006401828   -0.001908269   -0.000024390
      7        6           0.004629237    0.002311602   -0.000028662
      8        1          -0.002968668    0.001062510   -0.000209458
      9        1           0.000213980    0.000260075   -0.000001512
     10        1          -0.000184954   -0.000741970    0.000009103
     11        1          -0.000132582    0.000107487    0.000008560
     12        1          -0.000108158   -0.000025715    0.000002292
     13        8          -0.001529723   -0.002684176    0.004305631
     14        1          -0.003280725    0.001256460   -0.004239337
     15        1           0.004882768    0.001170212   -0.000021479
 -------------------------------------------------------------------
 Cartesian Forces:  Max     0.008169698 RMS     0.002954304
 Leave Link  716 at Fri Aug 27 00:58:46 2021, MaxMem= 17179869184 cpu:         0.4
 (Enter /public3/home/sc51754/softwares/g09e01/l103.exe)

 GradGradGradGradGradGradGradGradGradGradGradGradGradGradGradGradGradGrad
 Berny optimization.
 FormGI is forming the generalized inverse of G from B-inverse, IUseBI=4.
 Internal  Forces:  Max     0.009335811 RMS     0.002241231
 Search for a local minimum.
 Step number   1 out of a maximum of   88
 All quantities printed in internal units (Hartrees-Bohrs-Radians)
 RMS Force = .22412D-02 SwitMx=.10000D-02 MixMth= 1
 Mixed Optimization -- RFO/linear search
 Second derivative matrix not updated -- first step.
 ITU=  0
     Eigenvalues ---    0.00525   0.00832   0.01684   0.02094   0.02184
     Eigenvalues ---    0.02225   0.02239   0.02286   0.02319   0.02409
     Eigenvalues ---    0.02460   0.05224   0.06028   0.06507   0.08515
     Eigenvalues ---    0.13089   0.16000   0.16000   0.16000   0.16000
     Eigenvalues ---    0.19207   0.20418   0.22000   0.22270   0.23481
     Eigenvalues ---    0.35621   0.35778   0.36026   0.36038   0.41939
     Eigenvalues ---    0.43696   0.46841   0.47322   0.48462   0.48884
     Eigenvalues ---    0.52273   0.55339   0.55352   0.56565
 RFO step:  Lambda=-7.88041946D-04 EMin= 5.24515301D-03
 Linear search not attempted -- first point.
 Iteration  1 RMS(Cart)=  0.00829464 RMS(Int)=  0.00001981
 Iteration  2 RMS(Cart)=  0.00001660 RMS(Int)=  0.00000543
 Iteration  3 RMS(Cart)=  0.00000000 RMS(Int)=  0.00000543
 ITry= 1 IFail=0 DXMaxC= 3.34D-02 DCOld= 1.00D+10 DXMaxT= 3.00D-01 DXLimC= 3.00D+00 Rises=F
 Variable       Old X    -DE/DX   Delta X   Delta X   Delta X     New X
                                 (Linear)    (Quad)   (Total)
    R1        2.53090  -0.00934   0.00000  -0.01758  -0.01758   2.51332
    R2        1.85517  -0.00284   0.00000  -0.00544  -0.00544   1.84973
    R3        2.51733  -0.00627   0.00000  -0.01193  -0.01192   2.50541
    R4        2.53185  -0.00634   0.00000  -0.01122  -0.01122   2.52063
    R5        3.65357  -0.00055   0.00000  -0.00536  -0.00536   3.64821
    R6        2.64886  -0.00520   0.00000  -0.01150  -0.01150   2.63736
    R7        2.60507  -0.00645   0.00000  -0.01286  -0.01286   2.59221
    R8        2.04022   0.00025   0.00000   0.00068   0.00068   2.04091
    R9        2.60933  -0.00620   0.00000  -0.01261  -0.01261   2.59672
   R10        2.04678   0.00070   0.00000   0.00195   0.00195   2.04874
   R11        2.63885  -0.00549   0.00000  -0.01160  -0.01160   2.62725
   R12        2.04430   0.00017   0.00000   0.00046   0.00046   2.04476
   R13        2.04041   0.00010   0.00000   0.00028   0.00028   2.04069
   R14        3.46012   0.00027   0.00000  -0.00006  -0.00006   3.46007
   R15        3.61122  -0.00108   0.00000  -0.00179  -0.00180   3.60943
   R16        1.81521  -0.00547   0.00000  -0.00987  -0.00987   1.80534
   R17        1.85250  -0.00484   0.00000  -0.00973  -0.00973   1.84277
    A1        1.91487   0.00016   0.00000  -0.00264  -0.00265   1.91222
    A2        2.06532  -0.00057   0.00000  -0.00366  -0.00366   2.06166
    A3        1.87270   0.00027   0.00000   0.00128   0.00128   1.87399
    A4        2.34514   0.00030   0.00000   0.00237   0.00236   2.34751
    A5        2.07766   0.00198   0.00000   0.00456   0.00456   2.08223
    A6        2.06520  -0.00230   0.00000  -0.00685  -0.00685   2.05835
    A7        2.14032   0.00032   0.00000   0.00229   0.00229   2.14261
    A8        2.06244  -0.00021   0.00000  -0.00096  -0.00096   2.06149
    A9        2.08413  -0.00014   0.00000  -0.00102  -0.00102   2.08311
   A10        2.13661   0.00034   0.00000   0.00198   0.00198   2.13859
   A11        2.15286   0.00091   0.00000   0.00347   0.00347   2.15633
   A12        2.02165  -0.00014   0.00000   0.00026   0.00026   2.02191
   A13        2.10868  -0.00078   0.00000  -0.00373  -0.00373   2.10495
   A14        2.08831   0.00005   0.00000   0.00085   0.00085   2.08916
   A15        2.09381  -0.00008   0.00000  -0.00076  -0.00076   2.09306
   A16        2.10106   0.00003   0.00000  -0.00010  -0.00010   2.10096
   A17        2.05711  -0.00051   0.00000  -0.00200  -0.00200   2.05511
   A18        2.10400   0.00031   0.00000   0.00134   0.00134   2.10534
   A19        2.12207   0.00020   0.00000   0.00066   0.00066   2.12273
   A20        2.78431  -0.00091   0.00000   0.00011   0.00010   2.78441
   A21        2.25759   0.00043   0.00000   0.00257   0.00257   2.26015
   A22        2.11576   0.00012   0.00000   0.00195   0.00194   2.11770
   A23        1.86403  -0.00061   0.00000  -0.00652  -0.00650   1.85754
   A24        1.30192  -0.00284   0.00000  -0.00576  -0.00576   1.29616
   A25        2.52674  -0.00169   0.00000  -0.00340  -0.00343   2.52332
    D1        0.00739  -0.00002   0.00000  -0.00038  -0.00039   0.00700
    D2       -3.13430  -0.00004   0.00000  -0.00032  -0.00033  -3.13463
    D3        0.07175   0.00011   0.00000  -0.00315  -0.00315   0.06859
    D4       -0.00835   0.00011   0.00000   0.00201   0.00202  -0.00633
    D5       -3.13923  -0.00002   0.00000   0.00038   0.00037  -3.13886
    D6        0.00246   0.00000   0.00000   0.00031   0.00031   0.00277
    D7       -0.00357  -0.00007   0.00000  -0.00109  -0.00109  -0.00466
    D8        3.13812  -0.00005   0.00000  -0.00115  -0.00115   3.13697
    D9       -0.00196  -0.00001   0.00000  -0.00052  -0.00052  -0.00248
   D10        3.13867  -0.00001   0.00000  -0.00039  -0.00039   3.13827
   D11       -3.13562   0.00006   0.00000   0.00145   0.00145  -3.13417
   D12        0.00500   0.00005   0.00000   0.00158   0.00158   0.00658
   D13       -0.00000   0.00007   0.00000   0.00130   0.00130   0.00130
   D14       -0.09978   0.00005   0.00000   0.01078   0.01078  -0.08900
   D15        3.13428   0.00001   0.00000  -0.00053  -0.00053   3.13375
   D16        3.03451  -0.00001   0.00000   0.00895   0.00894   3.04345
   D17        3.14017   0.00003   0.00000   0.00011   0.00012   3.14029
   D18        0.00037   0.00002   0.00000  -0.00012  -0.00012   0.00025
   D19       -0.00152   0.00001   0.00000   0.00017   0.00017  -0.00134
   D20       -3.14132  -0.00001   0.00000  -0.00006  -0.00006  -3.14138
   D21       -0.00000  -0.00001   0.00000  -0.00048  -0.00048  -0.00048
   D22       -3.14062  -0.00001   0.00000  -0.00029  -0.00029  -3.14092
   D23        3.13975   0.00000   0.00000  -0.00024  -0.00024   3.13951
   D24       -0.00088   0.00000   0.00000  -0.00006  -0.00006  -0.00093
   D25        0.00051   0.00001   0.00000   0.00022   0.00022   0.00073
   D26        3.14103   0.00001   0.00000   0.00027   0.00027   3.14130
   D27       -3.14007   0.00001   0.00000   0.00009   0.00009  -3.13998
   D28        0.00046   0.00001   0.00000   0.00013   0.00014   0.00059
   D29        0.00048   0.00000   0.00000   0.00029   0.00029   0.00077
   D30       -3.14004   0.00001   0.00000   0.00024   0.00024  -3.13980
   D31        3.14109   0.00000   0.00000   0.00011   0.00011   3.14120
   D32        0.00058   0.00000   0.00000   0.00006   0.00006   0.00064
   D33       -1.92611   0.00037   0.00000   0.01486   0.01487  -1.91124
   D34        0.00552  -0.00013   0.00000  -0.00220  -0.00220   0.00332
   D35        1.52863  -0.00011   0.00000  -0.00228  -0.00229   1.52634
   D36        2.18999   0.00009   0.00000  -0.00740  -0.00738   2.18260
         Item               Value     Threshold  Converged?
 Maximum Force            0.009336     0.000450     NO 
 RMS     Force            0.002241     0.000300     NO 
 Maximum Displacement     0.033413     0.001800     NO 
 RMS     Displacement     0.008294     0.001200     NO 
 Predicted change in Energy=-3.949638D-04
 Lowest energy point so far.  Saving SCF results.
 GradGradGradGradGradGradGradGradGradGradGradGradGradGradGradGradGradGrad

 Leave Link  103 at Fri Aug 27 00:58:48 2021, MaxMem= 17179869184 cpu:        95.5
 (Enter /public3/home/sc51754/softwares/g09e01/l202.exe)
                          Input orientation:                          
 ---------------------------------------------------------------------
 Center     Atomic      Atomic             Coordinates (Angstroms)
 Number     Number       Type             X           Y           Z
 ---------------------------------------------------------------------
      1          8           0        1.203247    1.444008   -0.003428
      2          7           0        0.306088   -0.664966   -0.005612
      3          6           0        0.136339    0.649920   -0.000417
      4          6           0       -1.124299    1.248672    0.008217
      5          6           0       -0.780085   -1.439179   -0.005651
      6          6           0       -2.227270    0.433127    0.009771
      7          6           0       -2.063180   -0.947416    0.002233
      8          1           0        2.016788    0.899845   -0.015942
      9          1           0       -1.198636    2.326105    0.011932
     10          1           0       -0.598662   -2.508009   -0.013222
     11          1           0       -3.218820    0.866264    0.015761
     12          1           0       -2.909456   -1.618214    0.001553
     13          8           0        3.087020   -0.584275   -0.083115
     14          1           0        3.576285   -0.879058    0.682657
     15          1           0        2.207129   -1.000651   -0.025295
 ---------------------------------------------------------------------
                    Distance matrix (angstroms):
                    1          2          3          4          5
     1  O    0.000000
     2  N    2.291870   0.000000
     3  C    1.329991   1.325808   0.000000
     4  C    2.335757   2.389186   1.395631   0.000000
     5  C    3.499482   1.333858   2.281270   2.709837   0.000000
     6  C    3.576381   2.761150   2.373552   1.371737   2.366455
     7  C    4.048269   2.386057   2.718340   2.388375   1.374127
     8  H    0.978836   2.318456   1.897049   3.160489   3.646045
     9  H    2.558783   3.348284   2.142873   1.080001   3.788516
    10  H    4.343433   2.053153   3.242361   3.793337   1.084145
    11  H    4.459689   3.843189   3.362166   2.129158   3.356032
    12  H    5.127529   3.353872   3.797539   3.377257   2.136896
    13  O    2.769275   2.783181   3.199468   4.593826   3.961232
    14  H    3.390967   3.348692   3.825911   5.203613   4.445837
    15  H    2.642842   1.930551   2.648240   4.019824   3.019295
                    6          7          8          9         10
     6  C    0.000000
     7  C    1.390281   0.000000
     8  H    4.269721   4.478710   0.000000
     9  H    2.154405   3.385774   3.517662   0.000000
    10  H    3.362019   2.140211   4.295819   4.871269   0.000000
    11  H    1.082042   2.150610   5.235812   2.492447   4.272211
    12  H    2.161815   1.079886   5.532523   4.299380   2.476231
    13  O    5.411600   5.163692   1.830989   5.181331   4.158111
    14  H    5.987976   5.680776   2.466691   5.789888   4.535186
    15  H    4.660563   4.270729   1.910027   4.761084   3.185081
                   11         12         13         14         15
    11  H    0.000000
    12  H    2.503706   0.000000
    13  O    6.471279   6.085550   0.000000
    14  H    7.047294   6.563161   0.955345   0.000000
    15  H    5.738291   5.153789   0.975151   1.546146   0.000000
 Stoichiometry    C5H7NO2
 Framework group  C1[X(C5H7NO2)]
 Deg. of freedom    39
 Full point group                 C1      NOp   1
 RotChk:  IX=0 Diff= 9.28D-04
 Largest Abelian subgroup         C1      NOp   1
 Largest concise Abelian subgroup C1      NOp   1
                         Standard orientation:                         
 ---------------------------------------------------------------------
 Center     Atomic      Atomic             Coordinates (Angstroms)
 Number     Number       Type             X           Y           Z
 ---------------------------------------------------------------------
      1          8           0        1.202593    1.445045   -0.003224
      2          7           0        0.306670   -0.664454   -0.005996
      3          6           0        0.136151    0.650331   -0.000411
      4          6           0       -1.124837    1.248342    0.008441
      5          6           0       -0.779049   -1.439302   -0.006225
      6          6           0       -2.227330    0.432150    0.009793
      7          6           0       -2.062431   -0.948294    0.001846
      8          1           0        2.016453    0.901363   -0.015924
      9          1           0       -1.199805    2.325730    0.012474
     10          1           0       -0.596999   -2.508024   -0.014115
     11          1           0       -3.219134    0.864704    0.015942
     12          1           0       -2.908314   -1.619588    0.000998
     13          8           0        3.087552   -0.582110   -0.083567
     14          1           0        3.577015   -0.876830    0.682102
     15          1           0        2.207907   -0.999018   -0.025840
 ---------------------------------------------------------------------
 Rotational constants (GHZ):      4.0444642      1.4296762      1.0587881
 Leave Link  202 at Fri Aug 27 00:58:48 2021, MaxMem= 17179869184 cpu:         4.0
 (Enter /public3/home/sc51754/softwares/g09e01/l301.exe)
 Basis read from rwf:  (5D, 7F)
 No pseudopotential information found on rwf file.
 There are   385 symmetry adapted cartesian basis functions of A   symmetry.
 There are   338 symmetry adapted basis functions of A   symmetry.
   338 basis functions,   566 primitive gaussians,   385 cartesian basis functions
    30 alpha electrons       30 beta electrons
       nuclear repulsion energy       359.1475702288 Hartrees.
 IExCor= 4235 DFT=T Ex+Corr=M06 ExCW=0 ScaHFX=  0.270000
 ScaDFX=  1.000000  1.000000  1.000000  1.000000 ScalE2=  1.000000  1.000000
 IRadAn=      0 IRanWt=     -1 IRanGd=            0 ICorTp=0 IEmpDi=  4
 NAtoms=   15 NActive=   15 NUniq=   15 SFac= 1.00D+00 NAtFMM=   60 NAOKFM=F Big=F
 Integral buffers will be    131072 words long.
 Raffenetti 2 integral format.
 Two-electron integral symmetry is turned on.
 No density basis found on file   724.
 Leave Link  301 at Fri Aug 27 00:58:48 2021, MaxMem= 17179869184 cpu:         1.0
 (Enter /public3/home/sc51754/softwares/g09e01/l302.exe)
 NPDir=0 NMtPBC=     1 NCelOv=     1 NCel=       1 NClECP=     1 NCelD=      1
         NCelK=      1 NCelE2=     1 NClLst=     1 CellRange=     0.0.
 One-electron integrals computed using PRISM.
 NBasis=   338 RedAO= T EigKep=  1.42D-04  NBF=   338
 NBsUse=   338 1.00D-06 EigRej= -1.00D+00 NBFU=   338
 Precomputing XC quadrature grid using
 IXCGrd= 4 IRadAn=           0 IRanWt=          -1 IRanGd=           0 AccXCQ= 0.00D+00.
 Generated NRdTot=       0 NPtTot=           0 NUsed=           0 NTot=          32
 NSgBfM=   384   384   384   384   385 MxSgAt=    15 MxSgA2=    15.
 Leave Link  302 at Fri Aug 27 00:58:49 2021, MaxMem= 17179869184 cpu:        46.4
 (Enter /public3/home/sc51754/softwares/g09e01/l303.exe)
 DipDrv:  MaxL=1.
 Leave Link  303 at Fri Aug 27 00:58:49 2021, MaxMem= 17179869184 cpu:        11.3
 (Enter /public3/home/sc51754/softwares/g09e01/l401.exe)
 Initial guess from the checkpoint file:  "HY_H2O_M06_PC2_OPT_FREQ.chk"
 B after Tr=    -0.000000    0.000000    0.000000
         Rot=    1.000000   -0.000039    0.000023   -0.000523 Ang=  -0.06 deg.
 Guess basis will be translated and rotated to current coordinates.
 JPrj=2 DoOrth=T DoCkMO=T.
 Generating alternative initial guess.
 ExpMin= 7.41D-02 ExpMax= 1.48D+04 ExpMxC= 5.05D+02 IAcc=2 IRadAn=         4 AccDes= 0.00D+00
 Harris functional with IExCor= 1009 and IRadAn=       4 diagonalized for initial guess.
 HarFok:  IExCor= 1009 AccDes= 0.00D+00 IRadAn=         4 IDoV= 1 UseB2=F ITyADJ=14
 ICtDFT=  3500011 ScaDFX=  1.000000  1.000000  1.000000  1.000000
 FoFCou: FMM=F IPFlag=           0 FMFlag=      100000 FMFlg1=           0
         NFxFlg=           0 DoJE=T BraDBF=F KetDBF=T FulRan=T
         wScrn=  0.000000 ICntrl=     500 IOpCl=  0 I1Cent=   200000004 NGrid=           0
         NMat0=    1 NMatS0=      1 NMatT0=    0 NMatD0=    1 NMtDS0=    0 NMtDT0=    0
 Petite list used in FoFCou.
 Harris En= -399.804522715963    
 Leave Link  401 at Fri Aug 27 00:58:51 2021, MaxMem= 17179869184 cpu:        76.1
 (Enter /public3/home/sc51754/softwares/g09e01/l502.exe)
 Closed shell SCF:
 Using DIIS extrapolation, IDIIS=  1040.
 Integral symmetry usage will be decided dynamically.
 Keep R1 ints in memory in canonical form, NReq=1670404686.
 IVT=      490665 IEndB=      490665 NGot= 17179869184 MDV= 15538220534
 LenX= 15538220534 LenY= 15538071868
 Requested convergence on RMS density matrix=1.00D-08 within 128 cycles.
 Requested convergence on MAX density matrix=1.00D-06.
 Requested convergence on             energy=1.00D-06.
 No special actions if energy rises.
 FoFCou: FMM=F IPFlag=           0 FMFlag=           0 FMFlg1=           0
         NFxFlg=           0 DoJE=F BraDBF=F KetDBF=F FulRan=T
         wScrn=  0.000000 ICntrl=     600 IOpCl=  0 I1Cent=           0 NGrid=           0
         NMat0=    1 NMatS0=  57291 NMatT0=    0 NMatD0=    1 NMtDS0=    0 NMtDT0=    0
 Symmetry not used in FoFCou.
 Integral accuracy reduced to 1.0D-05 until final iterations.

 Cycle   1  Pass 0  IDiag  1:
 E= -399.881113262255    
 DIIS: error= 5.40D-04 at cycle   1 NSaved=   1.
 NSaved= 1 IEnMin= 1 EnMin= -399.881113262255     IErMin= 1 ErrMin= 5.40D-04
 ErrMax= 5.40D-04  0.00D+00 EMaxC= 1.00D-01 BMatC= 2.74D-04 BMatP= 2.74D-04
 IDIUse=3 WtCom= 9.95D-01 WtEn= 5.40D-03
 Coeff-Com:  0.100D+01
 Coeff-En:   0.100D+01
 Coeff:      0.100D+01
 Gap=     0.626 Goal=   None    Shift=    0.000
 RMSDP=5.65D-05 MaxDP=1.59D-03              OVMax= 2.35D-03

 Cycle   2  Pass 0  IDiag  1:
 E= -399.881279469398     Delta-E=       -0.000166207143 Rises=F Damp=F
 DIIS: error= 2.09D-04 at cycle   2 NSaved=   2.
 NSaved= 2 IEnMin= 2 EnMin= -399.881279469398     IErMin= 2 ErrMin= 2.09D-04
 ErrMax= 2.09D-04  0.00D+00 EMaxC= 1.00D-01 BMatC= 2.33D-05 BMatP= 2.74D-04
 IDIUse=3 WtCom= 9.98D-01 WtEn= 2.09D-03
 Coeff-Com:  0.147D+00 0.853D+00
 Coeff-En:   0.000D+00 0.100D+01
 Coeff:      0.147D+00 0.853D+00
 Gap=     0.223 Goal=   None    Shift=    0.000
 RMSDP=1.96D-05 MaxDP=1.16D-03 DE=-1.66D-04 OVMax= 1.50D-03

 Cycle   3  Pass 0  IDiag  1:
 E= -399.881285397706     Delta-E=       -0.000005928308 Rises=F Damp=F
 DIIS: error= 1.93D-04 at cycle   3 NSaved=   3.
 NSaved= 3 IEnMin= 3 EnMin= -399.881285397706     IErMin= 3 ErrMin= 1.93D-04
 ErrMax= 1.93D-04  0.00D+00 EMaxC= 1.00D-01 BMatC= 1.36D-05 BMatP= 2.33D-05
 IDIUse=3 WtCom= 9.98D-01 WtEn= 1.93D-03
 Coeff-Com:  0.185D-01 0.432D+00 0.550D+00
 Coeff-En:   0.000D+00 0.399D+00 0.601D+00
 Coeff:      0.184D-01 0.432D+00 0.550D+00
 Gap=     0.223 Goal=   None    Shift=    0.000
 RMSDP=9.70D-06 MaxDP=5.72D-04 DE=-5.93D-06 OVMax= 1.04D-03

 Initial convergence to 1.0D-05 achieved.  Increase integral accuracy.
[...]
   A11        2.15696   0.00000   0.00000   0.00001   0.00001   2.15697
   A12        2.02369  -0.00000   0.00000  -0.00002  -0.00002   2.02367
   A13        2.10254   0.00000   0.00000   0.00001   0.00001   2.10255
   A14        2.08877   0.00001   0.00000   0.00005   0.00005   2.08881
   A15        2.09343  -0.00000   0.00000  -0.00000  -0.00000   2.09343
   A16        2.10099  -0.00001   0.00000  -0.00004  -0.00004   2.10094
   A17        2.05453  -0.00000   0.00000  -0.00004  -0.00004   2.05448
   A18        2.10544   0.00001   0.00000   0.00010   0.00010   2.10554
   A19        2.12322  -0.00001   0.00000  -0.00005  -0.00005   2.12317
   A20        2.79373   0.00002   0.00000   0.00060   0.00060   2.79433
   A21        2.27327   0.00001   0.00000   0.00018   0.00018   2.27345
   A22        2.13215   0.00003   0.00000   0.00658   0.00658   2.13874
   A23        1.85925   0.00000   0.00000   0.00054   0.00053   1.85979
   A24        1.27728  -0.00000   0.00000   0.00064   0.00064   1.27792
   A25        2.49131  -0.00000   0.00000  -0.00066  -0.00066   2.49066
    D1        0.00960  -0.00001   0.00000  -0.00176  -0.00176   0.00784
    D2       -3.13228  -0.00000   0.00000  -0.00167  -0.00166  -3.13395
    D3        0.05577   0.00001   0.00000   0.00620   0.00620   0.06197
    D4       -0.00782   0.00001   0.00000   0.00225   0.00224  -0.00557
    D5       -3.13904   0.00000   0.00000  -0.00002  -0.00001  -3.13905
    D6        0.00286   0.00000   0.00000  -0.00012  -0.00011   0.00275
    D7       -0.00714   0.00000   0.00000   0.00067   0.00067  -0.00648
    D8        3.13476   0.00000   0.00000   0.00057   0.00057   3.13532
    D9       -0.00236  -0.00000   0.00000   0.00008   0.00008  -0.00229
   D10        3.13876  -0.00000   0.00000  -0.00000  -0.00000   3.13876
   D11       -3.13106  -0.00000   0.00000  -0.00082  -0.00082  -3.13188
   D12        0.01007  -0.00000   0.00000  -0.00090  -0.00090   0.00917
   D13        0.00255  -0.00000   0.00000   0.00019   0.00019   0.00274
   D14       -0.07021   0.00001   0.00000  -0.00122  -0.00122  -0.07142
   D15        3.13222   0.00000   0.00000   0.00103   0.00103   3.13324
   D16        3.05946   0.00001   0.00000  -0.00038  -0.00038   3.05908
   D17        3.14030  -0.00000   0.00000  -0.00002  -0.00002   3.14028
   D18        0.00044  -0.00000   0.00000  -0.00010  -0.00010   0.00034
   D19       -0.00160  -0.00000   0.00000   0.00008   0.00008  -0.00152
   D20       -3.14146   0.00000   0.00000  -0.00000  -0.00000  -3.14146
   D21       -0.00026  -0.00000   0.00000   0.00001   0.00001  -0.00026
   D22       -3.14085  -0.00000   0.00000  -0.00005  -0.00005  -3.14090
   D23        3.13954  -0.00000   0.00000   0.00008   0.00008   3.13962
   D24       -0.00105  -0.00000   0.00000   0.00003   0.00003  -0.00102
   D25        0.00059   0.00000   0.00000   0.00000   0.00000   0.00059
   D26        3.14134   0.00000   0.00000  -0.00002  -0.00002   3.14132
   D27       -3.14052   0.00000   0.00000   0.00008   0.00008  -3.14044
   D28        0.00024   0.00000   0.00000   0.00006   0.00006   0.00030
   D29        0.00074   0.00000   0.00000  -0.00004  -0.00004   0.00069
   D30       -3.14001   0.00000   0.00000  -0.00002  -0.00002  -3.14003
   D31        3.14132  -0.00000   0.00000   0.00001   0.00001   3.14133
   D32        0.00057   0.00000   0.00000   0.00003   0.00003   0.00060
   D33       -1.90566   0.00000   0.00000  -0.00688  -0.00688  -1.91254
   D34        0.00346  -0.00000   0.00000  -0.00161  -0.00161   0.00185
   D35        1.55332   0.00000   0.00000   0.00304   0.00305   1.55636
   D36        2.18401   0.00002   0.00000   0.00852   0.00851   2.19253
         Item               Value     Threshold  Converged?
 Maximum Force            0.000035     0.000450     YES
 RMS     Force            0.000010     0.000300     YES
 Maximum Displacement     0.005018     0.001800     NO 
 RMS     Displacement     0.001155     0.001200     YES
 Predicted change in Energy=-3.939656D-07
 GradGradGradGradGradGradGradGradGradGradGradGradGradGradGradGradGradGrad

 Leave Link  103 at Fri Aug 27 01:03:00 2021, MaxMem= 17179869184 cpu:        32.4
 (Enter /public3/home/sc51754/softwares/g09e01/l9999.exe)
 1\1\GINC-S1512\Freq\RM06\Gen\C5H7N1O2\SC51754\27-Aug-2021\0\\#P Geom=A
 llCheck Guess=TCheck SCRF=Check GenChk RM06/ChkBas Freq\\HY_H2O_M06_PC
 2_OPT_FREQ\\0,1\O,1.2009815442,1.4418046762,-0.0018307857\N,0.30084269
 21,-0.6647831159,-0.0047759369\C,0.1338513668,0.6502775765,0.000325317
 4\C,-1.1288127324,1.2495875728,0.0083222394\C,-0.7858055202,-1.4383538
 303,-0.0054786329\C,-2.2325604864,0.435102623,0.0090038595\C,-2.069116
 3492,-0.9465507652,0.0015039072\H,2.0138145103,0.8979930619,-0.0161154
 853\H,-1.2011141929,2.3272621607,0.0120666486\H,-0.6068379094,-2.50815
 03194,-0.0124731989\H,-3.2240922738,0.8689168462,0.0144125177\H,-2.915
 4490086,-1.6172984262,0.0003447268\O,3.0983519201,-0.5779050298,-0.078
 2718735\H,3.5976051006,-0.8744680916,0.6803511454\H,2.2308283387,-1.01
 7262939,-0.0279424488\\Version=EM64L-G09RevE.01\State=1-A\HF=-399.8819
 477\RMSD=4.125e-09\RMSF=2.386e-05\ZeroPoint=0.1189818\Thermal=0.126934
 \Dipole=-0.6412473,-0.5161209,0.5186811\DipoleDeriv=-1.5730803,-0.5305
 613,-0.0044927,-0.4564728,-0.6738625,0.0030324,-0.004276,0.0032198,-0.
 3482964,-0.8934104,0.1111555,-0.0024565,-0.3611041,-0.5939026,0.000209
 8,-0.0083556,0.0019734,-0.2569479,1.5788569,0.751005,0.000264,0.605171
 2,0.6765992,-0.0023482,-0.0053842,-0.0028215,0.2228372,-0.5506696,-0.3
 983356,-0.0015376,0.1066221,-0.005835,-0.0000257,0.0042374,0.000535,-0
 .156074,0.528118,-0.2527407,-0.0017566,0.2135751,0.3395981,0.0060221,-
 0.002418,0.0047708,-0.0073549,0.2496066,0.0987534,-0.0005763,0.053458,
 0.4435091,0.0023888,-0.0006189,0.0018234,-0.0746972,-0.2224143,0.30602
 33,0.0010791,0.0562148,-0.3860688,-0.0015128,0.0025443,-0.0012009,-0.1
 55754,0.7543805,-0.123683,0.0030051,-0.3101684,0.3562159,-0.0097923,0.
 0012246,-0.0094247,0.274742,0.0687815,0.005403,-0.0000029,0.0074774,-0
 .0425285,-0.000746,0.0007054,-0.0003273,0.1421739,0.0558157,0.0273531,
 -0.0001727,-0.0175951,-0.1049697,-0.0011921,-0.0007322,-0.0008255,0.09
 87661,-0.0463198,0.058256,0.0006576,0.0620115,0.0595958,-0.0004781,0.0
 001876,-0.0004732,0.1146533,-0.0161522,-0.0652382,-0.0001592,-0.065412
 ,0.0089135,-0.0003697,0.0000762,-0.0007852,0.1454416,-1.1466779,0.1503
 254,-0.0087209,0.1609718,-0.5800309,-0.1073503,0.0169361,-0.0908659,-0
 .4347934,0.3359948,-0.0170546,-0.0038817,0.0014418,0.2762805,0.0651994
 ,-0.0152328,0.0511864,0.2182799,0.8771704,-0.1206614,0.0187512,-0.0561
 912,0.2264859,0.0469629,0.0111061,0.0432154,0.2170238\Polar=96.1833526
 ,2.5990974,83.5070028,0.9234644,-0.1501653,43.9905605\PG=C01 [X(C5H7N1
 O2)]\NImag=0\\0.64915579,-0.04348554,0.42499927,-0.00683812,0.00380739
 ,0.04012628,0.01455320,-0.05248946,-0.00005156,0.48228424,-0.02503556,
 -0.06580678,-0.00027970,0.12010334,0.63097151,0.00005721,0.00001420,0.
 00743650,-0.00038678,0.00192159,0.09065869,-0.27308825,-0.08746962,0.0
 0163106,-0.15330001,0.02015872,0.00008015,0.75246933,-0.12520553,-0.18
 310025,0.00038625,0.05456069,-0.31178489,-0.00107298,0.02332566,0.6937
 2910,0.00055047,-0.00050932,-0.05411153,0.00049197,-0.00076613,-0.0717
 9505,-0.00276496,0.00194217,0.19126654,-0.06988431,0.00550258,0.000266
 25,0.03146630,0.08418777,0.00040624,-0.24596600,0.03934114,0.00107020,
 0.68204788,-0.03140449,0.01706428,0.00023913,0.03257463,-0.03024048,-0
 .00032190,0.10987849,-0.16096151,-0.00096259,0.03690678,0.76903160,0.0
 0042366,0.00016959,0.01025848,-0.00006673,-0.00042621,0.01974111,0.001
 30583,-0.00086481,-0.07743620,-0.00227605,0.00231333,0.12159077,-0.009
 74185,0.00870123,0.00001645,-0.26994898,-0.09270915,0.00033663,0.05173
 857,-0.08829767,-0.00058830,-0.07463526,-0.00139978,0.00024275,0.68217
 044,0.00178129,0.00129254,-0.00004954,-0.12168258,-0.19313333,-0.00025
 970,-0.02675568,-0.07280497,-0.00016162,-0.01236613,-0.00059478,0.0000
 4419,-0.02861130,0.75233554,0.00007992,-0.00005076,0.01024293,-0.00002
 028,-0.00048981,-0.06282537,-0.00034832,0.00003131,-0.00338917,0.00017
 141,0.00005952,-0.00513392,-0.00175668,0.00339037,0.15663463,0.0034109
 3,0.00391090,0.00009030,-0.00936931,-0.02543577,-0.00013300,-0.0579761
 3,0.00696756,0.00028914,-0.29494624,-0.15108932,0.00022864,0.02168884,
 0.03830821,0.00017796,0.75160469,0.01754730,-0.00513613,-0.00003361,-0
 .03479146,-0.06700223,-0.00018600,-0.04872545,0.07715876,0.00049645,-0
 .08892452,-0.21975468,-0.00025685,0.09374975,-0.01205715,-0.00043608,-
 0.01304802,0.67495970,0.00006707,-0.00003752,0.00442498,-0.00012009,-0
 .00018839,-0.00770808,0.00002162,0.00031331,0.00221102,0.00047261,-0.0
 0011237,-0.05785572,0.00036430,-0.00018534,0.00824431,-0.00229626,0.00
 242583,0.14302676,0.00340223,-0.00656208,-0.00001948,-0.07194012,-0.05
 902033,-0.00000382,-0.03205931,0.05274265,0.00025934,0.04794296,-0.025
 45148,-0.00021720,-0.31571611,0.11561012,0.00137878,-0.12907733,-0.009
 66375,0.00018608,0.73184188,-0.01307831,-0.00034107,-0.00002021,0.0067
 6384,0.06267206,0.00022847,0.03948252,-0.04670114,-0.00032912,-0.06750
 994,-0.03614099,0.00006737,0.04442498,-0.16447571,-0.00065240,0.056565
 34,-0.32236186,-0.00146193,0.04679281,0.68788630,-0.00004212,0.0000384
 2,-0.00133255,0.00024036,0.00037877,0.02185829,0.00025271,-0.00037560,
 -0.00892747,-0.00041812,-0.00015022,0.00751474,0.00103431,-0.00086399,
 -0.06732922,0.00046227,-0.00129341,-0.06277044,-0.00166187,0.00280408,
 0.12074050,-0.30257635,0.16632892,0.00480276,0.00145383,0.00921250,-0.
 00010465,-0.05130735,0.00520084,0.00054153,0.00320763,-0.00280041,-0.0
 0002810,0.00038393,0.00008130,-0.00003218,-0.00169436,-0.00093613,0.00
 001834,0.00052634,0.00188550,0.00001831,0.34571656,0.20336566,-0.18496
 508,-0.00428178,0.00272293,-0.00231182,0.00000837,-0.01916807,0.025349
 74,0.00048416,-0.00807976,-0.00385956,0.00003736,-0.00214547,-0.001549
 61,-0.00001736,0.00047432,0.00350059,-0.00001670,0.00121101,-0.0023508
 3,-0.00000316,-0.17095941,0.17301400,0.00615145,-0.00408580,-0.0166085
 8,-0.00012226,0.00004875,-0.00289875,-0.00027631,-0.00012836,-0.000844
 84,0.00005602,-0.00003425,0.00380888,0.00003517,-0.00001149,-0.0006269
 1,-0.00004265,-0.00004336,0.00146900,-0.00001767,0.00003473,0.00043482
 ,-0.00537709,0.00513811,0.02169077,0.00196894,-0.00090506,-0.00002411,
 -0.00585906,0.00532780,0.00004980,0.00517361,0.02734939,0.00007502,-0.
 05933500,0.02141103,0.00018803,-0.00228326,-0.00139371,0.00000349,0.00
 715656,-0.02593251,-0.00010391,-0.00349028,-0.00275193,0.00003503,-0.0
 0013775,0.00010349,-0.00000682,0.05484620,-0.00066616,0.00100344,0.000
 01711,0.00290728,-0.00028450,-0.00003173,-0.00408694,-0.01056661,-0.00
 001549,0.02360013,-0.34268856,-0.00108732,0.00056981,0.00109011,0.0000
 0809,0.00328814,-0.01191615,-0.00006050,-0.00330221,0.00101801,-0.0000
 0589,0.00013731,-0.00008441,0.00000391,-0.02256840,0.36216970,-0.00001
 972,0.00000109,-0.00203740,0.00007029,-0.00007970,0.00555855,-0.000061
 05,-0.00014778,0.00229051,0.00021793,-0.00098851,-0.03375505,0.0000390
 6,0.00002553,-0.00041871,-0.00002349,-0.00000159,0.00205644,0.00001207
 ,-0.00001746,0.00875311,-0.00000440,0.00000575,-0.00063353,-0.00018869
 ,0.00116602,0.02403285,-0.00027740,-0.00119516,0.00000327,0.00163978,-
 0.03296776,-0.00020496,-0.00224052,-0.00386833,0.00002570,-0.00065256,
 -0.00078466,-0.00000375,-0.06660240,0.05645599,0.00039971,-0.00549396,
 0.00166580,0.00005176,0.00084199,0.02815265,0.00017730,0.00036859,-0.0
 0012107,-0.00000229,0.00015756,-0.00001285,-0.00000680,0.07164178,-0.0
 0039529,-0.00112651,0.00000144,-0.00830206,-0.02149290,-0.00008144,-0.
 00179067,0.00192681,-0.00007798,0.00008556,0.00042379,0.00001040,0.056
 05822,-0.31700392,-0.00181695,0.00252099,0.00061508,-0.00005657,-0.000
 71625,-0.00710468,-0.00008095,0.00036879,0.00000294,-0.00000519,0.0001
 1732,-0.00010795,0.00000956,-0.04805318,0.34414361,-0.00000885,0.00000
 125,0.00032816,0.00000607,0.00008468,-0.00296172,0.00006591,-0.0000407
 4,0.00988829,-0.00002727,0.00001249,-0.00072552,0.00033780,-0.00196361
 ,-0.04209764,0.00005241,-0.00000414,0.00755028,0.00005176,-0.00017006,
 0.00737781,-0.00000514,-0.00000565,-0.00019309,-0.00000952,0.00000397,
 -0.00159992,-0.00040372,0.00207040,0.02664733,-0.00168160,0.00067618,0
 .00001584,0.00019454,-0.00077434,-0.00001406,-0.00121633,-0.00356045,0
 .00002538,-0.01795391,0.01206862,0.00013287,0.00191287,0.00067614,0.00
 002104,-0.29356659,0.10269143,0.00133467,0.00049137,-0.00037906,0.0000
 1256,0.00001148,-0.00036854,-0.00000741,0.00110433,-0.00004161,-0.0000
 2596,-0.00010077,-0.00012040,-0.00000230,0.31043775,-0.00084502,0.0006
 0701,0.00001381,-0.00084306,-0.00048579,0.00001427,-0.00358573,-0.0015
 7156,-0.00003689,-0.01732014,0.01155883,0.00007552,0.00009192,-0.00629
 743,-0.00007053,0.10335068,-0.10359870,-0.00060681,0.02907171,-0.00591
 475,-0.00014959,-0.00018593,-0.00019033,0.00000051,0.00068286,0.000739
 48,0.00002230,0.00148449,-0.00046094,-0.00000121,-0.11124423,0.1043068
 8,-0.00001365,-0.00001090,-0.00047020,-0.00001181,0.00001409,-0.003104
 61,0.00003863,-0.00002204,0.01021264,0.00002002,0.00000878,0.00549697,
 0.00001785,-0.00008159,0.00728349,0.00131008,-0.00059689,-0.04156076,0
 .00016699,-0.00006433,0.00517882,-0.00000146,-0.00000103,-0.00045725,-
 0.00002321,0.00001429,-0.00478608,0.00000574,-0.00000012,-0.00050486,-
 0.00148603,0.00071152,0.02627203,0.00033015,-0.00038664,-0.00000384,-0
 .00509528,0.00226333,0.00005433,-0.00052150,0.00216008,0.00000811,0.00
 122446,0.00157987,0.00001819,-0.01573876,-0.02182303,-0.00007952,0.007
 66558,0.00492304,0.00001085,-0.23364170,-0.13875736,-0.00014530,0.0000
 5819,0.00021995,-0.00000313,0.00026890,0.00036006,0.00000057,0.0007423
 2,0.00019914,-0.00001151,0.00043883,-0.00061148,-0.00001448,0.24419396
 ,-0.00027445,0.00043539,0.00000865,0.00331142,0.00091155,-0.00005526,0
 .00146946,-0.00151315,-0.00000947,0.00213223,-0.00481718,-0.00006735,0
 .00990594,0.01074018,0.00003456,-0.02544003,-0.01307228,-0.00000152,-0
 .13963429,-0.16674088,-0.00032562,0.00002320,-0.00010934,0.00000070,-0
 .00120820,-0.00049471,0.00000107,-0.00062754,0.00036373,0.00002394,0.0
 0028153,0.00126572,0.00002504,0.15007922,0.17293382,-0.00001656,0.0000
 0183,-0.00127728,0.00006390,-0.00004177,0.00828585,0.00001589,-0.00001
 564,0.00021909,0.00002928,-0.00005328,0.00632873,0.00010140,0.00013922
 ,-0.00053138,-0.00014174,-0.00006938,0.00097949,-0.00018077,-0.0003733
 5,-0.03189522,0.00000519,-0.00000238,-0.00002977,-0.00000774,-0.000005
 01,0.00052970,-0.00001447,0.00002451,-0.00357589,-0.00001311,0.0000285
 9,-0.00352714,0.00016140,0.00036394,0.02444827,-0.00730194,0.00944623,
 0.00001469,-0.01700589,-0.00230425,-0.00078937,0.00105874,-0.00172990,
 0.00011870,-0.00071986,0.00053184,0.00010623,0.00055255,0.00539743,0.0
 0002425,-0.00016047,-0.00016041,-0.00001409,-0.00187802,-0.00063580,0.
 00009042,-0.00308856,-0.00515724,-0.00001978,-0.00026484,0.00020876,-0
 .00000216,-0.00016258,-0.00067730,-0.00005114,-0.00017268,0.00001481,-
 0.00001436,-0.00051856,0.00009160,0.00000873,0.56908746,0.01942438,-0.
 00392746,0.00160929,-0.00121200,0.00705750,-0.00032038,-0.01096268,-0.
 00997060,-0.00011628,0.00334749,0.00179621,-0.00010548,0.00135642,0.00
 019498,-0.00000388,-0.00051954,-0.00160766,-0.00001570,-0.00045418,0.0
 0137031,0.00001604,-0.00814524,0.00158176,-0.00480407,-0.00043832,0.00
 016695,-0.00000352,0.00028095,0.00014054,-0.00000995,0.00012814,0.0000
 6916,0.00001360,-0.00003240,0.00006995,0.00000231,0.10819172,0.1942097
 7,-0.00142385,0.00214337,0.00458221,-0.00195923,0.00008287,0.00553639,
 -0.00012313,-0.00051086,-0.00081402,0.00005812,0.00006512,-0.00061260,
 0.00005603,0.00009662,0.00014490,-0.00003736,-0.00009208,0.00006704,-0
 .00008314,0.00006397,-0.00049722,0.00066143,-0.00260952,-0.00818975,-0
 .00000922,0.00001138,0.00000415,0.00002375,-0.00001130,0.00015787,0.00
 000253,0.00000384,0.00007689,-0.00002169,-0.00000053,-0.00006026,0.201
 42439,-0.16986675,0.38762304,0.00112437,0.00023465,0.00050193,-0.00150
 976,-0.00049889,0.00161152,-0.00074043,-0.00041267,-0.00026631,0.00017
 242,0.00003978,-0.00016262,-0.00050908,0.00014652,0.00000591,-0.000007
 77,-0.00003858,0.00001969,0.00002750,-0.00010340,-0.00014282,-0.001622
 83,0.00067699,-0.00093721,0.00000760,0.00000605,-0.00000063,-0.0000520
 5,-0.00003359,0.00005197,0.00002072,-0.00000521,0.00002299,-0.00000848
 ,0.00001423,-0.00001427,-0.17128284,0.05526249,-0.19647020,0.19003378,
 0.00168724,-0.00171520,-0.00131318,-0.00127091,0.00025569,0.00026594,-
 0.00010632,-0.00052639,0.00010781,0.00005596,0.00008708,0.00005302,0.0
 0007829,0.00038519,-0.00000914,0.00002348,-0.00000822,0.00000812,-0.00
 009170,-0.00006765,-0.00000398,-0.00078052,0.00236192,0.00360307,-0.00
 001925,0.00000874,0.00000576,-0.00005056,-0.00007481,-0.00001652,0.000
 00733,0.00000086,-0.00000906,-0.00003115,0.00000463,0.00000160,0.08413
 179,-0.07260250,0.15037308,-0.07213529,0.06651403,0.00205877,-0.001720
 00,-0.00023090,0.00148750,0.00003127,-0.00017157,-0.00047541,-0.000064
 27,0.00005433,0.00012433,-0.00001470,0.00000197,-0.00006029,-0.0001652
 5,0.00000084,0.00002017,0.00000197,-0.00000732,0.00011146,0.00001406,0
 .00000279,-0.00145708,0.00233173,0.00034373,0.00000776,-0.00000926,0.0
 0001124,-0.00002114,0.00003355,0.00001940,0.00001107,-0.00000237,0.000
 00425,0.00003039,0.00000244,0.00000878,-0.23843673,0.13215106,-0.34887
 109,0.23065238,-0.13572041,0.34955252,-0.00939392,-0.00230713,-0.00040
 546,0.00243652,-0.00250743,-0.00095926,0.00797558,0.01142654,0.0001640
 1,-0.00196850,-0.00206091,0.00010825,-0.00327148,-0.00582458,-0.000025
 50,0.00076557,0.00164351,-0.00001264,0.00272862,-0.00085183,0.00008696
 ,0.00870065,-0.00277479,0.00056999,0.00068649,-0.00039938,-0.00000701,
 0.00019021,0.00073872,-0.00004647,0.00007999,-0.00005567,-0.00001729,0
 .00060189,-0.00012432,0.00000286,-0.36814250,-0.16622724,-0.00209845,-
 0.01565314,-0.01149837,0.00594683,0.37426403,-0.00341552,0.00071653,-0
 .00010503,-0.00235260,-0.00932558,-0.00012343,0.00833632,0.00133666,-0
 .00004571,-0.00095915,-0.00090406,0.00003723,-0.00177320,0.00187836,0.
 00002307,0.00012305,0.00028090,-0.00000388,-0.00053204,-0.00074714,0.0
 0001510,0.00056928,-0.01038998,0.00028273,0.00022549,-0.00005353,0.000
 00149,-0.00035877,-0.00024479,0.00001515,-0.00004074,-0.00002845,-0.00
 000134,-0.00014264,0.00002257,-0.00000119,-0.19734928,-0.11854891,0.02
 025078,0.01684691,0.00537662,0.00313020,0.18082289,0.13063081,-0.00102
 569,0.00023717,-0.00133110,0.00037865,-0.00029028,-0.00761022,0.000637
 37,0.00057004,0.00117585,-0.00017096,-0.00006056,0.00077735,-0.0001764
 8,0.00004621,-0.00019879,0.00004351,0.00008915,-0.00012697,0.00001745,
 -0.00012381,0.00089124,0.00096252,-0.00106790,0.00273526,0.00001410,-0
 .00000956,-0.00000585,-0.00003009,-0.00001936,-0.00031050,-0.00000709,
 -0.00000296,-0.00011418,-0.00000437,-0.00000059,0.00009702,0.03754023,
 0.04145373,-0.03914755,-0.03487232,-0.01734611,-0.00071898,-0.00330683
 ,-0.02347516,0.04388742\\0.00002770,0.00000109,0.00002906,0.00000837,0
 .00003317,0.00001562,-0.00004653,-0.00005586,-0.00000921,0.00002129,0.
 00001141,-0.00000375,-0.00001643,-0.00001122,-0.00000439,-0.00001373,-
 0.00000379,0.00000089,0.00000728,0.00001134,-0.00000270,-0.00001536,0.
 00008611,-0.00001248,0.00000115,-0.00000023,-0.00000115,-0.00000496,0.
 00000166,0.00000351,0.00000476,0.00000240,-0.00000088,0.00000316,-0.00
 000535,0.00000001,0.00001448,-0.00007057,-0.00002473,-0.00001629,0.000
 02149,0.00001556,0.00002512,-0.00002164,-0.00000536\\\@


 WHERE THERE IS MUCH DESIRE TO LEARN, THERE OF NECESSITY WILL BE
 MUCH ARGUING, MUCH WRITING, MANY OPINIONS; FOR OPINION IN GOOD MEN
 IS BUT KNOWLEDGE IN THE MAKING. -- JOHN MILTON.
 Job cpu time:       0 days  1 hours 17 minutes  8.3 seconds.
 File lengths (MBytes):  RWF=    137 Int=      0 D2E=      0 Chk=      9 Scr=      1
 Normal termination of Gaussian 09 at Fri Aug 27 01:03:00 2021.
