 Entering Gaussian System, Link 0=g09
 AtFile(1): pc-2.gbs
            -H     0
            S    4   1.00
                  0.754230D+02           0.240650D-02
                  0.113500D+02           0.184870D-01
                  0.259930D+01           0.897420D-01
                  0.735130D+00           0.281110D+00
            S    1   1.00
                  0.231670D+00           0.100000D+01
            S    1   1.00
                  0.741470D-01           0.100000D+01
            P    1   1.00
                  0.160000D+01           0.100000D+01
            P    1   1.00
                  0.450000D+00           0.100000D+01
            D    1   1.00
                  0.125000D+01           0.100000D+01
            ****
            -C     0
            S    7   1.00
                  0.785710D+04           0.568250D-03
                  0.117870D+04           0.439150D-02
                  0.268320D+03           0.225040D-01
                  0.759480D+02           0.866530D-01
                  0.245590D+02           0.244050D+00
                  0.862120D+01           0.441480D+00
                  0.312780D+01           0.353320D+00
            S    7   1.00
                  0.117870D+04          -0.594920D-06
                  0.268320D+03          -0.627480D-04
                  0.759480D+02          -0.757730D-03
                  0.245590D+02          -0.733080D-02
                  0.862120D+01          -0.389320D-01
                  0.312780D+01          -0.889080D-01
                  0.822020D+00           0.216890D+00
            S    1   1.00
                  0.330170D+00           0.100000D+01
            S    1   1.00
                  0.114630D+00           0.100000D+01
            P    4   1.00
                  0.337750D+02           0.602940D-02
                  0.767660D+01           0.432280D-01
                  0.223570D+01           0.163010D+00
                  0.764470D+00           0.365040D+00
            P    1   1.00
                  0.262320D+00           0.100000D+01
            P    1   1.00
                  0.846380D-01           0.100000D+01
            D    1   1.00
                  0.140000D+01           0.100000D+01
            D    1   1.00
                  0.450000D+00           0.100000D+01
            F    1   1.00
                  0.950000D+00           0.100000D+01
            ****
            -N     0
            S    7   1.00
                  0.111010D+05           0.545700D-03
                  0.166530D+04           0.421810D-02
                  0.379080D+03           0.216450D-01
                  0.107300D+03           0.837760D-01
                  0.347470D+02           0.238810D+00
                  0.122490D+02           0.439940D+00
                  0.447430D+01           0.363640D+00
            S    7   1.00
                  0.166530D+04          -0.150060D-05
                  0.379080D+03          -0.587530D-04
                  0.107300D+03          -0.774530D-03
                  0.347470D+02          -0.721610D-02
                  0.122490D+02          -0.393380D-01
                  0.447430D+01          -0.906110D-01
                  0.124040D+01           0.198820D+00
            S    1   1.00
                  0.487430D+00           0.100000D+01
            S    1   1.00
                  0.164840D+00           0.100000D+01
            P    4   1.00
                  0.479340D+02           0.617060D-02
                  0.109990D+02           0.442600D-01
                  0.324720D+01           0.168250D+00
                  0.111140D+01           0.368480D+00
            P    1   1.00
                  0.379880D+00           0.100000D+01
            P    1   1.00
                  0.120680D+00           0.100000D+01
            D    1   1.00
                  0.180000D+01           0.100000D+01
            D    1   1.00
                  0.550000D+00           0.100000D+01
            F    1   1.00
                  0.102000D+01           0.100000D+01
            ****
            -O     0
            S    7   1.00
                  0.147820D+05           0.535190D-03
                  0.221730D+04           0.413750D-02
                  0.504740D+03           0.212450D-01
                  0.142870D+03           0.824530D-01
                  0.463000D+02           0.236710D+00
                  0.163370D+02           0.440390D+00
                  0.598280D+01           0.364650D+00
            S    7   1.00
                  0.221730D+04          -0.192750D-05
                  0.504740D+03          -0.579640D-04
                  0.142870D+03          -0.794940D-03
                  0.463000D+02          -0.731250D-02
                  0.163370D+02          -0.405740D-01
                  0.598280D+01          -0.915940D-01
                  0.167180D+01           0.209400D+00
            S    1   1.00
                  0.646620D+00           0.100000D+01
            S    1   1.00
                  0.216690D+00           0.100000D+01
            P    4   1.00
                  0.604240D+02           0.689490D-02
                  0.139350D+02           0.490050D-01
                  0.415310D+01           0.182550D+00
                  0.141580D+01           0.376330D+00
            P    1   1.00
                  0.475490D+00           0.100000D+01
            P    1   1.00
                  0.145290D+00           0.100000D+01
            D    1   1.00
                  0.220000D+01           0.100000D+01
            D    1   1.00
                  0.650000D+00           0.100000D+01
            F    1   1.00
                  0.110000D+01           0.100000D+01
            ****
 Initial command:
 /public3/home/sc51754/softwares/g09e01/l1.exe "./Gau-34320.inp" -scrdir="./"
 Entering Link 1 = /public3/home/sc51754/softwares/g09e01/l1.exe PID=     34321.
  
 Copyright (c) 1988,1990,1992,1993,1995,1998,2003,2009,2015,
            Gaussian, Inc.  All Rights Reserved.
  
 This is part of the Gaussian(R) 09 program.  It is based on
 the Gaussian(R) 03 system (copyright 2003, Gaussian, Inc.),
 the Gaussian(R) 98 system (copyright 1998, Gaussian, Inc.),
 the Gaussian(R) 94 system (copyright 1995, Gaussian, Inc.),
 the Gaussian 92(TM) system (copyright 1992, Gaussian, Inc.),
 the Gaussian 90(TM) system (copyright 1990, Gaussian, Inc.),
 the Gaussian 88(TM) system (copyright 1988, Gaussian, Inc.),
 the Gaussian 86(TM) system (copyright 1986, Carnegie Mellon
 University), and the Gaussian 82(TM) system (copyright 1983,
 Carnegie Mellon University). Gaussian is a federally registered
 trademark of Gaussian, Inc.
  
 This software contains proprietary and confidential information,
 including trade secrets, belonging to Gaussian, Inc.
  
 This software is provided under written license and may be
 used, copied, transmitted, or stored only in accord with that
 written license.
  
 The following legend is applicable only to US Government
 contracts under FAR:
  
                    RESTRICTED RIGHTS LEGEND
  
 Use, reproduction and disclosure by the US Government is
 subject to restrictions as set forth in subparagraphs (a)
 and (c) of the Commercial Computer Software - Restricted
 Rights clause in FAR 52.227-19.
  
 Gaussian, Inc.
 340 Quinnipiac St., Bldg. 40, Wallingford CT 06492
  
  
 ---------------------------------------------------------------
 Warning -- This program may not be used in any manner that
 competes with the business of Gaussian, Inc. or will provide
 assistance to any competitor of Gaussian, Inc.  The licensee
 of this program is prohibited from giving any competitor of
 Gaussian, Inc. access to this program.  By using this program,
 the user acknowledges that Gaussian, Inc. is engaged in the
 business of creating and licensing software in the field of
 computational chemistry and represents and warrants to the
 licensee that it is not a competitor of Gaussian, Inc. and that
 it will not use this program in any manner prohibited above.
 ---------------------------------------------------------------
  

 Cite this work as:
 Gaussian 09, Revision E.01,
 M. J. Frisch, G. W. Trucks, H. B. Schlegel, G. E. Scuseria, 
 M. A. Robb, J. R. Cheeseman, G. Scalmani, V. Barone, B. Mennucci, 
 G. A. Petersson, H. Nakatsuji, M. Caricato, X. Li, H. P. Hratchian, 
 A. F. Izmaylov, J. Bloino, G. Zheng, J. L. Sonnenberg, M. Hada, 
 M. Ehara, K. Toyota, R. Fukuda, J. Hasegawa, M. Ishida, T. Nakajima, 
 Y. Honda, O. Kitao, H. Nakai, T. Vreven, J. A. Montgomery, Jr., 
 J. E. Peralta, F. Ogliaro, M. Bearpark, J. J. Heyd, E. Brothers, 
 K. N. Kudin, V. N. Staroverov, T. Keith, R. Kobayashi, J. Normand, 
 K. Raghavachari, A. Rendell, J. C. Burant, S. S. Iyengar, J. Tomasi, 
 M. Cossi, N. Rega, J. M. Millam, M. Klene, J. E. Knox, J. B. Cross, 
 V. Bakken, C. Adamo, J. Jaramillo, R. Gomperts, R. E. Stratmann, 
 O. Yazyev, A. J. Austin, R. Cammi, C. Pomelli, J. W. Ochterski, 
 R. L. Martin, K. Morokuma, V. G. Zakrzewski, G. A. Voth, 
 P. Salvador, J. J. Dannenberg, S. Dapprich, A. D. Daniels, 
 O. Farkas, J. B. Foresman, J. V. Ortiz, J. Cioslowski, 
 and D. J. Fox, Gaussian, Inc., Wallingford CT, 2013.
 
 ******************************************
 Gaussian 09:  EM64L-G09RevE.01 30-Nov-2015
                27-Aug-2021 
 ******************************************
 %nprocshared=64
 Will use up to   64 processors via shared memory.
 %mem=128GB
 %chk=HY_H2O_M062X_PC2_OPT_FREQ.chk
 ---------------------
 #p opt freq M062X/gen
 ---------------------
 1/14=-1,18=20,19=15,26=3,38=1/1,3;
 2/9=110,12=2,17=6,18=5,40=1/2;
 3/5=7,11=2,16=1,25=1,30=1,71=1,74=-55/1,2,3;
 4//1;
 5/5=2,38=5/2;
 6/7=2,8=2,9=2,10=2,28=1/1;
 7//1,2,3,16;
 1/14=-1,18=20,19=15,26=3/3(2);
 2/9=110/2;
 99//99;
 2/9=110/2;
 3/5=7,6=1,11=2,16=1,25=1,30=1,71=1,74=-55,82=7/1,2,3;
 4/5=5,16=3,69=1/1;
 5/5=2,38=5/2;
 7//1,2,3,16;
 1/14=-1,18=20,19=15,26=3/3(-5);
 2/9=110/2;
 6/7=2,8=2,9=2,10=2,19=2,28=1/1;
 99/9=1/99;
 Leave Link    1 at Fri Aug 27 01:03:01 2021, MaxMem= 17179869184 cpu:         6.3
 (Enter /public3/home/sc51754/softwares/g09e01/l101.exe)
 -------------------------
 HY_H2O_M062X_PC2_OPT_FREQ
 -------------------------
 Symbolic Z-matrix:
 Charge =  0 Multiplicity = 1
 O                     1.216     1.44855  -0.00262 
 N                     0.30594  -0.66619  -0.00547 
 C                     0.13701   0.65516  -0.00009 
 C                    -1.12976   1.25518   0.00826 
 C                    -0.78318  -1.4465   -0.00563 
 C                    -2.23812   0.43549   0.00911 
 C                    -2.07199  -0.951     0.00173 
 H                     2.03022   0.90023  -0.0153 
 H                    -1.20631   2.3321    0.01208 
 H                    -0.59906  -2.51382  -0.01294 
 H                    -3.22982   0.86768   0.01456 
 H                    -2.91795  -1.62195   0.00074 
 O                     3.09571  -0.58722  -0.08503 
 H                     3.59397  -0.87925   0.68253 
 H                     2.20982  -1.00228  -0.02248 
 
 Add virtual bond connecting atoms O13        and H8         Dist= 3.46D+00.
 Add virtual bond connecting atoms H15        and N2         Dist= 3.65D+00.
 Add virtual bond connecting atoms H15        and H8         Dist= 3.61D+00.
 Add atom     13 valence  3 ND=      2 dihedral       8     13     14     15
 NAtoms=     15 NQM=       15 NQMF=       0 NMMI=      0 NMMIF=      0
                NMic=       0 NMicF=      0.
                    Isotopes and Nuclear Properties:
 (Nuclear quadrupole moments (NQMom) in fm**2, nuclear magnetic moments (NMagM)
  in nuclear magnetons)

  Atom         1           2           3           4           5           6           7           8           9          10
 IAtWgt=          16          14          12          12          12          12          12           1           1           1
 AtmWgt=  15.9949146  14.0030740  12.0000000  12.0000000  12.0000000  12.0000000  12.0000000   1.0078250   1.0078250   1.0078250
 NucSpn=           0           2           0           0           0           0           0           1           1           1
 AtZEff=   0.0000000   0.0000000   0.0000000   0.0000000   0.0000000   0.0000000   0.0000000   0.0000000   0.0000000   0.0000000
 NQMom=    0.0000000   2.0440000   0.0000000   0.0000000   0.0000000   0.0000000   0.0000000   0.0000000   0.0000000   0.0000000
 NMagM=    0.0000000   0.4037610   0.0000000   0.0000000   0.0000000   0.0000000   0.0000000   2.7928460   2.7928460   2.7928460
 AtZNuc=   8.0000000   7.0000000   6.0000000   6.0000000   6.0000000   6.0000000   6.0000000   1.0000000   1.0000000   1.0000000

  Atom        11          12          13          14          15
 IAtWgt=           1           1          16           1           1
 AtmWgt=   1.0078250   1.0078250  15.9949146   1.0078250   1.0078250
 NucSpn=           1           1           0           1           1
 AtZEff=   0.0000000   0.0000000   0.0000000   0.0000000   0.0000000
 NQMom=    0.0000000   0.0000000   0.0000000   0.0000000   0.0000000
 NMagM=    2.7928460   2.7928460   0.0000000   2.7928460   2.7928460
 AtZNuc=   1.0000000   1.0000000   8.0000000   1.0000000   1.0000000
 Leave Link  101 at Fri Aug 27 01:03:01 2021, MaxMem= 17179869184 cpu:         6.7
 (Enter /public3/home/sc51754/softwares/g09e01/l103.exe)

 GradGradGradGradGradGradGradGradGradGradGradGradGradGradGradGradGradGrad
 Berny optimization.
 Initialization pass.
                           ----------------------------
                           !    Initial Parameters    !
                           ! (Angstroms and Degrees)  !
 --------------------------                            --------------------------
 ! Name  Definition              Value          Derivative Info.                !
 --------------------------------------------------------------------------------
 ! R1    R(1,3)                  1.3393         estimate D2E/DX2                !
 ! R2    R(1,8)                  0.9817         estimate D2E/DX2                !
 ! R3    R(2,3)                  1.3321         estimate D2E/DX2                !
 ! R4    R(2,5)                  1.3398         estimate D2E/DX2                !
 ! R5    R(2,15)                 1.9334         estimate D2E/DX2                !
 ! R6    R(3,4)                  1.4017         estimate D2E/DX2                !
 ! R7    R(4,6)                  1.3785         estimate D2E/DX2                !
 ! R8    R(4,9)                  1.0796         estimate D2E/DX2                !
 ! R9    R(5,7)                  1.3808         estimate D2E/DX2                !
 ! R10   R(5,10)                 1.0831         estimate D2E/DX2                !
 ! R11   R(6,7)                  1.3964         estimate D2E/DX2                !
 ! R12   R(6,11)                 1.0818         estimate D2E/DX2                !
 ! R13   R(7,12)                 1.0797         estimate D2E/DX2                !
 ! R14   R(8,13)                 1.831          estimate D2E/DX2                !
 ! R15   R(8,15)                 1.911          estimate D2E/DX2                !
 ! R16   R(13,14)                0.9606         estimate D2E/DX2                !
 ! R17   R(13,15)                0.9803         estimate D2E/DX2                !
 ! A1    A(3,1,8)              109.7141         estimate D2E/DX2                !
 ! A2    A(3,2,5)              118.3342         estimate D2E/DX2                !
 ! A3    A(3,2,15)             107.2978         estimate D2E/DX2                !
 ! A4    A(5,2,15)             134.3668         estimate D2E/DX2                !
 ! A5    A(1,3,2)              119.0414         estimate D2E/DX2                !
 ! A6    A(1,3,4)              118.3271         estimate D2E/DX2                !
 ! A7    A(2,3,4)              122.6315         estimate D2E/DX2                !
 ! A8    A(3,4,6)              118.1694         estimate D2E/DX2                !
 ! A9    A(3,4,9)              119.4119         estimate D2E/DX2                !
 ! A10   A(6,4,9)              122.4186         estimate D2E/DX2                !
 ! A11   A(2,5,7)              123.3496         estimate D2E/DX2                !
 ! A12   A(2,5,10)             115.832          estimate D2E/DX2                !
 ! A13   A(7,5,10)             120.8184         estimate D2E/DX2                !
 ! A14   A(4,6,7)              119.6513         estimate D2E/DX2                !
 ! A15   A(4,6,11)             119.9667         estimate D2E/DX2                !
 ! A16   A(7,6,11)             120.382          estimate D2E/DX2                !
 ! A17   A(5,7,6)              117.8639         estimate D2E/DX2                !
 ! A18   A(5,7,12)             120.5506         estimate D2E/DX2                !
 ! A19   A(6,7,12)             121.5855         estimate D2E/DX2                !
 ! A20   A(1,8,13)             159.5294         estimate D2E/DX2                !
 ! A21   A(1,8,15)             129.3503         estimate D2E/DX2                !
 ! A22   A(8,13,14)            121.2243         estimate D2E/DX2                !
 ! A23   A(14,13,15)           106.8012         estimate D2E/DX2                !
 ! A24   A(2,15,8)              74.5948         estimate D2E/DX2                !
 ! A25   A(2,15,13)            144.7717         estimate D2E/DX2                !
 ! D1    D(8,1,3,2)              0.4232         estimate D2E/DX2                !
 ! D2    D(8,1,3,4)           -179.5823         estimate D2E/DX2                !
 ! D3    D(3,1,8,13)             4.1107         estimate D2E/DX2                !
 ! D4    D(3,1,8,15)            -0.4785         estimate D2E/DX2                !
 ! D5    D(5,2,3,1)           -179.8646         estimate D2E/DX2                !
 ! D6    D(5,2,3,4)              0.1411         estimate D2E/DX2                !
 ! D7    D(15,2,3,1)            -0.2046         estimate D2E/DX2                !
 ! D8    D(15,2,3,4)           179.8011         estimate D2E/DX2                !
 ! D9    D(3,2,5,7)             -0.1121         estimate D2E/DX2                !
 ! D10   D(3,2,5,10)           179.8324         estimate D2E/DX2                !
 ! D11   D(15,2,5,7)          -179.6581         estimate D2E/DX2                !
 ! D12   D(15,2,5,10)            0.2865         estimate D2E/DX2                !
 ! D13   D(3,2,15,8)            -0.0003         estimate D2E/DX2                !
 ! D14   D(3,2,15,13)           -5.7168         estimate D2E/DX2                !
 ! D15   D(5,2,15,8)           179.5811         estimate D2E/DX2                !
 ! D16   D(5,2,15,13)          173.8646         estimate D2E/DX2                !
 ! D17   D(1,3,4,6)            179.9187         estimate D2E/DX2                !
 ! D18   D(1,3,4,9)              0.0211         estimate D2E/DX2                !
 ! D19   D(2,3,4,6)             -0.0869         estimate D2E/DX2                !
 ! D20   D(2,3,4,9)           -179.9845         estimate D2E/DX2                !
 ! D21   D(3,4,6,7)             -0.0001         estimate D2E/DX2                !
 ! D22   D(3,4,6,11)          -179.9445         estimate D2E/DX2                !
 ! D23   D(9,4,6,7)            179.8942         estimate D2E/DX2                !
 ! D24   D(9,4,6,11)            -0.0502         estimate D2E/DX2                !
 ! D25   D(2,5,7,6)              0.0291         estimate D2E/DX2                !
 ! D26   D(2,5,7,12)           179.968          estimate D2E/DX2                !
 ! D27   D(10,5,7,6)          -179.9128         estimate D2E/DX2                !
 ! D28   D(10,5,7,12)            0.0261         estimate D2E/DX2                !
 ! D29   D(4,6,7,5)              0.0272         estimate D2E/DX2                !
 ! D30   D(4,6,7,12)          -179.911          estimate D2E/DX2                !
 ! D31   D(11,6,7,5)           179.9714         estimate D2E/DX2                !
 ! D32   D(11,6,7,12)            0.0332         estimate D2E/DX2                !
 ! D33   D(1,8,13,14)         -110.3582         estimate D2E/DX2                !
 ! D34   D(1,8,15,2)             0.3164         estimate D2E/DX2                !
 ! D35   D(8,13,14,15)          87.5843         estimate D2E/DX2                !
 ! D36   D(14,13,15,2)         125.4771         estimate D2E/DX2                !
 --------------------------------------------------------------------------------
 Trust Radius=3.00D-01 FncErr=1.00D-07 GrdErr=1.00D-06
 Number of steps in this run=     88 maximum allowed number of steps=    100.
 GradGradGradGradGradGradGradGradGradGradGradGradGradGradGradGradGradGrad

 Leave Link  103 at Fri Aug 27 01:03:01 2021, MaxMem= 17179869184 cpu:         0.1
 (Enter /public3/home/sc51754/softwares/g09e01/l202.exe)
                          Input orientation:                          
 ---------------------------------------------------------------------
 Center     Atomic      Atomic             Coordinates (Angstroms)
 Number     Number       Type             X           Y           Z
 ---------------------------------------------------------------------
      1          8           0        1.216003    1.448553   -0.002617
      2          7           0        0.305942   -0.666194   -0.005465
      3          6           0        0.137014    0.655155   -0.000094
      4          6           0       -1.129757    1.255183    0.008257
      5          6           0       -0.783175   -1.446498   -0.005634
      6          6           0       -2.238124    0.435485    0.009108
      7          6           0       -2.071986   -0.950998    0.001732
      8          1           0        2.030216    0.900227   -0.015295
      9          1           0       -1.206308    2.332099    0.012077
     10          1           0       -0.599059   -2.513820   -0.012944
     11          1           0       -3.229823    0.867678    0.014558
     12          1           0       -2.917952   -1.621952    0.000735
     13          8           0        3.095711   -0.587217   -0.085025
     14          1           0        3.593966   -0.879251    0.682533
     15          1           0        2.209819   -1.002278   -0.022484
 ---------------------------------------------------------------------
                    Distance matrix (angstroms):
                    1          2          3          4          5
     1  O    0.000000
     2  N    2.302254   0.000000
     3  C    1.339292   1.332114   0.000000
     4  C    2.353742   2.398564   1.401718   0.000000
     5  C    3.518244   1.339795   2.294281   2.723856   0.000000
     6  C    3.599644   2.772396   2.385292   1.378544   2.378856
     7  C    4.070471   2.394934   2.731192   2.398973   1.380800
     8  H    0.981715   2.329569   1.909059   3.179934   3.663657
     9  H    2.578461   3.358120   2.148675   1.079640   3.802256
    10  H    4.358320   2.057378   3.253363   3.806241   1.083111
    11  H    4.483646   3.854192   3.373570   2.135527   3.367774
    12  H    5.149524   3.362589   3.810254   3.387566   2.141984
    13  O    2.772085   2.792020   3.210076   4.610609   3.973717
    14  H    3.397471   3.365982   3.843293   5.227238   4.467069
    15  H    2.644738   1.933388   2.654073   4.031109   3.025827
                    6          7          8          9         10
     6  C    0.000000
     7  C    1.396421   0.000000
     8  H    4.293636   4.500598   0.000000
     9  H    2.159120   3.395325   3.539222   0.000000
    10  H    3.374229   2.147590   4.309154   4.883883   0.000000
    11  H    1.081798   2.155999   5.260224   2.497829   4.284414
    12  H    2.166860   1.079740   5.553918   4.308639   2.484528
    13  O    5.431812   5.181212   1.831019   5.199923   4.167532
    14  H    6.016253   5.707158   2.469579   5.814199   4.553786
    15  H    4.674651   4.282181   1.910977   4.773802   3.189772
                   11         12         13         14         15
    11  H    0.000000
    12  H    2.509126   0.000000
    13  O    6.491457   6.102637   0.000000
    14  H    7.075454   6.589501   0.960566   0.000000
    15  H    5.752201   5.165130   0.980302   1.558219   0.000000
 Stoichiometry    C5H7NO2
 Framework group  C1[X(C5H7NO2)]
 Deg. of freedom    39
 Full point group                 C1      NOp   1
 Largest Abelian subgroup         C1      NOp   1
 Largest concise Abelian subgroup C1      NOp   1
                         Standard orientation:                         
 ---------------------------------------------------------------------
 Center     Atomic      Atomic             Coordinates (Angstroms)
 Number     Number       Type             X           Y           Z
 ---------------------------------------------------------------------
      1          8           0        1.216003    1.448553   -0.002617
      2          7           0        0.305942   -0.666194   -0.005465
      3          6           0        0.137014    0.655155   -0.000094
      4          6           0       -1.129757    1.255183    0.008257
      5          6           0       -0.783175   -1.446498   -0.005634
      6          6           0       -2.238124    0.435485    0.009108
      7          6           0       -2.071986   -0.950998    0.001732
      8          1           0        2.030216    0.900227   -0.015295
      9          1           0       -1.206308    2.332099    0.012077
     10          1           0       -0.599059   -2.513820   -0.012944
     11          1           0       -3.229823    0.867678    0.014558
     12          1           0       -2.917952   -1.621952    0.000735
     13          8           0        3.095711   -0.587217   -0.085025
     14          1           0        3.593966   -0.879251    0.682533
     15          1           0        2.209819   -1.002278   -0.022484
 ---------------------------------------------------------------------
 Rotational constants (GHZ):      4.0123302      1.4179596      1.0501753
 Leave Link  202 at Fri Aug 27 01:03:01 2021, MaxMem= 17179869184 cpu:         5.6
 (Enter /public3/home/sc51754/softwares/g09e01/l301.exe)
 General basis read from cards:  (5D, 7F)
 Centers:       8      9     10     11     12     14     15
 S 4 1.00
     Exponent=  7.5423000000D+01 Coefficients=  2.4065000000D-03
     Exponent=  1.1350000000D+01 Coefficients=  1.8487000000D-02
     Exponent=  2.5993000000D+00 Coefficients=  8.9742000000D-02
     Exponent=  7.3513000000D-01 Coefficients=  2.8111000000D-01
 S 1 1.00
     Exponent=  2.3167000000D-01 Coefficients=  1.0000000000D+00
 S 1 1.00
     Exponent=  7.4147000000D-02 Coefficients=  1.0000000000D+00
 P 1 1.00
     Exponent=  1.6000000000D+00 Coefficients=  1.0000000000D+00
 P 1 1.00
     Exponent=  4.5000000000D-01 Coefficients=  1.0000000000D+00
 D 1 1.00
     Exponent=  1.2500000000D+00 Coefficients=  1.0000000000D+00
 ****
 Centers:       3      4      5      6      7
 S 7 1.00
     Exponent=  7.8571000000D+03 Coefficients=  5.6825000000D-04
     Exponent=  1.1787000000D+03 Coefficients=  4.3915000000D-03
     Exponent=  2.6832000000D+02 Coefficients=  2.2504000000D-02
     Exponent=  7.5948000000D+01 Coefficients=  8.6653000000D-02
     Exponent=  2.4559000000D+01 Coefficients=  2.4405000000D-01
     Exponent=  8.6212000000D+00 Coefficients=  4.4148000000D-01
     Exponent=  3.1278000000D+00 Coefficients=  3.5332000000D-01
 S 7 1.00
     Exponent=  1.1787000000D+03 Coefficients= -5.9492000000D-07
     Exponent=  2.6832000000D+02 Coefficients= -6.2748000000D-05
     Exponent=  7.5948000000D+01 Coefficients= -7.5773000000D-04
     Exponent=  2.4559000000D+01 Coefficients= -7.3308000000D-03
     Exponent=  8.6212000000D+00 Coefficients= -3.8932000000D-02
     Exponent=  3.1278000000D+00 Coefficients= -8.8908000000D-02
     Exponent=  8.2202000000D-01 Coefficients=  2.1689000000D-01
 S 1 1.00
     Exponent=  3.3017000000D-01 Coefficients=  1.0000000000D+00
 S 1 1.00
     Exponent=  1.1463000000D-01 Coefficients=  1.0000000000D+00
 P 4 1.00
     Exponent=  3.3775000000D+01 Coefficients=  6.0294000000D-03
     Exponent=  7.6766000000D+00 Coefficients=  4.3228000000D-02
     Exponent=  2.2357000000D+00 Coefficients=  1.6301000000D-01
     Exponent=  7.6447000000D-01 Coefficients=  3.6504000000D-01
 P 1 1.00
     Exponent=  2.6232000000D-01 Coefficients=  1.0000000000D+00
 P 1 1.00
     Exponent=  8.4638000000D-02 Coefficients=  1.0000000000D+00
 D 1 1.00
     Exponent=  1.4000000000D+00 Coefficients=  1.0000000000D+00
 D 1 1.00
     Exponent=  4.5000000000D-01 Coefficients=  1.0000000000D+00
 F 1 1.00
     Exponent=  9.5000000000D-01 Coefficients=  1.0000000000D+00
 ****
 Centers:       2
 S 7 1.00
     Exponent=  1.1101000000D+04 Coefficients=  5.4570000000D-04
     Exponent=  1.6653000000D+03 Coefficients=  4.2181000000D-03
     Exponent=  3.7908000000D+02 Coefficients=  2.1645000000D-02
     Exponent=  1.0730000000D+02 Coefficients=  8.3776000000D-02
     Exponent=  3.4747000000D+01 Coefficients=  2.3881000000D-01
     Exponent=  1.2249000000D+01 Coefficients=  4.3994000000D-01
     Exponent=  4.4743000000D+00 Coefficients=  3.6364000000D-01
 S 7 1.00
     Exponent=  1.6653000000D+03 Coefficients= -1.5006000000D-06
     Exponent=  3.7908000000D+02 Coefficients= -5.8753000000D-05
     Exponent=  1.0730000000D+02 Coefficients= -7.7453000000D-04
     Exponent=  3.4747000000D+01 Coefficients= -7.2161000000D-03
     Exponent=  1.2249000000D+01 Coefficients= -3.9338000000D-02
     Exponent=  4.4743000000D+00 Coefficients= -9.0611000000D-02
     Exponent=  1.2404000000D+00 Coefficients=  1.9882000000D-01
 S 1 1.00
     Exponent=  4.8743000000D-01 Coefficients=  1.0000000000D+00
 S 1 1.00
     Exponent=  1.6484000000D-01 Coefficients=  1.0000000000D+00
 P 4 1.00
     Exponent=  4.7934000000D+01 Coefficients=  6.1706000000D-03
     Exponent=  1.0999000000D+01 Coefficients=  4.4260000000D-02
     Exponent=  3.2472000000D+00 Coefficients=  1.6825000000D-01
     Exponent=  1.1114000000D+00 Coefficients=  3.6848000000D-01
 P 1 1.00
     Exponent=  3.7988000000D-01 Coefficients=  1.0000000000D+00
 P 1 1.00
     Exponent=  1.2068000000D-01 Coefficients=  1.0000000000D+00
 D 1 1.00
     Exponent=  1.8000000000D+00 Coefficients=  1.0000000000D+00
 D 1 1.00
     Exponent=  5.5000000000D-01 Coefficients=  1.0000000000D+00
 F 1 1.00
     Exponent=  1.0200000000D+00 Coefficients=  1.0000000000D+00
 ****
 Centers:       1     13
 S 7 1.00
     Exponent=  1.4782000000D+04 Coefficients=  5.3519000000D-04
     Exponent=  2.2173000000D+03 Coefficients=  4.1375000000D-03
     Exponent=  5.0474000000D+02 Coefficients=  2.1245000000D-02
     Exponent=  1.4287000000D+02 Coefficients=  8.2453000000D-02
     Exponent=  4.6300000000D+01 Coefficients=  2.3671000000D-01
     Exponent=  1.6337000000D+01 Coefficients=  4.4039000000D-01
     Exponent=  5.9828000000D+00 Coefficients=  3.6465000000D-01
 S 7 1.00
     Exponent=  2.2173000000D+03 Coefficients= -1.9275000000D-06
     Exponent=  5.0474000000D+02 Coefficients= -5.7964000000D-05
     Exponent=  1.4287000000D+02 Coefficients= -7.9494000000D-04
     Exponent=  4.6300000000D+01 Coefficients= -7.3125000000D-03
     Exponent=  1.6337000000D+01 Coefficients= -4.0574000000D-02
     Exponent=  5.9828000000D+00 Coefficients= -9.1594000000D-02
     Exponent=  1.6718000000D+00 Coefficients=  2.0940000000D-01
 S 1 1.00
     Exponent=  6.4662000000D-01 Coefficients=  1.0000000000D+00
 S 1 1.00
     Exponent=  2.1669000000D-01 Coefficients=  1.0000000000D+00
 P 4 1.00
     Exponent=  6.0424000000D+01 Coefficients=  6.8949000000D-03
     Exponent=  1.3935000000D+01 Coefficients=  4.9005000000D-02
     Exponent=  4.1531000000D+00 Coefficients=  1.8255000000D-01
     Exponent=  1.4158000000D+00 Coefficients=  3.7633000000D-01
 P 1 1.00
     Exponent=  4.7549000000D-01 Coefficients=  1.0000000000D+00
 P 1 1.00
     Exponent=  1.4529000000D-01 Coefficients=  1.0000000000D+00
 D 1 1.00
     Exponent=  2.2000000000D+00 Coefficients=  1.0000000000D+00
 D 1 1.00
     Exponent=  6.5000000000D-01 Coefficients=  1.0000000000D+00
 F 1 1.00
     Exponent=  1.1000000000D+00 Coefficients=  1.0000000000D+00
 ****
 Ernie: Thresh=  0.10000D-02 Tol=  0.10000D-05 Strict=F.
 Ernie:  8 primitive shells out of 263 were deleted.
 There are   385 symmetry adapted cartesian basis functions of A   symmetry.
 There are   338 symmetry adapted basis functions of A   symmetry.
   338 basis functions,   566 primitive gaussians,   385 cartesian basis functions
    30 alpha electrons       30 beta electrons
       nuclear repulsion energy       357.6226221683 Hartrees.
 IExCor= 4336 DFT=T Ex+Corr=M062X ExCW=0 ScaHFX=  0.540000
 ScaDFX=  1.000000  1.000000  1.000000  1.000000 ScalE2=  1.000000  1.000000
 IRadAn=      0 IRanWt=     -1 IRanGd=            0 ICorTp=0 IEmpDi=  4
 NAtoms=   15 NActive=   15 NUniq=   15 SFac= 1.00D+00 NAtFMM=   60 NAOKFM=F Big=F
 Integral buffers will be    131072 words long.
 Raffenetti 2 integral format.
 Two-electron integral symmetry is turned on.
 Leave Link  301 at Fri Aug 27 01:03:01 2021, MaxMem= 17179869184 cpu:         1.5
 (Enter /public3/home/sc51754/softwares/g09e01/l302.exe)
 NPDir=0 NMtPBC=     1 NCelOv=     1 NCel=       1 NClECP=     1 NCelD=      1
         NCelK=      1 NCelE2=     1 NClLst=     1 CellRange=     0.0.
 One-electron integrals computed using PRISM.
 NBasis=   338 RedAO= T EigKep=  1.46D-04  NBF=   338
 NBsUse=   338 1.00D-06 EigRej= -1.00D+00 NBFU=   338
 Precomputing XC quadrature grid using
 IXCGrd= 4 IRadAn=           0 IRanWt=          -1 IRanGd=           0 AccXCQ= 0.00D+00.
 Generated NRdTot=       0 NPtTot=           0 NUsed=           0 NTot=          32
 NSgBfM=   384   384   384   384   385 MxSgAt=    15 MxSgA2=    15.
 Leave Link  302 at Fri Aug 27 01:03:02 2021, MaxMem= 17179869184 cpu:        49.4
 (Enter /public3/home/sc51754/softwares/g09e01/l303.exe)
 DipDrv:  MaxL=1.
 Leave Link  303 at Fri Aug 27 01:03:04 2021, MaxMem= 17179869184 cpu:        12.1
 (Enter /public3/home/sc51754/softwares/g09e01/l401.exe)
 ExpMin= 7.41D-02 ExpMax= 1.48D+04 ExpMxC= 5.05D+02 IAcc=2 IRadAn=         4 AccDes= 0.00D+00
 Harris functional with IExCor= 1009 and IRadAn=       4 diagonalized for initial guess.
 HarFok:  IExCor= 1009 AccDes= 0.00D+00 IRadAn=         4 IDoV= 1 UseB2=F ITyADJ=14
 ICtDFT=  3500011 ScaDFX=  1.000000  1.000000  1.000000  1.000000
 FoFCou: FMM=F IPFlag=           0 FMFlag=      100000 FMFlg1=           0
         NFxFlg=           0 DoJE=T BraDBF=F KetDBF=T FulRan=T
         wScrn=  0.000000 ICntrl=     500 IOpCl=  0 I1Cent=   200000004 NGrid=           0
         NMat0=    1 NMatS0=      1 NMatT0=    0 NMatD0=    1 NMtDS0=    0 NMtDT0=    0
 Petite list used in FoFCou.
 Harris En= -399.801169270425    
 JPrj=0 DoOrth=F DoCkMO=F.
 Leave Link  401 at Fri Aug 27 01:03:04 2021, MaxMem= 17179869184 cpu:        53.6
 (Enter /public3/home/sc51754/softwares/g09e01/l502.exe)
 Closed shell SCF:
 Using DIIS extrapolation, IDIIS=  1040.
 Integral symmetry usage will be decided dynamically.
 Keep R1 ints in memory in canonical form, NReq=1670404686.
 IVT=      490665 IEndB=      490665 NGot= 17179869184 MDV= 15538220534
 LenX= 15538220534 LenY= 15538071868
 Requested convergence on RMS density matrix=1.00D-08 within 128 cycles.
 Requested convergence on MAX density matrix=1.00D-06.
 Requested convergence on             energy=1.00D-06.
 No special actions if energy rises.
 FoFCou: FMM=F IPFlag=           0 FMFlag=           0 FMFlg1=           0
         NFxFlg=           0 DoJE=F BraDBF=F KetDBF=F FulRan=T
         wScrn=  0.000000 ICntrl=     600 IOpCl=  0 I1Cent=           0 NGrid=           0
         NMat0=    1 NMatS0=  57291 NMatT0=    0 NMatD0=    1 NMtDS0=    0 NMtDT0=    0
 Symmetry not used in FoFCou.
 Integral accuracy reduced to 1.0D-05 until final iterations.

 Cycle   1  Pass 0  IDiag  1:
 E= -399.743225695067    
 DIIS: error= 2.57D-02 at cycle   1 NSaved=   1.
 NSaved= 1 IEnMin= 1 EnMin= -399.743225695067     IErMin= 1 ErrMin= 2.57D-02
 ErrMax= 2.57D-02  0.00D+00 EMaxC= 1.00D-01 BMatC= 3.00D-01 BMatP= 3.00D-01
 IDIUse=3 WtCom= 7.43D-01 WtEn= 2.57D-01
 Coeff-Com:  0.100D+01
 Coeff-En:   0.100D+01
 Coeff:      0.100D+01
 Gap=     0.296 Goal=   None    Shift=    0.000
 GapD=    0.296 DampG=1.000 DampE=0.500 DampFc=0.5000 IDamp=-1.
 Damping current iteration by 5.00D-01
 RMSDP=2.06D-03 MaxDP=1.17D-01              OVMax= 1.70D-01

 Cycle   2  Pass 0  IDiag  1:
 E= -399.856504084934     Delta-E=       -0.113278389867 Rises=F Damp=T
 DIIS: error= 6.72D-03 at cycle   2 NSaved=   2.
 NSaved= 2 IEnMin= 2 EnMin= -399.856504084934     IErMin= 2 ErrMin= 6.72D-03
 ErrMax= 6.72D-03  0.00D+00 EMaxC= 1.00D-01 BMatC= 2.02D-02 BMatP= 3.00D-01
 IDIUse=3 WtCom= 9.33D-01 WtEn= 6.72D-02
 Coeff-Com: -0.415D-01 0.104D+01
 Coeff-En:   0.000D+00 0.100D+01
 Coeff:     -0.387D-01 0.104D+01
 Gap=     0.330 Goal=   None    Shift=    0.000
 RMSDP=5.06D-04 MaxDP=2.83D-02 DE=-1.13D-01 OVMax= 9.04D-02

 Cycle   3  Pass 0  IDiag  1:
 E= -399.968260098535     Delta-E=       -0.111756013601 Rises=F Damp=F
 DIIS: error= 3.45D-03 at cycle   3 NSaved=   3.
 NSaved= 3 IEnMin= 3 EnMin= -399.968260098535     IErMin= 3 ErrMin= 3.45D-03
 ErrMax= 3.45D-03  0.00D+00 EMaxC= 1.00D-01 BMatC= 5.19D-03 BMatP= 2.02D-02
 IDIUse=3 WtCom= 9.65D-01 WtEn= 3.45D-02
 Coeff-Com: -0.624D-01 0.322D+00 0.741D+00
 Coeff-En:   0.000D+00 0.000D+00 0.100D+01
 Coeff:     -0.603D-01 0.311D+00 0.750D+00
 Gap=     0.293 Goal=   None    Shift=    0.000
 RMSDP=2.08D-04 MaxDP=1.16D-02 DE=-1.12D-01 OVMax= 2.63D-02

 Cycle   4  Pass 0  IDiag  1:
 E= -399.971121426367     Delta-E=       -0.002861327832 Rises=F Damp=F
 DIIS: error= 2.56D-03 at cycle   4 NSaved=   4.
 NSaved= 4 IEnMin= 4 EnMin= -399.971121426367     IErMin= 4 ErrMin= 2.56D-03
 ErrMax= 2.56D-03  0.00D+00 EMaxC= 1.00D-01 BMatC= 1.49D-03 BMatP= 5.19D-03
 IDIUse=3 WtCom= 9.74D-01 WtEn= 2.56D-02
 Coeff-Com: -0.243D-01 0.651D-01 0.385D+00 0.574D+00
 Coeff-En:   0.000D+00 0.000D+00 0.229D+00 0.771D+00
 Coeff:     -0.236D-01 0.634D-01 0.381D+00 0.579D+00
 Gap=     0.293 Goal=   None    Shift=    0.000
 RMSDP=8.68D-05 MaxDP=6.38D-03 DE=-2.86D-03 OVMax= 1.51D-02

 Cycle   5  Pass 0  IDiag  1:
 E= -399.972395642556     Delta-E=       -0.001274216189 Rises=F Damp=F
 DIIS: error= 4.63D-04 at cycle   5 NSaved=   5.
 NSaved= 5 IEnMin= 5 EnMin= -399.972395642556     IErMin= 5 ErrMin= 4.63D-04
 ErrMax= 4.63D-04  0.00D+00 EMaxC= 1.00D-01 BMatC= 7.19D-05 BMatP= 1.49D-03
 IDIUse=3 WtCom= 9.95D-01 WtEn= 4.63D-03
 Coeff-Com: -0.659D-02 0.975D-02 0.129D+00 0.265D+00 0.603D+00
 Coeff-En:   0.000D+00 0.000D+00 0.000D+00 0.000D+00 0.100D+01
 Coeff:     -0.656D-02 0.971D-02 0.128D+00 0.264D+00 0.604D+00
 Gap=     0.292 Goal=   None    Shift=    0.000
 RMSDP=1.96D-05 MaxDP=1.23D-03 DE=-1.27D-03 OVMax= 3.10D-03

 Cycle   6  Pass 0  IDiag  1:
 E= -399.972454883796     Delta-E=       -0.000059241240 Rises=F Damp=F
 DIIS: error= 1.10D-04 at cycle   6 NSaved=   6.
 NSaved= 6 IEnMin= 6 EnMin= -399.972454883796     IErMin= 6 ErrMin= 1.10D-04
 ErrMax= 1.10D-04  0.00D+00 EMaxC= 1.00D-01 BMatC= 6.08D-06 BMatP= 7.19D-05
 IDIUse=3 WtCom= 9.99D-01 WtEn= 1.10D-03
 Coeff-Com: -0.118D-02-0.315D-03 0.307D-01 0.782D-01 0.286D+00 0.606D+00
 Coeff-En:   0.000D+00 0.000D+00 0.000D+00 0.000D+00 0.000D+00 0.100D+01
 Coeff:     -0.118D-02-0.315D-03 0.307D-01 0.781D-01 0.286D+00 0.607D+00
 Gap=     0.293 Goal=   None    Shift=    0.000
 RMSDP=4.88D-06 MaxDP=2.35D-04 DE=-5.92D-05 OVMax= 6.81D-04

 Initial convergence to 1.0D-05 achieved.  Increase integral accuracy.
 Cycle   7  Pass 1  IDiag  1:
 E= -399.972762703766     Delta-E=       -0.000307819970 Rises=F Damp=F
 DIIS: error= 1.56D-04 at cycle   1 NSaved=   1.
 NSaved= 1 IEnMin= 1 EnMin= -399.972762703766     IErMin= 1 ErrMin= 1.56D-04
 ErrMax= 1.56D-04  0.00D+00 EMaxC= 1.00D-01 BMatC= 1.74D-05 BMatP= 1.74D-05
 IDIUse=3 WtCom= 9.98D-01 WtEn= 1.56D-03
 Coeff-Com:  0.100D+01
 Coeff-En:   0.100D+01
 Coeff:      0.100D+01
 Gap=     0.293 Goal=   None    Shift=    0.000
 RMSDP=4.88D-06 MaxDP=2.35D-04 DE=-3.08D-04 OVMax= 4.42D-04

 Cycle   8  Pass 1  IDiag  1:
 E= -399.972771156838     Delta-E=       -0.000008453072 Rises=F Damp=F
 DIIS: error= 2.63D-05 at cycle   2 NSaved=   2.
 NSaved= 2 IEnMin= 2 EnMin= -399.972771156838     IErMin= 2 ErrMin= 2.63D-05
 ErrMax= 2.63D-05  0.00D+00 EMaxC= 1.00D-01 BMatC= 3.03D-07 BMatP= 1.74D-05
 IDIUse=1 WtCom= 1.00D+00 WtEn= 0.00D+00
 Coeff-Com: -0.928D-02 0.101D+01
 Coeff:     -0.928D-02 0.101D+01
 Gap=     0.293 Goal=   None    Shift=    0.000
 RMSDP=2.76D-06 MaxDP=1.10D-04 DE=-8.45D-06 OVMax= 3.34D-04

 Cycle   9  Pass 1  IDiag  1:
 E= -399.972771120908     Delta-E=        0.000000035930 Rises=F Damp=F
 DIIS: error= 3.45D-05 at cycle   3 NSaved=   3.
 NSaved= 3 IEnMin= 2 EnMin= -399.972771156838     IErMin= 2 ErrMin= 2.63D-05
 ErrMax= 3.45D-05  0.00D+00 EMaxC= 1.00D-01 BMatC= 3.99D-07 BMatP= 3.03D-07
 IDIUse=1 WtCom= 1.00D+00 WtEn= 0.00D+00
 Coeff-Com: -0.225D-01 0.552D+00 0.470D+00
 Coeff:     -0.225D-01 0.552D+00 0.470D+00
 Gap=     0.293 Goal=   None    Shift=    0.000
 RMSDP=1.33D-06 MaxDP=6.78D-05 DE= 3.59D-08 OVMax= 2.25D-04

 Cycle  10  Pass 1  IDiag  1:
 E= -399.972771451123     Delta-E=       -0.000000330215 Rises=F Damp=F
 DIIS: error= 4.61D-06 at cycle   4 NSaved=   4.
 NSaved= 4 IEnMin= 4 EnMin= -399.972771451123     IErMin= 4 ErrMin= 4.61D-06
 ErrMax= 4.61D-06  0.00D+00 EMaxC= 1.00D-01 BMatC= 7.05D-09 BMatP= 3.03D-07
 IDIUse=1 WtCom= 1.00D+00 WtEn= 0.00D+00
 Coeff-Com: -0.560D-02 0.684D-01 0.131D+00 0.806D+00
 Coeff:     -0.560D-02 0.684D-01 0.131D+00 0.806D+00
 Gap=     0.293 Goal=   None    Shift=    0.000
 RMSDP=2.69D-07 MaxDP=1.73D-05 DE=-3.30D-07 OVMax= 4.17D-05

 Cycle  11  Pass 1  IDiag  1:
 E= -399.972771457967     Delta-E=       -0.000000006844 Rises=F Damp=F
 DIIS: error= 1.94D-06 at cycle   5 NSaved=   5.
 NSaved= 5 IEnMin= 5 EnMin= -399.972771457967     IErMin= 5 ErrMin= 1.94D-06
 ErrMax= 1.94D-06  0.00D+00 EMaxC= 1.00D-01 BMatC= 1.16D-09 BMatP= 7.05D-09
 IDIUse=1 WtCom= 1.00D+00 WtEn= 0.00D+00
 Coeff-Com: -0.994D-04-0.211D-01 0.101D-01 0.317D+00 0.694D+00
 Coeff:     -0.994D-04-0.211D-01 0.101D-01 0.317D+00 0.694D+00
 Gap=     0.293 Goal=   None    Shift=    0.000
 RMSDP=1.13D-07 MaxDP=5.33D-06 DE=-6.84D-09 OVMax= 2.42D-05

 Cycle  12  Pass 1  IDiag  1:
 E= -399.972771459305     Delta-E=       -0.000000001338 Rises=F Damp=F
 DIIS: error= 9.80D-07 at cycle   6 NSaved=   6.
 NSaved= 6 IEnMin= 6 EnMin= -399.972771459305     IErMin= 6 ErrMin= 9.80D-07
 ErrMax= 9.80D-07  0.00D+00 EMaxC= 1.00D-01 BMatC= 2.45D-10 BMatP= 1.16D-09
 IDIUse=1 WtCom= 1.00D+00 WtEn= 0.00D+00
 Coeff-Com:  0.853D-03-0.224D-01-0.164D-01 0.353D-01 0.338D+00 0.664D+00
 Coeff:      0.853D-03-0.224D-01-0.164D-01 0.353D-01 0.338D+00 0.664D+00
 Gap=     0.293 Goal=   None    Shift=    0.000
 RMSDP=4.46D-08 MaxDP=1.83D-06 DE=-1.34D-09 OVMax= 8.77D-06

 Cycle  13  Pass 1  IDiag  1:
 E= -399.972771459594     Delta-E=       -0.000000000289 Rises=F Damp=F
 DIIS: error= 3.04D-07 at cycle   7 NSaved=   7.
 NSaved= 7 IEnMin= 7 EnMin= -399.972771459594     IErMin= 7 ErrMin= 3.04D-07
 ErrMax= 3.04D-07  0.00D+00 EMaxC= 1.00D-01 BMatC= 1.72D-11 BMatP= 2.45D-10
 IDIUse=1 WtCom= 1.00D+00 WtEn= 0.00D+00
 Coeff-Com:  0.291D-03-0.468D-02-0.731D-02-0.299D-01 0.334D-01 0.204D+00
 Coeff-Com:  0.804D+00
 Coeff:      0.291D-03-0.468D-02-0.731D-02-0.299D-01 0.334D-01 0.204D+00
 Coeff:      0.804D+00
 Gap=     0.293 Goal=   None    Shift=    0.000
 RMSDP=2.08D-08 MaxDP=7.76D-07 DE=-2.89D-10 OVMax= 4.83D-06

 Cycle  14  Pass 1  IDiag  1:
 E= -399.972771459598     Delta-E=       -0.000000000004 Rises=F Damp=F
 DIIS: error= 2.61D-07 at cycle   8 NSaved=   8.
 NSaved= 8 IEnMin= 8 EnMin= -399.972771459598     IErMin= 8 ErrMin= 2.61D-07
 ErrMax= 2.61D-07  0.00D+00 EMaxC= 1.00D-01 BMatC= 4.25D-12 BMatP= 1.72D-11
 IDIUse=1 WtCom= 1.00D+00 WtEn= 0.00D+00
 Coeff-Com: -0.336D-04 0.225D-02 0.271D-03-0.188D-01-0.463D-01-0.531D-01
 Coeff-Com:  0.333D+00 0.783D+00
 Coeff:     -0.336D-04 0.225D-02 0.271D-03-0.188D-01-0.463D-01-0.531D-01
 Coeff:      0.333D+00 0.783D+00
 Gap=     0.293 Goal=   None    Shift=    0.000
 RMSDP=9.29D-09 MaxDP=2.65D-07 DE=-3.75D-12 OVMax= 1.93D-06

 SCF Done:  E(RM062X) =  -399.972771460     A.U. after   14 cycles
            NFock= 14  Conv=0.93D-08     -V/T= 2.0042
 KE= 3.982871703706D+02 PE=-1.650541850045D+03 EE= 4.946592860463D+02
 Leave Link  502 at Fri Aug 27 01:03:27 2021, MaxMem= 17179869184 cpu:       402.2
 (Enter /public3/home/sc51754/softwares/g09e01/l601.exe)
 Copying SCF densities to generalized density rwf, IOpCl= 0 IROHF=0.

 **********************************************************************

            Population analysis using the SCF density.

 **********************************************************************

 Orbital symmetries:
       Occupied  (A) (A) (A) (A) (A) (A) (A) (A) (A) (A) (A) (A)
                 (A) (A) (A) (A) (A) (A) (A) (A) (A) (A) (A) (A)
                 (A) (A) (A) (A) (A) (A)
       Virtual   (A) (A) (A) (A) (A) (A) (A) (A) (A) (A) (A) (A)
                 (A) (A) (A) (A) (A) (A) (A) (A) (A) (A) (A) (A)
                 (A) (A) (A) (A) (A) (A) (A) (A) (A) (A) (A) (A)
                 (A) (A) (A) (A) (A) (A) (A) (A) (A) (A) (A) (A)
                 (A) (A) (A) (A) (A) (A) (A) (A) (A) (A) (A) (A)
                 (A) (A) (A) (A) (A) (A) (A) (A) (A) (A) (A) (A)
                 (A) (A) (A) (A) (A) (A) (A) (A) (A) (A) (A) (A)
                 (A) (A) (A) (A) (A) (A) (A) (A) (A) (A) (A) (A)
                 (A) (A) (A) (A) (A) (A) (A) (A) (A) (A) (A) (A)
                 (A) (A) (A) (A) (A) (A) (A) (A) (A) (A) (A) (A)
                 (A) (A) (A) (A) (A) (A) (A) (A) (A) (A) (A) (A)
                 (A) (A) (A) (A) (A) (A) (A) (A) (A) (A) (A) (A)
                 (A) (A) (A) (A) (A) (A) (A) (A) (A) (A) (A) (A)
                 (A) (A) (A) (A) (A) (A) (A) (A) (A) (A) (A) (A)
                 (A) (A) (A) (A) (A) (A) (A) (A) (A) (A) (A) (A)
                 (A) (A) (A) (A) (A) (A) (A) (A) (A) (A) (A) (A)
                 (A) (A) (A) (A) (A) (A) (A) (A) (A) (A) (A) (A)
                 (A) (A) (A) (A) (A) (A) (A) (A) (A) (A) (A) (A)
                 (A) (A) (A) (A) (A) (A) (A) (A) (A) (A) (A) (A)
                 (A) (A) (A) (A) (A) (A) (A) (A) (A) (A) (A) (A)
                 (A) (A) (A) (A) (A) (A) (A) (A) (A) (A) (A) (A)
                 (A) (A) (A) (A) (A) (A) (A) (A) (A) (A) (A) (A)
                 (A) (A) (A) (A) (A) (A) (A) (A) (A) (A) (A) (A)
                 (A) (A) (A) (A) (A) (A) (A) (A) (A) (A) (A) (A)
                 (A) (A) (A) (A) (A) (A) (A) (A) (A) (A) (A) (A)
                 (A) (A) (A) (A) (A) (A) (A) (A)
 The electronic state is 1-A.
 Alpha  occ. eigenvalues --  -19.64623 -19.62363 -14.75959 -10.64506 -10.58922
 Alpha  occ. eigenvalues --  -10.56856 -10.55231 -10.54978  -1.19758  -1.13199
 Alpha  occ. eigenvalues --   -1.05824  -0.91680  -0.86206  -0.74152  -0.72203
 Alpha  occ. eigenvalues --   -0.63861  -0.62017  -0.59201  -0.56254  -0.52400
 Alpha  occ. eigenvalues --   -0.52290  -0.49072  -0.48494  -0.46453  -0.44113
 Alpha  occ. eigenvalues --   -0.43395  -0.40412  -0.35857  -0.35339  -0.29890
 Alpha virt. eigenvalues --   -0.00631   0.02256   0.03833   0.04770   0.05928
 Alpha virt. eigenvalues --    0.07529   0.08979   0.12113   0.13893   0.17027
 Alpha virt. eigenvalues --    0.17332   0.18751   0.19277   0.20785   0.21891
 Alpha virt. eigenvalues --    0.22392   0.23483   0.23889   0.25708   0.27940
 Alpha virt. eigenvalues --    0.29115   0.30515   0.30963   0.31796   0.32152
 Alpha virt. eigenvalues --    0.33030   0.34150   0.35389   0.35899   0.37413
 Alpha virt. eigenvalues --    0.39047   0.40327   0.40596   0.41829   0.42571
 Alpha virt. eigenvalues --    0.44796   0.45460   0.47041   0.48124   0.50746
 Alpha virt. eigenvalues --    0.52973   0.54856   0.55256   0.56303   0.57126
 Alpha virt. eigenvalues --    0.61492   0.66014   0.66253   0.67676   0.68505
 Alpha virt. eigenvalues --    0.69834   0.70537   0.72191   0.75550   0.77583
 Alpha virt. eigenvalues --    0.81240   0.82920   0.85698   0.86420   0.89159
 Alpha virt. eigenvalues --    0.92523   0.94042   0.95372   0.96619   0.97865
 Alpha virt. eigenvalues --    0.99387   1.01653   1.02082   1.03668   1.06080
 Alpha virt. eigenvalues --    1.07403   1.11927   1.13073   1.13808   1.16459
 Alpha virt. eigenvalues --    1.17202   1.18721   1.19165   1.20397   1.22129
 Alpha virt. eigenvalues --    1.24404   1.25103   1.27932   1.29635   1.31572
 Alpha virt. eigenvalues --    1.33074   1.34340   1.35245   1.37240   1.37959
 Alpha virt. eigenvalues --    1.44979   1.46100   1.47971   1.48953   1.51753
 Alpha virt. eigenvalues --    1.54359   1.54624   1.55972   1.57838   1.59297
 Alpha virt. eigenvalues --    1.61103   1.61976   1.64405   1.65683   1.68795
 Alpha virt. eigenvalues --    1.69680   1.70765   1.72843   1.74327   1.77506
 Alpha virt. eigenvalues --    1.81176   1.84495   1.85095   1.88244   1.90203
 Alpha virt. eigenvalues --    1.90590   1.92549   1.93117   1.94228   1.99265
 Alpha virt. eigenvalues --    2.02843   2.03345   2.05418   2.08940   2.12078
 Alpha virt. eigenvalues --    2.16412   2.17838   2.18691   2.21294   2.22699
 Alpha virt. eigenvalues --    2.23736   2.27565   2.28818   2.29243   2.31482
 Alpha virt. eigenvalues --    2.35398   2.43993   2.48686   2.55317   2.66637
 Alpha virt. eigenvalues --    2.73456   2.83636   2.88095   2.98062   2.99288
 Alpha virt. eigenvalues --    3.02596   3.06928   3.15840   3.20261   3.21042
 Alpha virt. eigenvalues --    3.26307   3.26797   3.28471   3.32298   3.34277
 Alpha virt. eigenvalues --    3.38383   3.39670   3.40616   3.42084   3.43718
 Alpha virt. eigenvalues --    3.46009   3.48267   3.49625   3.52709   3.56307
 Alpha virt. eigenvalues --    3.57907   3.59908   3.61575   3.62673   3.64611
 Alpha virt. eigenvalues --    3.69278   3.69958   3.70682   3.74408   3.74988
 Alpha virt. eigenvalues --    3.77979   3.80449   3.80977   3.82598   3.87118
 Alpha virt. eigenvalues --    3.88986   3.90996   3.92832   3.93635   3.94505
 Alpha virt. eigenvalues --    3.97643   3.99509   4.01965   4.02837   4.03797
 Alpha virt. eigenvalues --    4.05130   4.06383   4.07365   4.11454   4.13761
 Alpha virt. eigenvalues --    4.14363   4.14627   4.16477   4.18546   4.19401
 Alpha virt. eigenvalues --    4.19779   4.22539   4.24990   4.26564   4.28424
 Alpha virt. eigenvalues --    4.29339   4.29434   4.30493   4.30772   4.35772
 Alpha virt. eigenvalues --    4.36394   4.37534   4.38221   4.39870   4.40373
 Alpha virt. eigenvalues --    4.41185   4.41241   4.44012   4.44709   4.46370
 Alpha virt. eigenvalues --    4.46849   4.48391   4.51046   4.52294   4.54095
 Alpha virt. eigenvalues --    4.55056   4.58009   4.59700   4.60889   4.62576
 Alpha virt. eigenvalues --    4.63626   4.67385   4.71558   4.72476   4.77192
 Alpha virt. eigenvalues --    4.78804   4.82855   4.83226   4.83648   4.86151
 Alpha virt. eigenvalues --    4.87344   4.91830   4.92882   4.96007   4.97611
 Alpha virt. eigenvalues --    5.00204   5.02724   5.06535   5.08816   5.13580
 Alpha virt. eigenvalues --    5.13894   5.16412   5.18976   5.23488   5.26956
 Alpha virt. eigenvalues --    5.27481   5.29183   5.31711   5.36144   5.36185
 Alpha virt. eigenvalues --    5.38640   5.39211   5.42247   5.48112   5.49085
 Alpha virt. eigenvalues --    5.53870   5.58915   5.59790   5.62831   5.70453
 Alpha virt. eigenvalues --    5.72911   5.75456   5.79145   5.87354   5.89904
 Alpha virt. eigenvalues --    5.96892   5.97695   5.99483   6.00848   6.04096
 Alpha virt. eigenvalues --    6.13037   6.19230   6.19698   6.22120   6.22976
 Alpha virt. eigenvalues --    6.26184   6.30116   6.34210   6.36869   6.43968
 Alpha virt. eigenvalues --    6.49681   6.54294   6.58482   6.66917   6.86206
 Alpha virt. eigenvalues --    6.87611   6.90180   7.03038   7.31039   7.39901
 Alpha virt. eigenvalues --    9.21625  12.09649  12.65010  15.41065  15.45184
 Alpha virt. eigenvalues --   17.35413  18.63908  22.32742
          Condensed to atoms (all electrons):
               1          2          3          4          5          6
     1  O    7.933807  -0.083801   0.280120  -0.051711   0.004149   0.008561
     2  N   -0.083801   6.865274   0.452910  -0.025124   0.488537  -0.033847
     3  C    0.280120   0.452910   4.324901   0.542909  -0.079877  -0.058153
     4  C   -0.051711  -0.025124   0.542909   4.818715  -0.036178   0.530409
     5  C    0.004149   0.488537  -0.079877  -0.036178   4.487520  -0.083068
     6  C    0.008561  -0.033847  -0.058153   0.530409  -0.083068   4.656908
     7  C   -0.000014  -0.025756  -0.054221  -0.050936   0.552515   0.497598
     8  H    0.361348   0.007826  -0.022453   0.004507   0.000814  -0.001131
     9  H    0.004327   0.006397  -0.032233   0.440831  -0.002164  -0.034552
    10  H   -0.000394  -0.040986   0.005308  -0.003957   0.447134   0.008318
    11  H   -0.000408  -0.001857   0.006991  -0.035866   0.007571   0.437749
    12  H    0.000048   0.007116  -0.001038   0.006848  -0.029223  -0.035188
    13  O   -0.027101  -0.041043  -0.002066   0.000367  -0.000511   0.000228
    14  H    0.001120   0.002661   0.000067   0.000106   0.000036  -0.000017
    15  H   -0.000301   0.014704  -0.001874   0.000498   0.002717  -0.000256
               7          8          9         10         11         12
     1  O   -0.000014   0.361348   0.004327  -0.000394  -0.000408   0.000048
     2  N   -0.025756   0.007826   0.006397  -0.040986  -0.001857   0.007116
     3  C   -0.054221  -0.022453  -0.032233   0.005308   0.006991  -0.001038
     4  C   -0.050936   0.004507   0.440831  -0.003957  -0.035866   0.006848
     5  C    0.552515   0.000814  -0.002164   0.447134   0.007571  -0.029223
     6  C    0.497598  -0.001131  -0.034552   0.008318   0.437749  -0.035188
     7  C    4.903089   0.000122   0.007403  -0.063926  -0.041771   0.440344
     8  H    0.000122   0.393882   0.000336   0.000030   0.000004  -0.000007
     9  H    0.007403   0.000336   0.588062   0.000134  -0.008269  -0.000003
    10  H   -0.063926   0.000030   0.000134   0.626190  -0.000108  -0.005938
    11  H   -0.041771   0.000004  -0.008269  -0.000108   0.611319  -0.007924
    12  H    0.440344  -0.000007  -0.000003  -0.005938  -0.007924   0.609282
    13  O   -0.000450   0.040444  -0.000007   0.000254  -0.000002   0.000006
    14  H    0.000055  -0.002559  -0.000001  -0.000018   0.000000  -0.000001
    15  H    0.000769  -0.006622  -0.000046  -0.000586   0.000017  -0.000021
              13         14         15
     1  O   -0.027101   0.001120  -0.000301
     2  N   -0.041043   0.002661   0.014704
     3  C   -0.002066   0.000067  -0.001874
     4  C    0.000367   0.000106   0.000498
     5  C   -0.000511   0.000036   0.002717
     6  C    0.000228  -0.000017  -0.000256
     7  C   -0.000450   0.000055   0.000769
     8  H    0.040444  -0.002559  -0.006622
     9  H   -0.000007  -0.000001  -0.000046
    10  H    0.000254  -0.000018  -0.000586
    11  H   -0.000002   0.000000   0.000017
    12  H    0.000006  -0.000001  -0.000021
    13  O    7.774257   0.363091   0.344386
    14  H    0.363091   0.434938  -0.020157
    15  H    0.344386  -0.020157   0.421813
 Mulliken charges:
               1
     1  O   -0.429751
     2  N   -0.593011
     3  C    0.638709
     4  C   -0.141417
     5  C    0.240027
     6  C    0.106442
     7  C   -0.164824
     8  H    0.223460
     9  H    0.029786
    10  H    0.028543
    11  H    0.032555
    12  H    0.015698
    13  O   -0.451853
    14  H    0.220677
    15  H    0.244960
 Sum of Mulliken charges =  -0.00000
 Mulliken charges with hydrogens summed into heavy atoms:
               1
     1  O   -0.206291
     2  N   -0.593011
     3  C    0.638709
     4  C   -0.111631
     5  C    0.268569
     6  C    0.138997
     7  C   -0.149126
    13  O    0.013784
 Electronic spatial extent (au):  <R**2>=           1069.8323
 Charge=             -0.0000 electrons
 Dipole moment (field-independent basis, Debye):
    X=             -1.9222    Y=             -1.3836    Z=              1.3710  Tot=              2.7366
 Quadrupole moment (field-independent basis, Debye-Ang):
   XX=            -42.0781   YY=            -44.8349   ZZ=            -49.6444
   XY=             -2.9131   XZ=              5.4458   YZ=             -1.3701
 Traceless Quadrupole moment (field-independent basis, Debye-Ang):
   XX=              3.4410   YY=              0.6842   ZZ=             -4.1253
   XY=             -2.9131   XZ=              5.4458   YZ=             -1.3701
 Octapole moment (field-independent basis, Debye-Ang**2):
  XXX=             11.0405  YYY=             -8.1308  ZZZ=              1.1197  XYY=             -0.8878
  XXY=             -4.3967  XXZ=             20.6305  XZZ=             12.9119  YZZ=              0.2888
  YYZ=              1.3154  XYZ=             -5.2775
 Hexadecapole moment (field-independent basis, Debye-Ang**3):
 XXXX=           -834.9638 YYYY=           -354.5065 ZZZZ=            -54.0659 XXXY=            -22.2227
 XXXZ=             77.8760 YYYX=            -13.8229 YYYZ=             -1.5768 ZZZX=              5.2159
 ZZZY=             -1.4508 XXYY=           -200.9076 XXZZ=           -167.5769 YYZZ=            -77.1070
 XXYZ=            -19.0761 YYXZ=              5.4077 ZZXY=             -4.1415
 N-N= 3.576226221683D+02 E-N=-1.650541837282D+03  KE= 3.982871703706D+02
 No NMR shielding tensors so no spin-rotation constants.
 Leave Link  601 at Fri Aug 27 01:03:28 2021, MaxMem= 17179869184 cpu:        53.4
 (Enter /public3/home/sc51754/softwares/g09e01/l701.exe)
 Compute integral first derivatives.
 ... and contract with generalized density number  0.
 Leave Link  701 at Fri Aug 27 01:03:30 2021, MaxMem= 17179869184 cpu:        86.4
 (Enter /public3/home/sc51754/softwares/g09e01/l702.exe)
 L702 exits ... SP integral derivatives will be done elsewhere.
 Leave Link  702 at Fri Aug 27 01:03:30 2021, MaxMem= 17179869184 cpu:         0.2
 (Enter /public3/home/sc51754/softwares/g09e01/l703.exe)
 Compute integral first derivatives, UseDBF=F ICtDFT=           0.
 Integral derivatives from FoFJK, PRISM(SPDF).
 Calling FoFJK, ICntrl=      2127 FMM=F ISym2X=0 I1Cent= 0 IOpClX= 0 NMat=1 NMatS=1 NMatT=0.
 FoFJK:  IHMeth= 1 ICntrl=    2127 DoSepK=F KAlg= 0 I1Cent=   0 FoldK=F
 IRaf=         0 NMat=   1 IRICut=       1 DoRegI=T DoRafI=F ISym2E= 0.
 FoFCou: FMM=F IPFlag=           0 FMFlag=      100000 FMFlg1=         800
         NFxFlg=           0 DoJE=F BraDBF=F KetDBF=F FulRan=T
         wScrn=  0.000000 ICntrl=    2127 IOpCl=  0 I1Cent=           0 NGrid=           0
         NMat0=    1 NMatS0=      1 NMatT0=    0 NMatD0=    1 NMtDS0=    0 NMtDT0=    0
 Symmetry not used in FoFCou.
 Leave Link  703 at Fri Aug 27 01:03:34 2021, MaxMem= 17179869184 cpu:       190.9
 (Enter /public3/home/sc51754/softwares/g09e01/l716.exe)
 Dipole        =-7.56259433D-01-5.44342067D-01 5.39407199D-01
 ***** Axes restored to original set *****
 -------------------------------------------------------------------
 Center     Atomic                   Forces (Hartrees/Bohr)
 Number     Number              X              Y              Z
 -------------------------------------------------------------------
      1        8          -0.001288767   -0.004414356    0.000189442
      2        7          -0.002098991    0.003095433    0.000188038
      3        6           0.001438123   -0.002430916   -0.000041501
      4        6          -0.000785219   -0.002049967   -0.000051737
      5        6          -0.000761126    0.003706199    0.000000126
      6        6           0.003630460   -0.000610311   -0.000012289
      7        6           0.001858293    0.000702984   -0.000031874
      8        1          -0.002764999    0.001607162   -0.000412065
      9        1           0.000471748   -0.000316421   -0.000004973
     10        1           0.000137518    0.000368430    0.000010254
     11        1           0.000144159   -0.000001531    0.000011135
     12        1           0.000377278    0.000248055    0.000000690
     13        8          -0.003168911   -0.001563685    0.002724163
     14        1          -0.001280117    0.000457230   -0.002064396
     15        1           0.004090550    0.001201693   -0.000505011
 -------------------------------------------------------------------
 Cartesian Forces:  Max     0.004414356 RMS     0.001734443
 Leave Link  716 at Fri Aug 27 01:03:34 2021, MaxMem= 17179869184 cpu:         0.3
 (Enter /public3/home/sc51754/softwares/g09e01/l103.exe)

 GradGradGradGradGradGradGradGradGradGradGradGradGradGradGradGradGradGrad
 Berny optimization.
 FormGI is forming the generalized inverse of G from B-inverse, IUseBI=4.
 Internal  Forces:  Max     0.004863034 RMS     0.001335668
 Search for a local minimum.
 Step number   1 out of a maximum of   88
 All quantities printed in internal units (Hartrees-Bohrs-Radians)
 RMS Force = .13357D-02 SwitMx=.10000D-02 MixMth= 1
 Mixed Optimization -- RFO/linear search
 Second derivative matrix not updated -- first step.
 ITU=  0
     Eigenvalues ---    0.00525   0.00832   0.01684   0.02094   0.02184
     Eigenvalues ---    0.02225   0.02239   0.02286   0.02319   0.02409
     Eigenvalues ---    0.02460   0.05224   0.06028   0.06507   0.08515
     Eigenvalues ---    0.13089   0.16000   0.16000   0.16000   0.16000
     Eigenvalues ---    0.19207   0.20418   0.22000   0.22270   0.23481
     Eigenvalues ---    0.35621   0.35778   0.36026   0.36038   0.41939
     Eigenvalues ---    0.43696   0.46841   0.47322   0.48462   0.48884
     Eigenvalues ---    0.52273   0.55339   0.55352   0.56565
 RFO step:  Lambda=-2.93114923D-04 EMin= 5.24515301D-03
 Linear search not attempted -- first point.
 Iteration  1 RMS(Cart)=  0.00576579 RMS(Int)=  0.00001823
 Iteration  2 RMS(Cart)=  0.00001513 RMS(Int)=  0.00000934
 Iteration  3 RMS(Cart)=  0.00000000 RMS(Int)=  0.00000934
 ITry= 1 IFail=0 DXMaxC= 2.45D-02 DCOld= 1.00D+10 DXMaxT= 3.00D-01 DXLimC= 3.00D+00 Rises=F
 Variable       Old X    -DE/DX   Delta X   Delta X   Delta X     New X
                                 (Linear)    (Quad)   (Total)
    R1        2.53090  -0.00435   0.00000  -0.00831  -0.00830   2.52259
    R2        1.85517  -0.00354   0.00000  -0.00684  -0.00684   1.84833
    R3        2.51733  -0.00486   0.00000  -0.00909  -0.00908   2.50825
    R4        2.53185  -0.00322   0.00000  -0.00574  -0.00574   2.52610
    R5        3.65357  -0.00035   0.00000  -0.00424  -0.00424   3.64933
    R6        2.64886  -0.00277   0.00000  -0.00624  -0.00624   2.64262
    R7        2.60507  -0.00372   0.00000  -0.00738  -0.00738   2.59769
    R8        2.04022  -0.00035   0.00000  -0.00098  -0.00098   2.03925
    R9        2.60933  -0.00323   0.00000  -0.00648  -0.00648   2.60286
   R10        2.04678  -0.00034   0.00000  -0.00094  -0.00094   2.04584
   R11        2.63885  -0.00263   0.00000  -0.00539  -0.00539   2.63346
   R12        2.04430  -0.00013   0.00000  -0.00037  -0.00037   2.04393
   R13        2.04041  -0.00045   0.00000  -0.00124  -0.00124   2.03917
   R14        3.46012  -0.00016   0.00000  -0.00673  -0.00671   3.45341
   R15        3.61122  -0.00082   0.00000  -0.00285  -0.00288   3.60834
   R16        1.81521  -0.00246   0.00000  -0.00444  -0.00444   1.81077
   R17        1.85250  -0.00415   0.00000  -0.00857  -0.00857   1.84393
    A1        1.91487   0.00042   0.00000   0.00016   0.00015   1.91503
    A2        2.06532  -0.00045   0.00000  -0.00289  -0.00289   2.06243
    A3        1.87270   0.00023   0.00000   0.00083   0.00082   1.87352
    A4        2.34514   0.00022   0.00000   0.00206   0.00206   2.34720
    A5        2.07766   0.00076   0.00000   0.00115   0.00116   2.07882
    A6        2.06520  -0.00149   0.00000  -0.00431  -0.00431   2.06088
    A7        2.14032   0.00074   0.00000   0.00316   0.00316   2.14348
    A8        2.06244  -0.00029   0.00000  -0.00144  -0.00144   2.06100
    A9        2.08413  -0.00030   0.00000  -0.00207  -0.00207   2.08206
   A10        2.13661   0.00059   0.00000   0.00351   0.00351   2.14012
   A11        2.15286   0.00056   0.00000   0.00227   0.00227   2.15512
   A12        2.02165  -0.00049   0.00000  -0.00245  -0.00245   2.01920
   A13        2.10868  -0.00007   0.00000   0.00018   0.00018   2.10886
   A14        2.08831  -0.00004   0.00000   0.00056   0.00056   2.08887
   A15        2.09381  -0.00002   0.00000  -0.00056  -0.00056   2.09325
   A16        2.10106   0.00007   0.00000   0.00000   0.00000   2.10106
   A17        2.05711  -0.00052   0.00000  -0.00166  -0.00166   2.05546
   A18        2.10400   0.00021   0.00000   0.00050   0.00050   2.10451
   A19        2.12207   0.00031   0.00000   0.00116   0.00116   2.12322
   A20        2.78431  -0.00082   0.00000  -0.00074  -0.00077   2.78354
   A21        2.25759   0.00031   0.00000   0.00069   0.00070   2.25828
   A22        2.11576   0.00022   0.00000   0.00396   0.00396   2.11972
   A23        1.86403  -0.00026   0.00000  -0.00145  -0.00143   1.86260
   A24        1.30192  -0.00171   0.00000  -0.00282  -0.00281   1.29911
   A25        2.52674  -0.00098   0.00000  -0.00332  -0.00338   2.52336
    D1        0.00739  -0.00003   0.00000  -0.00053  -0.00054   0.00685
    D2       -3.13430  -0.00002   0.00000  -0.00036  -0.00037  -3.13467
    D3        0.07175  -0.00010   0.00000  -0.00758  -0.00758   0.06416
    D4       -0.00835   0.00010   0.00000   0.00275   0.00276  -0.00559
    D5       -3.13923   0.00002   0.00000   0.00002   0.00001  -3.13921
    D6        0.00246   0.00000   0.00000  -0.00016  -0.00016   0.00230
    D7       -0.00357  -0.00003   0.00000  -0.00146  -0.00146  -0.00503
    D8        3.13812  -0.00004   0.00000  -0.00164  -0.00164   3.13648
    D9       -0.00196  -0.00002   0.00000  -0.00037  -0.00037  -0.00233
   D10        3.13867  -0.00001   0.00000  -0.00022  -0.00022   3.13845
   D11       -3.13562   0.00005   0.00000   0.00162   0.00162  -3.13401
   D12        0.00500   0.00005   0.00000   0.00177   0.00177   0.00677
   D13       -0.00000   0.00005   0.00000   0.00178   0.00178   0.00178
   D14       -0.09978   0.00016   0.00000   0.01847   0.01847  -0.08131
   D15        3.13428  -0.00001   0.00000  -0.00007  -0.00007   3.13421
   D16        3.03451   0.00010   0.00000   0.01662   0.01661   3.05112
   D17        3.14017  -0.00000   0.00000   0.00047   0.00047   3.14065
   D18        0.00037  -0.00001   0.00000   0.00002   0.00003   0.00039
   D19       -0.00152   0.00002   0.00000   0.00065   0.00065  -0.00087
   D20       -3.14132   0.00001   0.00000   0.00020   0.00020  -3.14112
   D21       -0.00000  -0.00002   0.00000  -0.00062  -0.00061  -0.00062
   D22       -3.14062  -0.00001   0.00000  -0.00060  -0.00060  -3.14122
   D23        3.13975  -0.00001   0.00000  -0.00016  -0.00016   3.13959
   D24       -0.00088  -0.00001   0.00000  -0.00014  -0.00014  -0.00101
   D25        0.00051   0.00001   0.00000   0.00039   0.00039   0.00090
   D26        3.14103   0.00001   0.00000   0.00041   0.00041   3.14145
   D27       -3.14007   0.00001   0.00000   0.00023   0.00023  -3.13984
   D28        0.00046   0.00001   0.00000   0.00025   0.00025   0.00071
   D29        0.00048   0.00000   0.00000   0.00013   0.00013   0.00060
   D30       -3.14004   0.00001   0.00000   0.00011   0.00011  -3.13993
   D31        3.14109  -0.00000   0.00000   0.00011   0.00011   3.14120
   D32        0.00058   0.00000   0.00000   0.00008   0.00009   0.00066
   D33       -1.92611   0.00017   0.00000   0.01555   0.01556  -1.91055
   D34        0.00552  -0.00010   0.00000  -0.00300  -0.00301   0.00251
   D35        1.52863   0.00039   0.00000   0.00426   0.00426   1.53289
   D36        2.18999   0.00015   0.00000  -0.01210  -0.01210   2.17789
         Item               Value     Threshold  Converged?
 Maximum Force            0.004863     0.000450     NO 
 RMS     Force            0.001336     0.000300     NO 
 Maximum Displacement     0.024477     0.001800     NO 
 RMS     Displacement     0.005771     0.001200     NO 
 Predicted change in Energy=-1.468744D-04
 Lowest energy point so far.  Saving SCF results.
 GradGradGradGradGradGradGradGradGradGradGradGradGradGradGradGradGradGrad

 Leave Link  103 at Fri Aug 27 01:03:35 2021, MaxMem= 17179869184 cpu:        93.8
 (Enter /public3/home/sc51754/softwares/g09e01/l202.exe)
                          Input orientation:                          
 ---------------------------------------------------------------------
 Center     Atomic      Atomic             Coordinates (Angstroms)
 Number     Number       Type             X           Y           Z
 ---------------------------------------------------------------------
      1          8           0        1.209645    1.443966   -0.003942
      2          7           0        0.306243   -0.665860   -0.006598
      3          6           0        0.136169    0.650494   -0.000907
      4          6           0       -1.126518    1.251411    0.008114
      5          6           0       -0.781614   -1.442703   -0.006226
      6          6           0       -2.232056    0.434454    0.010093
      7          6           0       -2.067571   -0.949352    0.002418
      8          1           0        2.022293    0.899807   -0.016680
      9          1           0       -1.198836    2.328101    0.011963
     10          1           0       -0.596634   -2.509366   -0.014053
     11          1           0       -3.223159    0.867504    0.016653
     12          1           0       -2.912880   -1.620078    0.002182
     13          8           0        3.088345   -0.583086   -0.081473
     14          1           0        3.581013   -0.878564    0.685439
     15          1           0        2.208046   -1.000556   -0.027540
 ---------------------------------------------------------------------
                    Distance matrix (angstroms):
                    1          2          3          4          5
     1  O    0.000000
     2  N    2.295106   0.000000
     3  C    1.334900   1.327307   0.000000
     4  C    2.344116   2.393522   1.398414   0.000000
     5  C    3.506848   1.336757   2.285570   2.716140   0.000000
     6  C    3.586728   2.766574   2.378084   1.374640   2.372292
     7  C    4.058097   2.390698   2.723231   2.393527   1.377372
     8  H    0.978094   2.322982   1.902595   3.168478   3.653678
     9  H    2.565683   3.351031   2.144009   1.079123   3.793860
    10  H    4.346444   2.052743   3.243745   3.797988   1.082611
    11  H    4.470177   3.848171   3.366376   2.131516   3.361357
    12  H    5.136498   3.357582   3.801605   3.381800   2.138650
    13  O    2.764863   2.784340   3.200555   4.597660   3.964996
    14  H    3.390100   3.353846   3.830932   5.211182   4.452996
    15  H    2.640654   1.931143   2.649405   4.023922   3.022254
                    6          7          8          9         10
     6  C    0.000000
     7  C    1.393569   0.000000
     8  H    4.279808   4.488512   0.000000
     9  H    2.157184   3.390647   3.523708   0.000000
    10  H    3.367679   2.144194   4.298982   4.874875   0.000000
    11  H    1.081600   2.153265   5.245657   2.496247   4.278180
    12  H    2.164414   1.079083   5.541309   4.304202   2.481147
    13  O    5.417605   5.169589   1.827468   5.183017   4.158626
    14  H    5.997657   5.690170   2.466817   5.795104   4.538892
    15  H    4.666388   4.276028   1.909451   4.763231   3.184794
                   11         12         13         14         15
    11  H    0.000000
    12  H    2.506899   0.000000
    13  O    6.476799   6.090734   0.000000
    14  H    7.056400   6.571707   0.958219   0.000000
    15  H    5.743656   5.158349   0.975765   1.551858   0.000000
 Stoichiometry    C5H7NO2
 Framework group  C1[X(C5H7NO2)]
 Deg. of freedom    39
 Full point group                 C1      NOp   1
 RotChk:  IX=0 Diff= 6.88D-04
 Largest Abelian subgroup         C1      NOp   1
 Largest concise Abelian subgroup C1      NOp   1
                         Standard orientation:                         
 ---------------------------------------------------------------------
 Center     Atomic      Atomic             Coordinates (Angstroms)
 Number     Number       Type             X           Y           Z
 ---------------------------------------------------------------------
      1          8           0        1.210364    1.444028   -0.003784
      2          7           0        0.306447   -0.665577   -0.007063
      3          6           0        0.136696    0.650816   -0.000845
      4          6           0       -1.125844    1.252037    0.008640
      5          6           0       -0.781599   -1.442156   -0.006778
      6          6           0       -2.231580    0.435349    0.010521
      7          6           0       -2.067433   -0.948494    0.002295
      8          1           0        2.022877    0.899676   -0.016880
      9          1           0       -1.197899    2.328744    0.012908
     10          1           0       -0.596880   -2.508860   -0.015040
     11          1           0       -3.222576    0.868637    0.017431
     12          1           0       -2.912906   -1.619014    0.001966
     13          8           0        3.088556   -0.583453   -0.082432
     14          1           0        3.581297   -0.879338    0.684276
     15          1           0        2.208165   -1.000728   -0.028490
 ---------------------------------------------------------------------
 Rotational constants (GHZ):      4.0353374      1.4254292      1.0558374
 Leave Link  202 at Fri Aug 27 01:03:36 2021, MaxMem= 17179869184 cpu:         5.8
 (Enter /public3/home/sc51754/softwares/g09e01/l301.exe)
 Basis read from rwf:  (5D, 7F)
 No pseudopotential information found on rwf file.
 There are   385 symmetry adapted cartesian basis functions of A   symmetry.
 There are   338 symmetry adapted basis functions of A   symmetry.
   338 basis functions,   566 primitive gaussians,   385 cartesian basis functions
    30 alpha electrons       30 beta electrons
       nuclear repulsion energy       358.5729204302 Hartrees.
 IExCor= 4336 DFT=T Ex+Corr=M062X ExCW=0 ScaHFX=  0.540000
 ScaDFX=  1.000000  1.000000  1.000000  1.000000 ScalE2=  1.000000  1.000000
 IRadAn=      0 IRanWt=     -1 IRanGd=            0 ICorTp=0 IEmpDi=  4
 NAtoms=   15 NActive=   15 NUniq=   15 SFac= 1.00D+00 NAtFMM=   60 NAOKFM=F Big=F
 Integral buffers will be    131072 words long.
 Raffenetti 2 integral format.
 Two-electron integral symmetry is turned on.
 No density basis found on file   724.
 Leave Link  301 at Fri Aug 27 01:03:36 2021, MaxMem= 17179869184 cpu:         1.0
 (Enter /public3/home/sc51754/softwares/g09e01/l302.exe)
 NPDir=0 NMtPBC=     1 NCelOv=     1 NCel=       1 NClECP=     1 NCelD=      1
         NCelK=      1 NCelE2=     1 NClLst=     1 CellRange=     0.0.
 One-electron integrals computed using PRISM.
 NBasis=   338 RedAO= T EigKep=  1.44D-04  NBF=   338
 NBsUse=   338 1.00D-06 EigRej= -1.00D+00 NBFU=   338
 Precomputing XC quadrature grid using
 IXCGrd= 4 IRadAn=           0 IRanWt=          -1 IRanGd=           0 AccXCQ= 0.00D+00.
 Generated NRdTot=       0 NPtTot=           0 NUsed=           0 NTot=          32
 NSgBfM=   384   384   384   384   385 MxSgAt=    15 MxSgA2=    15.
 Leave Link  302 at Fri Aug 27 01:03:37 2021, MaxMem= 17179869184 cpu:        42.1
 (Enter /public3/home/sc51754/softwares/g09e01/l303.exe)
 DipDrv:  MaxL=1.
 Leave Link  303 at Fri Aug 27 01:03:37 2021, MaxMem= 17179869184 cpu:        14.8
 (Enter /public3/home/sc51754/softwares/g09e01/l401.exe)
 Initial guess from the checkpoint file:  "HY_H2O_M062X_PC2_OPT_FREQ.chk"
 B after Tr=     0.000000   -0.000000    0.000000
         Rot=    1.000000   -0.000040    0.000014   -0.000037 Ang=  -0.01 deg.
 Guess basis will be translated and rotated to current coordinates.
 JPrj=2 DoOrth=T DoCkMO=T.
 Generating alternative initial guess.
 ExpMin= 7.41D-02 ExpMax= 1.48D+04 ExpMxC= 5.05D+02 IAcc=2 IRadAn=         4 AccDes= 0.00D+00
 Harris functional with IExCor= 1009 and IRadAn=       4 diagonalized for initial guess.
 HarFok:  IExCor= 1009 AccDes= 0.00D+00 IRadAn=         4 IDoV= 1 UseB2=F ITyADJ=14
 ICtDFT=  3500011 ScaDFX=  1.000000  1.000000  1.000000  1.000000
 FoFCou: FMM=F IPFlag=           0 FMFlag=      100000 FMFlg1=           0
         NFxFlg=           0 DoJE=T BraDBF=F KetDBF=T FulRan=T
         wScrn=  0.000000 ICntrl=     500 IOpCl=  0 I1Cent=   200000004 NGrid=           0
         NMat0=    1 NMatS0=      1 NMatT0=    0 NMatD0=    1 NMtDS0=    0 NMtDT0=    0
 Petite list used in FoFCou.
 Harris En= -399.803178861008    
 Leave Link  401 at Fri Aug 27 01:03:39 2021, MaxMem= 17179869184 cpu:        93.2
 (Enter /public3/home/sc51754/softwares/g09e01/l502.exe)
 Closed shell SCF:
 Using DIIS extrapolation, IDIIS=  1040.
 Integral symmetry usage will be decided dynamically.
 Keep R1 ints in memory in canonical form, NReq=1670404686.
 IVT=      490665 IEndB=      490665 NGot= 17179869184 MDV= 15538220534
 LenX= 15538220534 LenY= 15538071868
 Requested convergence on RMS density matrix=1.00D-08 within 128 cycles.
 Requested convergence on MAX density matrix=1.00D-06.
 Requested convergence on             energy=1.00D-06.
 No special actions if energy rises.
 FoFCou: FMM=F IPFlag=           0 FMFlag=           0 FMFlg1=           0
         NFxFlg=           0 DoJE=F BraDBF=F KetDBF=F FulRan=T
         wScrn=  0.000000 ICntrl=     600 IOpCl=  0 I1Cent=           0 NGrid=           0
         NMat0=    1 NMatS0=  57291 NMatT0=    0 NMatD0=    1 NMtDS0=    0 NMtDT0=    0
 Symmetry not used in FoFCou.
 Integral accuracy reduced to 1.0D-05 until final iterations.

 Cycle   1  Pass 0  IDiag  1:
 E= -399.972529720947    
 DIIS: error= 2.88D-04 at cycle   1 NSaved=   1.
 NSaved= 1 IEnMin= 1 EnMin= -399.972529720947     IErMin= 1 ErrMin= 2.88D-04
 ErrMax= 2.88D-04  0.00D+00 EMaxC= 1.00D-01 BMatC= 8.19D-05 BMatP= 8.19D-05
 IDIUse=3 WtCom= 9.97D-01 WtEn= 2.88D-03
 Coeff-Com:  0.100D+01
 Coeff-En:   0.100D+01
 Coeff:      0.100D+01
 Gap=     0.707 Goal=   None    Shift=    0.000
 RMSDP=3.44D-05 MaxDP=9.71D-04              OVMax= 1.61D-03

 Cycle   2  Pass 0  IDiag  1:
 E= -399.972594797852     Delta-E=       -0.000065076905 Rises=F Damp=F
 DIIS: error= 9.36D-05 at cycle   2 NSaved=   2.
 NSaved= 2 IEnMin= 2 EnMin= -399.972594797852     IErMin= 2 ErrMin= 9.36D-05
 ErrMax= 9.36D-05  0.00D+00 EMaxC= 1.00D-01 BMatC= 6.20D-06 BMatP= 8.19D-05
 IDIUse=1 WtCom= 1.00D+00 WtEn= 0.00D+00
 Coeff-Com:  0.746D-01 0.925D+00
 Coeff:      0.746D-01 0.925D+00
 Gap=     0.294 Goal=   None    Shift=    0.000
 RMSDP=9.58D-06 MaxDP=6.66D-04 DE=-6.51D-05 OVMax= 7.11D-04

 Initial convergence to 1.0D-05 achieved.  Increase integral accuracy.
 Cycle   3  Pass 1  IDiag  1:
 E= -399.972904780190     Delta-E=       -0.000309982338 Rises=F Damp=F
 DIIS: error= 1.66D-04 at cycle   1 NSaved=   1.
 NSaved= 1 IEnMin= 1 EnMin= -399.972904780190     IErMin= 1 ErrMin= 1.66D-04
 ErrMax= 1.66D-04  0.00D+00 EMaxC= 1.00D-01 BMatC= 2.12D-05 BMatP= 2.12D-05
 IDIUse=3 WtCom= 9.98D-01 WtEn= 1.66D-03
 Coeff-Com:  0.100D+01
 Coeff-En:   0.100D+01
 Coeff:      0.100D+01
 Gap=     0.294 Goal=   None    Shift=    0.000
 RMSDP=9.58D-06 MaxDP=6.66D-04 DE=-3.10D-04 OVMax= 9.33D-04

 Cycle   4  Pass 1  IDiag  1:
 E= -399.972911998972     Delta-E=       -0.000007218782 Rises=F Damp=F
 DIIS: error= 1.04D-04 at cycle   2 NSaved=   2.
 NSaved= 2 IEnMin= 2 EnMin= -399.972911998972     IErMin= 2 ErrMin= 1.04D-04
 ErrMax= 1.04D-04  0.00D+00 EMaxC= 1.00D-01 BMatC= 5.14D-06 BMatP= 2.12D-05
 IDIUse=3 WtCom= 9.99D-01 WtEn= 1.04D-03
 Coeff-Com:  0.263D+00 0.737D+00
 Coeff-En:   0.000D+00 0.100D+01
 Coeff:      0.263D+00 0.737D+00
 Gap=     0.294 Goal=   None    Shift=    0.000
 RMSDP=6.94D-06 MaxDP=5.45D-04 DE=-7.22D-06 OVMax= 9.42D-04

 Cycle   5  Pass 1  IDiag  1:
 E= -399.972914210137     Delta-E=       -0.000002211165 Rises=F Damp=F
 DIIS: error= 7.41D-05 at cycle   3 NSaved=   3.
 NSaved= 3 IEnMin= 3 EnMin= -399.972914210137     IErMin= 3 ErrMin= 7.41D-05
[...]
   A11        2.15548   0.00000   0.00000   0.00002   0.00002   2.15550
   A12        2.01959   0.00000   0.00000   0.00002   0.00002   2.01961
   A13        2.10812  -0.00000   0.00000  -0.00004  -0.00004   2.10808
   A14        2.08854  -0.00000   0.00000  -0.00001  -0.00001   2.08854
   A15        2.09402  -0.00000   0.00000  -0.00004  -0.00004   2.09399
   A16        2.10062   0.00000   0.00000   0.00004   0.00004   2.10066
   A17        2.05538  -0.00000   0.00000  -0.00002  -0.00002   2.05536
   A18        2.10461  -0.00000   0.00000  -0.00004  -0.00004   2.10457
   A19        2.12320   0.00001   0.00000   0.00006   0.00006   2.12326
   A20        2.79152  -0.00003   0.00000  -0.00155  -0.00155   2.78997
   A21        2.26879  -0.00003   0.00000  -0.00160  -0.00160   2.26719
   A22        2.18099   0.00001   0.00000   0.00141   0.00141   2.18239
   A23        1.86883   0.00000   0.00000   0.00026   0.00027   1.86910
   A24        1.28415   0.00002   0.00000   0.00117   0.00117   1.28533
   A25        2.48401   0.00002   0.00000   0.00119   0.00119   2.48519
    D1        0.00918   0.00000   0.00000   0.00068   0.00068   0.00986
    D2       -3.13250   0.00000   0.00000   0.00064   0.00064  -3.13186
    D3        0.06731  -0.00000   0.00000   0.00062   0.00062   0.06793
    D4       -0.00668   0.00000   0.00000  -0.00034  -0.00034  -0.00702
    D5       -3.13941  -0.00000   0.00000   0.00002   0.00002  -3.13939
    D6        0.00228  -0.00000   0.00000   0.00005   0.00005   0.00233
    D7       -0.00743  -0.00000   0.00000  -0.00065  -0.00065  -0.00808
    D8        3.13426  -0.00000   0.00000  -0.00062  -0.00062   3.13364
    D9       -0.00206   0.00000   0.00000  -0.00004  -0.00004  -0.00210
   D10        3.13883  -0.00000   0.00000  -0.00002  -0.00002   3.13881
   D11       -3.13082   0.00000   0.00000   0.00087   0.00087  -3.12995
   D12        0.01007   0.00000   0.00000   0.00089   0.00089   0.01096
   D13        0.00308   0.00000   0.00000   0.00034   0.00034   0.00342
   D14       -0.07790  -0.00000   0.00000  -0.00111  -0.00111  -0.07901
   D15        3.13282  -0.00000   0.00000  -0.00050  -0.00050   3.13232
   D16        3.05184  -0.00000   0.00000  -0.00195  -0.00195   3.04989
   D17        3.14054   0.00000   0.00000   0.00001   0.00001   3.14054
   D18        0.00058   0.00000   0.00000   0.00003   0.00003   0.00061
   D19       -0.00115   0.00000   0.00000  -0.00003  -0.00003  -0.00118
   D20       -3.14111   0.00000   0.00000  -0.00000  -0.00000  -3.14111
   D21       -0.00028  -0.00000   0.00000  -0.00002  -0.00002  -0.00030
   D22       -3.14094   0.00000   0.00000   0.00004   0.00004  -3.14091
   D23        3.13962  -0.00000   0.00000  -0.00005  -0.00005   3.13957
   D24       -0.00105   0.00000   0.00000   0.00001   0.00001  -0.00104
   D25        0.00070  -0.00000   0.00000  -0.00001  -0.00001   0.00069
   D26        3.14136  -0.00000   0.00000   0.00001   0.00001   3.14136
   D27       -3.14016   0.00000   0.00000  -0.00003  -0.00003  -3.14019
   D28        0.00050   0.00000   0.00000  -0.00001  -0.00001   0.00048
   D29        0.00049   0.00000   0.00000   0.00004   0.00004   0.00053
   D30       -3.14016   0.00000   0.00000   0.00002   0.00002  -3.14014
   D31        3.14115  -0.00000   0.00000  -0.00002  -0.00002   3.14113
   D32        0.00050  -0.00000   0.00000  -0.00003  -0.00003   0.00047
   D33       -1.94018  -0.00000   0.00000  -0.00185  -0.00185  -1.94203
   D34        0.00236  -0.00000   0.00000  -0.00000  -0.00000   0.00235
   D35        1.58815   0.00001   0.00000   0.00041   0.00041   1.58857
   D36        2.24685   0.00001   0.00000   0.00295   0.00295   2.24980
         Item               Value     Threshold  Converged?
 Maximum Force            0.000031     0.000450     YES
 RMS     Force            0.000008     0.000300     YES
 Maximum Displacement     0.003463     0.001800     NO 
 RMS     Displacement     0.000777     0.001200     YES
 Predicted change in Energy=-1.140995D-07
 GradGradGradGradGradGradGradGradGradGradGradGradGradGradGradGradGradGrad

 Leave Link  103 at Fri Aug 27 01:09:16 2021, MaxMem= 17179869184 cpu:        14.3
 (Enter /public3/home/sc51754/softwares/g09e01/l9999.exe)
 1\1\GINC-S1512\Freq\RM062X\Gen\C5H7N1O2\SC51754\27-Aug-2021\0\\#P Geom
 =AllCheck Guess=TCheck SCRF=Check GenChk RM062X/ChkBas Freq\\HY_H2O_M0
 62X_PC2_OPT_FREQ\\0,1\O,1.2056374502,1.4420249176,0.0026474909\N,0.300
 4954036,-0.6670217169,-0.0002941171\C,0.1324638219,0.6490217807,0.0028
 530938\C,-1.1312842626,1.2518442933,0.0065301352\C,-0.7891534331,-1.44
 29495994,-0.0025987424\C,-2.2376480335,0.4366518906,0.0054677634\C,-2.
 0744809798,-0.948393856,0.000489685\H,2.0188508281,0.8990012861,-0.008
 4327628\H,-1.200111203,2.3287987934,0.0085191036\H,-0.6059494624,-2.51
 01731452,-0.0078261047\H,-3.2286499078,0.8703823618,0.0076199201\H,-2.
 9205190669,-1.6182073866,-0.0017970288\O,3.0917740109,-0.5643044683,-0
 .0720694413\H,3.6225686963,-0.8878532972,0.656705304\H,2.228493138,-1.
 0126498539,-0.0183722991\\Version=EM64L-G09RevE.01\State=1-A\HF=-399.9
 729589\RMSD=3.272e-09\RMSF=1.840e-05\ZeroPoint=0.1197922\Thermal=0.127
 6533\Dipole=-0.6791665,-0.5800759,0.5106429\DipoleDeriv=-1.5730327,-0.
 5358331,-0.0072082,-0.4542722,-0.6887393,0.0020694,-0.005806,0.0018984
 ,-0.3629113,-0.8901832,0.1127729,-0.0038986,-0.3658673,-0.5872964,-0.0
 003137,-0.0090624,0.0027438,-0.2563589,1.5748305,0.7700616,0.0035639,0
 .6120392,0.6503184,-0.0006238,-0.0024879,-0.001511,0.2122807,-0.553547
 9,-0.4106582,-0.0020263,0.1039373,-0.0105082,-0.0001705,0.00269,-0.000
 7596,-0.1526174,0.502833,-0.2706443,-0.0000979,0.2024331,0.329002,0.00
 52048,-0.0012637,0.0036011,-0.0135592,0.2443947,0.1070826,0.0002195,0.
 0470058,0.4459455,0.0018455,0.000197,0.0014169,-0.0890929,-0.227113,0.
 3164341,0.000448,0.0634592,-0.4051222,-0.0010315,0.0019185,-0.0002479,
 -0.1631821,0.760838,-0.12814,0.0040754,-0.3128318,0.3726104,-0.0105027
 ,0.0009813,-0.0078992,0.2853889,0.0740006,0.0020832,-0.0001033,0.00489
 02,-0.0151155,-0.0004799,0.0003581,0.0000739,0.1510386,0.0606004,0.025
 3887,-0.0003001,-0.0138818,-0.0799159,-0.0005993,-0.0006702,-0.000379,
 0.1096806,-0.0355865,0.053867,0.0001944,0.0550719,0.0600133,-0.0002704
 ,-0.0001678,-0.0002879,0.125574,-0.0020453,-0.0600515,-0.0003439,-0.05
 78131,0.0157391,-0.0003356,-0.0002616,-0.0006914,0.1542158,-1.1610719,
 0.1468153,0.0000953,0.1634691,-0.6020703,-0.1128304,0.0319369,-0.09822
 86,-0.4602193,0.3380118,-0.0147856,-0.0076765,0.0102316,0.2787711,0.07
 01439,-0.0244658,0.0554533,0.2351554,0.8870713,-0.1143929,0.0130584,-0
 .0578711,0.236368,0.047894,0.0061036,0.0448171,0.224607\Polar=95.09246
 1,2.360495,82.7460224,1.0086934,-0.2067816,43.9849263\PG=C01 [X(C5H7N1
 O2)]\NImag=0\\0.64920562,-0.04947805,0.43018391,-0.00515949,0.00314826
 ,0.03979155,0.01441736,-0.05282163,0.00000999,0.49839629,-0.02335059,-
 0.06469423,-0.00025242,0.11363944,0.64722787,0.00006618,-0.00004382,0.
 00693877,0.00040640,0.00171781,0.09443793,-0.27101752,-0.08515834,0.00
 111771,-0.16428591,0.01853862,-0.00010978,0.76152256,-0.12441151,-0.18
 538115,0.00017473,0.06411151,-0.32540266,-0.00074670,0.01907805,0.7187
 2811,0.00011499,-0.00060229,-0.05472393,0.00021746,-0.00052829,-0.0739
 6876,-0.00102608,0.00133865,0.19584855,-0.06963613,0.00589830,0.000042
 04,0.03609280,0.09180367,0.00032950,-0.24734422,0.03511292,0.00027762,
 0.68738390,-0.03117298,0.01767284,0.00014125,0.03229156,-0.02769814,-0
 .00015890,0.11389727,-0.16942374,-0.00041835,0.03738375,0.78299769,0.0
 0024200,0.00017289,0.01053559,-0.00006199,-0.00015170,0.02034893,0.000
 42588,-0.00048862,-0.07936488,-0.00054200,0.00127345,0.12558292,-0.010
 20709,0.00961406,-0.00004768,-0.27665572,-0.08488881,-0.00001944,0.060
 62440,-0.09844243,-0.00033675,-0.08386299,-0.00180271,0.00006913,0.698
 23564,0.00190578,0.00154443,-0.00003298,-0.12505917,-0.19939740,-0.000
 38155,-0.02572457,-0.07520732,-0.00013168,-0.01366207,-0.00181435,-0.0
 0000751,-0.03299091,0.77221273,0.00003236,-0.00001133,0.01064196,-0.00
 036947,-0.00054920,-0.06506848,-0.00015876,-0.00012184,-0.00334059,0.0
 0000670,0.00004780,-0.00573611,-0.00050731,0.00260109,0.16300460,0.004
 28490,0.00426245,0.00008388,-0.01248974,-0.02846019,-0.00011710,-0.060
 99376,0.01020064,0.00012856,-0.29899117,-0.15480447,-0.00019162,0.0265
 6679,0.03906909,0.00015642,0.76175137,0.01865592,-0.00506640,0.0000245
 5,-0.03829995,-0.07603151,-0.00021912,-0.05472962,0.08466176,0.0002925
 9,-0.08348969,-0.22491589,-0.00026755,0.10151673,-0.00966249,-0.000154
 11,-0.01271047,0.68873149,0.00004168,-0.00001058,0.00459508,-0.0000729
 6,-0.00018833,-0.00792612,-0.00009347,0.00025452,0.00217801,-0.0000129
 4,-0.00027606,-0.05930952,0.00028739,-0.00007361,0.00835774,-0.0006806
 6,0.00169126,0.14708358,0.00361031,-0.00681115,0.00000238,-0.07304989,
 -0.06393814,-0.00017233,-0.03649735,0.05741031,0.00014632,0.05296284,-
 0.02532551,-0.00007873,-0.32597518,0.12122963,0.00067410,-0.13523200,-
 0.01371929,-0.00000088,0.75130430,-0.01409052,-0.00044564,-0.00005833,
 0.00958267,0.07102990,0.00020546,0.04476511,-0.05376027,-0.00019876,-0
 .07425448,-0.03495357,-0.00003625,0.04228689,-0.17189892,-0.00051371,0
 .06018567,-0.33071570,-0.00101208,0.04747340,0.70349878,-0.00001226,0.
 00001957,-0.00118767,0.00000813,0.00018026,0.02228792,0.00014989,-0.00
 020951,-0.00936669,-0.00023848,-0.00015187,0.00740159,0.00039183,-0.00
 052924,-0.07035095,0.00021408,-0.00101028,-0.06488669,-0.00024008,0.00
 224338,0.12720133,-0.30427476,0.16763298,0.00388793,0.00225105,0.00947
 619,-0.00011685,-0.05158986,0.00504931,0.00037662,0.00329414,-0.002641
 86,-0.00002474,0.00033623,-0.00001453,-0.00003206,-0.00162710,-0.00086
 522,0.00001263,0.00054034,0.00185824,0.00001462,0.34434687,0.20564616,
 -0.18890765,-0.00346430,0.00213901,-0.00252079,0.00003014,-0.01963076,
 0.02646456,0.00041655,-0.00828753,-0.00413186,0.00002235,-0.00212766,-
 0.00148902,-0.00001057,0.00042646,0.00356067,-0.00001555,0.00127170,-0
 .00238648,0.00000081,-0.16993145,0.17481368,0.00506706,-0.00331124,-0.
 01584895,-0.00012970,0.00005497,-0.00273930,-0.00034537,-0.00010933,-0
 .00110051,0.00005099,-0.00003049,0.00360436,0.00003932,-0.00000903,-0.
 00062408,-0.00005119,-0.00004559,0.00147058,-0.00002063,0.00004223,0.0
 0041523,-0.00445649,0.00454413,0.02101553,0.00166681,-0.00085164,-0.00
 001103,-0.00599632,0.00527478,0.00001510,0.00528272,0.02820698,0.00004
 676,-0.06005166,0.02026429,0.00007360,-0.00217480,-0.00135104,-0.00000
 081,0.00745182,-0.02630255,-0.00005409,-0.00372760,-0.00282522,0.00000
 543,-0.00017979,0.00009430,-0.00000533,0.05579754,-0.00064453,0.000912
 59,0.00001062,0.00267946,-0.00035176,-0.00001413,-0.00367780,-0.009930
 99,-0.00001227,0.02255662,-0.34635244,-0.00049785,0.00059956,0.0010894
 3,0.00000512,0.00340614,-0.01159267,-0.00003371,-0.00340084,0.00099177
 ,-0.00000139,0.00021359,-0.00005056,0.00000128,-0.02171116,0.36505064,
 -0.00000789,-0.00000828,-0.00213936,0.00003060,-0.00005393,0.00559215,
 -0.00004952,-0.00005173,0.00253927,0.00011026,-0.00041411,-0.03505083,
 0.00002996,0.00001342,-0.00028868,-0.00001098,-0.00004625,0.00239556,-
 0.00001300,-0.00001441,0.00891753,-0.00000417,0.00000561,-0.00065703,-
 0.00006675,0.00054386,0.02471826,-0.00030409,-0.00125879,0.00000226,0.
 00249731,-0.03384178,-0.00015476,-0.00245377,-0.00407506,0.00000229,-0
 .00088905,-0.00074000,-0.00000226,-0.07012191,0.05846848,0.00028288,-0
 .00567698,0.00187768,0.00001928,0.00143120,0.02830490,0.00012820,0.000
 40476,-0.00015648,-0.00000090,0.00017503,-0.00000898,-0.00000223,0.074
 41934,-0.00033972,-0.00115601,0.00000129,-0.00611651,-0.02075696,-0.00
 008142,-0.00234985,0.00175056,-0.00007117,0.00010818,0.00052279,0.0000
 0861,0.05601763,-0.32273003,-0.00129248,0.00242825,0.00058690,-0.00004
 564,-0.00097132,-0.00629715,-0.00006122,0.00035871,-0.00003125,-0.0000
 0327,0.00009559,-0.00009548,0.00000816,-0.04943137,0.34843945,-0.00000
 927,-0.00000233,0.00023598,0.00002488,0.00001549,-0.00294704,0.0000250
 1,-0.00002583,0.01012640,-0.00001398,0.00001002,-0.00057064,0.00022841
 ,-0.00143206,-0.04383181,0.00001288,-0.00000295,0.00771724,0.00003001,
 -0.00006663,0.00766442,-0.00000359,-0.00000627,-0.00018939,-0.00000406
 ,0.00000173,-0.00159368,-0.00024479,0.00150913,0.02782006,-0.00164336,
 0.00077377,0.00001178,0.00016220,-0.00078126,-0.00000346,-0.00149467,-
 0.00373277,-0.00000379,-0.01751324,0.01261803,0.00004846,0.00189774,0.
 00052117,0.00000056,-0.29385824,0.10144412,0.00053751,0.00125457,-0.00
 083203,-0.00000095,0.00001555,-0.00038248,-0.00000511,0.00100099,-0.00
 017118,-0.00000741,-0.00005786,-0.00014772,-0.00000103,0.30982101,-0.0
 0091447,0.00071803,0.00001013,-0.00088898,-0.00045647,0.00000706,-0.00
 376209,-0.00182112,-0.00002677,-0.01796539,0.01199922,0.00002365,0.000
 14191,-0.00658369,-0.00004973,0.10228636,-0.10514487,-0.00023015,0.029
 49417,-0.00553373,-0.00005661,-0.00017292,-0.00022599,-0.00000054,0.00
 060679,0.00071120,0.00001382,0.00157566,-0.00043594,0.00000090,-0.1097
 4962,0.10566184,-0.00001878,-0.00000930,-0.00053817,0.00000329,0.00001
 325,-0.00314859,0.00001649,-0.00001967,0.01039092,-0.00003148,0.000028
 19,0.00588773,-0.00000188,-0.00005559,0.00748551,0.00052094,-0.0002210
 2,-0.04290156,0.00010710,-0.00004935,0.00545271,0.00000060,-0.00000396
 ,-0.00041487,-0.00000642,0.00000577,-0.00492314,0.00000347,-0.00000026
 ,-0.00053523,-0.00058245,0.00029064,0.02687706,0.00045553,-0.00029052,
 0.00000056,-0.00539637,0.00245076,0.00001653,-0.00050859,0.00201715,0.
 00000458,0.00127030,0.00162826,0.00000230,-0.01544884,-0.02193506,-0.0
 0008307,0.00811592,0.00506593,0.00002184,-0.23757088,-0.14077517,-0.00
 045366,0.00005069,0.00021984,-0.00000325,0.00030041,0.00034335,-0.0000
 0090,0.00061251,0.00036519,0.00000073,0.00049041,-0.00059902,-0.000002
 85,0.24753676,-0.00023510,0.00050721,0.00000644,0.00356203,0.00080082,
 -0.00003886,0.00139378,-0.00163225,-0.00000383,0.00217160,-0.00492995,
 -0.00004638,0.01032730,0.01144158,0.00004807,-0.02585164,-0.01296453,-
 0.00004571,-0.14156482,-0.17015703,-0.00045565,0.00000487,-0.00011628,
 0.00000079,-0.00125874,-0.00049747,-0.00000043,-0.00058636,0.00038786,
 0.00001595,0.00034344,0.00106399,0.00001818,0.15171916,0.17598575,-0.0
 0001189,-0.00000229,-0.00131977,0.00003038,-0.00003221,0.00849627,0.00
 001029,-0.00000325,0.00035048,0.00001415,-0.00003493,0.00650864,0.0000
 4955,0.00006781,-0.00019330,-0.00009162,-0.00004334,0.00128892,-0.0004
 8240,-0.00049370,-0.03393850,0.00000500,-0.00000212,-0.00002960,-0.000
 00692,-0.00000249,0.00048008,-0.00000601,0.00002450,-0.00377739,0.0000
 0036,0.00001862,-0.00359806,0.00049233,0.00050060,0.02568424,-0.008847
 62,0.01077190,0.00002543,-0.01798524,-0.00288851,-0.00074828,0.0013539
 5,-0.00104500,0.00012506,-0.00083511,0.00044637,0.00009059,0.00020363,
 0.00529598,0.00000629,-0.00018238,-0.00012903,-0.00001448,-0.00186353,
 -0.00068749,0.00008010,-0.00080473,-0.00713875,0.00014038,-0.00023357,
 0.00013362,-0.00000129,-0.00017653,-0.00052624,-0.00004128,-0.00016460
 ,0.00000255,-0.00001251,-0.00049482,0.00012580,0.00000679,0.57699803,0
 .02007284,-0.00495399,0.00167470,-0.00134126,0.00718307,-0.00046291,-0
 .01097026,-0.00966951,-0.00011623,0.00344553,0.00180851,-0.00007954,0.
 00133681,0.00010089,-0.00002044,-0.00058970,-0.00166417,-0.00001798,-0
 .00044385,0.00146745,0.00003009,-0.00967261,0.00318502,-0.00493928,-0.
 00043440,0.00015900,-0.00000534,0.00032316,0.00014884,-0.00001859,0.00
 012908,0.00008251,0.00000987,-0.00003422,0.00006561,0.00000286,0.09632
 879,0.21381223,-0.00118652,0.00210669,0.00480424,-0.00164043,-0.000068
 50,0.00565443,-0.00016657,-0.00052686,-0.00084938,0.00007555,0.0000575
 5,-0.00064245,0.00002779,0.00006188,0.00012729,-0.00004328,-0.00009405
 ,0.00007457,-0.00006902,0.00006671,-0.00051281,0.00091988,-0.00292875,
 -0.00832619,-0.00000505,0.00000700,0.00000265,0.00003259,-0.00000214,0
 .00014925,0.00000341,0.00000472,0.00007591,-0.00001745,0.00000067,-0.0
 0006042,0.20122339,-0.17758979,0.35702715,0.00119677,0.00021996,0.0004
 1631,-0.00173037,-0.00060298,0.00151896,-0.00073221,-0.00045298,-0.000
 24407,0.00018221,0.00004084,-0.00014769,-0.00052321,0.00019893,0.00000
 543,-0.00000880,-0.00004146,0.00002116,0.00001338,-0.00011750,-0.00013
 144,-0.00164644,0.00074914,-0.00079791,0.00000709,0.00001229,-0.000001
 53,-0.00005828,-0.00003755,0.00004152,0.00001845,-0.00000331,0.0000197
 5,-0.00001545,0.00001461,-0.00001307,-0.18685881,0.06840741,-0.1996544
 8,0.20687403,0.00188570,-0.00182537,-0.00126300,-0.00130623,0.00026665
 ,0.00037396,-0.00022332,-0.00066118,0.00008067,0.00010956,0.00010582,0
 .00003618,0.00009272,0.00040022,-0.00000549,0.00001109,-0.00003855,0.0
 0001016,-0.00010468,-0.00004871,-0.00001565,-0.00119390,0.00283128,0.0
 0342416,-0.00002218,0.00001169,0.00000619,-0.00005321,-0.00006389,-0.0
 0000964,0.00000965,0.00000093,-0.00000568,-0.00003182,0.00000766,0.000
 00076,0.09894844,-0.08552328,0.15612374,-0.08643146,0.07787443,0.00195
 516,-0.00173840,-0.00029558,0.00122279,0.00015980,-0.00023318,-0.00049
 585,-0.00008177,0.00005862,0.00012554,-0.00000636,0.00001061,-0.000026
 35,-0.00012729,0.00000046,0.00001972,-0.00000070,-0.00000859,0.0000974
 1,0.00001635,0.00000616,-0.00165105,0.00263270,0.00043988,0.00000261,-
 0.00000238,0.00001275,-0.00002557,0.00002115,0.00002106,0.00000956,-0.
 00000216,0.00000382,0.00002436,0.00000030,0.00001036,-0.23816657,0.138
 73124,-0.31904485,0.23220888,-0.14164583,0.31930426,-0.00890673,-0.002
 50328,-0.00038206,0.00377254,-0.00243121,-0.00091067,0.00813421,0.0109
 7286,0.00017043,-0.00206262,-0.00208284,0.00009707,-0.00289469,-0.0059
 5171,-0.00001326,0.00088937,0.00172691,-0.00001202,0.00279948,-0.00087
 447,0.00008460,0.00888305,-0.00289150,0.00051814,0.00068133,-0.0003301
 3,-0.00000515,0.00019830,0.00054674,-0.00004545,0.00007106,-0.00005164
 ,-0.00001529,0.00060242,-0.00016591,0.00000308,-0.36010868,-0.16655730
 ,0.00050020,-0.01671837,-0.01169036,0.00469934,0.36465933,-0.00352892,
 0.00089144,-0.00012097,-0.00217195,-0.00919839,-0.00018700,0.00855378,
 0.00128520,-0.00001882,-0.00093096,-0.00088694,0.00003827,-0.00168108,
 0.00199394,0.00002681,0.00014032,0.00025597,-0.00000656,-0.00059959,-0
 .00079069,0.00001731,-0.00010138,-0.01099531,0.00038122,0.00021421,-0.
 00005495,0.00000341,-0.00039785,-0.00026970,0.00001108,-0.00004220,-0.
 00003591,-0.00000107,-0.00014383,0.00003701,-0.00000081,-0.19963844,-0
 .12620218,0.02278113,0.01804405,0.00666230,0.00204335,0.18228384,0.137
 30821,-0.00111333,0.00029246,-0.00148974,0.00032064,-0.00031699,-0.007
 72491,0.00070013,0.00061721,0.00122251,-0.00019348,-0.00006721,0.00079
 405,-0.00018396,0.00003635,-0.00018355,0.00004998,0.00009654,-0.000128
 80,0.00001975,-0.00013090,0.00089640,0.00107167,-0.00122077,0.00298434
 ,0.00001696,-0.00001117,-0.00000554,-0.00003447,-0.00001525,-0.0002892
 1,-0.00000745,-0.00000358,-0.00011403,-0.00000205,-0.00000015,0.000098
 05,0.03728637,0.04280134,-0.03847938,-0.03324180,-0.01711055,-0.000285
 77,-0.00468896,-0.02496734,0.04270558\\0.00002633,0.00005074,-0.000010
 18,0.00002017,0.00004588,-0.00000326,-0.00001742,-0.00002787,0.0000033
 7,-0.00001246,-0.00000423,0.00000008,-0.00002010,-0.00001488,0.0000036
 2,0.00000259,0.00000800,-0.00000346,0.00001956,-0.00002027,0.00000407,
 -0.00005062,-0.00003519,0.00000379,-0.00000880,-0.00000391,-0.00000340
 ,0.00001135,0.00000102,0.00000306,-0.00000411,-0.00001390,-0.00000076,
 0.00000178,-0.00000678,0.00000296,0.00002475,0.00002534,-0.00001210,-0
 .00000363,0.00001454,0.00001202,0.00001062,-0.00001848,0.00000019\\\@


 AS FAR AS THE LAWS OF MATHEMATICS REFER TO REALITY,
 THEY ARE NOT CERTAIN; AND AS FAR AS THEY ARE CERTAIN,
 THEY DO NOT REFER TO REALITY.

                                         -- ALBERT EINSTEIN
 Job cpu time:       0 days  1 hours 15 minutes 15.0 seconds.
 File lengths (MBytes):  RWF=    137 Int=      0 D2E=      0 Chk=      9 Scr=      1
 Normal termination of Gaussian 09 at Fri Aug 27 01:09:16 2021.
