 Entering Gaussian System, Link 0=g09
 AtFile(1): pc-2.gbs
            -H     0
            S    4   1.00
                  0.754230D+02           0.240650D-02
                  0.113500D+02           0.184870D-01
                  0.259930D+01           0.897420D-01
                  0.735130D+00           0.281110D+00
            S    1   1.00
                  0.231670D+00           0.100000D+01
            S    1   1.00
                  0.741470D-01           0.100000D+01
            P    1   1.00
                  0.160000D+01           0.100000D+01
            P    1   1.00
                  0.450000D+00           0.100000D+01
            D    1   1.00
                  0.125000D+01           0.100000D+01
            ****
            -C     0
            S    7   1.00
                  0.785710D+04           0.568250D-03
                  0.117870D+04           0.439150D-02
                  0.268320D+03           0.225040D-01
                  0.759480D+02           0.866530D-01
                  0.245590D+02           0.244050D+00
                  0.862120D+01           0.441480D+00
                  0.312780D+01           0.353320D+00
            S    7   1.00
                  0.117870D+04          -0.594920D-06
                  0.268320D+03          -0.627480D-04
                  0.759480D+02          -0.757730D-03
                  0.245590D+02          -0.733080D-02
                  0.862120D+01          -0.389320D-01
                  0.312780D+01          -0.889080D-01
                  0.822020D+00           0.216890D+00
            S    1   1.00
                  0.330170D+00           0.100000D+01
            S    1   1.00
                  0.114630D+00           0.100000D+01
            P    4   1.00
                  0.337750D+02           0.602940D-02
                  0.767660D+01           0.432280D-01
                  0.223570D+01           0.163010D+00
                  0.764470D+00           0.365040D+00
            P    1   1.00
                  0.262320D+00           0.100000D+01
            P    1   1.00
                  0.846380D-01           0.100000D+01
            D    1   1.00
                  0.140000D+01           0.100000D+01
            D    1   1.00
                  0.450000D+00           0.100000D+01
            F    1   1.00
                  0.950000D+00           0.100000D+01
            ****
            -N     0
            S    7   1.00
                  0.111010D+05           0.545700D-03
                  0.166530D+04           0.421810D-02
                  0.379080D+03           0.216450D-01
                  0.107300D+03           0.837760D-01
                  0.347470D+02           0.238810D+00
                  0.122490D+02           0.439940D+00
                  0.447430D+01           0.363640D+00
            S    7   1.00
                  0.166530D+04          -0.150060D-05
                  0.379080D+03          -0.587530D-04
                  0.107300D+03          -0.774530D-03
                  0.347470D+02          -0.721610D-02
                  0.122490D+02          -0.393380D-01
                  0.447430D+01          -0.906110D-01
                  0.124040D+01           0.198820D+00
            S    1   1.00
                  0.487430D+00           0.100000D+01
            S    1   1.00
                  0.164840D+00           0.100000D+01
            P    4   1.00
                  0.479340D+02           0.617060D-02
                  0.109990D+02           0.442600D-01
                  0.324720D+01           0.168250D+00
                  0.111140D+01           0.368480D+00
            P    1   1.00
                  0.379880D+00           0.100000D+01
            P    1   1.00
                  0.120680D+00           0.100000D+01
            D    1   1.00
                  0.180000D+01           0.100000D+01
            D    1   1.00
                  0.550000D+00           0.100000D+01
            F    1   1.00
                  0.102000D+01           0.100000D+01
            ****
            -O     0
            S    7   1.00
                  0.147820D+05           0.535190D-03
                  0.221730D+04           0.413750D-02
                  0.504740D+03           0.212450D-01
                  0.142870D+03           0.824530D-01
                  0.463000D+02           0.236710D+00
                  0.163370D+02           0.440390D+00
                  0.598280D+01           0.364650D+00
            S    7   1.00
                  0.221730D+04          -0.192750D-05
                  0.504740D+03          -0.579640D-04
                  0.142870D+03          -0.794940D-03
                  0.463000D+02          -0.731250D-02
                  0.163370D+02          -0.405740D-01
                  0.598280D+01          -0.915940D-01
                  0.167180D+01           0.209400D+00
            S    1   1.00
                  0.646620D+00           0.100000D+01
            S    1   1.00
                  0.216690D+00           0.100000D+01
            P    4   1.00
                  0.604240D+02           0.689490D-02
                  0.139350D+02           0.490050D-01
                  0.415310D+01           0.182550D+00
                  0.141580D+01           0.376330D+00
            P    1   1.00
                  0.475490D+00           0.100000D+01
            P    1   1.00
                  0.145290D+00           0.100000D+01
            D    1   1.00
                  0.220000D+01           0.100000D+01
            D    1   1.00
                  0.650000D+00           0.100000D+01
            F    1   1.00
                  0.110000D+01           0.100000D+01
            ****
 Initial command:
 /public3/home/sc51754/softwares/g09e01/l1.exe "./Gau-39166.inp" -scrdir="./"
 Entering Link 1 = /public3/home/sc51754/softwares/g09e01/l1.exe PID=     39167.
  
 Copyright (c) 1988,1990,1992,1993,1995,1998,2003,2009,2015,
            Gaussian, Inc.  All Rights Reserved.
  
 This is part of the Gaussian(R) 09 program.  It is based on
 the Gaussian(R) 03 system (copyright 2003, Gaussian, Inc.),
 the Gaussian(R) 98 system (copyright 1998, Gaussian, Inc.),
 the Gaussian(R) 94 system (copyright 1995, Gaussian, Inc.),
 the Gaussian 92(TM) system (copyright 1992, Gaussian, Inc.),
 the Gaussian 90(TM) system (copyright 1990, Gaussian, Inc.),
 the Gaussian 88(TM) system (copyright 1988, Gaussian, Inc.),
 the Gaussian 86(TM) system (copyright 1986, Carnegie Mellon
 University), and the Gaussian 82(TM) system (copyright 1983,
 Carnegie Mellon University). Gaussian is a federally registered
 trademark of Gaussian, Inc.
  
 This software contains proprietary and confidential information,
 including trade secrets, belonging to Gaussian, Inc.
  
 This software is provided under written license and may be
 used, copied, transmitted, or stored only in accord with that
 written license.
  
 The following legend is applicable only to US Government
 contracts under FAR:
  
                    RESTRICTED RIGHTS LEGEND
  
 Use, reproduction and disclosure by the US Government is
 subject to restrictions as set forth in subparagraphs (a)
 and (c) of the Commercial Computer Software - Restricted
 Rights clause in FAR 52.227-19.
  
 Gaussian, Inc.
 340 Quinnipiac St., Bldg. 40, Wallingford CT 06492
  
  
 ---------------------------------------------------------------
 Warning -- This program may not be used in any manner that
 competes with the business of Gaussian, Inc. or will provide
 assistance to any competitor of Gaussian, Inc.  The licensee
 of this program is prohibited from giving any competitor of
 Gaussian, Inc. access to this program.  By using this program,
 the user acknowledges that Gaussian, Inc. is engaged in the
 business of creating and licensing software in the field of
 computational chemistry and represents and warrants to the
 licensee that it is not a competitor of Gaussian, Inc. and that
 it will not use this program in any manner prohibited above.
 ---------------------------------------------------------------
  

 Cite this work as:
 Gaussian 09, Revision E.01,
 M. J. Frisch, G. W. Trucks, H. B. Schlegel, G. E. Scuseria, 
 M. A. Robb, J. R. Cheeseman, G. Scalmani, V. Barone, B. Mennucci, 
 G. A. Petersson, H. Nakatsuji, M. Caricato, X. Li, H. P. Hratchian, 
 A. F. Izmaylov, J. Bloino, G. Zheng, J. L. Sonnenberg, M. Hada, 
 M. Ehara, K. Toyota, R. Fukuda, J. Hasegawa, M. Ishida, T. Nakajima, 
 Y. Honda, O. Kitao, H. Nakai, T. Vreven, J. A. Montgomery, Jr., 
 J. E. Peralta, F. Ogliaro, M. Bearpark, J. J. Heyd, E. Brothers, 
 K. N. Kudin, V. N. Staroverov, T. Keith, R. Kobayashi, J. Normand, 
 K. Raghavachari, A. Rendell, J. C. Burant, S. S. Iyengar, J. Tomasi, 
 M. Cossi, N. Rega, J. M. Millam, M. Klene, J. E. Knox, J. B. Cross, 
 V. Bakken, C. Adamo, J. Jaramillo, R. Gomperts, R. E. Stratmann, 
 O. Yazyev, A. J. Austin, R. Cammi, C. Pomelli, J. W. Ochterski, 
 R. L. Martin, K. Morokuma, V. G. Zakrzewski, G. A. Voth, 
 P. Salvador, J. J. Dannenberg, S. Dapprich, A. D. Daniels, 
 O. Farkas, J. B. Foresman, J. V. Ortiz, J. Cioslowski, 
 and D. J. Fox, Gaussian, Inc., Wallingford CT, 2013.
 
 ******************************************
 Gaussian 09:  EM64L-G09RevE.01 30-Nov-2015
                27-Aug-2021 
 ******************************************
 %nprocshared=64
 Will use up to   64 processors via shared memory.
 %mem=128GB
 %chk=PY_B3LYP_PC2_OPT_FREQ.chk
 ---------------------
 #p opt freq B3LYP/gen
 ---------------------
 1/14=-1,18=20,19=15,26=3,38=1/1,3;
 2/9=110,12=2,17=6,18=5,40=1/2;
 3/5=7,11=2,16=1,25=1,30=1,71=1,74=-5/1,2,3;
 4//1;
 5/5=2,38=5/2;
 6/7=2,8=2,9=2,10=2,28=1/1;
 7//1,2,3,16;
 1/14=-1,18=20,19=15,26=3/3(2);
 2/9=110/2;
 99//99;
 2/9=110/2;
 3/5=7,6=1,11=2,16=1,25=1,30=1,71=1,74=-5,82=7/1,2,3;
 4/5=5,16=3,69=1/1;
 5/5=2,38=5/2;
 7//1,2,3,16;
 1/14=-1,18=20,19=15,26=3/3(-5);
 2/9=110/2;
 6/7=2,8=2,9=2,10=2,19=2,28=1/1;
 99/9=1/99;
 Leave Link    1 at Fri Aug 27 00:06:45 2021, MaxMem= 17179869184 cpu:         5.1
 (Enter /public3/home/sc51754/softwares/g09e01/l101.exe)
 ---------------------
 PY_B3LYP_PC2_OPT_FREQ
 ---------------------
 Symbolic Z-matrix:
 Charge =  0 Multiplicity = 1
 O                    -0.1303    2.2679    0. 
 N                    -1.13214   0.23327   0. 
 C                     0.        1.06201   0. 
 C                     1.23795   0.32011   0. 
 C                    -1.11441  -1.12189   0. 
 C                     1.25607  -1.03234   0. 
 C                     0.05856  -1.79159   0. 
 H                    -2.00762   0.73274   0. 
 H                     2.14422   0.90837   0. 
 H                    -2.07697  -1.61403   0. 
 H                     2.20675  -1.5513    0. 
 H                     0.072    -2.86964   0. 
 
 NAtoms=     12 NQM=       12 NQMF=       0 NMMI=      0 NMMIF=      0
                NMic=       0 NMicF=      0.
                    Isotopes and Nuclear Properties:
 (Nuclear quadrupole moments (NQMom) in fm**2, nuclear magnetic moments (NMagM)
  in nuclear magnetons)

  Atom         1           2           3           4           5           6           7           8           9          10
 IAtWgt=          16          14          12          12          12          12          12           1           1           1
 AtmWgt=  15.9949146  14.0030740  12.0000000  12.0000000  12.0000000  12.0000000  12.0000000   1.0078250   1.0078250   1.0078250
 NucSpn=           0           2           0           0           0           0           0           1           1           1
 AtZEff=   0.0000000   0.0000000   0.0000000   0.0000000   0.0000000   0.0000000   0.0000000   0.0000000   0.0000000   0.0000000
 NQMom=    0.0000000   2.0440000   0.0000000   0.0000000   0.0000000   0.0000000   0.0000000   0.0000000   0.0000000   0.0000000
 NMagM=    0.0000000   0.4037610   0.0000000   0.0000000   0.0000000   0.0000000   0.0000000   2.7928460   2.7928460   2.7928460
 AtZNuc=   8.0000000   7.0000000   6.0000000   6.0000000   6.0000000   6.0000000   6.0000000   1.0000000   1.0000000   1.0000000

  Atom        11          12
 IAtWgt=           1           1
 AtmWgt=   1.0078250   1.0078250
 NucSpn=           1           1
 AtZEff=   0.0000000   0.0000000
 NQMom=    0.0000000   0.0000000
 NMagM=    2.7928460   2.7928460
 AtZNuc=   1.0000000   1.0000000
 Leave Link  101 at Fri Aug 27 00:06:45 2021, MaxMem= 17179869184 cpu:         6.5
 (Enter /public3/home/sc51754/softwares/g09e01/l103.exe)

 GradGradGradGradGradGradGradGradGradGradGradGradGradGradGradGradGradGrad
 Berny optimization.
 Initialization pass.
                           ----------------------------
                           !    Initial Parameters    !
                           ! (Angstroms and Degrees)  !
 --------------------------                            --------------------------
 ! Name  Definition              Value          Derivative Info.                !
 --------------------------------------------------------------------------------
 ! R1    R(1,3)                  1.2129         estimate D2E/DX2                !
 ! R2    R(2,3)                  1.403          estimate D2E/DX2                !
 ! R3    R(2,5)                  1.3553         estimate D2E/DX2                !
 ! R4    R(2,8)                  1.0079         estimate D2E/DX2                !
 ! R5    R(3,4)                  1.4432         estimate D2E/DX2                !
 ! R6    R(4,6)                  1.3526         estimate D2E/DX2                !
 ! R7    R(4,9)                  1.0805         estimate D2E/DX2                !
 ! R8    R(5,7)                  1.3507         estimate D2E/DX2                !
 ! R9    R(5,10)                 1.0811         estimate D2E/DX2                !
 ! R10   R(6,7)                  1.4179         estimate D2E/DX2                !
 ! R11   R(6,11)                 1.0831         estimate D2E/DX2                !
 ! R12   R(7,12)                 1.0781         estimate D2E/DX2                !
 ! A1    A(3,2,5)              125.4546         estimate D2E/DX2                !
 ! A2    A(3,2,8)              114.0905         estimate D2E/DX2                !
 ! A3    A(5,2,8)              120.4549         estimate D2E/DX2                !
 ! A4    A(1,3,2)              120.0371         estimate D2E/DX2                !
 ! A5    A(1,3,4)              127.1013         estimate D2E/DX2                !
 ! A6    A(2,3,4)              112.8616         estimate D2E/DX2                !
 ! A7    A(3,4,6)              121.7019         estimate D2E/DX2                !
 ! A8    A(3,4,9)              116.0785         estimate D2E/DX2                !
 ! A9    A(6,4,9)              122.2196         estimate D2E/DX2                !
 ! A10   A(2,5,7)              120.4739         estimate D2E/DX2                !
 ! A11   A(2,5,10)             116.3305         estimate D2E/DX2                !
 ! A12   A(7,5,10)             123.1956         estimate D2E/DX2                !
 ! A13   A(4,6,7)              121.6078         estimate D2E/DX2                !
 ! A14   A(4,6,11)             119.3971         estimate D2E/DX2                !
 ! A15   A(7,6,11)             118.9951         estimate D2E/DX2                !
 ! A16   A(5,7,6)              117.9002         estimate D2E/DX2                !
 ! A17   A(5,7,12)             120.4381         estimate D2E/DX2                !
 ! A18   A(6,7,12)             121.6617         estimate D2E/DX2                !
 ! D1    D(5,2,3,1)            180.0            estimate D2E/DX2                !
 ! D2    D(5,2,3,4)              0.0            estimate D2E/DX2                !
 ! D3    D(8,2,3,1)              0.0            estimate D2E/DX2                !
 ! D4    D(8,2,3,4)            180.0            estimate D2E/DX2                !
 ! D5    D(3,2,5,7)              0.0            estimate D2E/DX2                !
 ! D6    D(3,2,5,10)           180.0            estimate D2E/DX2                !
 ! D7    D(8,2,5,7)            180.0            estimate D2E/DX2                !
 ! D8    D(8,2,5,10)             0.0            estimate D2E/DX2                !
 ! D9    D(1,3,4,6)            180.0            estimate D2E/DX2                !
 ! D10   D(1,3,4,9)              0.0            estimate D2E/DX2                !
 ! D11   D(2,3,4,6)              0.0            estimate D2E/DX2                !
 ! D12   D(2,3,4,9)            180.0            estimate D2E/DX2                !
 ! D13   D(3,4,6,7)              0.0            estimate D2E/DX2                !
 ! D14   D(3,4,6,11)           180.0            estimate D2E/DX2                !
 ! D15   D(9,4,6,7)            180.0            estimate D2E/DX2                !
 ! D16   D(9,4,6,11)             0.0            estimate D2E/DX2                !
 ! D17   D(2,5,7,6)              0.0            estimate D2E/DX2                !
 ! D18   D(2,5,7,12)           180.0            estimate D2E/DX2                !
 ! D19   D(10,5,7,6)           180.0            estimate D2E/DX2                !
 ! D20   D(10,5,7,12)            0.0            estimate D2E/DX2                !
 ! D21   D(4,6,7,5)              0.0            estimate D2E/DX2                !
 ! D22   D(4,6,7,12)           180.0            estimate D2E/DX2                !
 ! D23   D(11,6,7,5)           180.0            estimate D2E/DX2                !
 ! D24   D(11,6,7,12)            0.0            estimate D2E/DX2                !
 --------------------------------------------------------------------------------
 Trust Radius=3.00D-01 FncErr=1.00D-07 GrdErr=1.00D-06
 Number of steps in this run=     64 maximum allowed number of steps=    100.
 GradGradGradGradGradGradGradGradGradGradGradGradGradGradGradGradGradGrad

 Leave Link  103 at Fri Aug 27 00:06:45 2021, MaxMem= 17179869184 cpu:         0.2
 (Enter /public3/home/sc51754/softwares/g09e01/l202.exe)
                          Input orientation:                          
 ---------------------------------------------------------------------
 Center     Atomic      Atomic             Coordinates (Angstroms)
 Number     Number       Type             X           Y           Z
 ---------------------------------------------------------------------
      1          8           0       -0.130304    2.267896    0.000000
      2          7           0       -1.132141    0.233271    0.000000
      3          6           0        0.000000    1.062005    0.000000
      4          6           0        1.237945    0.320111    0.000000
      5          6           0       -1.114407   -1.121885    0.000000
      6          6           0        1.256071   -1.032342    0.000000
      7          6           0        0.058564   -1.791590    0.000000
      8          1           0       -2.007624    0.732742    0.000000
      9          1           0        2.144218    0.908369    0.000000
     10          1           0       -2.076968   -1.614034    0.000000
     11          1           0        2.206750   -1.551299    0.000000
     12          1           0        0.071999   -2.869636    0.000000
 ---------------------------------------------------------------------
                    Distance matrix (angstroms):
                    1          2          3          4          5
     1  O    0.000000
     2  N    2.267901   0.000000
     3  C    1.212911   1.403048   0.000000
     4  C    2.380330   2.371676   1.443231   0.000000
     5  C    3.529741   1.355272   2.451791   2.759151   0.000000
     6  C    3.579610   2.702838   2.442131   1.352574   2.372169
     7  C    4.063877   2.349008   2.854196   2.418723   1.350691
     8  H    2.425083   1.007939   2.034445   3.271694   2.058514
     9  H    2.649861   3.345188   2.149715   1.080453   3.839345
    10  H    4.342681   2.074906   3.387474   3.837912   1.081080
    11  H    4.477507   3.785879   3.420395   2.107311   3.348803
    12  H    5.141514   3.328361   3.932300   3.396162   2.112390
                    6          7          8          9         10
     6  C    0.000000
     7  C    1.417914   0.000000
     8  H    3.710421   3.262114   0.000000
     9  H    2.134283   3.411705   4.155555   0.000000
    10  H    3.383418   2.142901   2.347800   4.917411   0.000000
    11  H    1.083101   2.161583   4.793516   2.460463   4.284177
    12  H    2.185790   1.078130   4.159562   4.308992   2.488894
                   11         12
    11  H    0.000000
    12  H    2.509019   0.000000
 Stoichiometry    C5H5NO
 Framework group  CS[SG(C5H5NO)]
 Deg. of freedom    21
 Full point group                 CS      NOp   2
 Largest Abelian subgroup         CS      NOp   2
 Largest concise Abelian subgroup C1      NOp   1
                         Standard orientation:                         
 ---------------------------------------------------------------------
 Center     Atomic      Atomic             Coordinates (Angstroms)
 Number     Number       Type             X           Y           Z
 ---------------------------------------------------------------------
      1          8           0       -0.130304    2.267896    0.000000
      2          7           0       -1.132141    0.233271    0.000000
      3          6           0       -0.000000    1.062005    0.000000
      4          6           0        1.237945    0.320111   -0.000000
      5          6           0       -1.114407   -1.121885    0.000000
      6          6           0        1.256071   -1.032342   -0.000000
      7          6           0        0.058564   -1.791590   -0.000000
      8          1           0       -2.007624    0.732742    0.000000
      9          1           0        2.144218    0.908369   -0.000000
     10          1           0       -2.076968   -1.614034    0.000000
     11          1           0        2.206750   -1.551299   -0.000000
     12          1           0        0.071999   -2.869636   -0.000000
 ---------------------------------------------------------------------
 Rotational constants (GHZ):      5.7341355      2.8228169      1.8916098
 Leave Link  202 at Fri Aug 27 00:06:46 2021, MaxMem= 17179869184 cpu:         6.1
 (Enter /public3/home/sc51754/softwares/g09e01/l301.exe)
 General basis read from cards:  (5D, 7F)
 Centers:       8      9     10     11     12
 S 4 1.00
     Exponent=  7.5423000000D+01 Coefficients=  2.4065000000D-03
     Exponent=  1.1350000000D+01 Coefficients=  1.8487000000D-02
     Exponent=  2.5993000000D+00 Coefficients=  8.9742000000D-02
     Exponent=  7.3513000000D-01 Coefficients=  2.8111000000D-01
 S 1 1.00
     Exponent=  2.3167000000D-01 Coefficients=  1.0000000000D+00
 S 1 1.00
     Exponent=  7.4147000000D-02 Coefficients=  1.0000000000D+00
 P 1 1.00
     Exponent=  1.6000000000D+00 Coefficients=  1.0000000000D+00
 P 1 1.00
     Exponent=  4.5000000000D-01 Coefficients=  1.0000000000D+00
 D 1 1.00
     Exponent=  1.2500000000D+00 Coefficients=  1.0000000000D+00
 ****
 Centers:       3      4      5      6      7
 S 7 1.00
     Exponent=  7.8571000000D+03 Coefficients=  5.6825000000D-04
     Exponent=  1.1787000000D+03 Coefficients=  4.3915000000D-03
     Exponent=  2.6832000000D+02 Coefficients=  2.2504000000D-02
     Exponent=  7.5948000000D+01 Coefficients=  8.6653000000D-02
     Exponent=  2.4559000000D+01 Coefficients=  2.4405000000D-01
     Exponent=  8.6212000000D+00 Coefficients=  4.4148000000D-01
     Exponent=  3.1278000000D+00 Coefficients=  3.5332000000D-01
 S 7 1.00
     Exponent=  1.1787000000D+03 Coefficients= -5.9492000000D-07
     Exponent=  2.6832000000D+02 Coefficients= -6.2748000000D-05
     Exponent=  7.5948000000D+01 Coefficients= -7.5773000000D-04
     Exponent=  2.4559000000D+01 Coefficients= -7.3308000000D-03
     Exponent=  8.6212000000D+00 Coefficients= -3.8932000000D-02
     Exponent=  3.1278000000D+00 Coefficients= -8.8908000000D-02
     Exponent=  8.2202000000D-01 Coefficients=  2.1689000000D-01
 S 1 1.00
     Exponent=  3.3017000000D-01 Coefficients=  1.0000000000D+00
 S 1 1.00
     Exponent=  1.1463000000D-01 Coefficients=  1.0000000000D+00
 P 4 1.00
     Exponent=  3.3775000000D+01 Coefficients=  6.0294000000D-03
     Exponent=  7.6766000000D+00 Coefficients=  4.3228000000D-02
     Exponent=  2.2357000000D+00 Coefficients=  1.6301000000D-01
     Exponent=  7.6447000000D-01 Coefficients=  3.6504000000D-01
 P 1 1.00
     Exponent=  2.6232000000D-01 Coefficients=  1.0000000000D+00
 P 1 1.00
     Exponent=  8.4638000000D-02 Coefficients=  1.0000000000D+00
 D 1 1.00
     Exponent=  1.4000000000D+00 Coefficients=  1.0000000000D+00
 D 1 1.00
     Exponent=  4.5000000000D-01 Coefficients=  1.0000000000D+00
 F 1 1.00
     Exponent=  9.5000000000D-01 Coefficients=  1.0000000000D+00
 ****
 Centers:       2
 S 7 1.00
     Exponent=  1.1101000000D+04 Coefficients=  5.4570000000D-04
     Exponent=  1.6653000000D+03 Coefficients=  4.2181000000D-03
     Exponent=  3.7908000000D+02 Coefficients=  2.1645000000D-02
     Exponent=  1.0730000000D+02 Coefficients=  8.3776000000D-02
     Exponent=  3.4747000000D+01 Coefficients=  2.3881000000D-01
     Exponent=  1.2249000000D+01 Coefficients=  4.3994000000D-01
     Exponent=  4.4743000000D+00 Coefficients=  3.6364000000D-01
 S 7 1.00
     Exponent=  1.6653000000D+03 Coefficients= -1.5006000000D-06
     Exponent=  3.7908000000D+02 Coefficients= -5.8753000000D-05
     Exponent=  1.0730000000D+02 Coefficients= -7.7453000000D-04
     Exponent=  3.4747000000D+01 Coefficients= -7.2161000000D-03
     Exponent=  1.2249000000D+01 Coefficients= -3.9338000000D-02
     Exponent=  4.4743000000D+00 Coefficients= -9.0611000000D-02
     Exponent=  1.2404000000D+00 Coefficients=  1.9882000000D-01
 S 1 1.00
     Exponent=  4.8743000000D-01 Coefficients=  1.0000000000D+00
 S 1 1.00
     Exponent=  1.6484000000D-01 Coefficients=  1.0000000000D+00
 P 4 1.00
     Exponent=  4.7934000000D+01 Coefficients=  6.1706000000D-03
     Exponent=  1.0999000000D+01 Coefficients=  4.4260000000D-02
     Exponent=  3.2472000000D+00 Coefficients=  1.6825000000D-01
     Exponent=  1.1114000000D+00 Coefficients=  3.6848000000D-01
 P 1 1.00
     Exponent=  3.7988000000D-01 Coefficients=  1.0000000000D+00
 P 1 1.00
     Exponent=  1.2068000000D-01 Coefficients=  1.0000000000D+00
 D 1 1.00
     Exponent=  1.8000000000D+00 Coefficients=  1.0000000000D+00
 D 1 1.00
     Exponent=  5.5000000000D-01 Coefficients=  1.0000000000D+00
 F 1 1.00
     Exponent=  1.0200000000D+00 Coefficients=  1.0000000000D+00
 ****
 Centers:       1
 S 7 1.00
     Exponent=  1.4782000000D+04 Coefficients=  5.3519000000D-04
     Exponent=  2.2173000000D+03 Coefficients=  4.1375000000D-03
     Exponent=  5.0474000000D+02 Coefficients=  2.1245000000D-02
     Exponent=  1.4287000000D+02 Coefficients=  8.2453000000D-02
     Exponent=  4.6300000000D+01 Coefficients=  2.3671000000D-01
     Exponent=  1.6337000000D+01 Coefficients=  4.4039000000D-01
     Exponent=  5.9828000000D+00 Coefficients=  3.6465000000D-01
 S 7 1.00
     Exponent=  2.2173000000D+03 Coefficients= -1.9275000000D-06
     Exponent=  5.0474000000D+02 Coefficients= -5.7964000000D-05
     Exponent=  1.4287000000D+02 Coefficients= -7.9494000000D-04
     Exponent=  4.6300000000D+01 Coefficients= -7.3125000000D-03
     Exponent=  1.6337000000D+01 Coefficients= -4.0574000000D-02
     Exponent=  5.9828000000D+00 Coefficients= -9.1594000000D-02
     Exponent=  1.6718000000D+00 Coefficients=  2.0940000000D-01
 S 1 1.00
     Exponent=  6.4662000000D-01 Coefficients=  1.0000000000D+00
 S 1 1.00
     Exponent=  2.1669000000D-01 Coefficients=  1.0000000000D+00
 P 4 1.00
     Exponent=  6.0424000000D+01 Coefficients=  6.8949000000D-03
     Exponent=  1.3935000000D+01 Coefficients=  4.9005000000D-02
     Exponent=  4.1531000000D+00 Coefficients=  1.8255000000D-01
     Exponent=  1.4158000000D+00 Coefficients=  3.7633000000D-01
 P 1 1.00
     Exponent=  4.7549000000D-01 Coefficients=  1.0000000000D+00
 P 1 1.00
     Exponent=  1.4529000000D-01 Coefficients=  1.0000000000D+00
 D 1 1.00
     Exponent=  2.2000000000D+00 Coefficients=  1.0000000000D+00
 D 1 1.00
     Exponent=  6.5000000000D-01 Coefficients=  1.0000000000D+00
 F 1 1.00
     Exponent=  1.1000000000D+00 Coefficients=  1.0000000000D+00
 ****
 Ernie: Thresh=  0.10000D-02 Tol=  0.10000D-05 Strict=F.
 Ernie:  7 primitive shells out of 220 were deleted.
 There are   223 symmetry adapted cartesian basis functions of A'  symmetry.
 There are    97 symmetry adapted cartesian basis functions of A"  symmetry.
 There are   190 symmetry adapted basis functions of A'  symmetry.
 There are    90 symmetry adapted basis functions of A"  symmetry.
   280 basis functions,   475 primitive gaussians,   320 cartesian basis functions
    25 alpha electrons       25 beta electrons
       nuclear repulsion energy       276.8386644497 Hartrees.
 IExCor=  402 DFT=T Ex+Corr=B3LYP ExCW=0 ScaHFX=  0.200000
 ScaDFX=  0.800000  0.720000  1.000000  0.810000 ScalE2=  1.000000  1.000000
 IRadAn=      0 IRanWt=     -1 IRanGd=            0 ICorTp=0 IEmpDi=  4
 NAtoms=   12 NActive=   12 NUniq=   12 SFac= 1.00D+00 NAtFMM=   60 NAOKFM=F Big=F
 Integral buffers will be    131072 words long.
 Raffenetti 2 integral format.
 Two-electron integral symmetry is turned on.
 Leave Link  301 at Fri Aug 27 00:06:46 2021, MaxMem= 17179869184 cpu:         3.1
 (Enter /public3/home/sc51754/softwares/g09e01/l302.exe)
 NPDir=0 NMtPBC=     1 NCelOv=     1 NCel=       1 NClECP=     1 NCelD=      1
         NCelK=      1 NCelE2=     1 NClLst=     1 CellRange=     0.0.
 One-electron integrals computed using PRISM.
 NBasis=   280 RedAO= T EigKep=  2.29D-04  NBF=   190    90
 NBsUse=   280 1.00D-06 EigRej= -1.00D+00 NBFU=   190    90
 Precomputing XC quadrature grid using
 IXCGrd= 4 IRadAn=           0 IRanWt=          -1 IRanGd=           0 AccXCQ= 0.00D+00.
 Generated NRdTot=       0 NPtTot=           0 NUsed=           0 NTot=          32
 NSgBfM=   320   320   320   320   320 MxSgAt=    12 MxSgA2=    12.
 Leave Link  302 at Fri Aug 27 00:06:46 2021, MaxMem= 17179869184 cpu:        39.5
 (Enter /public3/home/sc51754/softwares/g09e01/l303.exe)
 DipDrv:  MaxL=1.
 Leave Link  303 at Fri Aug 27 00:06:47 2021, MaxMem= 17179869184 cpu:        12.2
 (Enter /public3/home/sc51754/softwares/g09e01/l401.exe)
 ExpMin= 7.41D-02 ExpMax= 1.48D+04 ExpMxC= 5.05D+02 IAcc=2 IRadAn=         4 AccDes= 0.00D+00
 Harris functional with IExCor=  402 and IRadAn=       4 diagonalized for initial guess.
 HarFok:  IExCor=  402 AccDes= 0.00D+00 IRadAn=         4 IDoV= 1 UseB2=F ITyADJ=14
 ICtDFT=  3500011 ScaDFX=  1.000000  1.000000  1.000000  1.000000
 FoFCou: FMM=F IPFlag=           0 FMFlag=      100000 FMFlg1=           0
         NFxFlg=           0 DoJE=T BraDBF=F KetDBF=T FulRan=T
         wScrn=  0.000000 ICntrl=     500 IOpCl=  0 I1Cent=   200000004 NGrid=           0
         NMat0=    1 NMatS0=      1 NMatT0=    0 NMatD0=    1 NMtDS0=    0 NMtDT0=    0
 Petite list used in FoFCou.
 Harris En= -323.703757567270    
 JPrj=0 DoOrth=F DoCkMO=F.
 Initial guess orbital symmetries:
       Occupied  (A') (A') (A') (A') (A') (A') (A') (A') (A') (A')
                 (A') (A') (A') (A') (A') (A') (A') (A') (A") (A')
                 (A') (A") (A") (A') (A")
       Virtual   (A") (A") (A') (A') (A") (A') (A') (A') (A') (A')
                 (A') (A") (A') (A') (A") (A") (A') (A') (A') (A')
                 (A') (A") (A') (A') (A") (A') (A') (A') (A') (A')
                 (A") (A') (A') (A') (A") (A') (A') (A') (A') (A')
                 (A') (A') (A") (A') (A') (A') (A') (A") (A") (A")
                 (A') (A") (A') (A') (A") (A') (A') (A') (A') (A")
                 (A') (A") (A') (A') (A") (A') (A") (A') (A") (A")
                 (A') (A') (A') (A") (A') (A") (A') (A") (A') (A')
                 (A") (A') (A") (A') (A") (A') (A') (A') (A") (A")
                 (A') (A') (A') (A") (A') (A') (A') (A') (A") (A')
                 (A') (A') (A") (A') (A') (A') (A") (A') (A') (A')
                 (A") (A') (A') (A') (A') (A') (A") (A') (A') (A')
                 (A") (A') (A") (A') (A') (A") (A") (A") (A') (A")
                 (A') (A') (A") (A') (A') (A") (A') (A") (A') (A')
                 (A') (A') (A') (A") (A') (A") (A') (A') (A') (A')
                 (A') (A") (A") (A") (A") (A') (A") (A") (A') (A")
                 (A') (A") (A') (A') (A") (A') (A') (A') (A') (A")
                 (A') (A") (A') (A") (A") (A') (A") (A') (A") (A")
                 (A') (A") (A') (A") (A") (A') (A') (A") (A') (A")
                 (A') (A") (A') (A") (A') (A") (A') (A') (A") (A')
                 (A') (A') (A") (A') (A") (A') (A") (A') (A') (A')
                 (A") (A') (A') (A") (A') (A") (A') (A") (A') (A')
                 (A") (A') (A") (A') (A") (A') (A') (A') (A") (A')
                 (A') (A') (A') (A") (A') (A") (A') (A') (A') (A')
                 (A') (A") (A') (A') (A') (A') (A') (A') (A') (A')
                 (A') (A') (A') (A') (A')
 The electronic state of the initial guess is 1-A'.
 Leave Link  401 at Fri Aug 27 00:06:48 2021, MaxMem= 17179869184 cpu:        51.4
 (Enter /public3/home/sc51754/softwares/g09e01/l502.exe)
 Closed shell SCF:
 Using DIIS extrapolation, IDIIS=  1040.
 Integral symmetry usage will be decided dynamically.
 Keep R1 ints in memory in symmetry-blocked form, NReq=1167802198.
 IVT=      348658 IEndB=      348658 NGot= 17179869184 MDV= 16785904737
 LenX= 16785904737 LenY= 16785801896
 Requested convergence on RMS density matrix=1.00D-08 within 128 cycles.
 Requested convergence on MAX density matrix=1.00D-06.
 Requested convergence on             energy=1.00D-06.
 No special actions if energy rises.
 FoFCou: FMM=F IPFlag=           0 FMFlag=           0 FMFlg1=           0
         NFxFlg=           0 DoJE=F BraDBF=F KetDBF=F FulRan=T
         wScrn=  0.000000 ICntrl=     600 IOpCl=  0 I1Cent=           0 NGrid=           0
         NMat0=    1 NMatS0=  39340 NMatT0=    0 NMatD0=    1 NMtDS0=    0 NMtDT0=    0
 Petite list used in FoFCou.
 Integral accuracy reduced to 1.0D-05 until final iterations.

 Cycle   1  Pass 0  IDiag  1:
 E= -323.445083550292    
 DIIS: error= 3.20D-02 at cycle   1 NSaved=   1.
 NSaved= 1 IEnMin= 1 EnMin= -323.445083550292     IErMin= 1 ErrMin= 3.20D-02
 ErrMax= 3.20D-02  0.00D+00 EMaxC= 1.00D-01 BMatC= 2.47D-01 BMatP= 2.47D-01
 IDIUse=3 WtCom= 6.80D-01 WtEn= 3.20D-01
 Coeff-Com:  0.100D+01
 Coeff-En:   0.100D+01
 Coeff:      0.100D+01
 Gap=     0.112 Goal=   None    Shift=    0.000
 GapD=    0.112 DampG=1.000 DampE=0.500 DampFc=0.5000 IDamp=-1.
 Damping current iteration by 5.00D-01
 RMSDP=4.34D-03 MaxDP=1.44D-01              OVMax= 3.66D-01

 Cycle   2  Pass 0  IDiag  1:
 E= -323.487479957126     Delta-E=       -0.042396406834 Rises=F Damp=T
 DIIS: error= 1.13D-02 at cycle   2 NSaved=   2.
 NSaved= 2 IEnMin= 2 EnMin= -323.487479957126     IErMin= 2 ErrMin= 1.13D-02
 ErrMax= 1.13D-02  0.00D+00 EMaxC= 1.00D-01 BMatC= 4.85D-02 BMatP= 2.47D-01
 IDIUse=3 WtCom= 8.87D-01 WtEn= 1.13D-01
 Coeff-Com:  0.245D+00 0.755D+00
 Coeff-En:   0.398D+00 0.602D+00
 Coeff:      0.263D+00 0.737D+00
 Gap=     0.186 Goal=   None    Shift=    0.000
 RMSDP=1.53D-03 MaxDP=5.01D-02 DE=-4.24D-02 OVMax= 2.85D-01

 Cycle   3  Pass 0  IDiag  1:
 E= -323.621061772946     Delta-E=       -0.133581815820 Rises=F Damp=F
 DIIS: error= 1.33D-02 at cycle   3 NSaved=   3.
 NSaved= 3 IEnMin= 3 EnMin= -323.621061772946     IErMin= 2 ErrMin= 1.13D-02
 ErrMax= 1.33D-02  0.00D+00 EMaxC= 1.00D-01 BMatC= 4.47D-02 BMatP= 4.85D-02
 IDIUse=3 WtCom= 8.67D-01 WtEn= 1.33D-01
 Coeff-Com:  0.706D-01 0.482D+00 0.447D+00
 Coeff-En:   0.000D+00 0.000D+00 0.100D+01
 Coeff:      0.612D-01 0.418D+00 0.521D+00
 Gap=     0.176 Goal=   None    Shift=    0.000
 RMSDP=7.39D-04 MaxDP=3.37D-02 DE=-1.34D-01 OVMax= 1.19D-01

 Cycle   4  Pass 0  IDiag  1:
 E= -323.652666940664     Delta-E=       -0.031605167719 Rises=F Damp=F
 DIIS: error= 5.77D-03 at cycle   4 NSaved=   4.
 NSaved= 4 IEnMin= 4 EnMin= -323.652666940664     IErMin= 4 ErrMin= 5.77D-03
 ErrMax= 5.77D-03  0.00D+00 EMaxC= 1.00D-01 BMatC= 8.34D-03 BMatP= 4.47D-02
 IDIUse=3 WtCom= 9.42D-01 WtEn= 5.77D-02
 Coeff-Com:  0.582D-02 0.103D+00 0.320D+00 0.571D+00
 Coeff-En:   0.000D+00 0.000D+00 0.195D+00 0.805D+00
 Coeff:      0.548D-02 0.975D-01 0.313D+00 0.584D+00
 Gap=     0.178 Goal=   None    Shift=    0.000
 RMSDP=2.61D-04 MaxDP=1.03D-02 DE=-3.16D-02 OVMax= 3.83D-02

 Cycle   5  Pass 0  IDiag  1:
 E= -323.659632805610     Delta-E=       -0.006965864946 Rises=F Damp=F
 DIIS: error= 1.16D-03 at cycle   5 NSaved=   5.
 NSaved= 5 IEnMin= 5 EnMin= -323.659632805610     IErMin= 5 ErrMin= 1.16D-03
 ErrMax= 1.16D-03  0.00D+00 EMaxC= 1.00D-01 BMatC= 2.74D-04 BMatP= 8.34D-03
 IDIUse=3 WtCom= 9.88D-01 WtEn= 1.16D-02
 Coeff-Com: -0.351D-02 0.174D-01 0.120D+00 0.289D+00 0.578D+00
 Coeff-En:   0.000D+00 0.000D+00 0.000D+00 0.000D+00 0.100D+01
 Coeff:     -0.346D-02 0.172D-01 0.118D+00 0.285D+00 0.583D+00
 Gap=     0.177 Goal=   None    Shift=    0.000
 RMSDP=6.83D-05 MaxDP=2.40D-03 DE=-6.97D-03 OVMax= 1.10D-02

 Cycle   6  Pass 0  IDiag  1:
 E= -323.659831408128     Delta-E=       -0.000198602518 Rises=F Damp=F
 DIIS: error= 5.73D-04 at cycle   6 NSaved=   6.
 NSaved= 6 IEnMin= 6 EnMin= -323.659831408128     IErMin= 6 ErrMin= 5.73D-04
 ErrMax= 5.73D-04  0.00D+00 EMaxC= 1.00D-01 BMatC= 7.61D-05 BMatP= 2.74D-04
 IDIUse=3 WtCom= 9.94D-01 WtEn= 5.73D-03
 Coeff-Com: -0.262D-02-0.151D-02 0.312D-01 0.987D-01 0.383D+00 0.491D+00
 Coeff-En:   0.000D+00 0.000D+00 0.000D+00 0.000D+00 0.249D+00 0.751D+00
 Coeff:     -0.261D-02-0.150D-02 0.310D-01 0.982D-01 0.383D+00 0.492D+00
 Gap=     0.177 Goal=   None    Shift=    0.000
 RMSDP=2.58D-05 MaxDP=1.02D-03 DE=-1.99D-04 OVMax= 4.01D-03

 Cycle   7  Pass 0  IDiag  1:
 E= -323.659910286521     Delta-E=       -0.000078878393 Rises=F Damp=F
 DIIS: error= 9.25D-05 at cycle   7 NSaved=   7.
 NSaved= 7 IEnMin= 7 EnMin= -323.659910286521     IErMin= 7 ErrMin= 9.25D-05
 ErrMax= 9.25D-05  0.00D+00 EMaxC= 1.00D-01 BMatC= 2.21D-06 BMatP= 7.61D-05
 IDIUse=1 WtCom= 1.00D+00 WtEn= 0.00D+00
 Coeff-Com: -0.948D-03-0.211D-02 0.859D-02 0.312D-01 0.157D+00 0.238D+00
 Coeff-Com:  0.568D+00
 Coeff:     -0.948D-03-0.211D-02 0.859D-02 0.312D-01 0.157D+00 0.238D+00
 Coeff:      0.568D+00
 Gap=     0.177 Goal=   None    Shift=    0.000
 RMSDP=4.19D-06 MaxDP=3.01D-04 DE=-7.89D-05 OVMax= 4.99D-04

 Initial convergence to 1.0D-05 achieved.  Increase integral accuracy.
 Cycle   8  Pass 1  IDiag  1:
 E= -323.659890977378     Delta-E=        0.000019309143 Rises=F Damp=F
 DIIS: error= 3.57D-05 at cycle   1 NSaved=   1.
 NSaved= 1 IEnMin= 1 EnMin= -323.659890977378     IErMin= 1 ErrMin= 3.57D-05
 ErrMax= 3.57D-05  0.00D+00 EMaxC= 1.00D-01 BMatC= 4.86D-07 BMatP= 4.86D-07
 IDIUse=1 WtCom= 1.00D+00 WtEn= 0.00D+00
 Coeff-Com:  0.100D+01
 Coeff:      0.100D+01
 Gap=     0.178 Goal=   None    Shift=    0.000
 RMSDP=4.19D-06 MaxDP=3.01D-04 DE= 1.93D-05 OVMax= 4.08D-04

 Cycle   9  Pass 1  IDiag  1:
 E= -323.659890699580     Delta-E=        0.000000277799 Rises=F Damp=F
 DIIS: error= 4.66D-05 at cycle   2 NSaved=   2.
 NSaved= 2 IEnMin= 1 EnMin= -323.659890977378     IErMin= 1 ErrMin= 3.57D-05
 ErrMax= 4.66D-05  0.00D+00 EMaxC= 1.00D-01 BMatC= 9.60D-07 BMatP= 4.86D-07
 IDIUse=1 WtCom= 1.00D+00 WtEn= 0.00D+00
 Coeff-Com:  0.593D+00 0.407D+00
 Coeff:      0.593D+00 0.407D+00
 Gap=     0.178 Goal=   None    Shift=    0.000
 RMSDP=2.74D-06 MaxDP=1.21D-04 DE= 2.78D-07 OVMax= 3.02D-04

 Cycle  10  Pass 1  IDiag  1:
 E= -323.659891437913     Delta-E=       -0.000000738333 Rises=F Damp=F
 DIIS: error= 1.22D-05 at cycle   3 NSaved=   3.
 NSaved= 3 IEnMin= 3 EnMin= -323.659891437913     IErMin= 3 ErrMin= 1.22D-05
 ErrMax= 1.22D-05  0.00D+00 EMaxC= 1.00D-01 BMatC= 3.89D-08 BMatP= 4.86D-07
 IDIUse=1 WtCom= 1.00D+00 WtEn= 0.00D+00
 Coeff-Com:  0.143D+00 0.184D+00 0.673D+00
 Coeff:      0.143D+00 0.184D+00 0.673D+00
 Gap=     0.178 Goal=   None    Shift=    0.000
 RMSDP=9.13D-07 MaxDP=4.33D-05 DE=-7.38D-07 OVMax= 1.21D-04

 Cycle  11  Pass 1  IDiag  1:
 E= -323.659891451852     Delta-E=       -0.000000013939 Rises=F Damp=F
 DIIS: error= 8.82D-06 at cycle   4 NSaved=   4.
 NSaved= 4 IEnMin= 4 EnMin= -323.659891451852     IErMin= 4 ErrMin= 8.82D-06
 ErrMax= 8.82D-06  0.00D+00 EMaxC= 1.00D-01 BMatC= 2.22D-08 BMatP= 3.89D-08
 IDIUse=1 WtCom= 1.00D+00 WtEn= 0.00D+00
 Coeff-Com: -0.491D-02 0.549D-01 0.478D+00 0.472D+00
 Coeff:     -0.491D-02 0.549D-01 0.478D+00 0.472D+00
 Gap=     0.178 Goal=   None    Shift=    0.000
 RMSDP=4.02D-07 MaxDP=1.93D-05 DE=-1.39D-08 OVMax= 6.03D-05

 Cycle  12  Pass 1  IDiag  1:
 E= -323.659891469504     Delta-E=       -0.000000017652 Rises=F Damp=F
 DIIS: error= 1.44D-06 at cycle   5 NSaved=   5.
 NSaved= 5 IEnMin= 5 EnMin= -323.659891469504     IErMin= 5 ErrMin= 1.44D-06
 ErrMax= 1.44D-06  0.00D+00 EMaxC= 1.00D-01 BMatC= 6.55D-10 BMatP= 2.22D-08
 IDIUse=1 WtCom= 1.00D+00 WtEn= 0.00D+00
 Coeff-Com: -0.945D-02 0.187D-01 0.215D+00 0.256D+00 0.520D+00
 Coeff:     -0.945D-02 0.187D-01 0.215D+00 0.256D+00 0.520D+00
 Gap=     0.178 Goal=   None    Shift=    0.000
 RMSDP=7.43D-08 MaxDP=3.61D-06 DE=-1.77D-08 OVMax= 1.19D-05

 Cycle  13  Pass 1  IDiag  1:
 E= -323.659891469980     Delta-E=       -0.000000000476 Rises=F Damp=F
 DIIS: error= 8.03D-07 at cycle   6 NSaved=   6.
 NSaved= 6 IEnMin= 6 EnMin= -323.659891469980     IErMin= 6 ErrMin= 8.03D-07
 ErrMax= 8.03D-07  0.00D+00 EMaxC= 1.00D-01 BMatC= 9.21D-11 BMatP= 6.55D-10
 IDIUse=1 WtCom= 1.00D+00 WtEn= 0.00D+00
 Coeff-Com: -0.540D-02 0.673D-02 0.915D-01 0.120D+00 0.322D+00 0.464D+00
 Coeff:     -0.540D-02 0.673D-02 0.915D-01 0.120D+00 0.322D+00 0.464D+00
 Gap=     0.178 Goal=   None    Shift=    0.000
 RMSDP=2.89D-08 MaxDP=1.75D-06 DE=-4.76D-10 OVMax= 5.31D-06

 Cycle  14  Pass 1  IDiag  1:
 E= -323.659891470079     Delta-E=       -0.000000000099 Rises=F Damp=F
 DIIS: error= 1.32D-07 at cycle   7 NSaved=   7.
 NSaved= 7 IEnMin= 7 EnMin= -323.659891470079     IErMin= 7 ErrMin= 1.32D-07
 ErrMax= 1.32D-07  0.00D+00 EMaxC= 1.00D-01 BMatC= 5.01D-12 BMatP= 9.21D-11
 IDIUse=1 WtCom= 1.00D+00 WtEn= 0.00D+00
 Coeff-Com: -0.134D-02 0.602D-03 0.145D-01 0.257D-01 0.792D-01 0.218D+00
 Coeff-Com:  0.664D+00
 Coeff:     -0.134D-02 0.602D-03 0.145D-01 0.257D-01 0.792D-01 0.218D+00
 Coeff:      0.664D+00
 Gap=     0.178 Goal=   None    Shift=    0.000
 RMSDP=8.48D-09 MaxDP=4.52D-07 DE=-9.90D-11 OVMax= 8.37D-07

 SCF Done:  E(RB3LYP) =  -323.659891470     A.U. after   14 cycles
            NFock= 14  Conv=0.85D-08     -V/T= 2.0035
 KE= 3.225310377349D+02 PE=-1.308799694769D+03 EE= 3.857701011146D+02
 Leave Link  502 at Fri Aug 27 00:06:54 2021, MaxMem= 17179869184 cpu:       222.7
 (Enter /public3/home/sc51754/softwares/g09e01/l601.exe)
 Copying SCF densities to generalized density rwf, IOpCl= 0 IROHF=0.

 **********************************************************************

            Population analysis using the SCF density.

 **********************************************************************

 Orbital symmetries:
       Occupied  (A') (A') (A') (A') (A') (A') (A') (A') (A') (A')
                 (A') (A') (A') (A') (A') (A') (A') (A") (A') (A')
                 (A') (A") (A") (A') (A")
       Virtual   (A") (A") (A') (A') (A') (A') (A') (A") (A') (A')
                 (A") (A') (A') (A") (A') (A") (A') (A') (A") (A')
                 (A') (A') (A") (A') (A') (A') (A') (A') (A') (A')
                 (A") (A') (A') (A') (A") (A') (A') (A') (A') (A')
                 (A') (A') (A") (A') (A') (A') (A") (A') (A") (A")
                 (A') (A") (A') (A') (A") (A') (A') (A') (A') (A")
                 (A') (A') (A") (A") (A') (A') (A') (A") (A') (A")
                 (A") (A') (A') (A") (A') (A") (A') (A") (A') (A')
                 (A") (A') (A') (A") (A") (A') (A') (A') (A") (A')
                 (A") (A') (A") (A') (A') (A') (A') (A') (A") (A')
                 (A') (A') (A') (A") (A') (A') (A") (A') (A') (A')
                 (A") (A') (A') (A') (A') (A') (A") (A') (A') (A")
                 (A') (A') (A') (A") (A') (A") (A") (A") (A") (A')
                 (A') (A") (A') (A') (A") (A') (A") (A') (A') (A')
                 (A') (A') (A") (A') (A') (A") (A') (A') (A') (A')
                 (A') (A") (A") (A") (A") (A") (A') (A") (A') (A")
                 (A') (A") (A') (A') (A") (A') (A') (A') (A') (A")
                 (A") (A') (A') (A") (A") (A') (A') (A") (A") (A")
                 (A') (A") (A') (A") (A") (A') (A") (A') (A') (A")
                 (A') (A") (A') (A") (A') (A") (A') (A') (A") (A')
                 (A') (A') (A") (A") (A') (A') (A") (A') (A') (A')
                 (A") (A') (A") (A') (A") (A') (A') (A") (A') (A')
                 (A") (A') (A') (A") (A") (A') (A') (A') (A") (A')
                 (A') (A') (A') (A") (A') (A') (A') (A") (A') (A')
                 (A') (A') (A") (A') (A') (A') (A') (A') (A') (A')
                 (A') (A') (A') (A') (A')
 The electronic state is 1-A'.
 Alpha  occ. eigenvalues --  -19.08304 -14.37844 -10.27584 -10.24280 -10.20425
 Alpha  occ. eigenvalues --  -10.18828 -10.18455  -1.04693  -0.96905  -0.83171
 Alpha  occ. eigenvalues --   -0.76982  -0.66440  -0.64782  -0.57319  -0.51791
 Alpha  occ. eigenvalues --   -0.49751  -0.47155  -0.45234  -0.43541  -0.40106
 Alpha  occ. eigenvalues --   -0.38579  -0.35762  -0.32069  -0.26420  -0.23290
 Alpha virt. eigenvalues --   -0.05537  -0.00112   0.00076   0.02628   0.04067
 Alpha virt. eigenvalues --    0.06657   0.07623   0.11716   0.12307   0.14288
 Alpha virt. eigenvalues --    0.14579   0.15354   0.17356   0.18624   0.18820
 Alpha virt. eigenvalues --    0.20112   0.22471   0.22974   0.26403   0.26624
 Alpha virt. eigenvalues --    0.27074   0.28235   0.28618   0.29274   0.30684
 Alpha virt. eigenvalues --    0.31803   0.33932   0.34838   0.37722   0.40014
 Alpha virt. eigenvalues --    0.40147   0.41879   0.44289   0.45927   0.47618
 Alpha virt. eigenvalues --    0.48641   0.50438   0.52031   0.55129   0.59061
 Alpha virt. eigenvalues --    0.60425   0.61504   0.63486   0.64128   0.66537
 Alpha virt. eigenvalues --    0.70175   0.75037   0.75145   0.77907   0.79693
 Alpha virt. eigenvalues --    0.80728   0.83217   0.89343   0.91014   0.91650
 Alpha virt. eigenvalues --    0.93919   0.95677   0.97789   0.99223   1.05553
 Alpha virt. eigenvalues --    1.07291   1.09494   1.10393   1.12973   1.13247
 Alpha virt. eigenvalues --    1.13992   1.16879   1.18174   1.19150   1.23265
 Alpha virt. eigenvalues --    1.24051   1.24352   1.25569   1.27315   1.27816
 Alpha virt. eigenvalues --    1.33260   1.37037   1.39344   1.40514   1.43470
 Alpha virt. eigenvalues --    1.44339   1.46644   1.48325   1.49271   1.54470
 Alpha virt. eigenvalues --    1.55855   1.58058   1.61549   1.65063   1.65911
 Alpha virt. eigenvalues --    1.66014   1.67518   1.70679   1.71171   1.74496
 Alpha virt. eigenvalues --    1.78532   1.79479   1.84657   1.85101   1.88940
 Alpha virt. eigenvalues --    1.90935   1.95411   1.99459   2.00502   2.00550
 Alpha virt. eigenvalues --    2.06440   2.06801   2.13224   2.14502   2.20087
 Alpha virt. eigenvalues --    2.21435   2.23265   2.25720   2.27269   2.30290
 Alpha virt. eigenvalues --    2.36036   2.50415   2.60784   2.63408   2.85551
 Alpha virt. eigenvalues --    2.86525   2.89593   2.92484   2.93839   3.14917
 Alpha virt. eigenvalues --    3.16662   3.20085   3.21245   3.23313   3.23708
 Alpha virt. eigenvalues --    3.26475   3.30774   3.32078   3.34285   3.37787
 Alpha virt. eigenvalues --    3.41269   3.46451   3.48992   3.53483   3.55484
 Alpha virt. eigenvalues --    3.58268   3.61642   3.65217   3.65861   3.67273
 Alpha virt. eigenvalues --    3.68223   3.70585   3.76740   3.84819   3.86645
 Alpha virt. eigenvalues --    3.90178   3.92644   3.94381   3.95359   3.98187
 Alpha virt. eigenvalues --    3.99852   4.01233   4.02440   4.06348   4.07205
 Alpha virt. eigenvalues --    4.08188   4.11683   4.13514   4.13989   4.16345
 Alpha virt. eigenvalues --    4.19684   4.20473   4.21640   4.23523   4.23578
 Alpha virt. eigenvalues --    4.25877   4.26397   4.26927   4.28567   4.31264
 Alpha virt. eigenvalues --    4.31269   4.32673   4.32979   4.34451   4.39113
 Alpha virt. eigenvalues --    4.40706   4.44324   4.45265   4.46451   4.47485
 Alpha virt. eigenvalues --    4.48908   4.50880   4.51090   4.55639   4.57069
 Alpha virt. eigenvalues --    4.57619   4.58805   4.61511   4.62460   4.67579
 Alpha virt. eigenvalues --    4.72167   4.73969   4.76784   4.84036   4.84865
 Alpha virt. eigenvalues --    4.87313   4.91767   4.92100   4.96385   4.97377
 Alpha virt. eigenvalues --    5.01559   5.08075   5.11704   5.16038   5.18121
 Alpha virt. eigenvalues --    5.21558   5.24775   5.30734   5.30946   5.33235
 Alpha virt. eigenvalues --    5.34358   5.39487   5.39678   5.41295   5.45738
 Alpha virt. eigenvalues --    5.47772   5.53879   5.57224   5.57261   5.58395
 Alpha virt. eigenvalues --    5.63098   5.68767   5.71713   5.71762   5.77618
 Alpha virt. eigenvalues --    5.82448   5.90505   5.95780   5.96878   6.06108
 Alpha virt. eigenvalues --    6.08699   6.10789   6.16154   6.20652   6.27269
 Alpha virt. eigenvalues --    6.36648   6.51155   6.51910   6.58035   6.79776
 Alpha virt. eigenvalues --    6.96728   6.97459   7.24519   9.54146  12.27033
 Alpha virt. eigenvalues --   13.14272  14.63483  17.76396  18.21669  22.70247
          Condensed to atoms (all electrons):
               1          2          3          4          5          6
     1  O    8.029334  -0.124717   0.611095  -0.072983   0.005871   0.006717
     2  N   -0.124717   6.440163   0.345598  -0.050271   0.375731  -0.016507
     3  C    0.611095   0.345598   4.364387   0.414635  -0.038987  -0.033082
     4  C   -0.072983  -0.050271   0.414635   4.993893  -0.041647   0.527028
     5  C    0.005871   0.375731  -0.038987  -0.041647   4.619060  -0.081933
     6  C    0.006717  -0.016507  -0.033082   0.527028  -0.081933   4.762457
     7  C    0.000928  -0.066286  -0.019771  -0.069993   0.612413   0.441480
     8  H    0.015682   0.385473  -0.025516   0.015223  -0.030901  -0.004324
     9  H    0.006048   0.006709  -0.044430   0.443620  -0.000156  -0.037225
    10  H   -0.001204  -0.036724   0.001728  -0.004518   0.423646   0.009328
    11  H   -0.000534  -0.002035   0.005718  -0.033362   0.008915   0.422729
    12  H    0.000022   0.005169  -0.000476   0.007032  -0.034084  -0.032733
               7          8          9         10         11         12
     1  O    0.000928   0.015682   0.006048  -0.001204  -0.000534   0.000022
     2  N   -0.066286   0.385473   0.006709  -0.036724  -0.002035   0.005169
     3  C   -0.019771  -0.025516  -0.044430   0.001728   0.005718  -0.000476
     4  C   -0.069993   0.015223   0.443620  -0.004518  -0.033362   0.007032
     5  C    0.612413  -0.030901  -0.000156   0.423646   0.008915  -0.034084
     6  C    0.441480  -0.004324  -0.037225   0.009328   0.422729  -0.032733
     7  C    4.857173   0.008002   0.007117  -0.036830  -0.040374   0.438089
     8  H    0.008002   0.495580  -0.000584  -0.013086   0.000357  -0.000347
     9  H    0.007117  -0.000584   0.575117   0.000344  -0.008924  -0.000043
    10  H   -0.036830  -0.013086   0.000344   0.605658  -0.000517  -0.004390
    11  H   -0.040374   0.000357  -0.008924  -0.000517   0.601143  -0.006708
    12  H    0.438089  -0.000347  -0.000043  -0.004390  -0.006708   0.583555
 Mulliken charges:
               1
     1  O   -0.476258
     2  N   -0.262301
     3  C    0.419101
     4  C   -0.128655
     5  C    0.182073
     6  C    0.036066
     7  C   -0.131947
     8  H    0.154442
     9  H    0.052408
    10  H    0.056566
    11  H    0.053591
    12  H    0.044914
 Sum of Mulliken charges =  -0.00000
 Mulliken charges with hydrogens summed into heavy atoms:
               1
     1  O   -0.476258
     2  N   -0.107860
     3  C    0.419101
     4  C   -0.076248
     5  C    0.238639
     6  C    0.089658
     7  C   -0.087032
 Electronic spatial extent (au):  <R**2>=            626.3004
 Charge=             -0.0000 electrons
 Dipole moment (field-independent basis, Debye):
    X=             -1.1933    Y=             -4.1899    Z=             -0.0000  Tot=              4.3565
 Quadrupole moment (field-independent basis, Debye-Ang):
   XX=            -31.8293   YY=            -48.0568   ZZ=            -43.0788
   XY=              0.1640   XZ=              0.0000   YZ=             -0.0000
 Traceless Quadrupole moment (field-independent basis, Debye-Ang):
   XX=              9.1590   YY=             -7.0685   ZZ=             -2.0905
   XY=              0.1640   XZ=              0.0000   YZ=             -0.0000
 Octapole moment (field-independent basis, Debye-Ang**2):
  XXX=            -11.4617  YYY=            -30.1573  ZZZ=              0.0000  XYY=             -0.0277
  XXY=              1.1654  XXZ=              0.0000  XZZ=             -2.1390  YZZ=              5.4270
  YYZ=             -0.0000  XYZ=              0.0000
 Hexadecapole moment (field-independent basis, Debye-Ang**3):
 XXXX=           -239.7954 YYYY=           -543.1012 ZZZZ=            -47.6774 XXXY=              2.5342
 XXXZ=              0.0000 YYYX=              7.8367 YYYZ=             -0.0000 ZZZX=              0.0000
 ZZZY=             -0.0000 XXYY=           -117.5970 XXZZ=            -61.1752 YYZZ=            -96.5293
 XXYZ=             -0.0000 YYXZ=              0.0000 ZZXY=              1.1989
 N-N= 2.768386644497D+02 E-N=-1.308799718640D+03  KE= 3.225310377349D+02
 Symmetry A'   KE= 3.110164806693D+02
 Symmetry A"   KE= 1.151455706555D+01
 No NMR shielding tensors so no spin-rotation constants.
 Leave Link  601 at Fri Aug 27 00:06:56 2021, MaxMem= 17179869184 cpu:        80.5
 (Enter /public3/home/sc51754/softwares/g09e01/l701.exe)
 Compute integral first derivatives.
 ... and contract with generalized density number  0.
 Leave Link  701 at Fri Aug 27 00:06:58 2021, MaxMem= 17179869184 cpu:        81.9
 (Enter /public3/home/sc51754/softwares/g09e01/l702.exe)
 L702 exits ... SP integral derivatives will be done elsewhere.
 Leave Link  702 at Fri Aug 27 00:06:58 2021, MaxMem= 17179869184 cpu:         0.2
 (Enter /public3/home/sc51754/softwares/g09e01/l703.exe)
 Compute integral first derivatives, UseDBF=F ICtDFT=           0.
 Integral derivatives from FoFJK, PRISM(SPDF).
 Calling FoFJK, ICntrl=      2127 FMM=F ISym2X=1 I1Cent= 0 IOpClX= 0 NMat=1 NMatS=1 NMatT=0.
 FoFJK:  IHMeth= 1 ICntrl=    2127 DoSepK=F KAlg= 0 I1Cent=   0 FoldK=F
 IRaf=         0 NMat=   1 IRICut=       1 DoRegI=T DoRafI=F ISym2E= 1.
 FoFCou: FMM=F IPFlag=           0 FMFlag=      100000 FMFlg1=         800
         NFxFlg=           0 DoJE=F BraDBF=F KetDBF=F FulRan=T
         wScrn=  0.000000 ICntrl=    2127 IOpCl=  0 I1Cent=           0 NGrid=           0
         NMat0=    1 NMatS0=      1 NMatT0=    0 NMatD0=    1 NMtDS0=    0 NMtDT0=    0
 Petite list used in FoFCou.
 Leave Link  703 at Fri Aug 27 00:07:00 2021, MaxMem= 17179869184 cpu:       155.3
 (Enter /public3/home/sc51754/softwares/g09e01/l716.exe)
 Dipole        =-4.69490648D-01-1.64841726D+00-4.14273365D-32
 ***** Axes restored to original set *****
 -------------------------------------------------------------------
 Center     Atomic                   Forces (Hartrees/Bohr)
 Number     Number              X              Y              Z
 -------------------------------------------------------------------
      1        8          -0.001269154    0.013854851   -0.000000000
      2        7          -0.002894129    0.001608425   -0.000000000
      3        6           0.001163309   -0.009513109    0.000000000
      4        6           0.003923331    0.005556473   -0.000000000
      5        6          -0.006182292   -0.001398811   -0.000000000
      6        6           0.004129161   -0.005078863    0.000000000
      7        6           0.002387213   -0.004950817    0.000000000
      8        1          -0.001310223    0.000022137   -0.000000000
      9        1          -0.000137641   -0.000517680    0.000000000
     10        1           0.000290839    0.000465360   -0.000000000
     11        1          -0.000208718   -0.000072687   -0.000000000
     12        1           0.000108303    0.000024722    0.000000000
 -------------------------------------------------------------------
 Cartesian Forces:  Max     0.013854851 RMS     0.003567789
 Leave Link  716 at Fri Aug 27 00:07:01 2021, MaxMem= 17179869184 cpu:         0.4
 (Enter /public3/home/sc51754/softwares/g09e01/l103.exe)

 GradGradGradGradGradGradGradGradGradGradGradGradGradGradGradGradGradGrad
 Berny optimization.
 FormGI is forming the generalized inverse of G from B-inverse, IUseBI=4.
 Internal  Forces:  Max     0.013910853 RMS     0.002605641
 Search for a local minimum.
 Step number   1 out of a maximum of   64
 All quantities printed in internal units (Hartrees-Bohrs-Radians)
 RMS Force = .26056D-02 SwitMx=.10000D-02 MixMth= 1
 Mixed Optimization -- RFO/linear search
 Second derivative matrix not updated -- first step.
 ITU=  0
     Eigenvalues ---    0.01577   0.01761   0.01972   0.02080   0.02183
     Eigenvalues ---    0.02246   0.02365   0.02483   0.02557   0.16000
     Eigenvalues ---    0.16000   0.16000   0.16000   0.16000   0.22000
     Eigenvalues ---    0.22000   0.23415   0.25000   0.35622   0.35864
     Eigenvalues ---    0.35940   0.36221   0.37867   0.40757   0.44267
     Eigenvalues ---    0.46319   0.50118   0.53776   0.54239   0.98595
 RFO step:  Lambda=-5.53180942D-04 EMin= 1.57720798D-02
 Linear search not attempted -- first point.
 Iteration  1 RMS(Cart)=  0.00609240 RMS(Int)=  0.00000316
 Iteration  2 RMS(Cart)=  0.00000332 RMS(Int)=  0.00000052
 Iteration  3 RMS(Cart)=  0.00000000 RMS(Int)=  0.00000052
 ITry= 1 IFail=0 DXMaxC= 2.30D-02 DCOld= 1.00D+10 DXMaxT= 3.00D-01 DXLimC= 3.00D+00 Rises=F
 ClnCor:  largest displacement from symmetrization is 2.79D-12 for atom    11.
 Variable       Old X    -DE/DX   Delta X   Delta X   Delta X     New X
                                 (Linear)    (Quad)   (Total)
    R1        2.29207   0.01391   0.00000   0.01410   0.01410   2.30617
    R2        2.65138   0.00483   0.00000   0.01053   0.01053   2.66191
    R3        2.56109   0.00409   0.00000   0.00754   0.00754   2.56864
    R4        1.90473   0.00115   0.00000   0.00248   0.00248   1.90721
    R5        2.72731   0.00465   0.00000   0.01172   0.01172   2.73903
    R6        2.55600   0.00693   0.00000   0.01274   0.01274   2.56873
    R7        2.04176  -0.00040   0.00000  -0.00110  -0.00110   2.04066
    R8        2.55244   0.00670   0.00000   0.01230   0.01230   2.56473
    R9        2.04295  -0.00047   0.00000  -0.00131  -0.00131   2.04164
   R10        2.67947   0.00383   0.00000   0.00912   0.00912   2.68859
   R11        2.04676  -0.00015   0.00000  -0.00042  -0.00042   2.04635
   R12        2.03737  -0.00002   0.00000  -0.00006  -0.00006   2.03731
    A1        2.18960  -0.00013   0.00000  -0.00096  -0.00097   2.18863
    A2        1.99125   0.00066   0.00000   0.00420   0.00420   1.99545
    A3        2.10233  -0.00053   0.00000  -0.00324  -0.00323   2.09910
    A4        2.09504   0.00001   0.00000   0.00028   0.00029   2.09533
    A5        2.21834  -0.00052   0.00000  -0.00182  -0.00182   2.21651
    A6        1.96981   0.00052   0.00000   0.00154   0.00154   1.97134
    A7        2.12410  -0.00013   0.00000  -0.00071  -0.00070   2.12339
    A8        2.02595   0.00043   0.00000   0.00266   0.00266   2.02861
    A9        2.13313  -0.00031   0.00000  -0.00195  -0.00195   2.13118
   A10        2.10267   0.00001   0.00000   0.00024   0.00024   2.10290
   A11        2.03035  -0.00029   0.00000  -0.00194  -0.00193   2.02842
   A12        2.15017   0.00029   0.00000   0.00170   0.00170   2.15187
   A13        2.12246  -0.00046   0.00000  -0.00163  -0.00162   2.12083
   A14        2.08387   0.00040   0.00000   0.00188   0.00188   2.08575
   A15        2.07686   0.00006   0.00000  -0.00025  -0.00025   2.07660
   A16        2.05775   0.00019   0.00000   0.00152   0.00152   2.05927
   A17        2.10204   0.00001   0.00000  -0.00009  -0.00009   2.10195
   A18        2.12340  -0.00020   0.00000  -0.00143  -0.00143   2.12197
    D1        3.14159  -0.00000   0.00000  -0.00000   0.00000   3.14159
    D2       -0.00000  -0.00000   0.00000  -0.00000   0.00000   0.00000
    D3        0.00000  -0.00000   0.00000  -0.00000  -0.00000   0.00000
    D4        3.14159   0.00000   0.00000  -0.00000   0.00000   3.14159
    D5        0.00000  -0.00000   0.00000   0.00000  -0.00000   0.00000
    D6        3.14159   0.00000   0.00000   0.00000   0.00000   3.14159
    D7        3.14159  -0.00000   0.00000  -0.00000   0.00000   3.14159
    D8       -0.00000  -0.00000   0.00000  -0.00000   0.00000   0.00000
    D9        3.14159   0.00000   0.00000   0.00000   0.00000   3.14159
   D10        0.00000  -0.00000   0.00000   0.00000   0.00000   0.00000
   D11        0.00000   0.00000   0.00000   0.00000  -0.00000   0.00000
   D12        3.14159   0.00000   0.00000   0.00000   0.00000   3.14159
   D13        0.00000  -0.00000   0.00000  -0.00000   0.00000   0.00000
   D14        3.14159  -0.00000   0.00000  -0.00000   0.00000   3.14159
   D15        3.14159  -0.00000   0.00000   0.00000   0.00000   3.14159
   D16       -0.00000   0.00000   0.00000   0.00000   0.00000   0.00000
   D17       -0.00000   0.00000   0.00000   0.00000   0.00000   0.00000
   D18        3.14159   0.00000   0.00000   0.00000   0.00000   3.14159
   D19        3.14159  -0.00000   0.00000  -0.00000   0.00000   3.14159
   D20       -0.00000  -0.00000   0.00000  -0.00000   0.00000   0.00000
   D21        0.00000  -0.00000   0.00000  -0.00000  -0.00000   0.00000
   D22        3.14159   0.00000   0.00000   0.00000   0.00000   3.14159
   D23        3.14159  -0.00000   0.00000  -0.00000   0.00000   3.14159
   D24        0.00000  -0.00000   0.00000  -0.00000   0.00000   0.00000
         Item               Value     Threshold  Converged?
 Maximum Force            0.013911     0.000450     NO 
 RMS     Force            0.002606     0.000300     NO 
 Maximum Displacement     0.022960     0.001800     NO 
 RMS     Displacement     0.006092     0.001200     NO 
 Predicted change in Energy=-2.768594D-04
 Lowest energy point so far.  Saving SCF results.
 GradGradGradGradGradGradGradGradGradGradGradGradGradGradGradGradGradGrad

 Leave Link  103 at Fri Aug 27 00:07:01 2021, MaxMem= 17179869184 cpu:        33.7
 (Enter /public3/home/sc51754/softwares/g09e01/l202.exe)
                          Input orientation:                          
 ---------------------------------------------------------------------
 Center     Atomic      Atomic             Coordinates (Angstroms)
 Number     Number       Type             X           Y           Z
 ---------------------------------------------------------------------
      1          8           0       -0.130939    2.280046   -0.000000
      2          7           0       -1.137683    0.235099   -0.000000
      3          6           0       -0.000693    1.066643   -0.000000
      4          6           0        1.243400    0.322948    0.000000
      5          6           0       -1.119160   -1.124038   -0.000000
      6          6           0        1.262173   -1.036238    0.000000
      7          6           0        0.059666   -1.796611    0.000000
      8          1           0       -2.016187    0.731906   -0.000000
      9          1           0        2.150090    0.909487    0.000000
     10          1           0       -2.081788   -1.614531   -0.000000
     11          1           0        2.211896   -1.556485    0.000000
     12          1           0        0.073329   -2.874620    0.000000
 ---------------------------------------------------------------------
                    Distance matrix (angstroms):
                    1          2          3          4          5
     1  O    0.000000
     2  N    2.279328   0.000000
     3  C    1.220373   1.408620   0.000000
     4  C    2.391452   2.382703   1.449431   0.000000
     5  C    3.544625   1.359264   2.459686   2.770462   0.000000
     6  C    3.597012   2.715807   2.452945   1.359315   2.382951
     7  C    4.081110   2.358281   2.863890   2.427705   1.357198
     8  H    2.439446   1.009251   2.043102   3.285141   2.061355
     9  H    2.661113   3.356225   2.156517   1.079869   3.850094
    10  H    4.355863   2.076648   3.394061   3.848467   1.080387
    11  H    4.495313   3.798612   3.431669   2.114297   3.359009
    12  H    5.158711   3.337200   3.941958   3.404923   2.118151
                    6          7          8          9         10
     6  C    0.000000
     7  C    1.422740   0.000000
     8  H    3.724779   3.271477   0.000000
     9  H    2.138748   3.419479   4.170060   0.000000
    10  H    3.393597   2.149181   2.347354   4.927419   0.000000
    11  H    1.082881   2.165584   4.807642   2.466746   4.294076
    12  H    2.189292   1.078096   4.168106   4.316527   2.496468
                   11         12
    11  H    0.000000
    12  H    2.512160   0.000000
 Stoichiometry    C5H5NO
 Framework group  CS[SG(C5H5NO)]
 Deg. of freedom    21
 Full point group                 CS      NOp   2
 RotChk:  IX=0 Diff= 8.77D-04
 Largest Abelian subgroup         CS      NOp   2
 Largest concise Abelian subgroup C1      NOp   1
                         Standard orientation:                         
 ---------------------------------------------------------------------
 Center     Atomic      Atomic             Coordinates (Angstroms)
 Number     Number       Type             X           Y           Z
 ---------------------------------------------------------------------
      1          8           0       -0.129493    2.278566    0.000000
      2          7           0       -1.137505    0.234244   -0.000000
      3          6           0       -0.000000    1.065083    0.000000
      4          6           0        1.243632    0.320616    0.000000
      5          6           0       -1.119825   -1.124905   -0.000000
      6          6           0        1.261562   -1.038581    0.000000
      7          6           0        0.058584   -1.798208   -0.000000
      8          1           0       -2.015701    0.731595   -0.000000
      9          1           0        2.150686    0.906593    0.000000
     10          1           0       -2.082757   -1.614801   -0.000000
     11          1           0        2.210962   -1.559417    0.000000
     12          1           0        0.071578   -2.876226   -0.000000
 ---------------------------------------------------------------------
 Rotational constants (GHZ):      5.6859960      2.8001238      1.8761805
 Leave Link  202 at Fri Aug 27 00:07:01 2021, MaxMem= 17179869184 cpu:         5.1
 (Enter /public3/home/sc51754/softwares/g09e01/l301.exe)
 Basis read from rwf:  (5D, 7F)
 No pseudopotential information found on rwf file.
 There are   223 symmetry adapted cartesian basis functions of A'  symmetry.
 There are    97 symmetry adapted cartesian basis functions of A"  symmetry.
 There are   190 symmetry adapted basis functions of A'  symmetry.
 There are    90 symmetry adapted basis functions of A"  symmetry.
   280 basis functions,   475 primitive gaussians,   320 cartesian basis functions
    25 alpha electrons       25 beta electrons
       nuclear repulsion energy       275.7505412779 Hartrees.
 IExCor=  402 DFT=T Ex+Corr=B3LYP ExCW=0 ScaHFX=  0.200000
 ScaDFX=  0.800000  0.720000  1.000000  0.810000 ScalE2=  1.000000  1.000000
 IRadAn=      0 IRanWt=     -1 IRanGd=            0 ICorTp=0 IEmpDi=  4
 NAtoms=   12 NActive=   12 NUniq=   12 SFac= 1.00D+00 NAtFMM=   60 NAOKFM=F Big=F
 Integral buffers will be    131072 words long.
 Raffenetti 2 integral format.
 Two-electron integral symmetry is turned on.
 No density basis found on file   724.
 Leave Link  301 at Fri Aug 27 00:07:02 2021, MaxMem= 17179869184 cpu:         1.8
 (Enter /public3/home/sc51754/softwares/g09e01/l302.exe)
 NPDir=0 NMtPBC=     1 NCelOv=     1 NCel=       1 NClECP=     1 NCelD=      1
         NCelK=      1 NCelE2=     1 NClLst=     1 CellRange=     0.0.
 One-electron integrals computed using PRISM.
 NBasis=   280 RedAO= T EigKep=  2.35D-04  NBF=   190    90
 NBsUse=   280 1.00D-06 EigRej= -1.00D+00 NBFU=   190    90
 Precomputing XC quadrature grid using
 IXCGrd= 4 IRadAn=           0 IRanWt=          -1 IRanGd=           0 AccXCQ= 0.00D+00.
 Generated NRdTot=       0 NPtTot=           0 NUsed=           0 NTot=          32
 NSgBfM=   320   320   320   320   320 MxSgAt=    12 MxSgA2=    12.
 Leave Link  302 at Fri Aug 27 00:07:02 2021, MaxMem= 17179869184 cpu:        43.0
 (Enter /public3/home/sc51754/softwares/g09e01/l303.exe)
 DipDrv:  MaxL=1.
 Leave Link  303 at Fri Aug 27 00:07:03 2021, MaxMem= 17179869184 cpu:        12.1
 (Enter /public3/home/sc51754/softwares/g09e01/l401.exe)
 Initial guess from the checkpoint file:  "PY_B3LYP_PC2_OPT_FREQ.chk"
 B after Tr=     0.000000    0.000000    0.000000
         Rot=    1.000000   -0.000000    0.000000    0.000285 Ang=   0.03 deg.
 Guess basis will be translated and rotated to current coordinates.
 JPrj=2 DoOrth=T DoCkMO=T.
 Initial guess orbital symmetries:
       Occupied  (A') (A') (A') (A') (A') (A') (A') (A') (A') (A')
                 (A') (A') (A') (A') (A') (A') (A') (A") (A') (A')
                 (A') (A") (A") (A') (A")
       Virtual   (A') (A') (A') (A') (A') (A') (A') (A') (A') (A')
                 (A') (A') (A') (A') (A') (A') (A') (A') (A') (A')
                 (A') (A') (A') (A') (A') (A') (A') (A') (A') (A')
                 (A') (A') (A') (A') (A') (A') (A') (A') (A') (A')
                 (A') (A') (A') (A') (A') (A') (A') (A') (A') (A')
                 (A') (A') (A') (A') (A') (A') (A') (A') (A') (A')
                 (A') (A') (A') (A') (A') (A') (A') (A') (A') (A')
                 (A') (A') (A') (A') (A') (A') (A') (A') (A') (A')
                 (A') (A') (A') (A') (A') (A') (A') (A') (A') (A')
                 (A') (A') (A') (A') (A') (A') (A') (A') (A') (A')
                 (A') (A') (A') (A') (A') (A') (A') (A') (A') (A')
                 (A') (A') (A') (A') (A') (A') (A') (A') (A') (A')
                 (A') (A') (A') (A') (A') (A') (A') (A') (A') (A')
                 (A') (A') (A') (A') (A') (A') (A') (A') (A') (A')
                 (A') (A') (A') (A') (A') (A') (A') (A') (A') (A')
                 (A') (A') (A') (A') (A') (A') (A') (A') (A') (A')
                 (A') (A') (A') (A') (A') (A') (A') (A') (A') (A")
                 (A") (A") (A") (A") (A") (A") (A") (A") (A") (A")
                 (A") (A") (A") (A") (A") (A") (A") (A") (A") (A")
                 (A") (A") (A") (A") (A") (A") (A") (A") (A") (A")
                 (A") (A") (A") (A") (A") (A") (A") (A") (A") (A")
                 (A") (A") (A") (A") (A") (A") (A") (A") (A") (A")
                 (A") (A") (A") (A") (A") (A") (A") (A") (A") (A")
                 (A") (A") (A") (A") (A") (A") (A") (A") (A") (A")
                 (A") (A") (A") (A") (A") (A") (A") (A") (A") (A")
                 (A") (A") (A") (A") (A")
 The electronic state of the initial guess is 1-A'.
 Generating alternative initial guess.
 ExpMin= 7.41D-02 ExpMax= 1.48D+04 ExpMxC= 5.05D+02 IAcc=2 IRadAn=         4 AccDes= 0.00D+00
 Harris functional with IExCor=  402 and IRadAn=       4 diagonalized for initial guess.
 HarFok:  IExCor=  402 AccDes= 0.00D+00 IRadAn=         4 IDoV= 1 UseB2=F ITyADJ=14
 ICtDFT=  3500011 ScaDFX=  1.000000  1.000000  1.000000  1.000000
 FoFCou: FMM=F IPFlag=           0 FMFlag=      100000 FMFlg1=           0
         NFxFlg=           0 DoJE=T BraDBF=F KetDBF=T FulRan=T
         wScrn=  0.000000 ICntrl=     500 IOpCl=  0 I1Cent=   200000004 NGrid=           0
         NMat0=    1 NMatS0=      1 NMatT0=    0 NMatD0=    1 NMtDS0=    0 NMtDT0=    0
 Petite list used in FoFCou.
 Harris En= -323.701315561891    
 Leave Link  401 at Fri Aug 27 00:07:04 2021, MaxMem= 17179869184 cpu:        85.6
 (Enter /public3/home/sc51754/softwares/g09e01/l502.exe)
 Closed shell SCF:
 Using DIIS extrapolation, IDIIS=  1040.
 Integral symmetry usage will be decided dynamically.
 Keep R1 ints in memory in symmetry-blocked form, NReq=1167802198.
 IVT=      348658 IEndB=      348658 NGot= 17179869184 MDV= 16785904737
 LenX= 16785904737 LenY= 16785801896
 Requested convergence on RMS density matrix=1.00D-08 within 128 cycles.
 Requested convergence on MAX density matrix=1.00D-06.
 Requested convergence on             energy=1.00D-06.
 No special actions if energy rises.
 FoFCou: FMM=F IPFlag=           0 FMFlag=           0 FMFlg1=           0
         NFxFlg=           0 DoJE=F BraDBF=F KetDBF=F FulRan=T
         wScrn=  0.000000 ICntrl=     600 IOpCl=  0 I1Cent=           0 NGrid=           0
         NMat0=    1 NMatS0=  39340 NMatT0=    0 NMatD0=    1 NMtDS0=    0 NMtDT0=    0
 Petite list used in FoFCou.
 Integral accuracy reduced to 1.0D-05 until final iterations.

 Cycle   1  Pass 0  IDiag  1:
 E= -323.660106268426    
 DIIS: error= 4.79D-04 at cycle   1 NSaved=   1.
 NSaved= 1 IEnMin= 1 EnMin= -323.660106268426     IErMin= 1 ErrMin= 4.79D-04
 ErrMax= 4.79D-04  0.00D+00 EMaxC= 1.00D-01 BMatC= 8.86D-05 BMatP= 8.86D-05
 IDIUse=3 WtCom= 9.95D-01 WtEn= 4.79D-03
 Coeff-Com:  0.100D+01
 Coeff-En:   0.100D+01
 Coeff:      0.100D+01
 Gap=     0.561 Goal=   None    Shift=    0.000
 RMSDP=3.18D-05 MaxDP=1.10D-03              OVMax= 2.03D-03

 Cycle   2  Pass 0  IDiag  1:
 E= -323.660171348553     Delta-E=       -0.000065080127 Rises=F Damp=F
 DIIS: error= 2.31D-04 at cycle   2 NSaved=   2.
 NSaved= 2 IEnMin= 2 EnMin= -323.660171348553     IErMin= 2 ErrMin= 2.31D-04
 ErrMax= 2.31D-04  0.00D+00 EMaxC= 1.00D-01 BMatC= 1.39D-05 BMatP= 8.86D-05
 IDIUse=3 WtCom= 9.98D-01 WtEn= 2.31D-03
 Coeff-Com:  0.220D+00 0.780D+00
 Coeff-En:   0.000D+00 0.100D+01
 Coeff:      0.220D+00 0.780D+00
 Gap=     0.176 Goal=   None    Shift=    0.000
 RMSDP=1.85D-05 MaxDP=7.61D-04 DE=-6.51D-05 OVMax= 1.08D-03

 Cycle   3  Pass 0  IDiag  1:
 E= -323.660178387138     Delta-E=       -0.000007038586 Rises=F Damp=F
 DIIS: error= 1.55D-04 at cycle   3 NSaved=   3.
 NSaved= 3 IEnMin= 3 EnMin= -323.660178387138     IErMin= 3 ErrMin= 1.55D-04
 ErrMax= 1.55D-04  0.00D+00 EMaxC= 1.00D-01 BMatC= 5.29D-06 BMatP= 1.39D-05
 IDIUse=3 WtCom= 9.98D-01 WtEn= 1.55D-03
 Coeff-Com:  0.417D-02 0.379D+00 0.617D+00
 Coeff-En:   0.000D+00 0.294D+00 0.706D+00
 Coeff:      0.416D-02 0.379D+00 0.617D+00
 Gap=     0.176 Goal=   None    Shift=    0.000
 RMSDP=7.99D-06 MaxDP=2.25D-04 DE=-7.04D-06 OVMax= 5.60D-04

 Initial convergence to 1.0D-05 achieved.  Increase integral accuracy.
 Cycle   4  Pass 1  IDiag  1:
 E= -323.660163157498     Delta-E=        0.000015229640 Rises=F Damp=F
 DIIS: error= 2.60D-05 at cycle   1 NSaved=   1.
 NSaved= 1 IEnMin= 1 EnMin= -323.660163157498     IErMin= 1 ErrMin= 2.60D-05
 ErrMax= 2.60D-05  0.00D+00 EMaxC= 1.00D-01 BMatC= 2.61D-07 BMatP= 2.61D-07
 IDIUse=1 WtCom= 1.00D+00 WtEn= 0.00D+00
 Coeff-Com:  0.100D+01
 Coeff:      0.100D+01
 Gap=     0.176 Goal=   None    Shift=    0.000
 RMSDP=7.99D-06 MaxDP=2.25D-04 DE= 1.52D-05 OVMax= 4.86D-04

 Cycle   5  Pass 1  IDiag  1:
 E= -323.660163157533     Delta-E=       -0.000000000035 Rises=F Damp=F
 DIIS: error= 4.22D-05 at cycle   2 NSaved=   2.
 NSaved= 2 IEnMin= 2 EnMin= -323.660163157533     IErMin= 1 ErrMin= 2.60D-05
 ErrMax= 4.22D-05  0.00D+00 EMaxC= 1.00D-01 BMatC= 2.98D-07 BMatP= 2.61D-07
 IDIUse=1 WtCom= 1.00D+00 WtEn= 0.00D+00
 Coeff-Com:  0.520D+00 0.480D+00
 Coeff:      0.520D+00 0.480D+00
 Gap=     0.176 Goal=   None    Shift=    0.000
 RMSDP=2.05D-06 MaxDP=1.12D-04 DE=-3.47D-11 OVMax= 3.73D-04

 Cycle   6  Pass 1  IDiag  1:
 E= -323.660163424800     Delta-E=       -0.000000267267 Rises=F Damp=F
 DIIS: error= 1.48D-05 at cycle   3 NSaved=   3.
 NSaved= 3 IEnMin= 3 EnMin= -323.660163424800     IErMin= 3 ErrMin= 1.48D-05
 ErrMax= 1.48D-05  0.00D+00 EMaxC= 1.00D-01 BMatC= 4.10D-08 BMatP= 2.61D-07
 IDIUse=1 WtCom= 1.00D+00 WtEn= 0.00D+00
 Coeff-Com:  0.618D-01 0.268D+00 0.670D+00
 Coeff:      0.618D-01 0.268D+00 0.670D+00
 Gap=     0.176 Goal=   None    Shift=    0.000
 RMSDP=7.27D-07 MaxDP=3.06D-05 DE=-2.67D-07 OVMax= 1.44D-04

 Cycle   7  Pass 1  IDiag  1:
 E= -323.660163458750     Delta-E=       -0.000000033950 Rises=F Damp=F
 DIIS: error= 5.98D-06 at cycle   4 NSaved=   4.
 NSaved= 4 IEnMin= 4 EnMin= -323.660163458750     IErMin= 4 ErrMin= 5.98D-06
 ErrMax= 5.98D-06  0.00D+00 EMaxC= 1.00D-01 BMatC= 1.06D-08 BMatP= 4.10D-08
 IDIUse=1 WtCom= 1.00D+00 WtEn= 0.00D+00
 Coeff-Com: -0.841D-02 0.134D+00 0.441D+00 0.434D+00
 Coeff:     -0.841D-02 0.134D+00 0.441D+00 0.434D+00
 Gap=     0.176 Goal=   None    Shift=    0.000
 RMSDP=2.52D-07 MaxDP=1.61D-05 DE=-3.40D-08 OVMax= 3.83D-05

 Cycle   8  Pass 1  IDiag  1:
 E= -323.660163467442     Delta-E=       -0.000000008691 Rises=F Damp=F
 DIIS: error= 1.63D-06 at cycle   5 NSaved=   5.
 NSaved= 5 IEnMin= 5 EnMin= -323.660163467442     IErMin= 5 ErrMin= 1.63D-06
 ErrMax= 1.63D-06  0.00D+00 EMaxC= 1.00D-01 BMatC= 4.99D-10 BMatP= 1.06D-08
 IDIUse=1 WtCom= 1.00D+00 WtEn= 0.00D+00
 Coeff-Com: -0.880D-02 0.602D-01 0.210D+00 0.255D+00 0.484D+00
 Coeff:     -0.880D-02 0.602D-01 0.210D+00 0.255D+00 0.484D+00
 Gap=     0.176 Goal=   None    Shift=    0.000
 RMSDP=7.21D-08 MaxDP=3.77D-06 DE=-8.69D-09 OVMax= 8.88D-06

 Cycle   9  Pass 1  IDiag  1:
 E= -323.660163467789     Delta-E=       -0.000000000347 Rises=F Damp=F
 DIIS: error= 5.00D-07 at cycle   6 NSaved=   6.
 NSaved= 6 IEnMin= 6 EnMin= -323.660163467789     IErMin= 6 ErrMin= 5.00D-07
 ErrMax= 5.00D-07  0.00D+00 EMaxC= 1.00D-01 BMatC= 6.55D-11 BMatP= 4.99D-10
 IDIUse=1 WtCom= 1.00D+00 WtEn= 0.00D+00
 Coeff-Com: -0.466D-02 0.236D-01 0.851D-01 0.117D+00 0.311D+00 0.469D+00
 Coeff:     -0.466D-02 0.236D-01 0.851D-01 0.117D+00 0.311D+00 0.469D+00
 Gap=     0.176 Goal=   None    Shift=    0.000
 RMSDP=2.35D-08 MaxDP=1.07D-06 DE=-3.47D-10 OVMax= 2.93D-06

 Cycle  10  Pass 1  IDiag  1:
 E= -323.660163467838     Delta-E=       -0.000000000049 Rises=F Damp=F
 DIIS: error= 1.10D-07 at cycle   7 NSaved=   7.
 NSaved= 7 IEnMin= 7 EnMin= -323.660163467838     IErMin= 7 ErrMin= 1.10D-07
 ErrMax= 1.10D-07  0.00D+00 EMaxC= 1.00D-01 BMatC= 2.29D-12 BMatP= 6.55D-11
 IDIUse=1 WtCom= 1.00D+00 WtEn= 0.00D+00
 Coeff-Com: -0.125D-02 0.510D-02 0.194D-01 0.298D-01 0.105D+00 0.215D+00
 Coeff-Com:  0.627D+00
 Coeff:     -0.125D-02 0.510D-02 0.194D-01 0.298D-01 0.105D+00 0.215D+00
 Coeff:      0.627D+00
 Gap=     0.176 Goal=   None    Shift=    0.000
 RMSDP=4.76D-09 MaxDP=1.75D-07 DE=-4.91D-11 OVMax= 4.62D-07

 SCF Done:  E(RB3LYP) =  -323.660163468     A.U. after   10 cycles
            NFock= 10  Conv=0.48D-08     -V/T= 2.0039
 KE= 3.224124892770D+02 PE=-1.306526979840D+03 EE= 3.847037858175D+02
 Leave Link  502 at Fri Aug 27 00:07:10 2021, MaxMem= 17179869184 cpu:       209.8
 (Enter /public3/home/sc51754/softwares/g09e01/l701.exe)
 Compute integral first derivatives.
 ... and contract with generalized density number  0.
 Leave Link  701 at Fri Aug 27 00:07:11 2021, MaxMem= 17179869184 cpu:        63.9
 (Enter /public3/home/sc51754/softwares/g09e01/l702.exe)
 L702 exits ... SP integral derivatives will be done elsewhere.
 Leave Link  702 at Fri Aug 27 00:07:11 2021, MaxMem= 17179869184 cpu:         0.3
 (Enter /public3/home/sc51754/softwares/g09e01/l703.exe)
 Compute integral first derivatives, UseDBF=F ICtDFT=           0.
 Integral derivatives from FoFJK, PRISM(SPDF).
 Calling FoFJK, ICntrl=      2127 FMM=F ISym2X=1 I1Cent= 0 IOpClX= 0 NMat=1 NMatS=1 NMatT=0.
 FoFJK:  IHMeth= 1 ICntrl=    2127 DoSepK=F KAlg= 0 I1Cent=   0 FoldK=F
 IRaf=         0 NMat=   1 IRICut=       1 DoRegI=T DoRafI=F ISym2E= 1.
 FoFCou: FMM=F IPFlag=           0 FMFlag=      100000 FMFlg1=         800
         NFxFlg=           0 DoJE=F BraDBF=F KetDBF=F FulRan=T
         wScrn=  0.000000 ICntrl=    2127 IOpCl=  0 I1Cent=           0 NGrid=           0
         NMat0=    1 NMatS0=      1 NMatT0=    0 NMatD0=    1 NMtDS0=    0 NMtDT0=    0
 Petite list used in FoFCou.
[...]
     35  0.000000D+00 -0.361941D-03 -0.368773D-03  0.000000D+00  0.248365D-03
     36 -0.278776D-01  0.000000D+00  0.000000D+00  0.179062D-02  0.000000D+00
               26            27            28            29            30 
     26  0.144358D+00
     27  0.000000D+00  0.239593D-01
     28 -0.104770D-03  0.000000D+00  0.299787D+00
     29  0.100970D-03  0.000000D+00  0.121540D+00  0.124107D+00
     30  0.000000D+00 -0.122607D-02  0.000000D+00  0.000000D+00  0.241119D-01
     31  0.162978D-03  0.000000D+00 -0.957175D-03  0.797229D-03  0.000000D+00
     32  0.114420D-02  0.000000D+00 -0.832989D-03  0.540784D-03  0.000000D+00
     33  0.000000D+00 -0.596191D-02  0.000000D+00  0.000000D+00 -0.398811D-03
     34 -0.126351D-02  0.000000D+00  0.843572D-03 -0.467406D-03  0.000000D+00
     35 -0.522906D-03  0.000000D+00  0.245799D-03  0.574930D-03  0.000000D+00
     36  0.000000D+00  0.553409D-03  0.000000D+00  0.000000D+00 -0.491769D-02
               31            32            33            34            35 
     31  0.287179D+00
     32 -0.124718D+00  0.127160D+00
     33  0.000000D+00  0.000000D+00  0.267091D-01
     34  0.102955D-02  0.775422D-03  0.000000D+00  0.568075D-01
     35 -0.183952D-03  0.677670D-03  0.000000D+00 -0.505776D-02  0.366166D+00
     36  0.000000D+00  0.000000D+00 -0.214900D-02  0.000000D+00  0.000000D+00
               36 
     36  0.230088D-01
 FormGI is forming the generalized inverse of G from B-inverse, IUseBI=4.
 Leave Link  716 at Fri Aug 27 00:08:18 2021, MaxMem= 17179869184 cpu:        22.4
 (Enter /public3/home/sc51754/softwares/g09e01/l103.exe)

 GradGradGradGradGradGradGradGradGradGradGradGradGradGradGradGradGradGrad
 Berny optimization.
 Red2BG is reusing G-inverse.
 Internal  Forces:  Max     0.000053321 RMS     0.000009893
 Search for a local minimum.
 Step number   1 out of a maximum of    2
 All quantities printed in internal units (Hartrees-Bohrs-Radians)
 Second derivative matrix not updated -- analytic derivatives used.
 ITU=  0
     Eigenvalues ---    0.00809   0.01119   0.01559   0.01722   0.01952
     Eigenvalues ---    0.02222   0.02650   0.03256   0.04695   0.10319
     Eigenvalues ---    0.10901   0.11138   0.12161   0.12715   0.17027
     Eigenvalues ---    0.19430   0.20336   0.23122   0.30728   0.31281
     Eigenvalues ---    0.35556   0.36149   0.36451   0.36722   0.37479
     Eigenvalues ---    0.41330   0.46170   0.50617   0.53479   0.78503
 Angle between quadratic step and forces=  18.54 degrees.
 Linear search not attempted -- first point.
 Iteration  1 RMS(Cart)=  0.00004542 RMS(Int)=  0.00000000
 Iteration  2 RMS(Cart)=  0.00000000 RMS(Int)=  0.00000000
 ITry= 1 IFail=0 DXMaxC= 1.66D-04 DCOld= 1.00D+10 DXMaxT= 3.00D-01 DXLimC= 3.00D+00 Rises=F
 ClnCor:  largest displacement from symmetrization is 2.72D-12 for atom     8.
 Variable       Old X    -DE/DX   Delta X   Delta X   Delta X     New X
                                 (Linear)    (Quad)   (Total)
    R1        2.30878   0.00001   0.00000   0.00003   0.00003   2.30882
    R2        2.65965  -0.00005   0.00000  -0.00022  -0.00022   2.65943
    R3        2.56882  -0.00000   0.00000   0.00002   0.00002   2.56883
    R4        1.90694   0.00001   0.00000   0.00003   0.00003   1.90697
    R5        2.73559   0.00003   0.00000   0.00010   0.00010   2.73569
    R6        2.56904  -0.00000   0.00000  -0.00001  -0.00001   2.56903
    R7        2.04016   0.00001   0.00000   0.00002   0.00002   2.04017
    R8        2.56417   0.00001   0.00000   0.00000   0.00000   2.56418
    R9        2.04126   0.00000   0.00000  -0.00000  -0.00000   2.04126
   R10        2.68713   0.00002   0.00000   0.00007   0.00007   2.68720
   R11        2.04586   0.00000   0.00000   0.00001   0.00001   2.04587
   R12        2.03721  -0.00000   0.00000   0.00000   0.00000   2.03721
    A1        2.18812   0.00001   0.00000   0.00001   0.00001   2.18813
    A2        1.99666  -0.00001   0.00000  -0.00008  -0.00008   1.99658
    A3        2.09841   0.00001   0.00000   0.00007   0.00007   2.09848
    A4        2.09386   0.00000   0.00000   0.00005   0.00005   2.09391
    A5        2.21621  -0.00001   0.00000  -0.00011  -0.00011   2.21610
    A6        1.97312   0.00001   0.00000   0.00006   0.00006   1.97318
    A7        2.12240  -0.00000   0.00000  -0.00003  -0.00003   2.12238
    A8        2.02996   0.00001   0.00000   0.00006   0.00006   2.03002
    A9        2.13082  -0.00000   0.00000  -0.00003  -0.00003   2.13079
   A10        2.10219  -0.00000   0.00000  -0.00001  -0.00001   2.10218
   A11        2.02833  -0.00000   0.00000  -0.00001  -0.00001   2.02833
   A12        2.15267   0.00000   0.00000   0.00002   0.00002   2.15268
   A13        2.12104  -0.00001   0.00000  -0.00006  -0.00006   2.12098
   A14        2.08555   0.00000   0.00000   0.00001   0.00001   2.08556
   A15        2.07659   0.00001   0.00000   0.00005   0.00005   2.07664
   A16        2.05950   0.00000   0.00000   0.00003   0.00003   2.05953
   A17        2.10155  -0.00000   0.00000  -0.00004  -0.00004   2.10150
   A18        2.12214   0.00000   0.00000   0.00002   0.00002   2.12215
    D1        3.14159  -0.00000   0.00000   0.00000   0.00000   3.14159
    D2       -0.00000   0.00000   0.00000   0.00000   0.00000   0.00000
    D3       -0.00000   0.00000   0.00000   0.00000   0.00000   0.00000
    D4        3.14159  -0.00000   0.00000   0.00000   0.00000   3.14159
    D5        0.00000  -0.00000   0.00000   0.00000   0.00000   0.00000
    D6        3.14159   0.00000   0.00000   0.00000   0.00000   3.14159
    D7        3.14159  -0.00000   0.00000   0.00000   0.00000   3.14159
    D8       -0.00000   0.00000   0.00000   0.00000   0.00000   0.00000
    D9        3.14159   0.00000   0.00000  -0.00000   0.00000   3.14159
   D10        0.00000   0.00000   0.00000  -0.00000   0.00000   0.00000
   D11        0.00000   0.00000   0.00000  -0.00000  -0.00000   0.00000
   D12        3.14159   0.00000   0.00000  -0.00000   0.00000   3.14159
   D13       -0.00000   0.00000   0.00000   0.00000   0.00000   0.00000
   D14        3.14159  -0.00000   0.00000  -0.00000   0.00000   3.14159
   D15        3.14159  -0.00000   0.00000   0.00000   0.00000   3.14159
   D16       -0.00000  -0.00000   0.00000  -0.00000   0.00000   0.00000
   D17       -0.00000   0.00000   0.00000  -0.00000   0.00000   0.00000
   D18        3.14159   0.00000   0.00000   0.00000   0.00000   3.14159
   D19        3.14159  -0.00000   0.00000  -0.00000   0.00000   3.14159
   D20        0.00000  -0.00000   0.00000  -0.00000   0.00000   0.00000
   D21        0.00000  -0.00000   0.00000   0.00000   0.00000   0.00000
   D22        3.14159  -0.00000   0.00000  -0.00000   0.00000   3.14159
   D23        3.14159  -0.00000   0.00000   0.00000   0.00000   3.14159
   D24       -0.00000   0.00000   0.00000   0.00000   0.00000   0.00000
         Item               Value     Threshold  Converged?
 Maximum Force            0.000053     0.000450     YES
 RMS     Force            0.000010     0.000300     YES
 Maximum Displacement     0.000166     0.001800     YES
 RMS     Displacement     0.000045     0.001200     YES
 Predicted change in Energy=-1.138269D-08
 Optimization completed.
    -- Stationary point found.
                           ----------------------------
                           !   Optimized Parameters   !
                           ! (Angstroms and Degrees)  !
 --------------------------                            --------------------------
 ! Name  Definition              Value          Derivative Info.                !
 --------------------------------------------------------------------------------
 ! R1    R(1,3)                  1.2218         -DE/DX =    0.0                 !
 ! R2    R(2,3)                  1.4074         -DE/DX =   -0.0001              !
 ! R3    R(2,5)                  1.3594         -DE/DX =    0.0                 !
 ! R4    R(2,8)                  1.0091         -DE/DX =    0.0                 !
 ! R5    R(3,4)                  1.4476         -DE/DX =    0.0                 !
 ! R6    R(4,6)                  1.3595         -DE/DX =    0.0                 !
 ! R7    R(4,9)                  1.0796         -DE/DX =    0.0                 !
 ! R8    R(5,7)                  1.3569         -DE/DX =    0.0                 !
 ! R9    R(5,10)                 1.0802         -DE/DX =    0.0                 !
 ! R10   R(6,7)                  1.422          -DE/DX =    0.0                 !
 ! R11   R(6,11)                 1.0826         -DE/DX =    0.0                 !
 ! R12   R(7,12)                 1.078          -DE/DX =    0.0                 !
 ! A1    A(3,2,5)              125.3698         -DE/DX =    0.0                 !
 ! A2    A(3,2,8)              114.4            -DE/DX =    0.0                 !
 ! A3    A(5,2,8)              120.2301         -DE/DX =    0.0                 !
 ! A4    A(1,3,2)              119.9692         -DE/DX =    0.0                 !
 ! A5    A(1,3,4)              126.9794         -DE/DX =    0.0                 !
 ! A6    A(2,3,4)              113.0514         -DE/DX =    0.0                 !
 ! A7    A(3,4,6)              121.6048         -DE/DX =    0.0                 !
 ! A8    A(3,4,9)              116.3082         -DE/DX =    0.0                 !
 ! A9    A(6,4,9)              122.087          -DE/DX =    0.0                 !
 ! A10   A(2,5,7)              120.4465         -DE/DX =    0.0                 !
 ! A11   A(2,5,10)             116.2148         -DE/DX =    0.0                 !
 ! A12   A(7,5,10)             123.3386         -DE/DX =    0.0                 !
 ! A13   A(4,6,7)              121.5267         -DE/DX =    0.0                 !
 ! A14   A(4,6,11)             119.4935         -DE/DX =    0.0                 !
 ! A15   A(7,6,11)             118.9798         -DE/DX =    0.0                 !
 ! A16   A(5,7,6)              118.0008         -DE/DX =    0.0                 !
 ! A17   A(5,7,12)             120.4097         -DE/DX =    0.0                 !
 ! A18   A(6,7,12)             121.5896         -DE/DX =    0.0                 !
 ! D1    D(5,2,3,1)            180.0            -DE/DX =    0.0                 !
 ! D2    D(5,2,3,4)              0.0            -DE/DX =    0.0                 !
 ! D3    D(8,2,3,1)              0.0            -DE/DX =    0.0                 !
 ! D4    D(8,2,3,4)            180.0            -DE/DX =    0.0                 !
 ! D5    D(3,2,5,7)              0.0            -DE/DX =    0.0                 !
 ! D6    D(3,2,5,10)           180.0            -DE/DX =    0.0                 !
 ! D7    D(8,2,5,7)            180.0            -DE/DX =    0.0                 !
 ! D8    D(8,2,5,10)             0.0            -DE/DX =    0.0                 !
 ! D9    D(1,3,4,6)            180.0            -DE/DX =    0.0                 !
 ! D10   D(1,3,4,9)              0.0            -DE/DX =    0.0                 !
 ! D11   D(2,3,4,6)              0.0            -DE/DX =    0.0                 !
 ! D12   D(2,3,4,9)            180.0            -DE/DX =    0.0                 !
 ! D13   D(3,4,6,7)              0.0            -DE/DX =    0.0                 !
 ! D14   D(3,4,6,11)           180.0            -DE/DX =    0.0                 !
 ! D15   D(9,4,6,7)            180.0            -DE/DX =    0.0                 !
 ! D16   D(9,4,6,11)             0.0            -DE/DX =    0.0                 !
 ! D17   D(2,5,7,6)              0.0            -DE/DX =    0.0                 !
 ! D18   D(2,5,7,12)           180.0            -DE/DX =    0.0                 !
 ! D19   D(10,5,7,6)           180.0            -DE/DX =    0.0                 !
 ! D20   D(10,5,7,12)            0.0            -DE/DX =    0.0                 !
 ! D21   D(4,6,7,5)              0.0            -DE/DX =    0.0                 !
 ! D22   D(4,6,7,12)           180.0            -DE/DX =    0.0                 !
 ! D23   D(11,6,7,5)           180.0            -DE/DX =    0.0                 !
 ! D24   D(11,6,7,12)            0.0            -DE/DX =    0.0                 !
 --------------------------------------------------------------------------------
 GradGradGradGradGradGradGradGradGradGradGradGradGradGradGradGradGradGrad

 Leave Link  103 at Fri Aug 27 00:08:19 2021, MaxMem= 17179869184 cpu:        57.4
 (Enter /public3/home/sc51754/softwares/g09e01/l9999.exe)
 1\1\GINC-S2515\Freq\RB3LYP\Gen\C5H5N1O1\SC51754\27-Aug-2021\0\\#P Geom
 =AllCheck Guess=TCheck SCRF=Check GenChk RB3LYP/ChkBas Freq\\PY_B3LYP_
 PC2_OPT_FREQ\\0,1\O,-0.1312886691,2.2796823329,0.\N,-1.1369717448,0.23
 51601283,0.\C,-0.0002000124,1.064979243,0.\C,1.2429814093,0.3233073688
 ,0.\C,-1.1189690004,-1.1240799651,0.\C,1.2616040268,-1.0360412483,0.\C
 ,0.0598226526,-1.7961152552,0.\H,-2.0155043091,0.7316295599,0.\H,2.149
 7256099,0.9092756959,0.\H,-2.081648064,-1.6140323048,0.\H,2.2111439992
 ,-1.5560842874,0.\H,0.073407102,-2.8740732681,0.\\Version=EM64L-G09Rev
 E.01\State=1-A'\HF=-323.6601693\RMSD=2.915e-09\RMSF=1.833e-05\ZeroPoin
 t=0.0935292\Thermal=0.0987905\Dipole=-0.4678808,-1.6739618,0.\DipoleDe
 riv=-0.4383977,0.2488485,0.,0.0581209,-1.7732594,0.,0.,0.,-0.4258235,-
 0.3415019,-0.514384,0.,0.3848378,-0.7647518,0.,0.,0.,-0.2182293,0.4501
 632,-0.1697785,0.,-0.0296462,2.1619934,0.,0.,0.,0.2598433,-0.0622888,0
 .5109088,0.,-0.0362818,-0.57507,0.,0.,0.,-0.1677076,0.3350445,-0.01989
 41,0.,-0.6097445,0.4121185,0.,0.,0.,-0.0136185,0.3836138,0.2135418,0.,
 0.1634753,0.4736235,0.,0.,0.,-0.078604,-0.5543319,-0.2101685,0.,0.1156
 264,-0.1324809,0.,0.,0.,-0.2093914,0.2274587,-0.0311176,0.,-0.0174397,
 0.138391,0.,0.,0.,0.2748435,0.0009145,-0.0331935,0.,-0.046434,0.031538
 1,0.,0.,0.,0.1479513,-0.0159891,-0.0504747,0.,-0.037192,0.0333668,0.,0
 .,0.,0.1423303,-0.0496356,0.0720151,0.,0.0696928,0.0420382,0.,0.,0.,0.
 1239672,0.0649502,-0.0163033,0.,-0.0150151,-0.0475075,0.,0.,0.,0.16443
 86\Polar=73.4111419,0.0635013,89.9344273,0.,0.,37.9968607\PG=CS [SG(C5
 H5N1O1)]\NImag=0\\0.09772850,-0.06166252,0.74896266,0.,0.,0.03310041,0
 .01247430,-0.04121618,0.,0.73656547,-0.06906691,-0.07548703,0.,-0.1173
 7631,0.74331180,0.,0.,0.01919981,0.,0.,0.07433045,-0.10986497,0.073134
 73,0.,-0.19920528,0.02812545,0.,0.53626016,0.06988955,-0.61761362,0.,-
 0.01965528,-0.13264456,0.,-0.10456056,0.89414673,0.,0.,-0.07320316,0.,
 0.,-0.05965375,0.,0.,0.19807488,0.00338580,0.02988733,0.,-0.04440545,-
 0.01475651,0.,-0.21177568,0.04661757,0.,0.64368141,0.05164748,-0.05458
 738,0.,-0.00825077,0.04642409,0.,0.02301805,-0.12379671,0.,0.07319023,
 0.76923234,0.,0.,0.02202844,0.,0.,0.00537178,0.,0.,-0.07772897,0.,0.,0
 .11639060,-0.01013898,-0.00212405,0.,-0.14781084,-0.02398376,0.,0.0365
 2993,-0.02341037,0.,-0.01363031,0.02125040,0.,0.82424554,0.01545400,-0
 .00321854,0.,0.02704310,-0.32208366,0.,-0.07782488,-0.02740586,0.,0.01
 896089,-0.03306286,0.,-0.01187414,0.66481070,0.,0.,0.00497325,0.,0.,-0
 .04425178,0.,0.,-0.00321745,0.,0.,0.00070357,0.,0.,0.13695969,-0.01355
 667,0.00791985,0.,-0.00579707,-0.03252165,0.,0.03805638,0.03267360,0.,
 -0.13324361,0.02724704,0.,-0.06162552,0.01645924,0.,0.67449064,-0.0065
 9793,0.01242654,0.,-0.00381082,-0.03739161,0.,0.04894083,-0.02596442,0
 .,-0.01488215,-0.42360085,0.,-0.02097948,0.05088326,0.,-0.04986831,0.7
 3647119,0.,0.,0.00397573,0.,0.,-0.00503002,0.,0.,0.00008441,0.,0.,-0.0
 5548119,0.,0.,0.00759054,0.,0.,0.14181734,0.01131502,-0.00836741,0.,0.
 00964977,0.06830273,0.,-0.05047316,-0.00114827,0.,0.02387133,-0.054274
 71,0.,-0.34618932,0.09824774,0.,-0.23264745,-0.04440588,0.,0.66949464,
 -0.00285429,-0.00495933,0.,0.03788716,-0.04635534,0.,0.01000190,0.0055
 4721,0.,-0.03305252,-0.02771293,0.,0.14125542,-0.18897834,0.,-0.094429
 49,-0.16658529,0.,-0.06001395,0.76129461,0.,0.,-0.00020976,0.,0.,0.012
 08155,0.,0.,-0.00725829,0.,0.,0.00729119,0.,0.,-0.06313431,0.,0.,-0.06
 069241,0.,0.,0.11445524,0.00518180,0.00066624,0.,-0.35740242,0.1554158
 2,0.,-0.02374334,0.01923393,0.,-0.00387468,-0.00374584,0.,0.00692956,-
 0.00068536,0.,-0.00113237,-0.00264039,0.,0.00455289,-0.00243696,0.,0.3
 6917527,0.00465058,-0.00199394,0.,0.15399473,-0.15552479,0.,-0.0182267
 7,0.02074928,0.,-0.00309834,-0.00331177,0.,0.03277677,-0.01289521,0.,-
 0.00001386,0.00055837,0.,-0.00387228,-0.00557045,0.,-0.16606915,0.1569
 0420,0.,0.,-0.00454984,0.,0.,-0.01624343,0.,0.,0.00316824,0.,0.,0.0043
 0798,0.,0.,-0.00543697,0.,0.,-0.00056755,0.,0.,0.00497201,0.,0.,0.0162
 8112,0.00300751,0.00125523,0.,-0.00507887,0.00271156,0.,-0.01757408,-0
 .01963826,0.,-0.26310707,-0.12849147,0.,-0.00013862,0.00239146,0.,0.00
 572914,0.00256414,0.,0.00237595,0.00094592,0.,-0.00101952,-0.00098029,
 0.,0.27471604,-0.00170242,0.00075248,0.,0.00387670,-0.00102875,0.,0.01
 407577,0.01115123,0.,-0.13032036,-0.13838290,0.,0.00062327,-0.00108888
 ,0.,-0.02778063,-0.01251659,0.,0.00197942,-0.00460628,0.,0.00088502,0.
 00063947,0.,0.13956852,0.14435795,0.,0.,-0.00221174,0.,0.,0.00462360,0
 .,0.,0.00281078,0.,0.,-0.03383071,0.,0.,-0.00067384,0.,0.,0.00302061,0
 .,0.,0.00939217,0.,0.,-0.00045564,0.,0.,0.02395934,-0.00015161,-0.0000
 9022,0.,0.00515693,0.00155468,0.,0.00214071,0.00169907,0.,0.00053563,0
 .00064683,0.,-0.28894698,-0.11355533,0.,-0.00334552,0.00420686,0.,-0.0
 1608883,-0.01484521,0.,0.00102808,-0.00046458,0.,-0.00000181,-0.000104
 77,0.,0.29978701,-0.00173589,-0.00286750,0.,-0.03559769,-0.02054872,0.
 ,0.00691253,-0.00035419,0.,-0.00017813,0.00009267,0.,-0.10743060,-0.11
 394096,0.,0.00272577,-0.00162275,0.,0.01385863,0.01312477,0.,-0.000294
 78,0.00079253,0.,-0.00012952,0.00010097,0.,0.12153987,0.12410747,0.,0.
 ,-0.00017781,0.,0.,0.00263372,0.,0.,0.00506743,0.,0.,-0.00000320,0.,0.
 ,-0.03717056,0.,0.,0.00796715,0.,0.,0.00665741,0.,0.,-0.00254345,0.,0.
 ,-0.00122607,0.,0.,0.02411188,-0.00011467,0.00059266,0.,0.00103826,-0.
 00055976,0.,0.00158337,-0.00154972,0.,0.00325391,-0.00052960,0.,-0.003
 70359,-0.00410687,0.,-0.27227905,0.11545323,0.,-0.01797777,0.01460216,
 0.,0.00003378,0.00003994,0.,0.00091396,0.00016298,0.,-0.00095718,0.000
 79723,0.,0.28717943,0.00187360,-0.00136423,0.,0.00030548,-0.00023670,0
 .,-0.00320994,-0.00437544,0.,0.03034663,-0.01175592,0.,-0.00346685,-0.
 00144897,0.,0.11491609,-0.12231779,0.,-0.01557689,0.01195539,0.,0.0000
 3339,0.00002108,0.,-0.00044566,0.00114420,0.,-0.00083299,0.00054078,0.
 ,-0.12471829,0.12715992,0.,0.,-0.00244056,0.,0.,-0.00068169,0.,0.,0.01
 217315,0.,0.,0.00712129,0.,0.,0.00453006,0.,0.,-0.04250139,0.,0.,0.004
 32283,0.,0.,-0.00072310,0.,0.,-0.00596191,0.,0.,-0.00039881,0.,0.,0.02
 670912,0.00073398,0.00000434,0.,-0.00518480,0.00215466,0.,-0.00193403,
 -0.00015126,0.,-0.00469129,-0.00170763,0.,0.00447914,0.02949014,0.,0.0
 0535112,-0.02798011,0.,-0.05788306,0.00293986,0.,0.00027095,0.00126324
 ,0.,0.00017737,-0.00126351,0.,0.00084357,-0.00046741,0.,0.00102955,0.0
 0077542,0.,0.05680749,0.00010474,-0.00005012,0.,0.00279989,0.00156527,
 0.,-0.00038710,0.00056035,0.,-0.00271464,0.00046223,0.,-0.00263662,-0.
 01157068,0.,0.00267235,-0.01034006,0.,0.00527087,-0.34715401,0.,-0.000
 36194,-0.00036877,0.,0.00024837,-0.00052291,0.,0.00024580,0.00057493,0
 .,-0.00018395,0.00067767,0.,-0.00505776,0.36616609,0.,0.,-0.00048477,0
 .,0.,0.00761975,0.,0.,-0.00031725,0.,0.,0.00382921,0.,0.,-0.00087221,0
 .,0.,-0.00018322,0.,0.,-0.02787760,0.,0.,0.00179062,0.,0.,0.00055341,0
 .,0.,-0.00491769,0.,0.,-0.00214900,0.,0.,0.02300877\\-0.00000266,-0.00
 001024,0.,-0.00004950,-0.00000854,0.,0.00008312,0.00003869,0.,-0.00001
 302,-0.00000299,0.,0.00000792,-0.00000339,0.,-0.00002082,-0.00000215,0
 .,0.00000298,0.00000441,0.,0.00000734,-0.00001198,0.,-0.00000739,-0.00
 000088,0.,-0.00000020,0.00000249,0.,-0.00000731,-0.00000530,0.,-0.0000
 0046,-0.00000012,0.\\\@


 IF YOU GIVE EVERYONE A PIECE OF YOUR MIND,
 PRETTY SOON IT WILL BE ALL GONE.
 Job cpu time:       0 days  0 hours 37 minutes  1.0 seconds.
 File lengths (MBytes):  RWF=     80 Int=      0 D2E=      0 Chk=      7 Scr=      1
 Normal termination of Gaussian 09 at Fri Aug 27 00:08:20 2021.
