 Entering Gaussian System, Link 0=g09
 AtFile(1): pc-2.gbs
            -H     0
            S    4   1.00
                  0.754230D+02           0.240650D-02
                  0.113500D+02           0.184870D-01
                  0.259930D+01           0.897420D-01
                  0.735130D+00           0.281110D+00
            S    1   1.00
                  0.231670D+00           0.100000D+01
            S    1   1.00
                  0.741470D-01           0.100000D+01
            P    1   1.00
                  0.160000D+01           0.100000D+01
            P    1   1.00
                  0.450000D+00           0.100000D+01
            D    1   1.00
                  0.125000D+01           0.100000D+01
            ****
            -C     0
            S    7   1.00
                  0.785710D+04           0.568250D-03
                  0.117870D+04           0.439150D-02
                  0.268320D+03           0.225040D-01
                  0.759480D+02           0.866530D-01
                  0.245590D+02           0.244050D+00
                  0.862120D+01           0.441480D+00
                  0.312780D+01           0.353320D+00
            S    7   1.00
                  0.117870D+04          -0.594920D-06
                  0.268320D+03          -0.627480D-04
                  0.759480D+02          -0.757730D-03
                  0.245590D+02          -0.733080D-02
                  0.862120D+01          -0.389320D-01
                  0.312780D+01          -0.889080D-01
                  0.822020D+00           0.216890D+00
            S    1   1.00
                  0.330170D+00           0.100000D+01
            S    1   1.00
                  0.114630D+00           0.100000D+01
            P    4   1.00
                  0.337750D+02           0.602940D-02
                  0.767660D+01           0.432280D-01
                  0.223570D+01           0.163010D+00
                  0.764470D+00           0.365040D+00
            P    1   1.00
                  0.262320D+00           0.100000D+01
            P    1   1.00
                  0.846380D-01           0.100000D+01
            D    1   1.00
                  0.140000D+01           0.100000D+01
            D    1   1.00
                  0.450000D+00           0.100000D+01
            F    1   1.00
                  0.950000D+00           0.100000D+01
            ****
            -N     0
            S    7   1.00
                  0.111010D+05           0.545700D-03
                  0.166530D+04           0.421810D-02
                  0.379080D+03           0.216450D-01
                  0.107300D+03           0.837760D-01
                  0.347470D+02           0.238810D+00
                  0.122490D+02           0.439940D+00
                  0.447430D+01           0.363640D+00
            S    7   1.00
                  0.166530D+04          -0.150060D-05
                  0.379080D+03          -0.587530D-04
                  0.107300D+03          -0.774530D-03
                  0.347470D+02          -0.721610D-02
                  0.122490D+02          -0.393380D-01
                  0.447430D+01          -0.906110D-01
                  0.124040D+01           0.198820D+00
            S    1   1.00
                  0.487430D+00           0.100000D+01
            S    1   1.00
                  0.164840D+00           0.100000D+01
            P    4   1.00
                  0.479340D+02           0.617060D-02
                  0.109990D+02           0.442600D-01
                  0.324720D+01           0.168250D+00
                  0.111140D+01           0.368480D+00
            P    1   1.00
                  0.379880D+00           0.100000D+01
            P    1   1.00
                  0.120680D+00           0.100000D+01
            D    1   1.00
                  0.180000D+01           0.100000D+01
            D    1   1.00
                  0.550000D+00           0.100000D+01
            F    1   1.00
                  0.102000D+01           0.100000D+01
            ****
            -O     0
            S    7   1.00
                  0.147820D+05           0.535190D-03
                  0.221730D+04           0.413750D-02
                  0.504740D+03           0.212450D-01
                  0.142870D+03           0.824530D-01
                  0.463000D+02           0.236710D+00
                  0.163370D+02           0.440390D+00
                  0.598280D+01           0.364650D+00
            S    7   1.00
                  0.221730D+04          -0.192750D-05
                  0.504740D+03          -0.579640D-04
                  0.142870D+03          -0.794940D-03
                  0.463000D+02          -0.731250D-02
                  0.163370D+02          -0.405740D-01
                  0.598280D+01          -0.915940D-01
                  0.167180D+01           0.209400D+00
            S    1   1.00
                  0.646620D+00           0.100000D+01
            S    1   1.00
                  0.216690D+00           0.100000D+01
            P    4   1.00
                  0.604240D+02           0.689490D-02
                  0.139350D+02           0.490050D-01
                  0.415310D+01           0.182550D+00
                  0.141580D+01           0.376330D+00
            P    1   1.00
                  0.475490D+00           0.100000D+01
            P    1   1.00
                  0.145290D+00           0.100000D+01
            D    1   1.00
                  0.220000D+01           0.100000D+01
            D    1   1.00
                  0.650000D+00           0.100000D+01
            F    1   1.00
                  0.110000D+01           0.100000D+01
            ****
 Initial command:
 /public3/home/sc51754/softwares/g09e01/l1.exe "./Gau-25415.inp" -scrdir="./"
 Entering Link 1 = /public3/home/sc51754/softwares/g09e01/l1.exe PID=     25416.
  
 Copyright (c) 1988,1990,1992,1993,1995,1998,2003,2009,2015,
            Gaussian, Inc.  All Rights Reserved.
  
 This is part of the Gaussian(R) 09 program.  It is based on
 the Gaussian(R) 03 system (copyright 2003, Gaussian, Inc.),
 the Gaussian(R) 98 system (copyright 1998, Gaussian, Inc.),
 the Gaussian(R) 94 system (copyright 1995, Gaussian, Inc.),
 the Gaussian 92(TM) system (copyright 1992, Gaussian, Inc.),
 the Gaussian 90(TM) system (copyright 1990, Gaussian, Inc.),
 the Gaussian 88(TM) system (copyright 1988, Gaussian, Inc.),
 the Gaussian 86(TM) system (copyright 1986, Carnegie Mellon
 University), and the Gaussian 82(TM) system (copyright 1983,
 Carnegie Mellon University). Gaussian is a federally registered
 trademark of Gaussian, Inc.
  
 This software contains proprietary and confidential information,
 including trade secrets, belonging to Gaussian, Inc.
  
 This software is provided under written license and may be
 used, copied, transmitted, or stored only in accord with that
 written license.
  
 The following legend is applicable only to US Government
 contracts under FAR:
  
                    RESTRICTED RIGHTS LEGEND
  
 Use, reproduction and disclosure by the US Government is
 subject to restrictions as set forth in subparagraphs (a)
 and (c) of the Commercial Computer Software - Restricted
 Rights clause in FAR 52.227-19.
  
 Gaussian, Inc.
 340 Quinnipiac St., Bldg. 40, Wallingford CT 06492
  
  
 ---------------------------------------------------------------
 Warning -- This program may not be used in any manner that
 competes with the business of Gaussian, Inc. or will provide
 assistance to any competitor of Gaussian, Inc.  The licensee
 of this program is prohibited from giving any competitor of
 Gaussian, Inc. access to this program.  By using this program,
 the user acknowledges that Gaussian, Inc. is engaged in the
 business of creating and licensing software in the field of
 computational chemistry and represents and warrants to the
 licensee that it is not a competitor of Gaussian, Inc. and that
 it will not use this program in any manner prohibited above.
 ---------------------------------------------------------------
  

 Cite this work as:
 Gaussian 09, Revision E.01,
 M. J. Frisch, G. W. Trucks, H. B. Schlegel, G. E. Scuseria, 
 M. A. Robb, J. R. Cheeseman, G. Scalmani, V. Barone, B. Mennucci, 
 G. A. Petersson, H. Nakatsuji, M. Caricato, X. Li, H. P. Hratchian, 
 A. F. Izmaylov, J. Bloino, G. Zheng, J. L. Sonnenberg, M. Hada, 
 M. Ehara, K. Toyota, R. Fukuda, J. Hasegawa, M. Ishida, T. Nakajima, 
 Y. Honda, O. Kitao, H. Nakai, T. Vreven, J. A. Montgomery, Jr., 
 J. E. Peralta, F. Ogliaro, M. Bearpark, J. J. Heyd, E. Brothers, 
 K. N. Kudin, V. N. Staroverov, T. Keith, R. Kobayashi, J. Normand, 
 K. Raghavachari, A. Rendell, J. C. Burant, S. S. Iyengar, J. Tomasi, 
 M. Cossi, N. Rega, J. M. Millam, M. Klene, J. E. Knox, J. B. Cross, 
 V. Bakken, C. Adamo, J. Jaramillo, R. Gomperts, R. E. Stratmann, 
 O. Yazyev, A. J. Austin, R. Cammi, C. Pomelli, J. W. Ochterski, 
 R. L. Martin, K. Morokuma, V. G. Zakrzewski, G. A. Voth, 
 P. Salvador, J. J. Dannenberg, S. Dapprich, A. D. Daniels, 
 O. Farkas, J. B. Foresman, J. V. Ortiz, J. Cioslowski, 
 and D. J. Fox, Gaussian, Inc., Wallingford CT, 2013.
 
 ******************************************
 Gaussian 09:  EM64L-G09RevE.01 30-Nov-2015
                27-Aug-2021 
 ******************************************
 %nprocshared=64
 Will use up to   64 processors via shared memory.
 %mem=128GB
 %chk=PY_BLYP_PC2_OPT_FREQ.chk
 --------------------
 #p opt freq BLYP/gen
 --------------------
 1/14=-1,18=20,19=15,26=3,38=1/1,3;
 2/9=110,12=2,17=6,18=5,40=1/2;
 3/5=7,11=2,16=1,25=1,30=1,71=1,74=402/1,2,3;
 4//1;
 5/5=2,38=5/2;
 6/7=2,8=2,9=2,10=2,28=1/1;
 7//1,2,3,16;
 1/14=-1,18=20,19=15,26=3/3(2);
 2/9=110/2;
 99//99;
 2/9=110/2;
 3/5=7,6=1,11=2,16=1,25=1,30=1,71=1,74=402,82=7/1,2,3;
 4/5=5,16=3,69=1/1;
 5/5=2,38=5/2;
 7//1,2,3,16;
 1/14=-1,18=20,19=15,26=3/3(-5);
 2/9=110/2;
 6/7=2,8=2,9=2,10=2,19=2,28=1/1;
 99/9=1/99;
 Leave Link    1 at Fri Aug 27 00:01:53 2021, MaxMem= 17179869184 cpu:         2.7
 (Enter /public3/home/sc51754/softwares/g09e01/l101.exe)
 --------------------
 PY_BLYP_PC2_OPT_FREQ
 --------------------
 Symbolic Z-matrix:
 Charge =  0 Multiplicity = 1
 O                    -0.1303    2.2679    0. 
 N                    -1.13214   0.23327   0. 
 C                     0.        1.06201   0. 
 C                     1.23795   0.32011   0. 
 C                    -1.11441  -1.12189   0. 
 C                     1.25607  -1.03234   0. 
 C                     0.05856  -1.79159   0. 
 H                    -2.00762   0.73274   0. 
 H                     2.14422   0.90837   0. 
 H                    -2.07697  -1.61403   0. 
 H                     2.20675  -1.5513    0. 
 H                     0.072    -2.86964   0. 
 
 NAtoms=     12 NQM=       12 NQMF=       0 NMMI=      0 NMMIF=      0
                NMic=       0 NMicF=      0.
                    Isotopes and Nuclear Properties:
 (Nuclear quadrupole moments (NQMom) in fm**2, nuclear magnetic moments (NMagM)
  in nuclear magnetons)

  Atom         1           2           3           4           5           6           7           8           9          10
 IAtWgt=          16          14          12          12          12          12          12           1           1           1
 AtmWgt=  15.9949146  14.0030740  12.0000000  12.0000000  12.0000000  12.0000000  12.0000000   1.0078250   1.0078250   1.0078250
 NucSpn=           0           2           0           0           0           0           0           1           1           1
 AtZEff=   0.0000000   0.0000000   0.0000000   0.0000000   0.0000000   0.0000000   0.0000000   0.0000000   0.0000000   0.0000000
 NQMom=    0.0000000   2.0440000   0.0000000   0.0000000   0.0000000   0.0000000   0.0000000   0.0000000   0.0000000   0.0000000
 NMagM=    0.0000000   0.4037610   0.0000000   0.0000000   0.0000000   0.0000000   0.0000000   2.7928460   2.7928460   2.7928460
 AtZNuc=   8.0000000   7.0000000   6.0000000   6.0000000   6.0000000   6.0000000   6.0000000   1.0000000   1.0000000   1.0000000

  Atom        11          12
 IAtWgt=           1           1
 AtmWgt=   1.0078250   1.0078250
 NucSpn=           1           1
 AtZEff=   0.0000000   0.0000000
 NQMom=    0.0000000   0.0000000
 NMagM=    2.7928460   2.7928460
 AtZNuc=   1.0000000   1.0000000
 Leave Link  101 at Fri Aug 27 00:01:53 2021, MaxMem= 17179869184 cpu:         7.7
 (Enter /public3/home/sc51754/softwares/g09e01/l103.exe)

 GradGradGradGradGradGradGradGradGradGradGradGradGradGradGradGradGradGrad
 Berny optimization.
 Initialization pass.
                           ----------------------------
                           !    Initial Parameters    !
                           ! (Angstroms and Degrees)  !
 --------------------------                            --------------------------
 ! Name  Definition              Value          Derivative Info.                !
 --------------------------------------------------------------------------------
 ! R1    R(1,3)                  1.2129         estimate D2E/DX2                !
 ! R2    R(2,3)                  1.403          estimate D2E/DX2                !
 ! R3    R(2,5)                  1.3553         estimate D2E/DX2                !
 ! R4    R(2,8)                  1.0079         estimate D2E/DX2                !
 ! R5    R(3,4)                  1.4432         estimate D2E/DX2                !
 ! R6    R(4,6)                  1.3526         estimate D2E/DX2                !
 ! R7    R(4,9)                  1.0805         estimate D2E/DX2                !
 ! R8    R(5,7)                  1.3507         estimate D2E/DX2                !
 ! R9    R(5,10)                 1.0811         estimate D2E/DX2                !
 ! R10   R(6,7)                  1.4179         estimate D2E/DX2                !
 ! R11   R(6,11)                 1.0831         estimate D2E/DX2                !
 ! R12   R(7,12)                 1.0781         estimate D2E/DX2                !
 ! A1    A(3,2,5)              125.4546         estimate D2E/DX2                !
 ! A2    A(3,2,8)              114.0905         estimate D2E/DX2                !
 ! A3    A(5,2,8)              120.4549         estimate D2E/DX2                !
 ! A4    A(1,3,2)              120.0371         estimate D2E/DX2                !
 ! A5    A(1,3,4)              127.1013         estimate D2E/DX2                !
 ! A6    A(2,3,4)              112.8616         estimate D2E/DX2                !
 ! A7    A(3,4,6)              121.7019         estimate D2E/DX2                !
 ! A8    A(3,4,9)              116.0785         estimate D2E/DX2                !
 ! A9    A(6,4,9)              122.2196         estimate D2E/DX2                !
 ! A10   A(2,5,7)              120.4739         estimate D2E/DX2                !
 ! A11   A(2,5,10)             116.3305         estimate D2E/DX2                !
 ! A12   A(7,5,10)             123.1956         estimate D2E/DX2                !
 ! A13   A(4,6,7)              121.6078         estimate D2E/DX2                !
 ! A14   A(4,6,11)             119.3971         estimate D2E/DX2                !
 ! A15   A(7,6,11)             118.9951         estimate D2E/DX2                !
 ! A16   A(5,7,6)              117.9002         estimate D2E/DX2                !
 ! A17   A(5,7,12)             120.4381         estimate D2E/DX2                !
 ! A18   A(6,7,12)             121.6617         estimate D2E/DX2                !
 ! D1    D(5,2,3,1)            180.0            estimate D2E/DX2                !
 ! D2    D(5,2,3,4)              0.0            estimate D2E/DX2                !
 ! D3    D(8,2,3,1)              0.0            estimate D2E/DX2                !
 ! D4    D(8,2,3,4)            180.0            estimate D2E/DX2                !
 ! D5    D(3,2,5,7)              0.0            estimate D2E/DX2                !
 ! D6    D(3,2,5,10)           180.0            estimate D2E/DX2                !
 ! D7    D(8,2,5,7)            180.0            estimate D2E/DX2                !
 ! D8    D(8,2,5,10)             0.0            estimate D2E/DX2                !
 ! D9    D(1,3,4,6)            180.0            estimate D2E/DX2                !
 ! D10   D(1,3,4,9)              0.0            estimate D2E/DX2                !
 ! D11   D(2,3,4,6)              0.0            estimate D2E/DX2                !
 ! D12   D(2,3,4,9)            180.0            estimate D2E/DX2                !
 ! D13   D(3,4,6,7)              0.0            estimate D2E/DX2                !
 ! D14   D(3,4,6,11)           180.0            estimate D2E/DX2                !
 ! D15   D(9,4,6,7)            180.0            estimate D2E/DX2                !
 ! D16   D(9,4,6,11)             0.0            estimate D2E/DX2                !
 ! D17   D(2,5,7,6)              0.0            estimate D2E/DX2                !
 ! D18   D(2,5,7,12)           180.0            estimate D2E/DX2                !
 ! D19   D(10,5,7,6)           180.0            estimate D2E/DX2                !
 ! D20   D(10,5,7,12)            0.0            estimate D2E/DX2                !
 ! D21   D(4,6,7,5)              0.0            estimate D2E/DX2                !
 ! D22   D(4,6,7,12)           180.0            estimate D2E/DX2                !
 ! D23   D(11,6,7,5)           180.0            estimate D2E/DX2                !
 ! D24   D(11,6,7,12)            0.0            estimate D2E/DX2                !
 --------------------------------------------------------------------------------
 Trust Radius=3.00D-01 FncErr=1.00D-07 GrdErr=1.00D-06
 Number of steps in this run=     64 maximum allowed number of steps=    100.
 GradGradGradGradGradGradGradGradGradGradGradGradGradGradGradGradGradGrad

 Leave Link  103 at Fri Aug 27 00:01:53 2021, MaxMem= 17179869184 cpu:         0.1
 (Enter /public3/home/sc51754/softwares/g09e01/l202.exe)
                          Input orientation:                          
 ---------------------------------------------------------------------
 Center     Atomic      Atomic             Coordinates (Angstroms)
 Number     Number       Type             X           Y           Z
 ---------------------------------------------------------------------
      1          8           0       -0.130304    2.267896    0.000000
      2          7           0       -1.132141    0.233271    0.000000
      3          6           0        0.000000    1.062005    0.000000
      4          6           0        1.237945    0.320111    0.000000
      5          6           0       -1.114407   -1.121885    0.000000
      6          6           0        1.256071   -1.032342    0.000000
      7          6           0        0.058564   -1.791590    0.000000
      8          1           0       -2.007624    0.732742    0.000000
      9          1           0        2.144218    0.908369    0.000000
     10          1           0       -2.076968   -1.614034    0.000000
     11          1           0        2.206750   -1.551299    0.000000
     12          1           0        0.071999   -2.869636    0.000000
 ---------------------------------------------------------------------
                    Distance matrix (angstroms):
                    1          2          3          4          5
     1  O    0.000000
     2  N    2.267901   0.000000
     3  C    1.212911   1.403048   0.000000
     4  C    2.380330   2.371676   1.443231   0.000000
     5  C    3.529741   1.355272   2.451791   2.759151   0.000000
     6  C    3.579610   2.702838   2.442131   1.352574   2.372169
     7  C    4.063877   2.349008   2.854196   2.418723   1.350691
     8  H    2.425083   1.007939   2.034445   3.271694   2.058514
     9  H    2.649861   3.345188   2.149715   1.080453   3.839345
    10  H    4.342681   2.074906   3.387474   3.837912   1.081080
    11  H    4.477507   3.785879   3.420395   2.107311   3.348803
    12  H    5.141514   3.328361   3.932300   3.396162   2.112390
                    6          7          8          9         10
     6  C    0.000000
     7  C    1.417914   0.000000
     8  H    3.710421   3.262114   0.000000
     9  H    2.134283   3.411705   4.155555   0.000000
    10  H    3.383418   2.142901   2.347800   4.917411   0.000000
    11  H    1.083101   2.161583   4.793516   2.460463   4.284177
    12  H    2.185790   1.078130   4.159562   4.308992   2.488894
                   11         12
    11  H    0.000000
    12  H    2.509019   0.000000
 Stoichiometry    C5H5NO
 Framework group  CS[SG(C5H5NO)]
 Deg. of freedom    21
 Full point group                 CS      NOp   2
 Largest Abelian subgroup         CS      NOp   2
 Largest concise Abelian subgroup C1      NOp   1
                         Standard orientation:                         
 ---------------------------------------------------------------------
 Center     Atomic      Atomic             Coordinates (Angstroms)
 Number     Number       Type             X           Y           Z
 ---------------------------------------------------------------------
      1          8           0       -0.130304    2.267896    0.000000
      2          7           0       -1.132141    0.233271    0.000000
      3          6           0       -0.000000    1.062005    0.000000
      4          6           0        1.237945    0.320111   -0.000000
      5          6           0       -1.114407   -1.121885    0.000000
      6          6           0        1.256071   -1.032342   -0.000000
      7          6           0        0.058564   -1.791590   -0.000000
      8          1           0       -2.007624    0.732742    0.000000
      9          1           0        2.144218    0.908369   -0.000000
     10          1           0       -2.076968   -1.614034    0.000000
     11          1           0        2.206750   -1.551299   -0.000000
     12          1           0        0.071999   -2.869636   -0.000000
 ---------------------------------------------------------------------
 Rotational constants (GHZ):      5.7341355      2.8228169      1.8916098
 Leave Link  202 at Fri Aug 27 00:01:54 2021, MaxMem= 17179869184 cpu:         6.5
 (Enter /public3/home/sc51754/softwares/g09e01/l301.exe)
 General basis read from cards:  (5D, 7F)
 Centers:       8      9     10     11     12
 S 4 1.00
     Exponent=  7.5423000000D+01 Coefficients=  2.4065000000D-03
     Exponent=  1.1350000000D+01 Coefficients=  1.8487000000D-02
     Exponent=  2.5993000000D+00 Coefficients=  8.9742000000D-02
     Exponent=  7.3513000000D-01 Coefficients=  2.8111000000D-01
 S 1 1.00
     Exponent=  2.3167000000D-01 Coefficients=  1.0000000000D+00
 S 1 1.00
     Exponent=  7.4147000000D-02 Coefficients=  1.0000000000D+00
 P 1 1.00
     Exponent=  1.6000000000D+00 Coefficients=  1.0000000000D+00
 P 1 1.00
     Exponent=  4.5000000000D-01 Coefficients=  1.0000000000D+00
 D 1 1.00
     Exponent=  1.2500000000D+00 Coefficients=  1.0000000000D+00
 ****
 Centers:       3      4      5      6      7
 S 7 1.00
     Exponent=  7.8571000000D+03 Coefficients=  5.6825000000D-04
     Exponent=  1.1787000000D+03 Coefficients=  4.3915000000D-03
     Exponent=  2.6832000000D+02 Coefficients=  2.2504000000D-02
     Exponent=  7.5948000000D+01 Coefficients=  8.6653000000D-02
     Exponent=  2.4559000000D+01 Coefficients=  2.4405000000D-01
     Exponent=  8.6212000000D+00 Coefficients=  4.4148000000D-01
     Exponent=  3.1278000000D+00 Coefficients=  3.5332000000D-01
 S 7 1.00
     Exponent=  1.1787000000D+03 Coefficients= -5.9492000000D-07
     Exponent=  2.6832000000D+02 Coefficients= -6.2748000000D-05
     Exponent=  7.5948000000D+01 Coefficients= -7.5773000000D-04
     Exponent=  2.4559000000D+01 Coefficients= -7.3308000000D-03
     Exponent=  8.6212000000D+00 Coefficients= -3.8932000000D-02
     Exponent=  3.1278000000D+00 Coefficients= -8.8908000000D-02
     Exponent=  8.2202000000D-01 Coefficients=  2.1689000000D-01
 S 1 1.00
     Exponent=  3.3017000000D-01 Coefficients=  1.0000000000D+00
 S 1 1.00
     Exponent=  1.1463000000D-01 Coefficients=  1.0000000000D+00
 P 4 1.00
     Exponent=  3.3775000000D+01 Coefficients=  6.0294000000D-03
     Exponent=  7.6766000000D+00 Coefficients=  4.3228000000D-02
     Exponent=  2.2357000000D+00 Coefficients=  1.6301000000D-01
     Exponent=  7.6447000000D-01 Coefficients=  3.6504000000D-01
 P 1 1.00
     Exponent=  2.6232000000D-01 Coefficients=  1.0000000000D+00
 P 1 1.00
     Exponent=  8.4638000000D-02 Coefficients=  1.0000000000D+00
 D 1 1.00
     Exponent=  1.4000000000D+00 Coefficients=  1.0000000000D+00
 D 1 1.00
     Exponent=  4.5000000000D-01 Coefficients=  1.0000000000D+00
 F 1 1.00
     Exponent=  9.5000000000D-01 Coefficients=  1.0000000000D+00
 ****
 Centers:       2
 S 7 1.00
     Exponent=  1.1101000000D+04 Coefficients=  5.4570000000D-04
     Exponent=  1.6653000000D+03 Coefficients=  4.2181000000D-03
     Exponent=  3.7908000000D+02 Coefficients=  2.1645000000D-02
     Exponent=  1.0730000000D+02 Coefficients=  8.3776000000D-02
     Exponent=  3.4747000000D+01 Coefficients=  2.3881000000D-01
     Exponent=  1.2249000000D+01 Coefficients=  4.3994000000D-01
     Exponent=  4.4743000000D+00 Coefficients=  3.6364000000D-01
 S 7 1.00
     Exponent=  1.6653000000D+03 Coefficients= -1.5006000000D-06
     Exponent=  3.7908000000D+02 Coefficients= -5.8753000000D-05
     Exponent=  1.0730000000D+02 Coefficients= -7.7453000000D-04
     Exponent=  3.4747000000D+01 Coefficients= -7.2161000000D-03
     Exponent=  1.2249000000D+01 Coefficients= -3.9338000000D-02
     Exponent=  4.4743000000D+00 Coefficients= -9.0611000000D-02
     Exponent=  1.2404000000D+00 Coefficients=  1.9882000000D-01
 S 1 1.00
     Exponent=  4.8743000000D-01 Coefficients=  1.0000000000D+00
 S 1 1.00
     Exponent=  1.6484000000D-01 Coefficients=  1.0000000000D+00
 P 4 1.00
     Exponent=  4.7934000000D+01 Coefficients=  6.1706000000D-03
     Exponent=  1.0999000000D+01 Coefficients=  4.4260000000D-02
     Exponent=  3.2472000000D+00 Coefficients=  1.6825000000D-01
     Exponent=  1.1114000000D+00 Coefficients=  3.6848000000D-01
 P 1 1.00
     Exponent=  3.7988000000D-01 Coefficients=  1.0000000000D+00
 P 1 1.00
     Exponent=  1.2068000000D-01 Coefficients=  1.0000000000D+00
 D 1 1.00
     Exponent=  1.8000000000D+00 Coefficients=  1.0000000000D+00
 D 1 1.00
     Exponent=  5.5000000000D-01 Coefficients=  1.0000000000D+00
 F 1 1.00
     Exponent=  1.0200000000D+00 Coefficients=  1.0000000000D+00
 ****
 Centers:       1
 S 7 1.00
     Exponent=  1.4782000000D+04 Coefficients=  5.3519000000D-04
     Exponent=  2.2173000000D+03 Coefficients=  4.1375000000D-03
     Exponent=  5.0474000000D+02 Coefficients=  2.1245000000D-02
     Exponent=  1.4287000000D+02 Coefficients=  8.2453000000D-02
     Exponent=  4.6300000000D+01 Coefficients=  2.3671000000D-01
     Exponent=  1.6337000000D+01 Coefficients=  4.4039000000D-01
     Exponent=  5.9828000000D+00 Coefficients=  3.6465000000D-01
 S 7 1.00
     Exponent=  2.2173000000D+03 Coefficients= -1.9275000000D-06
     Exponent=  5.0474000000D+02 Coefficients= -5.7964000000D-05
     Exponent=  1.4287000000D+02 Coefficients= -7.9494000000D-04
     Exponent=  4.6300000000D+01 Coefficients= -7.3125000000D-03
     Exponent=  1.6337000000D+01 Coefficients= -4.0574000000D-02
     Exponent=  5.9828000000D+00 Coefficients= -9.1594000000D-02
     Exponent=  1.6718000000D+00 Coefficients=  2.0940000000D-01
 S 1 1.00
     Exponent=  6.4662000000D-01 Coefficients=  1.0000000000D+00
 S 1 1.00
     Exponent=  2.1669000000D-01 Coefficients=  1.0000000000D+00
 P 4 1.00
     Exponent=  6.0424000000D+01 Coefficients=  6.8949000000D-03
     Exponent=  1.3935000000D+01 Coefficients=  4.9005000000D-02
     Exponent=  4.1531000000D+00 Coefficients=  1.8255000000D-01
     Exponent=  1.4158000000D+00 Coefficients=  3.7633000000D-01
 P 1 1.00
     Exponent=  4.7549000000D-01 Coefficients=  1.0000000000D+00
 P 1 1.00
     Exponent=  1.4529000000D-01 Coefficients=  1.0000000000D+00
 D 1 1.00
     Exponent=  2.2000000000D+00 Coefficients=  1.0000000000D+00
 D 1 1.00
     Exponent=  6.5000000000D-01 Coefficients=  1.0000000000D+00
 F 1 1.00
     Exponent=  1.1000000000D+00 Coefficients=  1.0000000000D+00
 ****
 Ernie: Thresh=  0.10000D-02 Tol=  0.10000D-05 Strict=F.
 Ernie:  7 primitive shells out of 220 were deleted.
 There are   223 symmetry adapted cartesian basis functions of A'  symmetry.
 There are    97 symmetry adapted cartesian basis functions of A"  symmetry.
 There are   190 symmetry adapted basis functions of A'  symmetry.
 There are    90 symmetry adapted basis functions of A"  symmetry.
   280 basis functions,   475 primitive gaussians,   320 cartesian basis functions
    25 alpha electrons       25 beta electrons
       nuclear repulsion energy       276.8386644497 Hartrees.
 IExCor=  402 DFT=T Ex=B Corr=LYP ExCW=0 ScaHFX=  0.000000
 ScaDFX=  1.000000  1.000000  1.000000  1.000000 ScalE2=  1.000000  1.000000
 IRadAn=      0 IRanWt=     -1 IRanGd=            0 ICorTp=0 IEmpDi=  4
 NAtoms=   12 NActive=   12 NUniq=   12 SFac= 1.00D+00 NAtFMM=   60 NAOKFM=F Big=F
 Integral buffers will be    131072 words long.
 Raffenetti 2 integral format.
 Two-electron integral symmetry is turned on.
 Leave Link  301 at Fri Aug 27 00:01:54 2021, MaxMem= 17179869184 cpu:         1.2
 (Enter /public3/home/sc51754/softwares/g09e01/l302.exe)
 NPDir=0 NMtPBC=     1 NCelOv=     1 NCel=       1 NClECP=     1 NCelD=      1
         NCelK=      1 NCelE2=     1 NClLst=     1 CellRange=     0.0.
 One-electron integrals computed using PRISM.
 NBasis=   280 RedAO= T EigKep=  2.29D-04  NBF=   190    90
 NBsUse=   280 1.00D-06 EigRej= -1.00D+00 NBFU=   190    90
 Precomputing XC quadrature grid using
 IXCGrd= 4 IRadAn=           0 IRanWt=          -1 IRanGd=           0 AccXCQ= 0.00D+00.
 Generated NRdTot=       0 NPtTot=           0 NUsed=           0 NTot=          32
 NSgBfM=   320   320   320   320   320 MxSgAt=    12 MxSgA2=    12.
 Leave Link  302 at Fri Aug 27 00:01:55 2021, MaxMem= 17179869184 cpu:        38.0
 (Enter /public3/home/sc51754/softwares/g09e01/l303.exe)
 DipDrv:  MaxL=1.
 Leave Link  303 at Fri Aug 27 00:01:55 2021, MaxMem= 17179869184 cpu:        13.6
 (Enter /public3/home/sc51754/softwares/g09e01/l401.exe)
 ExpMin= 7.41D-02 ExpMax= 1.48D+04 ExpMxC= 5.05D+02 IAcc=2 IRadAn=         4 AccDes= 0.00D+00
 Harris functional with IExCor=  402 and IRadAn=       4 diagonalized for initial guess.
 HarFok:  IExCor=  402 AccDes= 0.00D+00 IRadAn=         4 IDoV= 1 UseB2=F ITyADJ=14
 ICtDFT=  3500011 ScaDFX=  1.000000  1.000000  1.000000  1.000000
 FoFCou: FMM=F IPFlag=           0 FMFlag=      100000 FMFlg1=           0
         NFxFlg=           0 DoJE=T BraDBF=F KetDBF=T FulRan=T
         wScrn=  0.000000 ICntrl=     500 IOpCl=  0 I1Cent=   200000004 NGrid=           0
         NMat0=    1 NMatS0=      1 NMatT0=    0 NMatD0=    1 NMtDS0=    0 NMtDT0=    0
 Petite list used in FoFCou.
 Harris En= -323.703757567270    
 JPrj=0 DoOrth=F DoCkMO=F.
 Initial guess orbital symmetries:
       Occupied  (A') (A') (A') (A') (A') (A') (A') (A') (A') (A')
                 (A') (A') (A') (A') (A') (A') (A') (A') (A") (A')
                 (A') (A") (A") (A') (A")
       Virtual   (A") (A") (A') (A') (A") (A') (A') (A') (A') (A')
                 (A') (A") (A') (A') (A") (A") (A') (A') (A') (A')
                 (A') (A") (A') (A') (A") (A') (A') (A') (A') (A')
                 (A") (A') (A') (A') (A") (A') (A') (A') (A') (A')
                 (A') (A') (A") (A') (A') (A') (A') (A") (A") (A")
                 (A') (A") (A') (A') (A") (A') (A') (A') (A') (A")
                 (A') (A") (A') (A') (A") (A') (A") (A') (A") (A")
                 (A') (A') (A') (A") (A') (A") (A') (A") (A') (A')
                 (A") (A') (A") (A') (A") (A') (A') (A') (A") (A")
                 (A') (A') (A') (A") (A') (A') (A') (A') (A") (A')
                 (A') (A') (A") (A') (A') (A') (A") (A') (A') (A')
                 (A") (A') (A') (A') (A') (A') (A") (A') (A') (A')
                 (A") (A') (A") (A') (A') (A") (A") (A") (A') (A")
                 (A') (A') (A") (A') (A') (A") (A') (A") (A') (A')
                 (A') (A') (A') (A") (A') (A") (A') (A') (A') (A')
                 (A') (A") (A") (A") (A") (A') (A") (A") (A') (A")
                 (A') (A") (A') (A') (A") (A') (A') (A') (A') (A")
                 (A') (A") (A') (A") (A") (A') (A") (A') (A") (A")
                 (A') (A") (A') (A") (A") (A') (A') (A") (A') (A")
                 (A') (A") (A') (A") (A') (A") (A') (A') (A") (A')
                 (A') (A') (A") (A') (A") (A') (A") (A') (A') (A')
                 (A") (A') (A') (A") (A') (A") (A') (A") (A') (A')
                 (A") (A') (A") (A') (A") (A') (A') (A') (A") (A')
                 (A') (A') (A') (A") (A') (A") (A') (A') (A') (A')
                 (A') (A") (A') (A') (A') (A') (A') (A') (A') (A')
                 (A') (A') (A') (A') (A')
 The electronic state of the initial guess is 1-A'.
 Leave Link  401 at Fri Aug 27 00:01:56 2021, MaxMem= 17179869184 cpu:        41.0
 (Enter /public3/home/sc51754/softwares/g09e01/l502.exe)
 Closed shell SCF:
 Using DIIS extrapolation, IDIIS=  1040.
 Integral symmetry usage will be decided dynamically.
 Keep J ints in memory in symmetry-blocked form, NReq=1167802198.
 IVT=      348658 IEndB=      348658 NGot= 17179869184 MDV= 16785904737
 LenX= 16785904737 LenY= 16785801896
 Requested convergence on RMS density matrix=1.00D-08 within 128 cycles.
 Requested convergence on MAX density matrix=1.00D-06.
 Requested convergence on             energy=1.00D-06.
 No special actions if energy rises.
 FoFCou: FMM=F IPFlag=           0 FMFlag=           0 FMFlg1=           0
         NFxFlg=           0 DoJE=F BraDBF=F KetDBF=F FulRan=T
         wScrn=  0.000000 ICntrl=     600 IOpCl=  0 I1Cent=           0 NGrid=           0
         NMat0=    1 NMatS0=  39340 NMatT0=    0 NMatD0=    1 NMtDS0=    0 NMtDT0=    0
 Petite list used in FoFCou.
 Integral accuracy reduced to 1.0D-05 until final iterations.

 Cycle   1  Pass 0  IDiag  1:
 E= -323.349050891226    
 DIIS: error= 2.98D-02 at cycle   1 NSaved=   1.
 NSaved= 1 IEnMin= 1 EnMin= -323.349050891226     IErMin= 1 ErrMin= 2.98D-02
 ErrMax= 2.98D-02  0.00D+00 EMaxC= 1.00D-01 BMatC= 2.30D-01 BMatP= 2.30D-01
 IDIUse=3 WtCom= 7.02D-01 WtEn= 2.98D-01
 Coeff-Com:  0.100D+01
 Coeff-En:   0.100D+01
 Coeff:      0.100D+01
 Gap=     0.031 Goal=   None    Shift=    0.000
 GapD=    0.031 DampG=0.250 DampE=0.500 DampFc=0.2500 IDamp=-1.
 Damping current iteration by 2.50D-01
 RMSDP=7.96D-03 MaxDP=6.53D-01              OVMax= 5.54D-01

 Cycle   2  Pass 0  IDiag  1:
 E= -323.389288128480     Delta-E=       -0.040237237254 Rises=F Damp=T
 DIIS: error= 1.53D-02 at cycle   2 NSaved=   2.
 NSaved= 2 IEnMin= 2 EnMin= -323.389288128480     IErMin= 2 ErrMin= 1.53D-02
 ErrMax= 1.53D-02  0.00D+00 EMaxC= 1.00D-01 BMatC= 3.24D-02 BMatP= 2.30D-01
 IDIUse=3 WtCom= 8.47D-01 WtEn= 1.53D-01
 Coeff-Com: -0.105D+00 0.110D+01
 Coeff-En:   0.324D+00 0.676D+00
 Coeff:     -0.392D-01 0.104D+01
 Gap=     0.107 Goal=   None    Shift=    0.000
 RMSDP=2.05D-03 MaxDP=1.56D-01 DE=-4.02D-02 OVMax= 5.03D-01

 Cycle   3  Pass 0  IDiag  1:
 E= -323.429214353021     Delta-E=       -0.039926224541 Rises=F Damp=F
 DIIS: error= 2.29D-02 at cycle   3 NSaved=   3.
 NSaved= 3 IEnMin= 3 EnMin= -323.429214353021     IErMin= 2 ErrMin= 1.53D-02
 ErrMax= 2.29D-02  0.00D+00 EMaxC= 1.00D-01 BMatC= 1.30D-01 BMatP= 3.24D-02
 IDIUse=2 WtCom= 0.00D+00 WtEn= 1.00D+00
 EnCoef did     4 forward-backward iterations
 Coeff-En:   0.706D-01 0.337D+00 0.592D+00
 Coeff:      0.706D-01 0.337D+00 0.592D+00
 Gap=     0.065 Goal=   None    Shift=    0.000
 RMSDP=3.06D-03 MaxDP=1.30D-01 DE=-3.99D-02 OVMax= 5.15D-01

 Cycle   4  Pass 0  IDiag  1:
 E= -323.160366070924     Delta-E=        0.268848282097 Rises=F Damp=F
 DIIS: error= 4.78D-02 at cycle   4 NSaved=   4.
 NSaved= 4 IEnMin= 3 EnMin= -323.429214353021     IErMin= 2 ErrMin= 1.53D-02
 ErrMax= 4.78D-02  0.00D+00 EMaxC= 1.00D-01 BMatC= 4.43D-01 BMatP= 3.24D-02
 IDIUse=2 WtCom= 0.00D+00 WtEn= 1.00D+00
 EnCoef did     2 forward-backward iterations
 Coeff-En:   0.695D-01 0.000D+00 0.632D+00 0.299D+00
 Coeff:      0.695D-01 0.000D+00 0.632D+00 0.299D+00
 Gap=     0.108 Goal=   None    Shift=    0.000
 RMSDP=2.05D-03 MaxDP=8.18D-02 DE= 2.69D-01 OVMax= 2.96D-01

 Cycle   5  Pass 0  IDiag  1:
 E= -323.539927704823     Delta-E=       -0.379561633899 Rises=F Damp=F
 DIIS: error= 9.15D-03 at cycle   5 NSaved=   5.
 NSaved= 5 IEnMin= 5 EnMin= -323.539927704823     IErMin= 5 ErrMin= 9.15D-03
 ErrMax= 9.15D-03  0.00D+00 EMaxC= 1.00D-01 BMatC= 1.86D-02 BMatP= 3.24D-02
 IDIUse=3 WtCom= 9.09D-01 WtEn= 9.15D-02
 Coeff-Com: -0.131D+00 0.304D+00 0.288D+00 0.272D-02 0.537D+00
 Coeff-En:   0.000D+00 0.000D+00 0.166D+00 0.000D+00 0.834D+00
 Coeff:     -0.119D+00 0.276D+00 0.277D+00 0.247D-02 0.564D+00
 Gap=     0.126 Goal=   None    Shift=    0.000
 RMSDP=4.52D-04 MaxDP=2.02D-02 DE=-3.80D-01 OVMax= 8.05D-02

 Cycle   6  Pass 0  IDiag  1:
 E= -323.556490927760     Delta-E=       -0.016563222937 Rises=F Damp=F
 DIIS: error= 2.80D-03 at cycle   6 NSaved=   6.
 NSaved= 6 IEnMin= 6 EnMin= -323.556490927760     IErMin= 6 ErrMin= 2.80D-03
 ErrMax= 2.80D-03  0.00D+00 EMaxC= 1.00D-01 BMatC= 2.15D-03 BMatP= 1.86D-02
 IDIUse=3 WtCom= 9.72D-01 WtEn= 2.80D-02
 Coeff-Com: -0.118D+00 0.187D+00 0.111D+00-0.368D-01 0.394D+00 0.463D+00
 Coeff-En:   0.000D+00 0.000D+00 0.000D+00 0.000D+00 0.513D-01 0.949D+00
 Coeff:     -0.115D+00 0.182D+00 0.108D+00-0.358D-01 0.384D+00 0.477D+00
 Gap=     0.124 Goal=   None    Shift=    0.000
 RMSDP=1.36D-04 MaxDP=5.72D-03 DE=-1.66D-02 OVMax= 2.11D-02

 Cycle   7  Pass 0  IDiag  1:
 E= -323.558499508276     Delta-E=       -0.002008580516 Rises=F Damp=F
 DIIS: error= 9.11D-04 at cycle   7 NSaved=   7.
 NSaved= 7 IEnMin= 7 EnMin= -323.558499508276     IErMin= 7 ErrMin= 9.11D-04
 ErrMax= 9.11D-04  0.00D+00 EMaxC= 1.00D-01 BMatC= 2.49D-04 BMatP= 2.15D-03
 IDIUse=3 WtCom= 9.91D-01 WtEn= 9.11D-03
 Coeff-Com: -0.745D-01 0.106D+00 0.556D-01-0.212D-01 0.236D+00 0.323D+00
 Coeff-Com:  0.376D+00
 Coeff-En:   0.000D+00 0.000D+00 0.000D+00 0.000D+00 0.000D+00 0.000D+00
 Coeff-En:   0.100D+01
 Coeff:     -0.738D-01 0.105D+00 0.551D-01-0.210D-01 0.234D+00 0.320D+00
 Coeff:      0.382D+00
 Gap=     0.123 Goal=   None    Shift=    0.000
 RMSDP=5.21D-05 MaxDP=1.65D-03 DE=-2.01D-03 OVMax= 9.01D-03

 Cycle   8  Pass 0  IDiag  1:
 E= -323.558688879394     Delta-E=       -0.000189371118 Rises=F Damp=F
 DIIS: error= 4.27D-04 at cycle   8 NSaved=   8.
 NSaved= 8 IEnMin= 8 EnMin= -323.558688879394     IErMin= 8 ErrMin= 4.27D-04
 ErrMax= 4.27D-04  0.00D+00 EMaxC= 1.00D-01 BMatC= 4.71D-05 BMatP= 2.49D-04
 IDIUse=3 WtCom= 9.96D-01 WtEn= 4.27D-03
 Coeff-Com: -0.125D-01 0.120D-01-0.353D-02 0.146D-02 0.140D-01 0.323D-01
 Coeff-Com:  0.228D+00 0.729D+00
 Coeff-En:   0.000D+00 0.000D+00 0.000D+00 0.000D+00 0.000D+00 0.000D+00
 Coeff-En:   0.229D-01 0.977D+00
 Coeff:     -0.124D-01 0.120D-01-0.352D-02 0.145D-02 0.139D-01 0.321D-01
 Coeff:      0.227D+00 0.730D+00
 Gap=     0.123 Goal=   None    Shift=    0.000
 RMSDP=2.57D-05 MaxDP=8.07D-04 DE=-1.89D-04 OVMax= 5.03D-03

 Cycle   9  Pass 0  IDiag  1:
 E= -323.558735567202     Delta-E=       -0.000046687808 Rises=F Damp=F
 DIIS: error= 1.10D-04 at cycle   9 NSaved=   9.
 NSaved= 9 IEnMin= 9 EnMin= -323.558735567202     IErMin= 9 ErrMin= 1.10D-04
 ErrMax= 1.10D-04  0.00D+00 EMaxC= 1.00D-01 BMatC= 3.04D-06 BMatP= 4.71D-05
 IDIUse=3 WtCom= 9.99D-01 WtEn= 1.10D-03
 Coeff-Com: -0.344D-02 0.304D-02-0.458D-02 0.158D-02-0.478D-02-0.135D-02
 Coeff-Com:  0.782D-01 0.406D+00 0.525D+00
 Coeff-En:   0.000D+00 0.000D+00 0.000D+00 0.000D+00 0.000D+00 0.000D+00
 Coeff-En:   0.000D+00 0.000D+00 0.100D+01
 Coeff:     -0.344D-02 0.303D-02-0.458D-02 0.158D-02-0.478D-02-0.135D-02
 Coeff:      0.782D-01 0.406D+00 0.525D+00
 Gap=     0.123 Goal=   None    Shift=    0.000
 RMSDP=6.47D-06 MaxDP=2.94D-04 DE=-4.67D-05 OVMax= 1.03D-03

 Initial convergence to 1.0D-05 achieved.  Increase integral accuracy.
 Cycle  10  Pass 1  IDiag  1:
 E= -323.558717880194     Delta-E=        0.000017687008 Rises=F Damp=F
 DIIS: error= 6.26D-05 at cycle   1 NSaved=   1.
 NSaved= 1 IEnMin= 1 EnMin= -323.558717880194     IErMin= 1 ErrMin= 6.26D-05
 ErrMax= 6.26D-05  0.00D+00 EMaxC= 1.00D-01 BMatC= 9.05D-07 BMatP= 9.05D-07
 IDIUse=1 WtCom= 1.00D+00 WtEn= 0.00D+00
 Coeff-Com:  0.100D+01
 Coeff:      0.100D+01
 Gap=     0.123 Goal=   None    Shift=    0.000
 RMSDP=6.47D-06 MaxDP=2.94D-04 DE= 1.77D-05 OVMax= 1.41D-03

 Cycle  11  Pass 1  IDiag  1:
 E= -323.558714401094     Delta-E=        0.000003479100 Rises=F Damp=F
 DIIS: error= 1.75D-04 at cycle   2 NSaved=   2.
 NSaved= 2 IEnMin= 1 EnMin= -323.558717880194     IErMin= 1 ErrMin= 6.26D-05
 ErrMax= 1.75D-04  0.00D+00 EMaxC= 1.00D-01 BMatC= 4.06D-06 BMatP= 9.05D-07
 IDIUse=3 WtCom= 4.31D-01 WtEn= 5.69D-01
 Coeff-Com:  0.693D+00 0.307D+00
 Coeff-En:   0.778D+00 0.222D+00
 Coeff:      0.741D+00 0.259D+00
 Gap=     0.123 Goal=   None    Shift=    0.000
 RMSDP=5.82D-06 MaxDP=2.45D-04 DE= 3.48D-06 OVMax= 1.05D-03

 Cycle  12  Pass 1  IDiag  1:
 E= -323.558718839707     Delta-E=       -0.000004438613 Rises=F Damp=F
 DIIS: error= 2.46D-05 at cycle   3 NSaved=   3.
 NSaved= 3 IEnMin= 3 EnMin= -323.558718839707     IErMin= 3 ErrMin= 2.46D-05
 ErrMax= 2.46D-05  0.00D+00 EMaxC= 1.00D-01 BMatC= 8.49D-08 BMatP= 9.05D-07
 IDIUse=1 WtCom= 1.00D+00 WtEn= 0.00D+00
 Coeff-Com:  0.284D+00 0.856D-01 0.630D+00
 Coeff:      0.284D+00 0.856D-01 0.630D+00
 Gap=     0.123 Goal=   None    Shift=    0.000
 RMSDP=1.43D-06 MaxDP=6.02D-05 DE=-4.44D-06 OVMax= 1.59D-04

 Cycle  13  Pass 1  IDiag  1:
 E= -323.558718835882     Delta-E=        0.000000003824 Rises=F Damp=F
 DIIS: error= 2.17D-05 at cycle   4 NSaved=   4.
 NSaved= 4 IEnMin= 3 EnMin= -323.558718839707     IErMin= 4 ErrMin= 2.17D-05
 ErrMax= 2.17D-05  0.00D+00 EMaxC= 1.00D-01 BMatC= 9.56D-08 BMatP= 8.49D-08
 IDIUse=1 WtCom= 1.00D+00 WtEn= 0.00D+00
 Coeff-Com:  0.411D-01-0.148D-01 0.534D+00 0.440D+00
 Coeff:      0.411D-01-0.148D-01 0.534D+00 0.440D+00
 Gap=     0.123 Goal=   None    Shift=    0.000
 RMSDP=9.73D-07 MaxDP=5.34D-05 DE= 3.82D-09 OVMax= 1.37D-04

 Cycle  14  Pass 1  IDiag  1:
 E= -323.558718906092     Delta-E=       -0.000000070209 Rises=F Damp=F
 DIIS: error= 5.92D-06 at cycle   5 NSaved=   5.
 NSaved= 5 IEnMin= 5 EnMin= -323.558718906092     IErMin= 5 ErrMin= 5.92D-06
 ErrMax= 5.92D-06  0.00D+00 EMaxC= 1.00D-01 BMatC= 1.34D-08 BMatP= 8.49D-08
 IDIUse=1 WtCom= 1.00D+00 WtEn= 0.00D+00
 Coeff-Com: -0.466D-03-0.214D-01 0.333D+00 0.328D+00 0.362D+00
 Coeff:     -0.466D-03-0.214D-01 0.333D+00 0.328D+00 0.362D+00
 Gap=     0.123 Goal=   None    Shift=    0.000
 RMSDP=3.22D-07 MaxDP=1.35D-05 DE=-7.02D-08 OVMax= 3.55D-05

 Cycle  15  Pass 1  IDiag  1:
 E= -323.558718916810     Delta-E=       -0.000000010719 Rises=F Damp=F
 DIIS: error= 1.12D-06 at cycle   6 NSaved=   6.
 NSaved= 6 IEnMin= 6 EnMin= -323.558718916810     IErMin= 6 ErrMin= 1.12D-06
 ErrMax= 1.12D-06  0.00D+00 EMaxC= 1.00D-01 BMatC= 3.98D-10 BMatP= 1.34D-08
 IDIUse=1 WtCom= 1.00D+00 WtEn= 0.00D+00
 Coeff-Com: -0.241D-02-0.117D-01 0.163D+00 0.166D+00 0.217D+00 0.468D+00
 Coeff:     -0.241D-02-0.117D-01 0.163D+00 0.166D+00 0.217D+00 0.468D+00
 Gap=     0.123 Goal=   None    Shift=    0.000
 RMSDP=5.89D-08 MaxDP=3.07D-06 DE=-1.07D-08 OVMax= 7.31D-06

 Cycle  16  Pass 1  IDiag  1:
 E= -323.558718917157     Delta-E=       -0.000000000347 Rises=F Damp=F
 DIIS: error= 3.97D-07 at cycle   7 NSaved=   7.
 NSaved= 7 IEnMin= 7 EnMin= -323.558718917157     IErMin= 7 ErrMin= 3.97D-07
 ErrMax= 3.97D-07  0.00D+00 EMaxC= 1.00D-01 BMatC= 3.84D-11 BMatP= 3.98D-10
 IDIUse=1 WtCom= 1.00D+00 WtEn= 0.00D+00
 Coeff-Com: -0.147D-02-0.568D-02 0.750D-01 0.770D-01 0.103D+00 0.288D+00
 Coeff-Com:  0.464D+00
 Coeff:     -0.147D-02-0.568D-02 0.750D-01 0.770D-01 0.103D+00 0.288D+00
 Coeff:      0.464D+00
 Gap=     0.123 Goal=   None    Shift=    0.000
 RMSDP=2.11D-08 MaxDP=1.03D-06 DE=-3.47D-10 OVMax= 2.37D-06

 Cycle  17  Pass 1  IDiag  1:
 E= -323.558718917184     Delta-E=       -0.000000000026 Rises=F Damp=F
 DIIS: error= 1.14D-07 at cycle   8 NSaved=   8.
 NSaved= 8 IEnMin= 8 EnMin= -323.558718917184     IErMin= 8 ErrMin= 1.14D-07
 ErrMax= 1.14D-07  0.00D+00 EMaxC= 1.00D-01 BMatC= 2.43D-12 BMatP= 3.84D-11
 IDIUse=1 WtCom= 1.00D+00 WtEn= 0.00D+00
 Coeff-Com: -0.689D-03-0.249D-02 0.318D-01 0.327D-01 0.435D-01 0.135D+00
 Coeff-Com:  0.274D+00 0.486D+00
 Coeff:     -0.689D-03-0.249D-02 0.318D-01 0.327D-01 0.435D-01 0.135D+00
 Coeff:      0.274D+00 0.486D+00
 Gap=     0.123 Goal=   None    Shift=    0.000
 RMSDP=7.03D-09 MaxDP=2.67D-07 DE=-2.64D-11 OVMax= 1.47D-06

 SCF Done:  E(RB-LYP) =  -323.558718917     A.U. after   17 cycles
            NFock= 17  Conv=0.70D-08     -V/T= 2.0019
 KE= 3.229345192486D+02 PE=-1.309259888719D+03 EE= 3.859279861036D+02
 Leave Link  502 at Fri Aug 27 00:02:04 2021, MaxMem= 17179869184 cpu:       257.3
 (Enter /public3/home/sc51754/softwares/g09e01/l601.exe)
 Copying SCF densities to generalized density rwf, IOpCl= 0 IROHF=0.

 **********************************************************************

            Population analysis using the SCF density.

 **********************************************************************

 Orbital symmetries:
       Occupied  (A') (A') (A') (A') (A') (A') (A') (A') (A') (A')
                 (A') (A') (A') (A') (A') (A') (A') (A") (A') (A')
                 (A') (A") (A") (A') (A")
       Virtual   (A") (A") (A') (A') (A') (A') (A') (A") (A') (A')
                 (A") (A') (A') (A") (A') (A") (A') (A') (A') (A')
                 (A") (A') (A") (A') (A') (A') (A') (A') (A') (A')
                 (A") (A') (A') (A') (A") (A') (A') (A') (A') (A')
                 (A') (A') (A") (A') (A') (A') (A') (A") (A") (A")
                 (A') (A") (A') (A') (A") (A') (A') (A') (A') (A")
                 (A') (A') (A") (A") (A') (A') (A') (A") (A') (A")
                 (A") (A') (A') (A") (A') (A") (A') (A") (A') (A')
                 (A") (A') (A') (A") (A") (A') (A') (A') (A") (A")
                 (A') (A') (A") (A') (A') (A') (A') (A') (A") (A')
                 (A') (A') (A') (A") (A') (A') (A") (A') (A') (A')
                 (A") (A') (A') (A') (A') (A') (A") (A') (A') (A")
                 (A') (A') (A') (A") (A') (A") (A") (A") (A') (A")
                 (A') (A") (A') (A') (A") (A') (A") (A') (A') (A')
                 (A') (A') (A") (A') (A') (A") (A') (A') (A') (A')
                 (A') (A") (A") (A") (A") (A") (A') (A") (A') (A")
                 (A') (A") (A') (A') (A") (A') (A') (A') (A') (A")
                 (A") (A') (A') (A") (A') (A") (A') (A") (A") (A")
                 (A') (A") (A') (A") (A") (A') (A") (A') (A') (A")
                 (A') (A") (A') (A") (A') (A") (A') (A') (A") (A')
                 (A') (A') (A") (A") (A') (A') (A") (A') (A') (A')
                 (A") (A') (A') (A") (A") (A') (A") (A') (A') (A')
                 (A") (A') (A") (A') (A") (A') (A') (A') (A") (A')
                 (A') (A') (A') (A") (A') (A') (A') (A") (A') (A')
                 (A') (A") (A') (A') (A') (A') (A') (A') (A') (A')
                 (A') (A') (A') (A') (A')
 The electronic state is 1-A'.
 Alpha  occ. eigenvalues --  -18.72859 -14.06453 -10.00135  -9.97129  -9.93333
 Alpha  occ. eigenvalues --   -9.92048  -9.91626  -0.94785  -0.87623  -0.74628
 Alpha  occ. eigenvalues --   -0.68860  -0.59269  -0.57825  -0.51067  -0.45689
 Alpha  occ. eigenvalues --   -0.43797  -0.41431  -0.39688  -0.37597  -0.34448
 Alpha  occ. eigenvalues --   -0.33323  -0.30922  -0.27859  -0.20976  -0.19756
 Alpha virt. eigenvalues --   -0.07489  -0.02416  -0.01493   0.01190   0.02635
 Alpha virt. eigenvalues --    0.05186   0.06207   0.08531   0.10382   0.12527
 Alpha virt. eigenvalues --    0.12704   0.13565   0.15364   0.16728   0.16936
 Alpha virt. eigenvalues --    0.18267   0.20411   0.20901   0.24018   0.24292
 Alpha virt. eigenvalues --    0.24319   0.25566   0.26200   0.26873   0.28274
 Alpha virt. eigenvalues --    0.28991   0.30964   0.31670   0.34908   0.37317
 Alpha virt. eigenvalues --    0.37575   0.39350   0.41523   0.43271   0.44589
 Alpha virt. eigenvalues --    0.45845   0.47247   0.49038   0.52684   0.55468
 Alpha virt. eigenvalues --    0.56871   0.58049   0.60316   0.60741   0.62941
 Alpha virt. eigenvalues --    0.66740   0.71127   0.71623   0.74257   0.76117
 Alpha virt. eigenvalues --    0.77374   0.79580   0.85599   0.87192   0.87728
 Alpha virt. eigenvalues --    0.89873   0.91554   0.93573   0.94831   1.01119
 Alpha virt. eigenvalues --    1.03293   1.05343   1.05582   1.08754   1.08850
 Alpha virt. eigenvalues --    1.09716   1.12687   1.13196   1.15107   1.18154
 Alpha virt. eigenvalues --    1.18356   1.19788   1.20692   1.22338   1.22915
 Alpha virt. eigenvalues --    1.27871   1.31661   1.34255   1.35786   1.38876
 Alpha virt. eigenvalues --    1.39473   1.41995   1.43861   1.43912   1.49401
 Alpha virt. eigenvalues --    1.51156   1.53410   1.56598   1.59830   1.60865
 Alpha virt. eigenvalues --    1.60898   1.62982   1.65225   1.66026   1.69271
 Alpha virt. eigenvalues --    1.72873   1.74417   1.79229   1.79361   1.83480
 Alpha virt. eigenvalues --    1.85252   1.89705   1.93270   1.93997   1.94446
 Alpha virt. eigenvalues --    1.99999   2.00834   2.06602   2.08196   2.13666
 Alpha virt. eigenvalues --    2.14645   2.16777   2.19244   2.21031   2.23742
 Alpha virt. eigenvalues --    2.28326   2.42132   2.53727   2.56323   2.78719
 Alpha virt. eigenvalues --    2.79044   2.81668   2.85110   2.86845   3.06859
 Alpha virt. eigenvalues --    3.09705   3.13053   3.14262   3.16152   3.16372
 Alpha virt. eigenvalues --    3.19064   3.23832   3.24612   3.27056   3.30648
 Alpha virt. eigenvalues --    3.33722   3.39181   3.41582   3.46202   3.48199
 Alpha virt. eigenvalues --    3.51001   3.54124   3.57943   3.58509   3.59831
 Alpha virt. eigenvalues --    3.60749   3.63153   3.69296   3.77029   3.78942
 Alpha virt. eigenvalues --    3.82440   3.85090   3.87058   3.88035   3.90782
 Alpha virt. eigenvalues --    3.92190   3.93586   3.95196   3.98263   3.99987
 Alpha virt. eigenvalues --    4.00854   4.04642   4.05963   4.06350   4.08936
 Alpha virt. eigenvalues --    4.11927   4.13183   4.14374   4.15671   4.16250
 Alpha virt. eigenvalues --    4.18395   4.18749   4.19020   4.20950   4.23663
 Alpha virt. eigenvalues --    4.23676   4.25371   4.25660   4.27185   4.31688
 Alpha virt. eigenvalues --    4.32858   4.36763   4.37529   4.38972   4.39957
 Alpha virt. eigenvalues --    4.41254   4.43399   4.43752   4.48006   4.49724
 Alpha virt. eigenvalues --    4.50058   4.51451   4.54010   4.55382   4.59942
 Alpha virt. eigenvalues --    4.64683   4.66146   4.69353   4.76397   4.76894
 Alpha virt. eigenvalues --    4.79106   4.83538   4.84392   4.88660   4.89200
 Alpha virt. eigenvalues --    4.94094   4.99972   5.03738   5.08381   5.09891
 Alpha virt. eigenvalues --    5.13678   5.16925   5.22634   5.23188   5.25134
 Alpha virt. eigenvalues --    5.26129   5.30655   5.31286   5.33332   5.37548
 Alpha virt. eigenvalues --    5.39269   5.45718   5.48914   5.49583   5.49873
 Alpha virt. eigenvalues --    5.55236   5.59983   5.63434   5.63843   5.68646
 Alpha virt. eigenvalues --    5.73881   5.81749   5.86256   5.88601   5.96959
 Alpha virt. eigenvalues --    5.99743   6.01448   6.04466   6.10497   6.17849
 Alpha virt. eigenvalues --    6.27330   6.40444   6.41801   6.49090   6.69469
 Alpha virt. eigenvalues --    6.85241   6.87045   7.15397   9.43596  12.14174
 Alpha virt. eigenvalues --   13.00548  14.49040  17.58154  18.02356  22.46749
          Condensed to atoms (all electrons):
               1          2          3          4          5          6
     1  O    7.991140  -0.133515   0.626134  -0.089073   0.005798   0.007960
     2  N   -0.133515   6.451223   0.315354  -0.051575   0.376427  -0.017255
     3  C    0.626134   0.315354   4.463763   0.391453  -0.036798  -0.029253
     4  C   -0.089073  -0.051575   0.391453   5.066654  -0.048963   0.494623
     5  C    0.005798   0.376427  -0.036798  -0.048963   4.694227  -0.075931
     6  C    0.007960  -0.017255  -0.029253   0.494623  -0.075931   4.838277
     7  C    0.000353  -0.071651  -0.021677  -0.065337   0.584762   0.424337
     8  H    0.019861   0.369989  -0.027515   0.018509  -0.035131  -0.004931
     9  H    0.008717   0.008783  -0.052475   0.438922  -0.000145  -0.042486
    10  H   -0.001523  -0.037540   0.001581  -0.004940   0.421508   0.011269
    11  H   -0.000703  -0.002264   0.006726  -0.038453   0.010754   0.418963
    12  H    0.000024   0.005686  -0.000530   0.009026  -0.040659  -0.040055
               7          8          9         10         11         12
     1  O    0.000353   0.019861   0.008717  -0.001523  -0.000703   0.000024
     2  N   -0.071651   0.369989   0.008783  -0.037540  -0.002264   0.005686
     3  C   -0.021677  -0.027515  -0.052475   0.001581   0.006726  -0.000530
     4  C   -0.065337   0.018509   0.438922  -0.004940  -0.038453   0.009026
     5  C    0.584762  -0.035131  -0.000145   0.421508   0.010754  -0.040659
     6  C    0.424337  -0.004931  -0.042486   0.011269   0.418963  -0.040055
     7  C    4.896664   0.009359   0.008693  -0.043369  -0.045029   0.437576
     8  H    0.009359   0.523195  -0.000909  -0.016834   0.000525  -0.000390
     9  H    0.008693  -0.000909   0.586168   0.000489  -0.011902  -0.000031
    10  H   -0.043369  -0.016834   0.000489   0.621568  -0.000793  -0.006082
    11  H   -0.045029   0.000525  -0.011902  -0.000793   0.614456  -0.008110
    12  H    0.437576  -0.000390  -0.000031  -0.006082  -0.008110   0.591985
 Mulliken charges:
               1
     1  O   -0.435172
     2  N   -0.213664
     3  C    0.363235
     4  C   -0.120849
     5  C    0.144150
     6  C    0.014482
     7  C   -0.114682
     8  H    0.144273
     9  H    0.056176
    10  H    0.054665
    11  H    0.055829
    12  H    0.051557
 Sum of Mulliken charges =  -0.00000
 Mulliken charges with hydrogens summed into heavy atoms:
               1
     1  O   -0.435172
     2  N   -0.069391
     3  C    0.363235
     4  C   -0.064673
     5  C    0.198815
     6  C    0.070311
     7  C   -0.063124
 Electronic spatial extent (au):  <R**2>=            626.8618
 Charge=             -0.0000 electrons
 Dipole moment (field-independent basis, Debye):
    X=             -1.2021    Y=             -4.0246    Z=             -0.0000  Tot=              4.2003
 Quadrupole moment (field-independent basis, Debye-Ang):
   XX=            -32.4641   YY=            -48.1751   ZZ=            -43.0808
   XY=              0.1746   XZ=              0.0000   YZ=             -0.0000
 Traceless Quadrupole moment (field-independent basis, Debye-Ang):
   XX=              8.7759   YY=             -6.9351   ZZ=             -1.8409
   XY=              0.1746   XZ=              0.0000   YZ=             -0.0000
 Octapole moment (field-independent basis, Debye-Ang**2):
  XXX=            -11.3672  YYY=            -28.7823  ZZZ=              0.0000  XYY=             -0.1429
  XXY=              1.5056  XXZ=              0.0000  XZZ=             -2.1194  YZZ=              5.3907
  YYZ=             -0.0000  XYZ=              0.0000
 Hexadecapole moment (field-independent basis, Debye-Ang**3):
 XXXX=           -246.2216 YYYY=           -546.7492 ZZZZ=            -48.1258 XXXY=              2.6983
 XXXZ=              0.0000 YYYX=              8.0565 YYYZ=             -0.0000 ZZZX=              0.0000
 ZZZY=             -0.0000 XXYY=           -120.1905 XXZZ=            -61.6454 YYZZ=            -96.8986
 XXYZ=             -0.0000 YYXZ=              0.0000 ZZXY=              1.2518
 N-N= 2.768386644497D+02 E-N=-1.309259885423D+03  KE= 3.229345192486D+02
 Symmetry A'   KE= 3.112722644641D+02
 Symmetry A"   KE= 1.166225478454D+01
 No NMR shielding tensors so no spin-rotation constants.
 Leave Link  601 at Fri Aug 27 00:02:05 2021, MaxMem= 17179869184 cpu:       104.3
 (Enter /public3/home/sc51754/softwares/g09e01/l701.exe)
 Compute integral first derivatives.
 ... and contract with generalized density number  0.
 Leave Link  701 at Fri Aug 27 00:02:07 2021, MaxMem= 17179869184 cpu:        75.0
 (Enter /public3/home/sc51754/softwares/g09e01/l702.exe)
 L702 exits ... SP integral derivatives will be done elsewhere.
 Leave Link  702 at Fri Aug 27 00:02:07 2021, MaxMem= 17179869184 cpu:         0.3
 (Enter /public3/home/sc51754/softwares/g09e01/l703.exe)
 Compute integral first derivatives, UseDBF=F ICtDFT=           0.
 Integral derivatives from FoFJK, PRISM(SPDF).
 Calling FoFJK, ICntrl=      2527 FMM=F ISym2X=1 I1Cent= 0 IOpClX= 0 NMat=1 NMatS=1 NMatT=0.
 FoFJK:  IHMeth= 1 ICntrl=    2527 DoSepK=F KAlg= 0 I1Cent=   0 FoldK=F
 IRaf=         0 NMat=   1 IRICut=       1 DoRegI=T DoRafI=F ISym2E= 1.
 FoFCou: FMM=F IPFlag=           0 FMFlag=      100000 FMFlg1=         800
         NFxFlg=           0 DoJE=F BraDBF=F KetDBF=F FulRan=T
         wScrn=  0.000000 ICntrl=    2527 IOpCl=  0 I1Cent=           0 NGrid=           0
         NMat0=    1 NMatS0=      1 NMatT0=    0 NMatD0=    1 NMtDS0=    0 NMtDT0=    0
 Petite list used in FoFCou.
 Leave Link  703 at Fri Aug 27 00:02:09 2021, MaxMem= 17179869184 cpu:       137.5
 (Enter /public3/home/sc51754/softwares/g09e01/l716.exe)
 Dipole        =-4.72926707D-01-1.58340089D+00-3.47979577D-32
 ***** Axes restored to original set *****
 -------------------------------------------------------------------
 Center     Atomic                   Forces (Hartrees/Bohr)
 Number     Number              X              Y              Z
 -------------------------------------------------------------------
      1        8          -0.003369169    0.035130766   -0.000000000
      2        7          -0.007229670   -0.000598668   -0.000000000
      3        6           0.007942636   -0.016790634    0.000000000
      4        6           0.005332074    0.010196216   -0.000000000
      5        6          -0.013412860   -0.003890162   -0.000000000
      6        6           0.006605573   -0.011600833    0.000000000
      7        6           0.007694931   -0.009307648    0.000000000
      8        1          -0.007342385    0.003494519   -0.000000000
      9        1           0.003619056    0.002036286    0.000000000
     10        1          -0.003843786   -0.001678749   -0.000000000
     11        1           0.003781971   -0.002498868    0.000000000
     12        1           0.000221629   -0.004492226    0.000000000
 -------------------------------------------------------------------
 Cartesian Forces:  Max     0.035130766 RMS     0.008226625
 Leave Link  716 at Fri Aug 27 00:02:09 2021, MaxMem= 17179869184 cpu:         0.4
 (Enter /public3/home/sc51754/softwares/g09e01/l103.exe)

 GradGradGradGradGradGradGradGradGradGradGradGradGradGradGradGradGradGrad
 Berny optimization.
 FormGI is forming the generalized inverse of G from B-inverse, IUseBI=4.
 Internal  Forces:  Max     0.035289228 RMS     0.007377767
 Search for a local minimum.
 Step number   1 out of a maximum of   64
 All quantities printed in internal units (Hartrees-Bohrs-Radians)
 RMS Force = .73778D-02 SwitMx=.10000D-02 MixMth= 1
 Mixed Optimization -- RFO/linear search
 Second derivative matrix not updated -- first step.
 ITU=  0
     Eigenvalues ---    0.01577   0.01761   0.01972   0.02080   0.02183
     Eigenvalues ---    0.02246   0.02365   0.02483   0.02557   0.16000
     Eigenvalues ---    0.16000   0.16000   0.16000   0.16000   0.22000
     Eigenvalues ---    0.22000   0.23415   0.25000   0.35622   0.35864
     Eigenvalues ---    0.35940   0.36221   0.37867   0.40757   0.44267
     Eigenvalues ---    0.46319   0.50118   0.53776   0.54239   0.98595
 RFO step:  Lambda=-4.73700787D-03 EMin= 1.57720798D-02
 Linear search not attempted -- first point.
 Iteration  1 RMS(Cart)=  0.01999163 RMS(Int)=  0.00001717
 Iteration  2 RMS(Cart)=  0.00001900 RMS(Int)=  0.00000410
 Iteration  3 RMS(Cart)=  0.00000000 RMS(Int)=  0.00000410
 ITry= 1 IFail=0 DXMaxC= 7.22D-02 DCOld= 1.00D+10 DXMaxT= 3.00D-01 DXLimC= 3.00D+00 Rises=F
 ClnCor:  largest displacement from symmetrization is 5.90D-11 for atom    11.
 Variable       Old X    -DE/DX   Delta X   Delta X   Delta X     New X
                                 (Linear)    (Quad)   (Total)
    R1        2.29207   0.03529   0.00000   0.03562   0.03562   2.32769
    R2        2.65138   0.01873   0.00000   0.04109   0.04110   2.69248
    R3        2.56109   0.01422   0.00000   0.02649   0.02649   2.58758
    R4        1.90473   0.00811   0.00000   0.01733   0.01733   1.92206
    R5        2.72731   0.01247   0.00000   0.03098   0.03098   2.75829
    R6        2.55600   0.01926   0.00000   0.03471   0.03471   2.59070
    R7        2.04176   0.00414   0.00000   0.01138   0.01138   2.05314
    R8        2.55244   0.01898   0.00000   0.03465   0.03465   2.58708
    R9        2.04295   0.00419   0.00000   0.01152   0.01152   2.05447
   R10        2.67947   0.01035   0.00000   0.02395   0.02394   2.70341
   R11        2.04676   0.00452   0.00000   0.01251   0.01251   2.05928
   R12        2.03737   0.00449   0.00000   0.01225   0.01225   2.04962
    A1        2.18960  -0.00003   0.00000   0.00057   0.00058   2.19017
    A2        1.99125   0.00059   0.00000   0.00318   0.00318   1.99443
    A3        2.10233  -0.00056   0.00000  -0.00375  -0.00375   2.09858
    A4        2.09504   0.00082   0.00000   0.00368   0.00368   2.09872
    A5        2.21834  -0.00016   0.00000  -0.00017  -0.00018   2.21816
    A6        1.96981  -0.00066   0.00000  -0.00351  -0.00350   1.96631
    A7        2.12410   0.00112   0.00000   0.00321   0.00322   2.12731
    A8        2.02595  -0.00029   0.00000   0.00004   0.00004   2.02599
    A9        2.13313  -0.00083   0.00000  -0.00326  -0.00326   2.12988
   A10        2.10267  -0.00074   0.00000  -0.00167  -0.00167   2.10100
   A11        2.03035   0.00010   0.00000  -0.00077  -0.00077   2.02958
   A12        2.15017   0.00063   0.00000   0.00244   0.00244   2.15261
   A13        2.12246  -0.00035   0.00000  -0.00243  -0.00244   2.12002
   A14        2.08387   0.00057   0.00000   0.00361   0.00361   2.08749
   A15        2.07686  -0.00022   0.00000  -0.00118  -0.00117   2.07568
   A16        2.05775   0.00066   0.00000   0.00383   0.00381   2.06156
   A17        2.10204  -0.00017   0.00000  -0.00091  -0.00091   2.10113
   A18        2.12340  -0.00050   0.00000  -0.00291  -0.00291   2.12049
    D1        3.14159  -0.00000   0.00000  -0.00000   0.00000   3.14159
    D2       -0.00000  -0.00000   0.00000  -0.00000   0.00000   0.00000
    D3        0.00000  -0.00000   0.00000  -0.00000  -0.00000   0.00000
    D4        3.14159   0.00000   0.00000   0.00000   0.00000   3.14159
    D5        0.00000  -0.00000   0.00000   0.00000  -0.00000   0.00000
    D6        3.14159   0.00000   0.00000   0.00000   0.00000   3.14159
    D7        3.14159  -0.00000   0.00000  -0.00000   0.00000   3.14159
    D8       -0.00000  -0.00000   0.00000  -0.00000   0.00000   0.00000
    D9        3.14159   0.00000   0.00000   0.00000   0.00000   3.14159
   D10        0.00000  -0.00000   0.00000   0.00000  -0.00000   0.00000
   D11        0.00000   0.00000   0.00000   0.00000   0.00000   0.00000
   D12        3.14159   0.00000   0.00000   0.00000   0.00000   3.14159
   D13        0.00000  -0.00000   0.00000  -0.00000  -0.00000   0.00000
   D14        3.14159  -0.00000   0.00000   0.00000   0.00000   3.14159
   D15        3.14159  -0.00000   0.00000   0.00000   0.00000   3.14159
   D16       -0.00000   0.00000   0.00000   0.00000   0.00000   0.00000
   D17       -0.00000   0.00000   0.00000   0.00000   0.00000   0.00000
   D18        3.14159  -0.00000   0.00000   0.00000   0.00000   3.14159
   D19        3.14159  -0.00000   0.00000  -0.00000   0.00000   3.14159
   D20       -0.00000  -0.00000   0.00000  -0.00000   0.00000   0.00000
   D21        0.00000  -0.00000   0.00000   0.00000   0.00000   0.00000
   D22        3.14159   0.00000   0.00000   0.00000   0.00000   3.14159
   D23        3.14159  -0.00000   0.00000  -0.00000   0.00000   3.14159
   D24        0.00000  -0.00000   0.00000  -0.00000   0.00000   0.00000
         Item               Value     Threshold  Converged?
 Maximum Force            0.035289     0.000450     NO 
 RMS     Force            0.007378     0.000300     NO 
 Maximum Displacement     0.072236     0.001800     NO 
 RMS     Displacement     0.019991     0.001200     NO 
 Predicted change in Energy=-2.388856D-03
 Lowest energy point so far.  Saving SCF results.
 GradGradGradGradGradGradGradGradGradGradGradGradGradGradGradGradGradGrad

 Leave Link  103 at Fri Aug 27 00:02:10 2021, MaxMem= 17179869184 cpu:        43.9
 (Enter /public3/home/sc51754/softwares/g09e01/l202.exe)
                          Input orientation:                          
 ---------------------------------------------------------------------
 Center     Atomic      Atomic             Coordinates (Angstroms)
 Number     Number       Type             X           Y           Z
 ---------------------------------------------------------------------
      1          8           0       -0.128514    2.306122   -0.000000
      2          7           0       -1.147857    0.238186   -0.000000
      3          6           0        0.000806    1.081168   -0.000000
      4          6           0        1.251102    0.327996    0.000000
      5          6           0       -1.129058   -1.130975   -0.000000
      6          6           0        1.270759   -1.042804    0.000000
      7          6           0        0.061401   -1.807020    0.000000
      8          1           0       -2.033514    0.738311   -0.000000
      9          1           0        2.163797    0.917417    0.000000
     10          1           0       -2.097111   -1.625776   -0.000000
     11          1           0        2.225850   -1.567491    0.000000
     12          1           0        0.076441   -2.891527    0.000000
 ---------------------------------------------------------------------
                    Distance matrix (angstroms):
                    1          2          3          4          5
     1  O    0.000000
     2  N    2.305520   0.000000
     3  C    1.231761   1.424797   0.000000
     4  C    2.411705   2.400640   1.459626   0.000000
     5  C    3.579766   1.369289   2.483983   2.791731   0.000000
     6  C    3.629500   2.736903   2.474680   1.370941   2.401436
     7  C    4.117524   2.375957   2.888824   2.444112   1.369026
     8  H    2.467196   1.017110   2.063009   3.310145   2.076600
     9  H    2.680147   3.380593   2.169180   1.086475   3.877990
    10  H    4.397180   2.091754   3.424734   3.876565   1.087177
    11  H    4.532979   3.826535   3.459222   2.131433   3.383187
    12  H    5.201688   3.360656   3.973416   3.427122   2.133723
                    6          7          8          9         10
     6  C    0.000000
     7  C    1.430585   0.000000
     8  H    3.753743   3.296571   0.000000
     9  H    2.154062   3.441312   4.201130   0.000000
    10  H    3.417953   2.166108   2.364942   4.962174   0.000000
    11  H    1.089722   2.177663   4.843439   2.485683   4.323354
    12  H    2.200949   1.084611   4.198527   4.343399   2.515244
                   11         12
    11  H    0.000000
    12  H    2.524487   0.000000
 Stoichiometry    C5H5NO
 Framework group  CS[SG(C5H5NO)]
 Deg. of freedom    21
 Full point group                 CS      NOp   2
 RotChk:  IX=0 Diff= 9.96D-04
 Largest Abelian subgroup         CS      NOp   2
 Largest concise Abelian subgroup C1      NOp   1
                         Standard orientation:                         
 ---------------------------------------------------------------------
 Center     Atomic      Atomic             Coordinates (Angstroms)
 Number     Number       Type             X           Y           Z
 ---------------------------------------------------------------------
      1          8           0       -0.130182    2.300883    0.000000
      2          7           0       -1.148069    0.232229    0.000000
      3          6           0       -0.000000    1.076021    0.000000
      4          6           0        1.250826    0.323729    0.000000
      5          6           0       -1.128306   -1.136918    0.000000
      6          6           0        1.271449   -1.047057    0.000000
      7          6           0        0.062629   -1.812125    0.000000
      8          1           0       -2.034078    0.731731    0.000000
      9          1           0        2.163105    0.913793    0.000000
     10          1           0       -2.096010   -1.632400    0.000000
     11          1           0        2.226909   -1.571071    0.000000
     12          1           0        0.078432   -2.896621    0.000000
 ---------------------------------------------------------------------
 Rotational constants (GHZ):      5.6011266      2.7499619      1.8444164
 Leave Link  202 at Fri Aug 27 00:02:10 2021, MaxMem= 17179869184 cpu:         4.7
 (Enter /public3/home/sc51754/softwares/g09e01/l301.exe)
 Basis read from rwf:  (5D, 7F)
 No pseudopotential information found on rwf file.
 There are   223 symmetry adapted cartesian basis functions of A'  symmetry.
 There are    97 symmetry adapted cartesian basis functions of A"  symmetry.
 There are   190 symmetry adapted basis functions of A'  symmetry.
 There are    90 symmetry adapted basis functions of A"  symmetry.
   280 basis functions,   475 primitive gaussians,   320 cartesian basis functions
    25 alpha electrons       25 beta electrons
       nuclear repulsion energy       273.4791695054 Hartrees.
 IExCor=  402 DFT=T Ex=B Corr=LYP ExCW=0 ScaHFX=  0.000000
 ScaDFX=  1.000000  1.000000  1.000000  1.000000 ScalE2=  1.000000  1.000000
 IRadAn=      0 IRanWt=     -1 IRanGd=            0 ICorTp=0 IEmpDi=  4
 NAtoms=   12 NActive=   12 NUniq=   12 SFac= 1.00D+00 NAtFMM=   60 NAOKFM=F Big=F
 Integral buffers will be    131072 words long.
 Raffenetti 2 integral format.
 Two-electron integral symmetry is turned on.
 No density basis found on file   724.
 Leave Link  301 at Fri Aug 27 00:02:11 2021, MaxMem= 17179869184 cpu:         1.3
 (Enter /public3/home/sc51754/softwares/g09e01/l302.exe)
 NPDir=0 NMtPBC=     1 NCelOv=     1 NCel=       1 NClECP=     1 NCelD=      1
         NCelK=      1 NCelE2=     1 NClLst=     1 CellRange=     0.0.
 One-electron integrals computed using PRISM.
 NBasis=   280 RedAO= T EigKep=  2.47D-04  NBF=   190    90
 NBsUse=   280 1.00D-06 EigRej= -1.00D+00 NBFU=   190    90
 Precomputing XC quadrature grid using
 IXCGrd= 4 IRadAn=           0 IRanWt=          -1 IRanGd=           0 AccXCQ= 0.00D+00.
 Generated NRdTot=       0 NPtTot=           0 NUsed=           0 NTot=          32
 NSgBfM=   320   320   320   320   320 MxSgAt=    12 MxSgA2=    12.
 Leave Link  302 at Fri Aug 27 00:02:11 2021, MaxMem= 17179869184 cpu:        42.4
 (Enter /public3/home/sc51754/softwares/g09e01/l303.exe)
 DipDrv:  MaxL=1.
 Leave Link  303 at Fri Aug 27 00:02:12 2021, MaxMem= 17179869184 cpu:        11.8
 (Enter /public3/home/sc51754/softwares/g09e01/l401.exe)
 Initial guess from the checkpoint file:  "PY_BLYP_PC2_OPT_FREQ.chk"
 B after Tr=     0.000000   -0.000000    0.000000
         Rot=    1.000000    0.000000   -0.000000   -0.000181 Ang=  -0.02 deg.
 Guess basis will be translated and rotated to current coordinates.
 JPrj=2 DoOrth=T DoCkMO=T.
 Initial guess orbital symmetries:
       Occupied  (A') (A') (A') (A') (A') (A') (A') (A') (A') (A')
                 (A') (A') (A') (A') (A') (A') (A') (A") (A') (A')
                 (A') (A") (A") (A') (A")
       Virtual   (A') (A') (A') (A') (A') (A') (A') (A') (A') (A')
                 (A') (A') (A') (A') (A') (A') (A') (A') (A') (A')
                 (A') (A') (A') (A') (A') (A') (A') (A') (A') (A')
                 (A') (A') (A') (A') (A') (A') (A') (A') (A') (A')
                 (A') (A') (A') (A') (A') (A') (A') (A') (A') (A')
                 (A') (A') (A') (A') (A') (A') (A') (A') (A') (A')
                 (A') (A') (A') (A') (A') (A') (A') (A') (A') (A')
                 (A') (A') (A') (A') (A') (A') (A') (A') (A') (A')
                 (A') (A') (A') (A') (A') (A') (A') (A') (A') (A')
                 (A') (A') (A') (A') (A') (A') (A') (A') (A') (A')
                 (A') (A') (A') (A') (A') (A') (A') (A') (A') (A')
                 (A') (A') (A') (A') (A') (A') (A') (A') (A') (A')
                 (A') (A') (A') (A') (A') (A') (A') (A') (A') (A')
                 (A') (A') (A') (A') (A') (A') (A') (A') (A') (A')
                 (A') (A') (A') (A') (A') (A') (A') (A') (A') (A')
                 (A') (A') (A') (A') (A') (A') (A') (A') (A') (A')
                 (A') (A') (A') (A') (A') (A') (A') (A') (A') (A")
                 (A") (A") (A") (A") (A") (A") (A") (A") (A") (A")
                 (A") (A") (A") (A") (A") (A") (A") (A") (A") (A")
                 (A") (A") (A") (A") (A") (A") (A") (A") (A") (A")
                 (A") (A") (A") (A") (A") (A") (A") (A") (A") (A")
                 (A") (A") (A") (A") (A") (A") (A") (A") (A") (A")
                 (A") (A") (A") (A") (A") (A") (A") (A") (A") (A")
                 (A") (A") (A") (A") (A") (A") (A") (A") (A") (A")
                 (A") (A") (A") (A") (A") (A") (A") (A") (A") (A")
                 (A") (A") (A") (A") (A")
 The electronic state of the initial guess is 1-A'.
 Generating alternative initial guess.
 ExpMin= 7.41D-02 ExpMax= 1.48D+04 ExpMxC= 5.05D+02 IAcc=2 IRadAn=         4 AccDes= 0.00D+00
 Harris functional with IExCor=  402 and IRadAn=       4 diagonalized for initial guess.
 HarFok:  IExCor=  402 AccDes= 0.00D+00 IRadAn=         4 IDoV= 1 UseB2=F ITyADJ=14
 ICtDFT=  3500011 ScaDFX=  1.000000  1.000000  1.000000  1.000000
 FoFCou: FMM=F IPFlag=           0 FMFlag=      100000 FMFlg1=           0
         NFxFlg=           0 DoJE=T BraDBF=F KetDBF=T FulRan=T
         wScrn=  0.000000 ICntrl=     500 IOpCl=  0 I1Cent=   200000004 NGrid=           0
         NMat0=    1 NMatS0=      1 NMatT0=    0 NMatD0=    1 NMtDS0=    0 NMtDT0=    0
 Petite list used in FoFCou.
 Harris En= -323.693770406847    
 Leave Link  401 at Fri Aug 27 00:02:13 2021, MaxMem= 17179869184 cpu:        73.0
 (Enter /public3/home/sc51754/softwares/g09e01/l502.exe)
 Closed shell SCF:
 Using DIIS extrapolation, IDIIS=  1040.
 Integral symmetry usage will be decided dynamically.
 Keep J ints in memory in symmetry-blocked form, NReq=1167802198.
 IVT=      348658 IEndB=      348658 NGot= 17179869184 MDV= 16785904737
 LenX= 16785904737 LenY= 16785801896
 Requested convergence on RMS density matrix=1.00D-08 within 128 cycles.
 Requested convergence on MAX density matrix=1.00D-06.
 Requested convergence on             energy=1.00D-06.
 No special actions if energy rises.
 FoFCou: FMM=F IPFlag=           0 FMFlag=           0 FMFlg1=           0
         NFxFlg=           0 DoJE=F BraDBF=F KetDBF=F FulRan=T
         wScrn=  0.000000 ICntrl=     600 IOpCl=  0 I1Cent=           0 NGrid=           0
         NMat0=    1 NMatS0=  39340 NMatT0=    0 NMatD0=    1 NMtDS0=    0 NMtDT0=    0
 Petite list used in FoFCou.
 Integral accuracy reduced to 1.0D-05 until final iterations.

 Cycle   1  Pass 0  IDiag  1:
 E= -323.560530157717    
 DIIS: error= 1.23D-03 at cycle   1 NSaved=   1.
 NSaved= 1 IEnMin= 1 EnMin= -323.560530157717     IErMin= 1 ErrMin= 1.23D-03
 ErrMax= 1.23D-03  0.00D+00 EMaxC= 1.00D-01 BMatC= 6.60D-04 BMatP= 6.60D-04
 IDIUse=3 WtCom= 9.88D-01 WtEn= 1.23D-02
 Coeff-Com:  0.100D+01
 Coeff-En:   0.100D+01
 Coeff:      0.100D+01
 Gap=     0.502 Goal=   None    Shift=    0.000
 GapD=    0.502 DampG=2.000 DampE=1.000 DampFc=2.0000 IDamp=-1.
 RMSDP=9.67D-05 MaxDP=3.23D-03              OVMax= 6.90D-03

 Cycle   2  Pass 0  IDiag  1:
 E= -323.560940947319     Delta-E=       -0.000410789602 Rises=F Damp=F
 DIIS: error= 1.10D-03 at cycle   2 NSaved=   2.
 NSaved= 2 IEnMin= 2 EnMin= -323.560940947319     IErMin= 2 ErrMin= 1.10D-03
 ErrMax= 1.10D-03  0.00D+00 EMaxC= 1.00D-01 BMatC= 1.79D-04 BMatP= 6.60D-04
 IDIUse=3 WtCom= 9.89D-01 WtEn= 1.10D-02
 Coeff-Com:  0.296D+00 0.704D+00
 Coeff-En:   0.000D+00 0.100D+01
 Coeff:      0.293D+00 0.707D+00
 Gap=     0.118 Goal=   None    Shift=    0.000
 RMSDP=7.10D-05 MaxDP=2.94D-03 DE=-4.11D-04 OVMax= 8.34D-03

 Cycle   3  Pass 0  IDiag  1:
 E= -323.560907804016     Delta-E=        0.000033143303 Rises=F Damp=F
 DIIS: error= 9.94D-04 at cycle   3 NSaved=   3.
 NSaved= 3 IEnMin= 2 EnMin= -323.560940947319     IErMin= 3 ErrMin= 9.94D-04
 ErrMax= 9.94D-04  0.00D+00 EMaxC= 1.00D-01 BMatC= 2.21D-04 BMatP= 1.79D-04
 IDIUse=3 WtCom= 2.41D-01 WtEn= 7.59D-01
 Coeff-Com:  0.931D-01 0.514D+00 0.393D+00
 Coeff-En:   0.000D+00 0.537D+00 0.463D+00
 Coeff:      0.224D-01 0.531D+00 0.446D+00
 Gap=     0.119 Goal=   None    Shift=    0.000
 RMSDP=5.38D-05 MaxDP=2.74D-03 DE= 3.31D-05 OVMax= 8.99D-03

 Cycle   4  Pass 0  IDiag  1:
 E= -323.561041090990     Delta-E=       -0.000133286974 Rises=F Damp=F
 DIIS: error= 6.24D-04 at cycle   4 NSaved=   4.
 NSaved= 4 IEnMin= 4 EnMin= -323.561041090990     IErMin= 4 ErrMin= 6.24D-04
 ErrMax= 6.24D-04  0.00D+00 EMaxC= 1.00D-01 BMatC= 8.51D-05 BMatP= 1.79D-04
 IDIUse=3 WtCom= 9.94D-01 WtEn= 6.24D-03
 EnCoef did     6 forward-backward iterations
 Coeff-Com:  0.218D-01 0.323D+00 0.347D+00 0.308D+00
 Coeff-En:   0.000D+00 0.131D+00 0.284D+00 0.585D+00
 Coeff:      0.217D-01 0.322D+00 0.346D+00 0.310D+00
 Gap=     0.119 Goal=   None    Shift=    0.000
 RMSDP=2.99D-05 MaxDP=1.47D-03 DE=-1.33D-04 OVMax= 4.42D-03

 Cycle   5  Pass 0  IDiag  1:
 E= -323.561108587169     Delta-E=       -0.000067496179 Rises=F Damp=F
 DIIS: error= 7.56D-05 at cycle   5 NSaved=   5.
 NSaved= 5 IEnMin= 5 EnMin= -323.561108587169     IErMin= 5 ErrMin= 7.56D-05
 ErrMax= 7.56D-05  0.00D+00 EMaxC= 1.00D-01 BMatC= 9.65D-07 BMatP= 8.51D-05
 IDIUse=1 WtCom= 1.00D+00 WtEn= 0.00D+00
 Coeff-Com:  0.377D-02 0.115D+00 0.143D+00 0.162D+00 0.577D+00
 Coeff:      0.377D-02 0.115D+00 0.143D+00 0.162D+00 0.577D+00
 Gap=     0.119 Goal=   None    Shift=    0.000
 RMSDP=4.60D-06 MaxDP=1.55D-04 DE=-6.75D-05 OVMax= 7.82D-04

 Initial convergence to 1.0D-05 achieved.  Increase integral accuracy.
 Cycle   6  Pass 1  IDiag  1:
 E= -323.561093944899     Delta-E=        0.000014642269 Rises=F Damp=F
 DIIS: error= 6.71D-05 at cycle   1 NSaved=   1.
 NSaved= 1 IEnMin= 1 EnMin= -323.561093944899     IErMin= 1 ErrMin= 6.71D-05
 ErrMax= 6.71D-05  0.00D+00 EMaxC= 1.00D-01 BMatC= 5.78D-07 BMatP= 5.78D-07
 IDIUse=1 WtCom= 1.00D+00 WtEn= 0.00D+00
 Coeff-Com:  0.100D+01
 Coeff:      0.100D+01
 Gap=     0.119 Goal=   None    Shift=    0.000
 RMSDP=4.60D-06 MaxDP=1.55D-04 DE= 1.46D-05 OVMax= 1.25D-03

 Cycle   7  Pass 1  IDiag  1:
 E= -323.561091574171     Delta-E=        0.000002370729 Rises=F Damp=F
 DIIS: error= 1.89D-04 at cycle   2 NSaved=   2.
 NSaved= 2 IEnMin= 1 EnMin= -323.561093944899     IErMin= 1 ErrMin= 6.71D-05
 ErrMax= 1.89D-04  0.00D+00 EMaxC= 1.00D-01 BMatC= 2.72D-06 BMatP= 5.78D-07
 IDIUse=3 WtCom= 4.21D-01 WtEn= 5.79D-01
 Coeff-Com:  0.704D+00 0.296D+00
 Coeff-En:   0.784D+00 0.216D+00
 Coeff:      0.750D+00 0.250D+00
 Gap=     0.119 Goal=   None    Shift=    0.000
 RMSDP=4.85D-06 MaxDP=1.76D-04 DE= 2.37D-06 OVMax= 9.32D-04

 Cycle   8  Pass 1  IDiag  1:
 E= -323.561094603586     Delta-E=       -0.000003029416 Rises=F Damp=F
 DIIS: error= 1.17D-05 at cycle   3 NSaved=   3.
 NSaved= 3 IEnMin= 3 EnMin= -323.561094603586     IErMin= 3 ErrMin= 1.17D-05
 ErrMax= 1.17D-05  0.00D+00 EMaxC= 1.00D-01 BMatC= 5.27D-08 BMatP= 5.78D-07
 IDIUse=1 WtCom= 1.00D+00 WtEn= 0.00D+00
 Coeff-Com:  0.246D+00 0.725D-01 0.681D+00
 Coeff:      0.246D+00 0.725D-01 0.681D+00
 Gap=     0.119 Goal=   None    Shift=    0.000
 RMSDP=1.28D-06 MaxDP=6.56D-05 DE=-3.03D-06 OVMax= 1.56D-04

 Cycle   9  Pass 1  IDiag  1:
 E= -323.561094561062     Delta-E=        0.000000042525 Rises=F Damp=F
 DIIS: error= 2.17D-05 at cycle   4 NSaved=   4.
[...]
     33  0.000000D+00 -0.539070D-02  0.000000D+00  0.000000D+00 -0.349797D-03
     34 -0.123693D-02  0.000000D+00  0.789413D-03 -0.431308D-03  0.000000D+00
     35 -0.532836D-03  0.000000D+00  0.250390D-03  0.553328D-03  0.000000D+00
     36  0.000000D+00  0.581957D-03  0.000000D+00  0.000000D+00 -0.436247D-02
               31            32            33            34            35 
     31  0.272848D+00
     32 -0.118543D+00  0.121033D+00
     33  0.000000D+00  0.000000D+00  0.246232D-01
     34  0.969539D-03  0.680034D-03  0.000000D+00  0.541233D-01
     35 -0.170304D-03  0.676986D-03  0.000000D+00 -0.519589D-02  0.348540D+00
     36  0.000000D+00  0.000000D+00 -0.211705D-02  0.000000D+00  0.000000D+00
               36 
     36  0.213809D-01
 FormGI is forming the generalized inverse of G from B-inverse, IUseBI=4.
 Leave Link  716 at Fri Aug 27 00:03:28 2021, MaxMem= 17179869184 cpu:        20.7
 (Enter /public3/home/sc51754/softwares/g09e01/l103.exe)

 GradGradGradGradGradGradGradGradGradGradGradGradGradGradGradGradGradGrad
 Berny optimization.
 Red2BG is reusing G-inverse.
 Internal  Forces:  Max     0.000274489 RMS     0.000062285
 Search for a local minimum.
 Step number   1 out of a maximum of    2
 All quantities printed in internal units (Hartrees-Bohrs-Radians)
 Second derivative matrix not updated -- analytic derivatives used.
 ITU=  0
     Eigenvalues ---    0.00732   0.01053   0.01475   0.01592   0.01846
     Eigenvalues ---    0.02083   0.02476   0.03058   0.04313   0.09876
     Eigenvalues ---    0.10498   0.10652   0.11665   0.12185   0.15963
     Eigenvalues ---    0.18092   0.19434   0.21815   0.27688   0.29369
     Eigenvalues ---    0.33750   0.34218   0.34658   0.34914   0.35247
     Eigenvalues ---    0.38656   0.43319   0.46706   0.49435   0.71574
 Angle between quadratic step and forces=  36.24 degrees.
 Linear search not attempted -- first point.
 Iteration  1 RMS(Cart)=  0.00030965 RMS(Int)=  0.00000013
 Iteration  2 RMS(Cart)=  0.00000014 RMS(Int)=  0.00000001
 ITry= 1 IFail=0 DXMaxC= 1.05D-03 DCOld= 1.00D+10 DXMaxT= 3.00D-01 DXLimC= 3.00D+00 Rises=F
 ClnCor:  largest displacement from symmetrization is 1.64D-11 for atom     8.
 Variable       Old X    -DE/DX   Delta X   Delta X   Delta X     New X
                                 (Linear)    (Quad)   (Total)
    R1        2.33302  -0.00025   0.00000  -0.00042  -0.00042   2.33260
    R2        2.69885   0.00011   0.00000   0.00090   0.00090   2.69975
    R3        2.58757  -0.00027   0.00000  -0.00102  -0.00102   2.58655
    R4        1.92237  -0.00002   0.00000  -0.00002  -0.00002   1.92235
    R5        2.74905  -0.00008   0.00000  -0.00047  -0.00047   2.74858
    R6        2.59287   0.00008   0.00000   0.00039   0.00039   2.59326
    R7        2.05269   0.00001   0.00000   0.00002   0.00002   2.05272
    R8        2.58808   0.00012   0.00000   0.00047   0.00047   2.58855
    R9        2.05361   0.00002   0.00000   0.00011   0.00011   2.05371
   R10        2.69853  -0.00005   0.00000  -0.00034  -0.00034   2.69818
   R11        2.05838   0.00002   0.00000   0.00006   0.00006   2.05844
   R12        2.04974  -0.00001   0.00000  -0.00006  -0.00006   2.04968
    A1        2.18866   0.00003   0.00000   0.00021   0.00021   2.18887
    A2        1.99598  -0.00009   0.00000  -0.00090  -0.00090   1.99508
    A3        2.09854   0.00005   0.00000   0.00069   0.00069   2.09924
    A4        2.09172  -0.00003   0.00000  -0.00036  -0.00036   2.09136
    A5        2.22309   0.00005   0.00000   0.00067   0.00067   2.22376
    A6        1.96837  -0.00002   0.00000  -0.00031  -0.00031   1.96806
    A7        2.12615  -0.00000   0.00000   0.00007   0.00007   2.12622
    A8        2.02833   0.00006   0.00000   0.00071   0.00071   2.02904
    A9        2.12871  -0.00006   0.00000  -0.00078  -0.00078   2.12793
   A10        2.09848   0.00003   0.00000   0.00012   0.00012   2.09860
   A11        2.02956   0.00002   0.00000   0.00042   0.00042   2.02998
   A12        2.15514  -0.00005   0.00000  -0.00054  -0.00054   2.15460
   A13        2.12141  -0.00001   0.00000   0.00015   0.00015   2.12156
   A14        2.08576  -0.00003   0.00000  -0.00052  -0.00052   2.08524
   A15        2.07602   0.00004   0.00000   0.00037   0.00037   2.07638
   A16        2.06330  -0.00003   0.00000  -0.00024  -0.00024   2.06306
   A17        2.09886   0.00001   0.00000  -0.00006  -0.00006   2.09880
   A18        2.12102   0.00002   0.00000   0.00030   0.00030   2.12132
    D1        3.14159   0.00000   0.00000   0.00000   0.00000   3.14159
    D2        0.00000  -0.00000   0.00000   0.00000   0.00000   0.00000
    D3       -0.00000   0.00000   0.00000   0.00000   0.00000   0.00000
    D4        3.14159  -0.00000   0.00000   0.00000   0.00000   3.14159
    D5        0.00000  -0.00000   0.00000  -0.00000  -0.00000   0.00000
    D6        3.14159   0.00000   0.00000  -0.00000   0.00000   3.14159
    D7        3.14159  -0.00000   0.00000  -0.00000   0.00000   3.14159
    D8        0.00000   0.00000   0.00000  -0.00000  -0.00000   0.00000
    D9        3.14159  -0.00000   0.00000   0.00000   0.00000   3.14159
   D10        0.00000  -0.00000   0.00000  -0.00000   0.00000   0.00000
   D11       -0.00000   0.00000   0.00000  -0.00000   0.00000   0.00000
   D12        3.14159   0.00000   0.00000  -0.00000   0.00000   3.14159
   D13        0.00000  -0.00000   0.00000  -0.00000   0.00000   0.00000
   D14        3.14159  -0.00000   0.00000  -0.00000   0.00000   3.14159
   D15        3.14159  -0.00000   0.00000   0.00000   0.00000   3.14159
   D16        0.00000  -0.00000   0.00000   0.00000  -0.00000   0.00000
   D17       -0.00000   0.00000   0.00000  -0.00000   0.00000   0.00000
   D18        3.14159   0.00000   0.00000  -0.00000   0.00000   3.14159
   D19        3.14159  -0.00000   0.00000  -0.00000   0.00000   3.14159
   D20        0.00000  -0.00000   0.00000  -0.00000   0.00000   0.00000
   D21        0.00000  -0.00000   0.00000   0.00000  -0.00000   0.00000
   D22        3.14159  -0.00000   0.00000   0.00000   0.00000   3.14159
   D23        3.14159   0.00000   0.00000   0.00000   0.00000   3.14159
   D24       -0.00000  -0.00000   0.00000   0.00000   0.00000   0.00000
         Item               Value     Threshold  Converged?
 Maximum Force            0.000274     0.000450     YES
 RMS     Force            0.000062     0.000300     YES
 Maximum Displacement     0.001055     0.001800     YES
 RMS     Displacement     0.000310     0.001200     YES
 Predicted change in Energy=-4.861561D-07
 Optimization completed.
    -- Stationary point found.
                           ----------------------------
                           !   Optimized Parameters   !
                           ! (Angstroms and Degrees)  !
 --------------------------                            --------------------------
 ! Name  Definition              Value          Derivative Info.                !
 --------------------------------------------------------------------------------
 ! R1    R(1,3)                  1.2346         -DE/DX =   -0.0002              !
 ! R2    R(2,3)                  1.4282         -DE/DX =    0.0001              !
 ! R3    R(2,5)                  1.3693         -DE/DX =   -0.0003              !
 ! R4    R(2,8)                  1.0173         -DE/DX =    0.0                 !
 ! R5    R(3,4)                  1.4547         -DE/DX =   -0.0001              !
 ! R6    R(4,6)                  1.3721         -DE/DX =    0.0001              !
 ! R7    R(4,9)                  1.0862         -DE/DX =    0.0                 !
 ! R8    R(5,7)                  1.3696         -DE/DX =    0.0001              !
 ! R9    R(5,10)                 1.0867         -DE/DX =    0.0                 !
 ! R10   R(6,7)                  1.428          -DE/DX =   -0.0001              !
 ! R11   R(6,11)                 1.0892         -DE/DX =    0.0                 !
 ! R12   R(7,12)                 1.0847         -DE/DX =    0.0                 !
 ! A1    A(3,2,5)              125.4009         -DE/DX =    0.0                 !
 ! A2    A(3,2,8)              114.3613         -DE/DX =   -0.0001              !
 ! A3    A(5,2,8)              120.2377         -DE/DX =    0.0001              !
 ! A4    A(1,3,2)              119.8469         -DE/DX =    0.0                 !
 ! A5    A(1,3,4)              127.3739         -DE/DX =    0.0                 !
 ! A6    A(2,3,4)              112.7792         -DE/DX =    0.0                 !
 ! A7    A(3,4,6)              121.8193         -DE/DX =    0.0                 !
 ! A8    A(3,4,9)              116.2147         -DE/DX =    0.0001              !
 ! A9    A(6,4,9)              121.966          -DE/DX =   -0.0001              !
 ! A10   A(2,5,7)              120.2339         -DE/DX =    0.0                 !
 ! A11   A(2,5,10)             116.2854         -DE/DX =    0.0                 !
 ! A12   A(7,5,10)             123.4807         -DE/DX =    0.0                 !
 ! A13   A(4,6,7)              121.548          -DE/DX =    0.0                 !
 ! A14   A(4,6,11)             119.5051         -DE/DX =    0.0                 !
 ! A15   A(7,6,11)             118.947          -DE/DX =    0.0                 !
 ! A16   A(5,7,6)              118.2186         -DE/DX =    0.0                 !
 ! A17   A(5,7,12)             120.2559         -DE/DX =    0.0                 !
 ! A18   A(6,7,12)             121.5254         -DE/DX =    0.0                 !
 ! D1    D(5,2,3,1)            180.0            -DE/DX =    0.0                 !
 ! D2    D(5,2,3,4)              0.0            -DE/DX =    0.0                 !
 ! D3    D(8,2,3,1)              0.0            -DE/DX =    0.0                 !
 ! D4    D(8,2,3,4)            180.0            -DE/DX =    0.0                 !
 ! D5    D(3,2,5,7)              0.0            -DE/DX =    0.0                 !
 ! D6    D(3,2,5,10)           180.0            -DE/DX =    0.0                 !
 ! D7    D(8,2,5,7)            180.0            -DE/DX =    0.0                 !
 ! D8    D(8,2,5,10)             0.0            -DE/DX =    0.0                 !
 ! D9    D(1,3,4,6)            180.0            -DE/DX =    0.0                 !
 ! D10   D(1,3,4,9)              0.0            -DE/DX =    0.0                 !
 ! D11   D(2,3,4,6)              0.0            -DE/DX =    0.0                 !
 ! D12   D(2,3,4,9)            180.0            -DE/DX =    0.0                 !
 ! D13   D(3,4,6,7)              0.0            -DE/DX =    0.0                 !
 ! D14   D(3,4,6,11)           180.0            -DE/DX =    0.0                 !
 ! D15   D(9,4,6,7)            180.0            -DE/DX =    0.0                 !
 ! D16   D(9,4,6,11)             0.0            -DE/DX =    0.0                 !
 ! D17   D(2,5,7,6)              0.0            -DE/DX =    0.0                 !
 ! D18   D(2,5,7,12)           180.0            -DE/DX =    0.0                 !
 ! D19   D(10,5,7,6)           180.0            -DE/DX =    0.0                 !
 ! D20   D(10,5,7,12)            0.0            -DE/DX =    0.0                 !
 ! D21   D(4,6,7,5)              0.0            -DE/DX =    0.0                 !
 ! D22   D(4,6,7,12)           180.0            -DE/DX =    0.0                 !
 ! D23   D(11,6,7,5)           180.0            -DE/DX =    0.0                 !
 ! D24   D(11,6,7,12)            0.0            -DE/DX =    0.0                 !
 --------------------------------------------------------------------------------
 GradGradGradGradGradGradGradGradGradGradGradGradGradGradGradGradGradGrad

 Leave Link  103 at Fri Aug 27 00:03:30 2021, MaxMem= 17179869184 cpu:        66.6
 (Enter /public3/home/sc51754/softwares/g09e01/l9999.exe)
 1\1\GINC-S2515\Freq\RBLYP\Gen\C5H5N1O1\SC51754\27-Aug-2021\0\\#P Geom=
 AllCheck Guess=TCheck SCRF=Check GenChk RBLYP/ChkBas Freq\\PY_BLYP_PC2
 _OPT_FREQ\\0,1\O,-0.1305646829,2.3069344042,0.\N,-1.1480206337,0.23723
 2278,0.\C,0.0051042158,1.07983019,0.\C,1.2512038637,0.3291764267,0.\C,
 -1.1299785705,-1.1319334054,0.\C,1.2692698582,-1.0427926201,0.\C,0.062
 2693369,-1.8058973065,0.\H,-2.0335628125,0.7378962635,0.\H,2.165075932
 8,0.916331424,0.\H,-2.0979072342,-1.6259770293,0.\H,2.2242361826,-1.56
 67188164,0.\H,0.0769775437,-2.8904738087,0.\\Version=EM64L-G09RevE.01\
 State=1-A'\HF=-323.5611313\RMSD=5.632e-09\RMSF=1.337e-04\ZeroPoint=0.0
 904797\Thermal=0.0959131\Dipole=-0.4659795,-1.6280511,0.\DipoleDeriv=-
 0.4094533,0.2346795,0.,0.0565434,-1.6541765,0.,0.,0.,-0.3991778,-0.306
 073,-0.4905458,0.,0.3456854,-0.6983206,0.,0.,0.,-0.1948592,0.4223653,-
 0.1333093,0.,-0.0287425,2.0154019,0.,0.,0.,0.2195506,-0.0506101,0.4729
 526,0.,-0.0147762,-0.5052605,0.,0.,0.,-0.1485181,0.3114975,-0.0254425,
 0.,-0.5578435,0.3803152,0.,0.,0.,-0.0232209,0.3478794,0.1849627,0.,0.1
 349344,0.43154,0.,0.,0.,-0.0857195,-0.4831387,-0.1890117,0.,0.101396,-
 0.1182247,0.,0.,0.,-0.1933112,0.2009513,-0.0252757,0.,-0.003144,0.1267
 954,0.,0.,0.,0.2647033,-0.0077194,-0.0375962,0.,-0.0516879,0.0248966,0
 .,0.,0.,0.1417974,-0.0281001,-0.0562067,0.,-0.0443401,0.0228702,0.,0.,
 0.,0.1396183,-0.060692,0.0786059,0.,0.0761864,0.0322123,0.,0.,0.,0.121
 294,0.0630931,-0.013813,0.,-0.0142113,-0.0580494,0.,0.,0.,0.1578432\Po
 lar=77.1494121,0.1967407,94.0061256,0.,0.,38.8338493\PG=CS [SG(C5H5N1O
 1)]\NImag=0\\0.09065007,-0.05803819,0.68213535,0.,0.,0.02982032,0.0118
 5372,-0.03637166,0.,0.67485427,-0.06257358,-0.06952631,0.,-0.12285493,
 0.67876050,0.,0.,0.01730176,0.,0.,0.06693083,-0.10256271,0.06829014,0.
 ,-0.16800631,0.03606583,0.,0.47973569,0.06529667,-0.56049091,0.,-0.009
 17947,-0.11311681,0.,-0.11014814,0.81071846,0.,0.,-0.06606460,0.,0.,-0
 .05295224,0.,0.,0.17870743,0.00350151,0.02769817,0.,-0.04402432,-0.013
 61955,0.,-0.19371780,0.04390408,0.,0.60436068,0.04698557,-0.05005865,0
 .,-0.00662050,0.04150516,0.,0.02136317,-0.11733338,0.,0.07186758,0.711
 32552,0.,0.,0.02003165,0.,0.,0.00341450,0.,0.,-0.07052428,0.,0.,0.1079
 0701,-0.00924848,-0.00305038,0.,-0.13847702,-0.02165427,0.,0.03327345,
 -0.01979671,0.,-0.01173484,0.01888710,0.,0.76932714,0.01334810,-0.0028
 7803,0.,0.02541728,-0.29602991,0.,-0.06906828,-0.02676325,0.,0.0154283
 6,-0.02749529,0.,-0.00621461,0.61642552,0.,0.,0.00455145,0.,0.,-0.0397
 7130,0.,0.,-0.00326948,0.,0.,0.00093478,0.,0.,0.12422548,-0.01185431,0
 .00557577,0.,-0.00529275,-0.02811132,0.,0.03221593,0.03307423,0.,-0.12
 253942,0.02357996,0.,-0.05855597,0.01303445,0.,0.63817082,-0.00553439,
 0.00974671,0.,-0.00408703,-0.03228838,0.,0.04512906,-0.02283840,0.,-0.
 01321923,-0.38555398,0.,-0.01920077,0.04350190,0.,-0.04640603,0.682493
 07,0.,0.,0.00382676,0.,0.,-0.00411455,0.,0.,-0.00020814,0.,0.,-0.05101
 664,0.,0.,0.00679508,0.,0.,0.13062770,0.00967664,-0.00584326,0.,0.0081
 8999,0.06129073,0.,-0.04356547,-0.00365493,0.,0.01912356,-0.04917894,0
 .,-0.31698492,0.09069661,0.,-0.22003332,-0.04347196,0.,0.62484249,-0.0
 0262064,-0.00372841,0.,0.03701588,-0.04391294,0.,0.00828000,0.00371185
 ,0.,-0.03152567,-0.02771348,0.,0.12727968,-0.17293032,0.,-0.08836803,-
 0.15565896,0.,-0.05160154,0.71609469,0.,0.,-0.00024259,0.,0.,0.0106219
 3,0.,0.,-0.00648550,0.,0.,0.00645770,0.,0.,-0.05732226,0.,0.,-0.055858
 87,0.,0.,0.10546611,0.00491784,0.00017958,0.,-0.33491821,0.14630185,0.
 ,-0.02223489,0.01870690,0.,-0.00373953,-0.00380406,0.,0.00609901,-0.00
 119279,0.,-0.00099789,-0.00252321,0.,0.00438812,-0.00212038,0.,0.34618
 081,0.00430215,-0.00175979,0.,0.14396561,-0.14550742,0.,-0.01659521,0.
 01936500,0.,-0.00300243,-0.00312830,0.,0.03114300,-0.01251292,0.,-0.00
 001159,0.00047728,0.,-0.00381633,-0.00527861,0.,-0.15588904,0.14741081
 ,0.,0.,-0.00411492,0.,0.,-0.01483093,0.,0.,0.00257843,0.,0.,0.00411732
 ,0.,0.,-0.00537509,0.,0.,-0.00061984,0.,0.,0.00489759,0.,0.,0.01523666
 ,0.00268940,0.00109196,0.,-0.00473223,0.00267498,0.,-0.01730789,-0.018
 31367,0.,-0.25001355,-0.12196053,0.,-0.00013858,0.00224524,0.,0.004975
 38,0.00228688,0.,0.00233567,0.00085764,0.,-0.00104793,-0.00095329,0.,0
 .26217514,-0.00139818,0.00081167,0.,0.00358692,-0.00099688,0.,0.013366
 85,0.01016095,0.,-0.12362907,-0.13028071,0.,0.00058219,-0.00100072,0.,
 -0.02655716,-0.01235436,0.,0.00199035,-0.00435993,0.,0.00088756,0.0006
 0931,0.,0.13237230,0.13677694,0.,0.,-0.00202500,0.,0.,0.00462740,0.,0.
 ,0.00245890,0.,0.,-0.03147810,0.,0.,-0.00064093,0.,0.,0.00252377,0.,0.
 ,0.00868848,0.,0.,-0.00045052,0.,0.,0.02232780,-0.00015918,-0.00012450
 ,0.,0.00453054,0.00119180,0.,0.00217488,0.00171373,0.,0.00053879,0.000
 61865,0.,-0.27387655,-0.10796996,0.,-0.00309532,0.00420694,0.,-0.01579
 946,-0.01423704,0.,0.00108807,-0.00044955,0.,-0.00000387,-0.00011848,0
 .,0.28479428,-0.00169882,-0.00282341,0.,-0.03382017,-0.02030460,0.,0.0
 0702683,0.00004663,0.,-0.00023175,0.00014618,0.,-0.10255560,-0.1074360
 0,0.,0.00239567,-0.00153991,0.,0.01318635,0.01221528,0.,-0.00023213,0.
 00067543,0.,-0.00013415,0.00009939,0.,0.11573384,0.11784306,0.,0.,-0.0
 0026521,0.,0.,0.00237272,0.,0.,0.00483545,0.,0.,0.00015513,0.,0.,-0.03
 324969,0.,0.,0.00724356,0.,0.,0.00550708,0.,0.,-0.00249093,0.,0.,-0.00
 122305,0.,0.,0.02182722,-0.00016770,0.00057130,0.,0.00094314,-0.000625
 96,0.,0.00177128,-0.00143345,0.,0.00266787,-0.00022873,0.,-0.00345378,
 -0.00397872,0.,-0.25767889,0.10956813,0.,-0.01787070,0.01387016,0.,0.0
 0003320,0.00005541,0.,0.00091912,0.00015364,0.,-0.00098158,0.00076124,
 0.,0.27284850,0.00183229,-0.00135268,0.,0.00027744,-0.00011581,0.,-0.0
 0336424,-0.00404904,0.,0.02899767,-0.01189993,0.,-0.00311359,-0.001381
 93,0.,0.10939901,-0.11554295,0.,-0.01498890,0.01102713,0.,0.00005372,0
 .00001305,0.,-0.00041492,0.00106718,0.,-0.00081582,0.00052463,0.,-0.11
 854271,0.12103338,0.,0.,-0.00231395,0.,0.,-0.00051715,0.,0.,0.01120122
 ,0.,0.,0.00624426,0.,0.,0.00442395,0.,0.,-0.03884464,0.,0.,0.00376500,
 0.,0.,-0.00072433,0.,0.,-0.00539070,0.,0.,-0.00034980,0.,0.,0.02462319
 ,0.00070320,0.00002105,0.,-0.00492082,0.00191442,0.,-0.00177615,-0.000
 16925,0.,-0.00442295,-0.00150927,0.,0.00377055,0.02825432,0.,0.0046857
 4,-0.02674837,0.,-0.05430259,0.00316993,0.,0.00023141,0.00125127,0.,0.
 00014936,-0.00123693,0.,0.00078941,-0.00043131,0.,0.00096954,0.0006800
 3,0.,0.05412329,0.00009902,-0.00007555,0.,0.00267063,0.00153339,0.,-0.
 00034602,0.00058890,0.,-0.00266817,0.00048686,0.,-0.00230603,-0.011499
 05,0.,0.00239502,-0.01044203,0.,0.00539181,-0.32946630,0.,-0.00036800,
 -0.00036385,0.,0.00024754,-0.00053284,0.,0.00025039,0.00055333,0.,-0.0
 0017030,0.00067699,0.,-0.00519589,0.34854014,0.,0.,-0.00050567,0.,0.,0
 .00691704,0.,0.,-0.00027717,0.,0.,0.00375668,0.,0.,-0.00130197,0.,0.,-
 0.00035419,0.,0.,-0.02549465,0.,0.,0.00177657,0.,0.,0.00058196,0.,0.,-
 0.00436247,0.,0.,-0.00211705,0.,0.,0.02138093\\0.00001074,0.00024766,0
 .,0.00012280,0.00042408,0.,-0.00013501,-0.00030503,0.,0.00012727,-0.00
 016863,0.,0.00006981,-0.00040886,0.,0.00005972,0.00012815,0.,-0.000141
 56,0.00008553,0.,-0.00005097,-0.00004879,0.,-0.00003860,0.00004420,0.,
 0.00000582,0.00004091,0.,-0.00003531,-0.00002514,0.,0.00000529,-0.0000
 1407,0.\\\@


 LORD, MAN... WERE YE BUT WHYLES WHERE I AM, 
 THE GENTILES YE WAD NE'ER ENVY 'EM.        
 IT'S TRUE, THEY NEEDNA STARVE OR SWEAT,     
 THRO' WINTER'S CAULD OR SIMMER'S HEAT...  
 THEY'VE NAE SAIR WARK TO CRAZE THEIR BANES, 
 AND FILL AULD AGE WITH GRIPS AN' GRANES...  
                                             
 BUT HUMAN BODIES ARE SIC FOOLS              
 FOR A' THEIR COLLEGES AND SCHOOLS,           
 THAT WHEN NAE REAL ILLS PERPLEX THEM,       
 THEY MAK ENOW THEMSELVES TO VEX THEM,       
 AN' AYE THE LESS THEY HAE TO STURT THEM,    
 IN LIKE PROPORTION LESS WILL HURT THEM....  
                                             
                (ROBERT BURNS 'THE TWA DOGS')
 Job cpu time:       0 days  0 hours 36 minutes  1.1 seconds.
 File lengths (MBytes):  RWF=     80 Int=      0 D2E=      0 Chk=      7 Scr=      1
 Normal termination of Gaussian 09 at Fri Aug 27 00:03:30 2021.
