 Entering Gaussian System, Link 0=g09
 AtFile(1): pc-2.gbs
            -H     0
            S    4   1.00
                  0.754230D+02           0.240650D-02
                  0.113500D+02           0.184870D-01
                  0.259930D+01           0.897420D-01
                  0.735130D+00           0.281110D+00
            S    1   1.00
                  0.231670D+00           0.100000D+01
            S    1   1.00
                  0.741470D-01           0.100000D+01
            P    1   1.00
                  0.160000D+01           0.100000D+01
            P    1   1.00
                  0.450000D+00           0.100000D+01
            D    1   1.00
                  0.125000D+01           0.100000D+01
            ****
            -C     0
            S    7   1.00
                  0.785710D+04           0.568250D-03
                  0.117870D+04           0.439150D-02
                  0.268320D+03           0.225040D-01
                  0.759480D+02           0.866530D-01
                  0.245590D+02           0.244050D+00
                  0.862120D+01           0.441480D+00
                  0.312780D+01           0.353320D+00
            S    7   1.00
                  0.117870D+04          -0.594920D-06
                  0.268320D+03          -0.627480D-04
                  0.759480D+02          -0.757730D-03
                  0.245590D+02          -0.733080D-02
                  0.862120D+01          -0.389320D-01
                  0.312780D+01          -0.889080D-01
                  0.822020D+00           0.216890D+00
            S    1   1.00
                  0.330170D+00           0.100000D+01
            S    1   1.00
                  0.114630D+00           0.100000D+01
            P    4   1.00
                  0.337750D+02           0.602940D-02
                  0.767660D+01           0.432280D-01
                  0.223570D+01           0.163010D+00
                  0.764470D+00           0.365040D+00
            P    1   1.00
                  0.262320D+00           0.100000D+01
            P    1   1.00
                  0.846380D-01           0.100000D+01
            D    1   1.00
                  0.140000D+01           0.100000D+01
            D    1   1.00
                  0.450000D+00           0.100000D+01
            F    1   1.00
                  0.950000D+00           0.100000D+01
            ****
            -N     0
            S    7   1.00
                  0.111010D+05           0.545700D-03
                  0.166530D+04           0.421810D-02
                  0.379080D+03           0.216450D-01
                  0.107300D+03           0.837760D-01
                  0.347470D+02           0.238810D+00
                  0.122490D+02           0.439940D+00
                  0.447430D+01           0.363640D+00
            S    7   1.00
                  0.166530D+04          -0.150060D-05
                  0.379080D+03          -0.587530D-04
                  0.107300D+03          -0.774530D-03
                  0.347470D+02          -0.721610D-02
                  0.122490D+02          -0.393380D-01
                  0.447430D+01          -0.906110D-01
                  0.124040D+01           0.198820D+00
            S    1   1.00
                  0.487430D+00           0.100000D+01
            S    1   1.00
                  0.164840D+00           0.100000D+01
            P    4   1.00
                  0.479340D+02           0.617060D-02
                  0.109990D+02           0.442600D-01
                  0.324720D+01           0.168250D+00
                  0.111140D+01           0.368480D+00
            P    1   1.00
                  0.379880D+00           0.100000D+01
            P    1   1.00
                  0.120680D+00           0.100000D+01
            D    1   1.00
                  0.180000D+01           0.100000D+01
            D    1   1.00
                  0.550000D+00           0.100000D+01
            F    1   1.00
                  0.102000D+01           0.100000D+01
            ****
            -O     0
            S    7   1.00
                  0.147820D+05           0.535190D-03
                  0.221730D+04           0.413750D-02
                  0.504740D+03           0.212450D-01
                  0.142870D+03           0.824530D-01
                  0.463000D+02           0.236710D+00
                  0.163370D+02           0.440390D+00
                  0.598280D+01           0.364650D+00
            S    7   1.00
                  0.221730D+04          -0.192750D-05
                  0.504740D+03          -0.579640D-04
                  0.142870D+03          -0.794940D-03
                  0.463000D+02          -0.731250D-02
                  0.163370D+02          -0.405740D-01
                  0.598280D+01          -0.915940D-01
                  0.167180D+01           0.209400D+00
            S    1   1.00
                  0.646620D+00           0.100000D+01
            S    1   1.00
                  0.216690D+00           0.100000D+01
            P    4   1.00
                  0.604240D+02           0.689490D-02
                  0.139350D+02           0.490050D-01
                  0.415310D+01           0.182550D+00
                  0.141580D+01           0.376330D+00
            P    1   1.00
                  0.475490D+00           0.100000D+01
            P    1   1.00
                  0.145290D+00           0.100000D+01
            D    1   1.00
                  0.220000D+01           0.100000D+01
            D    1   1.00
                  0.650000D+00           0.100000D+01
            F    1   1.00
                  0.110000D+01           0.100000D+01
            ****
 Initial command:
 /public3/home/sc51754/softwares/g09e01/l1.exe "./Gau-35026.inp" -scrdir="./"
 Entering Link 1 = /public3/home/sc51754/softwares/g09e01/l1.exe PID=     35027.
  
 Copyright (c) 1988,1990,1992,1993,1995,1998,2003,2009,2015,
            Gaussian, Inc.  All Rights Reserved.
  
 This is part of the Gaussian(R) 09 program.  It is based on
 the Gaussian(R) 03 system (copyright 2003, Gaussian, Inc.),
 the Gaussian(R) 98 system (copyright 1998, Gaussian, Inc.),
 the Gaussian(R) 94 system (copyright 1995, Gaussian, Inc.),
 the Gaussian 92(TM) system (copyright 1992, Gaussian, Inc.),
 the Gaussian 90(TM) system (copyright 1990, Gaussian, Inc.),
 the Gaussian 88(TM) system (copyright 1988, Gaussian, Inc.),
 the Gaussian 86(TM) system (copyright 1986, Carnegie Mellon
 University), and the Gaussian 82(TM) system (copyright 1983,
 Carnegie Mellon University). Gaussian is a federally registered
 trademark of Gaussian, Inc.
  
 This software contains proprietary and confidential information,
 including trade secrets, belonging to Gaussian, Inc.
  
 This software is provided under written license and may be
 used, copied, transmitted, or stored only in accord with that
 written license.
  
 The following legend is applicable only to US Government
 contracts under FAR:
  
                    RESTRICTED RIGHTS LEGEND
  
 Use, reproduction and disclosure by the US Government is
 subject to restrictions as set forth in subparagraphs (a)
 and (c) of the Commercial Computer Software - Restricted
 Rights clause in FAR 52.227-19.
  
 Gaussian, Inc.
 340 Quinnipiac St., Bldg. 40, Wallingford CT 06492
  
  
 ---------------------------------------------------------------
 Warning -- This program may not be used in any manner that
 competes with the business of Gaussian, Inc. or will provide
 assistance to any competitor of Gaussian, Inc.  The licensee
 of this program is prohibited from giving any competitor of
 Gaussian, Inc. access to this program.  By using this program,
 the user acknowledges that Gaussian, Inc. is engaged in the
 business of creating and licensing software in the field of
 computational chemistry and represents and warrants to the
 licensee that it is not a competitor of Gaussian, Inc. and that
 it will not use this program in any manner prohibited above.
 ---------------------------------------------------------------
  

 Cite this work as:
 Gaussian 09, Revision E.01,
 M. J. Frisch, G. W. Trucks, H. B. Schlegel, G. E. Scuseria, 
 M. A. Robb, J. R. Cheeseman, G. Scalmani, V. Barone, B. Mennucci, 
 G. A. Petersson, H. Nakatsuji, M. Caricato, X. Li, H. P. Hratchian, 
 A. F. Izmaylov, J. Bloino, G. Zheng, J. L. Sonnenberg, M. Hada, 
 M. Ehara, K. Toyota, R. Fukuda, J. Hasegawa, M. Ishida, T. Nakajima, 
 Y. Honda, O. Kitao, H. Nakai, T. Vreven, J. A. Montgomery, Jr., 
 J. E. Peralta, F. Ogliaro, M. Bearpark, J. J. Heyd, E. Brothers, 
 K. N. Kudin, V. N. Staroverov, T. Keith, R. Kobayashi, J. Normand, 
 K. Raghavachari, A. Rendell, J. C. Burant, S. S. Iyengar, J. Tomasi, 
 M. Cossi, N. Rega, J. M. Millam, M. Klene, J. E. Knox, J. B. Cross, 
 V. Bakken, C. Adamo, J. Jaramillo, R. Gomperts, R. E. Stratmann, 
 O. Yazyev, A. J. Austin, R. Cammi, C. Pomelli, J. W. Ochterski, 
 R. L. Martin, K. Morokuma, V. G. Zakrzewski, G. A. Voth, 
 P. Salvador, J. J. Dannenberg, S. Dapprich, A. D. Daniels, 
 O. Farkas, J. B. Foresman, J. V. Ortiz, J. Cioslowski, 
 and D. J. Fox, Gaussian, Inc., Wallingford CT, 2013.
 
 ******************************************
 Gaussian 09:  EM64L-G09RevE.01 30-Nov-2015
                27-Aug-2021 
 ******************************************
 %nprocshared=64
 Will use up to   64 processors via shared memory.
 %mem=128GB
 %chk=PY_M06L_PC2_OPT_FREQ.chk
 --------------------
 #p opt freq M06L/gen
 --------------------
 1/14=-1,18=20,19=15,26=3,38=1/1,3;
 2/9=110,12=2,17=6,18=5,40=1/2;
 3/5=7,11=2,16=1,25=1,30=1,71=1,74=-53/1,2,3;
 4//1;
 5/5=2,38=5/2;
 6/7=2,8=2,9=2,10=2,28=1/1;
 7//1,2,3,16;
 1/14=-1,18=20,19=15,26=3/3(2);
 2/9=110/2;
 99//99;
 2/9=110/2;
 3/5=7,6=1,11=2,16=1,25=1,30=1,71=1,74=-53,82=7/1,2,3;
 4/5=5,16=3,69=1/1;
 5/5=2,38=5/2;
 7//1,2,3,16;
 1/14=-1,18=20,19=15,26=3/3(-5);
 2/9=110/2;
 6/7=2,8=2,9=2,10=2,19=2,28=1/1;
 99/9=1/99;
 Leave Link    1 at Fri Aug 27 00:05:14 2021, MaxMem= 17179869184 cpu:         5.6
 (Enter /public3/home/sc51754/softwares/g09e01/l101.exe)
 --------------------
 PY_M06L_PC2_OPT_FREQ
 --------------------
 Symbolic Z-matrix:
 Charge =  0 Multiplicity = 1
 O                    -0.1303    2.2679    0. 
 N                    -1.13214   0.23327   0. 
 C                     0.        1.06201   0. 
 C                     1.23795   0.32011   0. 
 C                    -1.11441  -1.12189   0. 
 C                     1.25607  -1.03234   0. 
 C                     0.05856  -1.79159   0. 
 H                    -2.00762   0.73274   0. 
 H                     2.14422   0.90837   0. 
 H                    -2.07697  -1.61403   0. 
 H                     2.20675  -1.5513    0. 
 H                     0.072    -2.86964   0. 
 
 NAtoms=     12 NQM=       12 NQMF=       0 NMMI=      0 NMMIF=      0
                NMic=       0 NMicF=      0.
                    Isotopes and Nuclear Properties:
 (Nuclear quadrupole moments (NQMom) in fm**2, nuclear magnetic moments (NMagM)
  in nuclear magnetons)

  Atom         1           2           3           4           5           6           7           8           9          10
 IAtWgt=          16          14          12          12          12          12          12           1           1           1
 AtmWgt=  15.9949146  14.0030740  12.0000000  12.0000000  12.0000000  12.0000000  12.0000000   1.0078250   1.0078250   1.0078250
 NucSpn=           0           2           0           0           0           0           0           1           1           1
 AtZEff=   0.0000000   0.0000000   0.0000000   0.0000000   0.0000000   0.0000000   0.0000000   0.0000000   0.0000000   0.0000000
 NQMom=    0.0000000   2.0440000   0.0000000   0.0000000   0.0000000   0.0000000   0.0000000   0.0000000   0.0000000   0.0000000
 NMagM=    0.0000000   0.4037610   0.0000000   0.0000000   0.0000000   0.0000000   0.0000000   2.7928460   2.7928460   2.7928460
 AtZNuc=   8.0000000   7.0000000   6.0000000   6.0000000   6.0000000   6.0000000   6.0000000   1.0000000   1.0000000   1.0000000

  Atom        11          12
 IAtWgt=           1           1
 AtmWgt=   1.0078250   1.0078250
 NucSpn=           1           1
 AtZEff=   0.0000000   0.0000000
 NQMom=    0.0000000   0.0000000
 NMagM=    2.7928460   2.7928460
 AtZNuc=   1.0000000   1.0000000
 Leave Link  101 at Fri Aug 27 00:05:14 2021, MaxMem= 17179869184 cpu:         7.6
 (Enter /public3/home/sc51754/softwares/g09e01/l103.exe)

 GradGradGradGradGradGradGradGradGradGradGradGradGradGradGradGradGradGrad
 Berny optimization.
 Initialization pass.
                           ----------------------------
                           !    Initial Parameters    !
                           ! (Angstroms and Degrees)  !
 --------------------------                            --------------------------
 ! Name  Definition              Value          Derivative Info.                !
 --------------------------------------------------------------------------------
 ! R1    R(1,3)                  1.2129         estimate D2E/DX2                !
 ! R2    R(2,3)                  1.403          estimate D2E/DX2                !
 ! R3    R(2,5)                  1.3553         estimate D2E/DX2                !
 ! R4    R(2,8)                  1.0079         estimate D2E/DX2                !
 ! R5    R(3,4)                  1.4432         estimate D2E/DX2                !
 ! R6    R(4,6)                  1.3526         estimate D2E/DX2                !
 ! R7    R(4,9)                  1.0805         estimate D2E/DX2                !
 ! R8    R(5,7)                  1.3507         estimate D2E/DX2                !
 ! R9    R(5,10)                 1.0811         estimate D2E/DX2                !
 ! R10   R(6,7)                  1.4179         estimate D2E/DX2                !
 ! R11   R(6,11)                 1.0831         estimate D2E/DX2                !
 ! R12   R(7,12)                 1.0781         estimate D2E/DX2                !
 ! A1    A(3,2,5)              125.4546         estimate D2E/DX2                !
 ! A2    A(3,2,8)              114.0905         estimate D2E/DX2                !
 ! A3    A(5,2,8)              120.4549         estimate D2E/DX2                !
 ! A4    A(1,3,2)              120.0371         estimate D2E/DX2                !
 ! A5    A(1,3,4)              127.1013         estimate D2E/DX2                !
 ! A6    A(2,3,4)              112.8616         estimate D2E/DX2                !
 ! A7    A(3,4,6)              121.7019         estimate D2E/DX2                !
 ! A8    A(3,4,9)              116.0785         estimate D2E/DX2                !
 ! A9    A(6,4,9)              122.2196         estimate D2E/DX2                !
 ! A10   A(2,5,7)              120.4739         estimate D2E/DX2                !
 ! A11   A(2,5,10)             116.3305         estimate D2E/DX2                !
 ! A12   A(7,5,10)             123.1956         estimate D2E/DX2                !
 ! A13   A(4,6,7)              121.6078         estimate D2E/DX2                !
 ! A14   A(4,6,11)             119.3971         estimate D2E/DX2                !
 ! A15   A(7,6,11)             118.9951         estimate D2E/DX2                !
 ! A16   A(5,7,6)              117.9002         estimate D2E/DX2                !
 ! A17   A(5,7,12)             120.4381         estimate D2E/DX2                !
 ! A18   A(6,7,12)             121.6617         estimate D2E/DX2                !
 ! D1    D(5,2,3,1)            180.0            estimate D2E/DX2                !
 ! D2    D(5,2,3,4)              0.0            estimate D2E/DX2                !
 ! D3    D(8,2,3,1)              0.0            estimate D2E/DX2                !
 ! D4    D(8,2,3,4)            180.0            estimate D2E/DX2                !
 ! D5    D(3,2,5,7)              0.0            estimate D2E/DX2                !
 ! D6    D(3,2,5,10)           180.0            estimate D2E/DX2                !
 ! D7    D(8,2,5,7)            180.0            estimate D2E/DX2                !
 ! D8    D(8,2,5,10)             0.0            estimate D2E/DX2                !
 ! D9    D(1,3,4,6)            180.0            estimate D2E/DX2                !
 ! D10   D(1,3,4,9)              0.0            estimate D2E/DX2                !
 ! D11   D(2,3,4,6)              0.0            estimate D2E/DX2                !
 ! D12   D(2,3,4,9)            180.0            estimate D2E/DX2                !
 ! D13   D(3,4,6,7)              0.0            estimate D2E/DX2                !
 ! D14   D(3,4,6,11)           180.0            estimate D2E/DX2                !
 ! D15   D(9,4,6,7)            180.0            estimate D2E/DX2                !
 ! D16   D(9,4,6,11)             0.0            estimate D2E/DX2                !
 ! D17   D(2,5,7,6)              0.0            estimate D2E/DX2                !
 ! D18   D(2,5,7,12)           180.0            estimate D2E/DX2                !
 ! D19   D(10,5,7,6)           180.0            estimate D2E/DX2                !
 ! D20   D(10,5,7,12)            0.0            estimate D2E/DX2                !
 ! D21   D(4,6,7,5)              0.0            estimate D2E/DX2                !
 ! D22   D(4,6,7,12)           180.0            estimate D2E/DX2                !
 ! D23   D(11,6,7,5)           180.0            estimate D2E/DX2                !
 ! D24   D(11,6,7,12)            0.0            estimate D2E/DX2                !
 --------------------------------------------------------------------------------
 Trust Radius=3.00D-01 FncErr=1.00D-07 GrdErr=1.00D-06
 Number of steps in this run=     64 maximum allowed number of steps=    100.
 GradGradGradGradGradGradGradGradGradGradGradGradGradGradGradGradGradGrad

 Leave Link  103 at Fri Aug 27 00:05:14 2021, MaxMem= 17179869184 cpu:         0.2
 (Enter /public3/home/sc51754/softwares/g09e01/l202.exe)
                          Input orientation:                          
 ---------------------------------------------------------------------
 Center     Atomic      Atomic             Coordinates (Angstroms)
 Number     Number       Type             X           Y           Z
 ---------------------------------------------------------------------
      1          8           0       -0.130304    2.267896    0.000000
      2          7           0       -1.132141    0.233271    0.000000
      3          6           0        0.000000    1.062005    0.000000
      4          6           0        1.237945    0.320111    0.000000
      5          6           0       -1.114407   -1.121885    0.000000
      6          6           0        1.256071   -1.032342    0.000000
      7          6           0        0.058564   -1.791590    0.000000
      8          1           0       -2.007624    0.732742    0.000000
      9          1           0        2.144218    0.908369    0.000000
     10          1           0       -2.076968   -1.614034    0.000000
     11          1           0        2.206750   -1.551299    0.000000
     12          1           0        0.071999   -2.869636    0.000000
 ---------------------------------------------------------------------
                    Distance matrix (angstroms):
                    1          2          3          4          5
     1  O    0.000000
     2  N    2.267901   0.000000
     3  C    1.212911   1.403048   0.000000
     4  C    2.380330   2.371676   1.443231   0.000000
     5  C    3.529741   1.355272   2.451791   2.759151   0.000000
     6  C    3.579610   2.702838   2.442131   1.352574   2.372169
     7  C    4.063877   2.349008   2.854196   2.418723   1.350691
     8  H    2.425083   1.007939   2.034445   3.271694   2.058514
     9  H    2.649861   3.345188   2.149715   1.080453   3.839345
    10  H    4.342681   2.074906   3.387474   3.837912   1.081080
    11  H    4.477507   3.785879   3.420395   2.107311   3.348803
    12  H    5.141514   3.328361   3.932300   3.396162   2.112390
                    6          7          8          9         10
     6  C    0.000000
     7  C    1.417914   0.000000
     8  H    3.710421   3.262114   0.000000
     9  H    2.134283   3.411705   4.155555   0.000000
    10  H    3.383418   2.142901   2.347800   4.917411   0.000000
    11  H    1.083101   2.161583   4.793516   2.460463   4.284177
    12  H    2.185790   1.078130   4.159562   4.308992   2.488894
                   11         12
    11  H    0.000000
    12  H    2.509019   0.000000
 Stoichiometry    C5H5NO
 Framework group  CS[SG(C5H5NO)]
 Deg. of freedom    21
 Full point group                 CS      NOp   2
 Largest Abelian subgroup         CS      NOp   2
 Largest concise Abelian subgroup C1      NOp   1
                         Standard orientation:                         
 ---------------------------------------------------------------------
 Center     Atomic      Atomic             Coordinates (Angstroms)
 Number     Number       Type             X           Y           Z
 ---------------------------------------------------------------------
      1          8           0       -0.130304    2.267896    0.000000
      2          7           0       -1.132141    0.233271    0.000000
      3          6           0       -0.000000    1.062005    0.000000
      4          6           0        1.237945    0.320111   -0.000000
      5          6           0       -1.114407   -1.121885    0.000000
      6          6           0        1.256071   -1.032342   -0.000000
      7          6           0        0.058564   -1.791590   -0.000000
      8          1           0       -2.007624    0.732742    0.000000
      9          1           0        2.144218    0.908369   -0.000000
     10          1           0       -2.076968   -1.614034    0.000000
     11          1           0        2.206750   -1.551299   -0.000000
     12          1           0        0.071999   -2.869636   -0.000000
 ---------------------------------------------------------------------
 Rotational constants (GHZ):      5.7341355      2.8228169      1.8916098
 Leave Link  202 at Fri Aug 27 00:05:14 2021, MaxMem= 17179869184 cpu:         7.0
 (Enter /public3/home/sc51754/softwares/g09e01/l301.exe)
 General basis read from cards:  (5D, 7F)
 Centers:       8      9     10     11     12
 S 4 1.00
     Exponent=  7.5423000000D+01 Coefficients=  2.4065000000D-03
     Exponent=  1.1350000000D+01 Coefficients=  1.8487000000D-02
     Exponent=  2.5993000000D+00 Coefficients=  8.9742000000D-02
     Exponent=  7.3513000000D-01 Coefficients=  2.8111000000D-01
 S 1 1.00
     Exponent=  2.3167000000D-01 Coefficients=  1.0000000000D+00
 S 1 1.00
     Exponent=  7.4147000000D-02 Coefficients=  1.0000000000D+00
 P 1 1.00
     Exponent=  1.6000000000D+00 Coefficients=  1.0000000000D+00
 P 1 1.00
     Exponent=  4.5000000000D-01 Coefficients=  1.0000000000D+00
 D 1 1.00
     Exponent=  1.2500000000D+00 Coefficients=  1.0000000000D+00
 ****
 Centers:       3      4      5      6      7
 S 7 1.00
     Exponent=  7.8571000000D+03 Coefficients=  5.6825000000D-04
     Exponent=  1.1787000000D+03 Coefficients=  4.3915000000D-03
     Exponent=  2.6832000000D+02 Coefficients=  2.2504000000D-02
     Exponent=  7.5948000000D+01 Coefficients=  8.6653000000D-02
     Exponent=  2.4559000000D+01 Coefficients=  2.4405000000D-01
     Exponent=  8.6212000000D+00 Coefficients=  4.4148000000D-01
     Exponent=  3.1278000000D+00 Coefficients=  3.5332000000D-01
 S 7 1.00
     Exponent=  1.1787000000D+03 Coefficients= -5.9492000000D-07
     Exponent=  2.6832000000D+02 Coefficients= -6.2748000000D-05
     Exponent=  7.5948000000D+01 Coefficients= -7.5773000000D-04
     Exponent=  2.4559000000D+01 Coefficients= -7.3308000000D-03
     Exponent=  8.6212000000D+00 Coefficients= -3.8932000000D-02
     Exponent=  3.1278000000D+00 Coefficients= -8.8908000000D-02
     Exponent=  8.2202000000D-01 Coefficients=  2.1689000000D-01
 S 1 1.00
     Exponent=  3.3017000000D-01 Coefficients=  1.0000000000D+00
 S 1 1.00
     Exponent=  1.1463000000D-01 Coefficients=  1.0000000000D+00
 P 4 1.00
     Exponent=  3.3775000000D+01 Coefficients=  6.0294000000D-03
     Exponent=  7.6766000000D+00 Coefficients=  4.3228000000D-02
     Exponent=  2.2357000000D+00 Coefficients=  1.6301000000D-01
     Exponent=  7.6447000000D-01 Coefficients=  3.6504000000D-01
 P 1 1.00
     Exponent=  2.6232000000D-01 Coefficients=  1.0000000000D+00
 P 1 1.00
     Exponent=  8.4638000000D-02 Coefficients=  1.0000000000D+00
 D 1 1.00
     Exponent=  1.4000000000D+00 Coefficients=  1.0000000000D+00
 D 1 1.00
     Exponent=  4.5000000000D-01 Coefficients=  1.0000000000D+00
 F 1 1.00
     Exponent=  9.5000000000D-01 Coefficients=  1.0000000000D+00
 ****
 Centers:       2
 S 7 1.00
     Exponent=  1.1101000000D+04 Coefficients=  5.4570000000D-04
     Exponent=  1.6653000000D+03 Coefficients=  4.2181000000D-03
     Exponent=  3.7908000000D+02 Coefficients=  2.1645000000D-02
     Exponent=  1.0730000000D+02 Coefficients=  8.3776000000D-02
     Exponent=  3.4747000000D+01 Coefficients=  2.3881000000D-01
     Exponent=  1.2249000000D+01 Coefficients=  4.3994000000D-01
     Exponent=  4.4743000000D+00 Coefficients=  3.6364000000D-01
 S 7 1.00
     Exponent=  1.6653000000D+03 Coefficients= -1.5006000000D-06
     Exponent=  3.7908000000D+02 Coefficients= -5.8753000000D-05
     Exponent=  1.0730000000D+02 Coefficients= -7.7453000000D-04
     Exponent=  3.4747000000D+01 Coefficients= -7.2161000000D-03
     Exponent=  1.2249000000D+01 Coefficients= -3.9338000000D-02
     Exponent=  4.4743000000D+00 Coefficients= -9.0611000000D-02
     Exponent=  1.2404000000D+00 Coefficients=  1.9882000000D-01
 S 1 1.00
     Exponent=  4.8743000000D-01 Coefficients=  1.0000000000D+00
 S 1 1.00
     Exponent=  1.6484000000D-01 Coefficients=  1.0000000000D+00
 P 4 1.00
     Exponent=  4.7934000000D+01 Coefficients=  6.1706000000D-03
     Exponent=  1.0999000000D+01 Coefficients=  4.4260000000D-02
     Exponent=  3.2472000000D+00 Coefficients=  1.6825000000D-01
     Exponent=  1.1114000000D+00 Coefficients=  3.6848000000D-01
 P 1 1.00
     Exponent=  3.7988000000D-01 Coefficients=  1.0000000000D+00
 P 1 1.00
     Exponent=  1.2068000000D-01 Coefficients=  1.0000000000D+00
 D 1 1.00
     Exponent=  1.8000000000D+00 Coefficients=  1.0000000000D+00
 D 1 1.00
     Exponent=  5.5000000000D-01 Coefficients=  1.0000000000D+00
 F 1 1.00
     Exponent=  1.0200000000D+00 Coefficients=  1.0000000000D+00
 ****
 Centers:       1
 S 7 1.00
     Exponent=  1.4782000000D+04 Coefficients=  5.3519000000D-04
     Exponent=  2.2173000000D+03 Coefficients=  4.1375000000D-03
     Exponent=  5.0474000000D+02 Coefficients=  2.1245000000D-02
     Exponent=  1.4287000000D+02 Coefficients=  8.2453000000D-02
     Exponent=  4.6300000000D+01 Coefficients=  2.3671000000D-01
     Exponent=  1.6337000000D+01 Coefficients=  4.4039000000D-01
     Exponent=  5.9828000000D+00 Coefficients=  3.6465000000D-01
 S 7 1.00
     Exponent=  2.2173000000D+03 Coefficients= -1.9275000000D-06
     Exponent=  5.0474000000D+02 Coefficients= -5.7964000000D-05
     Exponent=  1.4287000000D+02 Coefficients= -7.9494000000D-04
     Exponent=  4.6300000000D+01 Coefficients= -7.3125000000D-03
     Exponent=  1.6337000000D+01 Coefficients= -4.0574000000D-02
     Exponent=  5.9828000000D+00 Coefficients= -9.1594000000D-02
     Exponent=  1.6718000000D+00 Coefficients=  2.0940000000D-01
 S 1 1.00
     Exponent=  6.4662000000D-01 Coefficients=  1.0000000000D+00
 S 1 1.00
     Exponent=  2.1669000000D-01 Coefficients=  1.0000000000D+00
 P 4 1.00
     Exponent=  6.0424000000D+01 Coefficients=  6.8949000000D-03
     Exponent=  1.3935000000D+01 Coefficients=  4.9005000000D-02
     Exponent=  4.1531000000D+00 Coefficients=  1.8255000000D-01
     Exponent=  1.4158000000D+00 Coefficients=  3.7633000000D-01
 P 1 1.00
     Exponent=  4.7549000000D-01 Coefficients=  1.0000000000D+00
 P 1 1.00
     Exponent=  1.4529000000D-01 Coefficients=  1.0000000000D+00
 D 1 1.00
     Exponent=  2.2000000000D+00 Coefficients=  1.0000000000D+00
 D 1 1.00
     Exponent=  6.5000000000D-01 Coefficients=  1.0000000000D+00
 F 1 1.00
     Exponent=  1.1000000000D+00 Coefficients=  1.0000000000D+00
 ****
 Ernie: Thresh=  0.10000D-02 Tol=  0.10000D-05 Strict=F.
 Ernie:  7 primitive shells out of 220 were deleted.
 There are   223 symmetry adapted cartesian basis functions of A'  symmetry.
 There are    97 symmetry adapted cartesian basis functions of A"  symmetry.
 There are   190 symmetry adapted basis functions of A'  symmetry.
 There are    90 symmetry adapted basis functions of A"  symmetry.
   280 basis functions,   475 primitive gaussians,   320 cartesian basis functions
    25 alpha electrons       25 beta electrons
       nuclear repulsion energy       276.8386644497 Hartrees.
 IExCor= 4134 DFT=T Ex+Corr=M06L ExCW=0 ScaHFX=  0.000000
 ScaDFX=  1.000000  1.000000  1.000000  1.000000 ScalE2=  1.000000  1.000000
 IRadAn=      0 IRanWt=     -1 IRanGd=            0 ICorTp=0 IEmpDi=  4
 NAtoms=   12 NActive=   12 NUniq=   12 SFac= 1.00D+00 NAtFMM=   60 NAOKFM=F Big=F
 Integral buffers will be    131072 words long.
 Raffenetti 2 integral format.
 Two-electron integral symmetry is turned on.
 Leave Link  301 at Fri Aug 27 00:05:15 2021, MaxMem= 17179869184 cpu:         1.6
 (Enter /public3/home/sc51754/softwares/g09e01/l302.exe)
 NPDir=0 NMtPBC=     1 NCelOv=     1 NCel=       1 NClECP=     1 NCelD=      1
         NCelK=      1 NCelE2=     1 NClLst=     1 CellRange=     0.0.
 One-electron integrals computed using PRISM.
 NBasis=   280 RedAO= T EigKep=  2.29D-04  NBF=   190    90
 NBsUse=   280 1.00D-06 EigRej= -1.00D+00 NBFU=   190    90
 Precomputing XC quadrature grid using
 IXCGrd= 4 IRadAn=           0 IRanWt=          -1 IRanGd=           0 AccXCQ= 0.00D+00.
 Generated NRdTot=       0 NPtTot=           0 NUsed=           0 NTot=          32
 NSgBfM=   320   320   320   320   320 MxSgAt=    12 MxSgA2=    12.
 Leave Link  302 at Fri Aug 27 00:05:15 2021, MaxMem= 17179869184 cpu:        43.5
 (Enter /public3/home/sc51754/softwares/g09e01/l303.exe)
 DipDrv:  MaxL=1.
 Leave Link  303 at Fri Aug 27 00:05:16 2021, MaxMem= 17179869184 cpu:        12.5
 (Enter /public3/home/sc51754/softwares/g09e01/l401.exe)
 ExpMin= 7.41D-02 ExpMax= 1.48D+04 ExpMxC= 5.05D+02 IAcc=2 IRadAn=         4 AccDes= 0.00D+00
 Harris functional with IExCor= 1009 and IRadAn=       4 diagonalized for initial guess.
 HarFok:  IExCor= 1009 AccDes= 0.00D+00 IRadAn=         4 IDoV= 1 UseB2=F ITyADJ=14
 ICtDFT=  3500011 ScaDFX=  1.000000  1.000000  1.000000  1.000000
 FoFCou: FMM=F IPFlag=           0 FMFlag=      100000 FMFlg1=           0
         NFxFlg=           0 DoJE=T BraDBF=F KetDBF=T FulRan=T
         wScrn=  0.000000 ICntrl=     500 IOpCl=  0 I1Cent=   200000004 NGrid=           0
         NMat0=    1 NMatS0=      1 NMatT0=    0 NMatD0=    1 NMtDS0=    0 NMtDT0=    0
 Petite list used in FoFCou.
 Harris En= -323.391688734430    
 JPrj=0 DoOrth=F DoCkMO=F.
 Initial guess orbital symmetries:
       Occupied  (A') (A') (A') (A') (A') (A') (A') (A') (A') (A')
                 (A') (A') (A') (A') (A') (A') (A') (A') (A") (A')
                 (A') (A") (A") (A') (A")
       Virtual   (A") (A") (A') (A') (A") (A') (A') (A') (A') (A')
                 (A') (A') (A") (A') (A") (A') (A") (A') (A') (A')
                 (A') (A') (A") (A') (A") (A') (A') (A') (A') (A')
                 (A") (A') (A') (A') (A") (A') (A') (A') (A') (A')
                 (A') (A') (A") (A') (A') (A') (A") (A') (A") (A")
                 (A') (A") (A') (A') (A") (A') (A') (A') (A') (A")
                 (A') (A") (A') (A') (A") (A') (A") (A') (A") (A")
                 (A') (A') (A') (A") (A') (A") (A') (A") (A') (A')
                 (A") (A') (A") (A') (A") (A') (A') (A') (A") (A")
                 (A') (A') (A") (A') (A') (A') (A') (A") (A') (A')
                 (A') (A') (A") (A') (A') (A') (A") (A') (A') (A')
                 (A") (A') (A') (A') (A') (A') (A") (A') (A') (A")
                 (A') (A') (A") (A') (A') (A") (A") (A") (A') (A")
                 (A') (A') (A") (A') (A") (A') (A') (A") (A') (A')
                 (A') (A') (A") (A') (A") (A') (A') (A') (A') (A')
                 (A') (A") (A") (A") (A") (A') (A") (A") (A') (A")
                 (A') (A") (A') (A') (A") (A') (A') (A') (A') (A")
                 (A') (A") (A') (A") (A") (A') (A') (A") (A") (A")
                 (A') (A") (A') (A") (A") (A') (A') (A") (A') (A")
                 (A') (A") (A') (A") (A') (A") (A') (A') (A") (A')
                 (A') (A') (A") (A") (A') (A') (A") (A') (A') (A')
                 (A") (A') (A') (A") (A') (A") (A') (A") (A') (A')
                 (A") (A') (A") (A') (A") (A') (A') (A') (A") (A')
                 (A') (A') (A') (A") (A') (A") (A') (A') (A') (A')
                 (A') (A") (A') (A') (A') (A') (A') (A') (A') (A')
                 (A') (A') (A') (A') (A')
 The electronic state of the initial guess is 1-A'.
 Leave Link  401 at Fri Aug 27 00:05:17 2021, MaxMem= 17179869184 cpu:        50.0
 (Enter /public3/home/sc51754/softwares/g09e01/l502.exe)
 Closed shell SCF:
 Using DIIS extrapolation, IDIIS=  1040.
 Integral symmetry usage will be decided dynamically.
 Keep J ints in memory in symmetry-blocked form, NReq=1167802198.
 IVT=      348658 IEndB=      348658 NGot= 17179869184 MDV= 16785904737
 LenX= 16785904737 LenY= 16785801896
 Requested convergence on RMS density matrix=1.00D-08 within 128 cycles.
 Requested convergence on MAX density matrix=1.00D-06.
 Requested convergence on             energy=1.00D-06.
 No special actions if energy rises.
 FoFCou: FMM=F IPFlag=           0 FMFlag=           0 FMFlg1=           0
         NFxFlg=           0 DoJE=F BraDBF=F KetDBF=F FulRan=T
         wScrn=  0.000000 ICntrl=     600 IOpCl=  0 I1Cent=           0 NGrid=           0
         NMat0=    1 NMatS0=  39340 NMatT0=    0 NMatD0=    1 NMtDS0=    0 NMtDT0=    0
 Petite list used in FoFCou.
 Integral accuracy reduced to 1.0D-05 until final iterations.

 Cycle   1  Pass 0  IDiag  1:
 E= -323.406847346347    
 DIIS: error= 2.77D-02 at cycle   1 NSaved=   1.
 NSaved= 1 IEnMin= 1 EnMin= -323.406847346347     IErMin= 1 ErrMin= 2.77D-02
 ErrMax= 2.77D-02  0.00D+00 EMaxC= 1.00D-01 BMatC= 2.35D-01 BMatP= 2.35D-01
 IDIUse=3 WtCom= 7.23D-01 WtEn= 2.77D-01
 Coeff-Com:  0.100D+01
 Coeff-En:   0.100D+01
 Coeff:      0.100D+01
 Gap=     0.064 Goal=   None    Shift=    0.000
 GapD=    0.064 DampG=0.500 DampE=0.500 DampFc=0.2500 IDamp=-1.
 Damping current iteration by 2.50D-01
 RMSDP=4.58D-03 MaxDP=1.65D-01              OVMax= 4.46D-01

 Cycle   2  Pass 0  IDiag  1:
 E= -323.466812768853     Delta-E=       -0.059965422506 Rises=F Damp=T
 DIIS: error= 1.48D-02 at cycle   2 NSaved=   2.
 NSaved= 2 IEnMin= 2 EnMin= -323.466812768853     IErMin= 2 ErrMin= 1.48D-02
 ErrMax= 1.48D-02  0.00D+00 EMaxC= 1.00D-01 BMatC= 5.30D-02 BMatP= 2.35D-01
 IDIUse=3 WtCom= 8.52D-01 WtEn= 1.48D-01
 Coeff-Com: -0.403D+00 0.140D+01
 Coeff-En:   0.000D+00 0.100D+01
 Coeff:     -0.343D+00 0.134D+01
 Gap=     0.127 Goal=   None    Shift=    0.000
 RMSDP=1.79D-03 MaxDP=5.42D-02 DE=-6.00D-02 OVMax= 4.29D-01

 Cycle   3  Pass 0  IDiag  1:
 E= -323.533353467769     Delta-E=       -0.066540698916 Rises=F Damp=F
 DIIS: error= 1.77D-02 at cycle   3 NSaved=   3.
 NSaved= 3 IEnMin= 3 EnMin= -323.533353467769     IErMin= 2 ErrMin= 1.48D-02
 ErrMax= 1.77D-02  0.00D+00 EMaxC= 1.00D-01 BMatC= 6.85D-02 BMatP= 5.30D-02
 IDIUse=2 WtCom= 0.00D+00 WtEn= 1.00D+00
 Coeff-En:   0.000D+00 0.844D-01 0.916D+00
 Coeff:      0.000D+00 0.844D-01 0.916D+00
 Gap=     0.052 Goal=   None    Shift=    0.000
 RMSDP=2.72D-03 MaxDP=1.18D-01 DE=-6.65D-02 OVMax= 4.98D-01

 Cycle   4  Pass 0  IDiag  1:
 E= -323.116411682361     Delta-E=        0.416941785408 Rises=F Damp=F
 DIIS: error= 5.40D-02 at cycle   4 NSaved=   4.
 NSaved= 4 IEnMin= 3 EnMin= -323.533353467769     IErMin= 2 ErrMin= 1.48D-02
 ErrMax= 5.40D-02  0.00D+00 EMaxC= 1.00D-01 BMatC= 5.29D-01 BMatP= 5.30D-02
 IDIUse=2 WtCom= 0.00D+00 WtEn= 1.00D+00
 Coeff-En:   0.000D+00 0.000D+00 0.816D+00 0.184D+00
 Coeff:      0.000D+00 0.000D+00 0.816D+00 0.184D+00
 Gap=     0.107 Goal=   None    Shift=    0.000
 RMSDP=1.61D-03 MaxDP=6.66D-02 DE= 4.17D-01 OVMax= 2.89D-01

 Cycle   5  Pass 0  IDiag  1:
 E= -323.558600535041     Delta-E=       -0.442188852680 Rises=F Damp=F
 DIIS: error= 1.46D-02 at cycle   5 NSaved=   5.
 NSaved= 5 IEnMin= 5 EnMin= -323.558600535041     IErMin= 5 ErrMin= 1.46D-02
 ErrMax= 1.46D-02  0.00D+00 EMaxC= 1.00D-01 BMatC= 4.26D-02 BMatP= 5.30D-02
 IDIUse=3 WtCom= 8.54D-01 WtEn= 1.46D-01
 Coeff-Com: -0.755D-01 0.127D+00 0.390D+00-0.573D-01 0.616D+00
 Coeff-En:   0.000D+00 0.000D+00 0.413D+00 0.000D+00 0.587D+00
 Coeff:     -0.645D-01 0.109D+00 0.393D+00-0.490D-01 0.612D+00
 Gap=     0.136 Goal=   None    Shift=    0.000
 RMSDP=5.57D-04 MaxDP=2.22D-02 DE=-4.42D-01 OVMax= 1.11D-01

 Cycle   6  Pass 0  IDiag  1:
 E= -323.597859278158     Delta-E=       -0.039258743117 Rises=F Damp=F
 DIIS: error= 1.82D-03 at cycle   6 NSaved=   6.
 NSaved= 6 IEnMin= 6 EnMin= -323.597859278158     IErMin= 6 ErrMin= 1.82D-03
 ErrMax= 1.82D-03  0.00D+00 EMaxC= 1.00D-01 BMatC= 5.79D-04 BMatP= 4.26D-02
 IDIUse=3 WtCom= 9.82D-01 WtEn= 1.82D-02
 Coeff-Com: -0.508D-01 0.736D-01 0.191D+00-0.509D-01 0.375D+00 0.462D+00
 Coeff-En:   0.000D+00 0.000D+00 0.000D+00 0.000D+00 0.000D+00 0.100D+01
 Coeff:     -0.498D-01 0.723D-01 0.188D+00-0.500D-01 0.368D+00 0.472D+00
 Gap=     0.135 Goal=   None    Shift=    0.000
 RMSDP=8.66D-05 MaxDP=3.54D-03 DE=-3.93D-02 OVMax= 1.49D-02

 Cycle   7  Pass 0  IDiag  1:
 E= -323.598361784741     Delta-E=       -0.000502506583 Rises=F Damp=F
 DIIS: error= 8.49D-04 at cycle   7 NSaved=   7.
 NSaved= 7 IEnMin= 7 EnMin= -323.598361784741     IErMin= 7 ErrMin= 8.49D-04
 ErrMax= 8.49D-04  0.00D+00 EMaxC= 1.00D-01 BMatC= 8.98D-05 BMatP= 5.79D-04
 IDIUse=3 WtCom= 9.92D-01 WtEn= 8.49D-03
 Coeff-Com: -0.119D-01 0.134D-01 0.594D-01-0.168D-01 0.117D+00 0.291D+00
 Coeff-Com:  0.549D+00
 Coeff-En:   0.000D+00 0.000D+00 0.000D+00 0.000D+00 0.000D+00 0.165D+00
 Coeff-En:   0.835D+00
 Coeff:     -0.118D-01 0.133D-01 0.589D-01-0.166D-01 0.116D+00 0.289D+00
 Coeff:      0.551D+00
 Gap=     0.134 Goal=   None    Shift=    0.000
 RMSDP=3.99D-05 MaxDP=1.41D-03 DE=-5.03D-04 OVMax= 7.52D-03

 Cycle   8  Pass 0  IDiag  1:
 E= -323.598446382231     Delta-E=       -0.000084597490 Rises=F Damp=F
 DIIS: error= 2.20D-04 at cycle   8 NSaved=   8.
 NSaved= 8 IEnMin= 8 EnMin= -323.598446382231     IErMin= 8 ErrMin= 2.20D-04
 ErrMax= 2.20D-04  0.00D+00 EMaxC= 1.00D-01 BMatC= 1.37D-05 BMatP= 8.98D-05
 IDIUse=3 WtCom= 9.98D-01 WtEn= 2.20D-03
 Coeff-Com:  0.612D-03-0.241D-02 0.932D-02-0.200D-02 0.119D-01 0.116D+00
 Coeff-Com:  0.365D+00 0.502D+00
 Coeff-En:   0.000D+00 0.000D+00 0.000D+00 0.000D+00 0.000D+00 0.000D+00
 Coeff-En:   0.803D-01 0.920D+00
 Coeff:      0.610D-03-0.240D-02 0.930D-02-0.200D-02 0.119D-01 0.116D+00
 Coeff:      0.364D+00 0.503D+00
 Gap=     0.135 Goal=   None    Shift=    0.000
 RMSDP=1.16D-05 MaxDP=4.69D-04 DE=-8.46D-05 OVMax= 2.04D-03

 Cycle   9  Pass 0  IDiag  1:
 E= -323.598459236355     Delta-E=       -0.000012854124 Rises=F Damp=F
 DIIS: error= 5.70D-05 at cycle   9 NSaved=   9.
 NSaved= 9 IEnMin= 9 EnMin= -323.598459236355     IErMin= 9 ErrMin= 5.70D-05
 ErrMax= 5.70D-05  0.00D+00 EMaxC= 1.00D-01 BMatC= 3.80D-07 BMatP= 1.37D-05
 IDIUse=1 WtCom= 1.00D+00 WtEn= 0.00D+00
 Coeff-Com:  0.180D-03-0.209D-03-0.114D-02 0.211D-03-0.488D-02 0.225D-01
 Coeff-Com:  0.945D-01 0.195D+00 0.694D+00
 Coeff:      0.180D-03-0.209D-03-0.114D-02 0.211D-03-0.488D-02 0.225D-01
 Coeff:      0.945D-01 0.195D+00 0.694D+00
 Gap=     0.135 Goal=   None    Shift=    0.000
 RMSDP=3.40D-06 MaxDP=1.22D-04 DE=-1.29D-05 OVMax= 5.33D-04

 Initial convergence to 1.0D-05 achieved.  Increase integral accuracy.
 Cycle  10  Pass 1  IDiag  1:
 E= -323.598525337191     Delta-E=       -0.000066100837 Rises=F Damp=F
 DIIS: error= 5.09D-04 at cycle   1 NSaved=   1.
 NSaved= 1 IEnMin= 1 EnMin= -323.598525337191     IErMin= 1 ErrMin= 5.09D-04
 ErrMax= 5.09D-04  0.00D+00 EMaxC= 1.00D-01 BMatC= 7.31D-05 BMatP= 7.31D-05
 IDIUse=3 WtCom= 9.95D-01 WtEn= 5.09D-03
 Coeff-Com:  0.100D+01
 Coeff-En:   0.100D+01
 Coeff:      0.100D+01
 Gap=     0.134 Goal=   None    Shift=    0.000
 RMSDP=3.40D-06 MaxDP=1.22D-04 DE=-6.61D-05 OVMax= 1.36D-03

 Cycle  11  Pass 1  IDiag  1:
 E= -323.598552073061     Delta-E=       -0.000026735869 Rises=F Damp=F
 DIIS: error= 2.17D-04 at cycle   2 NSaved=   2.
 NSaved= 2 IEnMin= 2 EnMin= -323.598552073061     IErMin= 2 ErrMin= 2.17D-04
 ErrMax= 2.17D-04  0.00D+00 EMaxC= 1.00D-01 BMatC= 5.80D-06 BMatP= 7.31D-05
 IDIUse=3 WtCom= 9.98D-01 WtEn= 2.17D-03
 Coeff-Com:  0.153D+00 0.847D+00
 Coeff-En:   0.000D+00 0.100D+01
 Coeff:      0.152D+00 0.848D+00
 Gap=     0.135 Goal=   None    Shift=    0.000
 RMSDP=1.50D-05 MaxDP=6.22D-04 DE=-2.67D-05 OVMax= 2.59D-03

 Cycle  12  Pass 1  IDiag  1:
 E= -323.598545760259     Delta-E=        0.000006312801 Rises=F Damp=F
 DIIS: error= 3.76D-04 at cycle   3 NSaved=   3.
 NSaved= 3 IEnMin= 2 EnMin= -323.598552073061     IErMin= 2 ErrMin= 2.17D-04
 ErrMax= 3.76D-04  0.00D+00 EMaxC= 1.00D-01 BMatC= 9.47D-06 BMatP= 5.80D-06
 IDIUse=3 WtCom= 3.40D-01 WtEn= 6.60D-01
 Coeff-Com:  0.605D-01 0.564D+00 0.376D+00
 Coeff-En:   0.000D+00 0.669D+00 0.331D+00
 Coeff:      0.206D-01 0.633D+00 0.346D+00
 Gap=     0.134 Goal=   None    Shift=    0.000
 RMSDP=9.76D-06 MaxDP=4.33D-04 DE= 6.31D-06 OVMax= 1.90D-03

 Cycle  13  Pass 1  IDiag  1:
 E= -323.598556496083     Delta-E=       -0.000010735824 Rises=F Damp=F
 DIIS: error= 3.65D-05 at cycle   4 NSaved=   4.
 NSaved= 4 IEnMin= 4 EnMin= -323.598556496083     IErMin= 4 ErrMin= 3.65D-05
 ErrMax= 3.65D-05  0.00D+00 EMaxC= 1.00D-01 BMatC= 2.80D-07 BMatP= 5.80D-06
 IDIUse=1 WtCom= 1.00D+00 WtEn= 0.00D+00
 Coeff-Com:  0.403D-02 0.201D+00 0.144D+00 0.651D+00
 Coeff:      0.403D-02 0.201D+00 0.144D+00 0.651D+00
 Gap=     0.135 Goal=   None    Shift=    0.000
 RMSDP=2.04D-06 MaxDP=7.21D-05 DE=-1.07D-05 OVMax= 3.04D-04

 Cycle  14  Pass 1  IDiag  1:
 E= -323.598556595896     Delta-E=       -0.000000099812 Rises=F Damp=F
 DIIS: error= 2.51D-05 at cycle   5 NSaved=   5.
 NSaved= 5 IEnMin= 5 EnMin= -323.598556595896     IErMin= 5 ErrMin= 2.51D-05
 ErrMax= 2.51D-05  0.00D+00 EMaxC= 1.00D-01 BMatC= 1.52D-07 BMatP= 2.80D-07
 IDIUse=1 WtCom= 1.00D+00 WtEn= 0.00D+00
 Coeff-Com: -0.229D-02 0.921D-01 0.694D-01 0.449D+00 0.392D+00
 Coeff:     -0.229D-02 0.921D-01 0.694D-01 0.449D+00 0.392D+00
 Gap=     0.134 Goal=   None    Shift=    0.000
 RMSDP=1.12D-06 MaxDP=5.46D-05 DE=-9.98D-08 OVMax= 1.67D-04

 Cycle  15  Pass 1  IDiag  1:
 E= -323.598556717064     Delta-E=       -0.000000121169 Rises=F Damp=F
 DIIS: error= 7.31D-06 at cycle   6 NSaved=   6.
 NSaved= 6 IEnMin= 6 EnMin= -323.598556717064     IErMin= 6 ErrMin= 7.31D-06
 ErrMax= 7.31D-06  0.00D+00 EMaxC= 1.00D-01 BMatC= 1.55D-08 BMatP= 1.52D-07
 IDIUse=1 WtCom= 1.00D+00 WtEn= 0.00D+00
 Coeff-Com: -0.204D-02 0.383D-01 0.295D-01 0.228D+00 0.267D+00 0.439D+00
 Coeff:     -0.204D-02 0.383D-01 0.295D-01 0.228D+00 0.267D+00 0.439D+00
 Gap=     0.134 Goal=   None    Shift=    0.000
 RMSDP=3.83D-07 MaxDP=1.97D-05 DE=-1.21D-07 OVMax= 4.22D-05

 Cycle  16  Pass 1  IDiag  1:
 E= -323.598556728788     Delta-E=       -0.000000011723 Rises=F Damp=F
 DIIS: error= 1.41D-06 at cycle   7 NSaved=   7.
 NSaved= 7 IEnMin= 7 EnMin= -323.598556728788     IErMin= 7 ErrMin= 1.41D-06
 ErrMax= 1.41D-06  0.00D+00 EMaxC= 1.00D-01 BMatC= 6.97D-10 BMatP= 1.55D-08
 IDIUse=1 WtCom= 1.00D+00 WtEn= 0.00D+00
 Coeff-Com: -0.571D-03 0.148D-02 0.166D-02 0.265D-01 0.594D-01 0.210D+00
 Coeff-Com:  0.701D+00
 Coeff:     -0.571D-03 0.148D-02 0.166D-02 0.265D-01 0.594D-01 0.210D+00
 Coeff:      0.701D+00
 Gap=     0.134 Goal=   None    Shift=    0.000
 RMSDP=1.03D-07 MaxDP=3.52D-06 DE=-1.17D-08 OVMax= 8.56D-06

 Cycle  17  Pass 1  IDiag  1:
 E= -323.598556729271     Delta-E=       -0.000000000483 Rises=F Damp=F
 DIIS: error= 7.21D-07 at cycle   8 NSaved=   8.
 NSaved= 8 IEnMin= 8 EnMin= -323.598556729271     IErMin= 8 ErrMin= 7.21D-07
 ErrMax= 7.21D-07  0.00D+00 EMaxC= 1.00D-01 BMatC= 1.14D-10 BMatP= 6.97D-10
 IDIUse=1 WtCom= 1.00D+00 WtEn= 0.00D+00
 Coeff-Com: -0.204D-03-0.181D-02-0.954D-03-0.556D-03 0.176D-01 0.972D-01
 Coeff-Com:  0.415D+00 0.473D+00
 Coeff:     -0.204D-03-0.181D-02-0.954D-03-0.556D-03 0.176D-01 0.972D-01
 Coeff:      0.415D+00 0.473D+00
 Gap=     0.134 Goal=   None    Shift=    0.000
 RMSDP=3.78D-08 MaxDP=2.21D-06 DE=-4.83D-10 OVMax= 5.57D-06

 Cycle  18  Pass 1  IDiag  1:
 E= -323.598556729376     Delta-E=       -0.000000000105 Rises=F Damp=F
 DIIS: error= 3.36D-07 at cycle   9 NSaved=   9.
 NSaved= 9 IEnMin= 9 EnMin= -323.598556729376     IErMin= 9 ErrMin= 3.36D-07
 ErrMax= 3.36D-07  0.00D+00 EMaxC= 1.00D-01 BMatC= 1.20D-11 BMatP= 1.14D-10
 IDIUse=1 WtCom= 1.00D+00 WtEn= 0.00D+00
 Coeff-Com: -0.272D-05-0.113D-02-0.673D-03-0.503D-02-0.906D-03 0.158D-01
 Coeff-Com:  0.959D-01 0.266D+00 0.630D+00
 Coeff:     -0.272D-05-0.113D-02-0.673D-03-0.503D-02-0.906D-03 0.158D-01
 Coeff:      0.959D-01 0.266D+00 0.630D+00
 Gap=     0.134 Goal=   None    Shift=    0.000
 RMSDP=1.73D-08 MaxDP=6.46D-07 DE=-1.05D-10 OVMax= 3.22D-06

 Cycle  19  Pass 1  IDiag  1:
 E= -323.598556729392     Delta-E=       -0.000000000016 Rises=F Damp=F
 DIIS: error= 1.65D-07 at cycle  10 NSaved=  10.
 NSaved=10 IEnMin=10 EnMin= -323.598556729392     IErMin=10 ErrMin= 1.65D-07
 ErrMax= 1.65D-07  0.00D+00 EMaxC= 1.00D-01 BMatC= 5.07D-12 BMatP= 1.20D-11
 IDIUse=1 WtCom= 1.00D+00 WtEn= 0.00D+00
 Coeff-Com:  0.232D-04-0.638D-03-0.411D-03-0.372D-02-0.271D-02 0.444D-03
 Coeff-Com:  0.205D-01 0.135D+00 0.460D+00 0.392D+00
 Coeff:      0.232D-04-0.638D-03-0.411D-03-0.372D-02-0.271D-02 0.444D-03
 Coeff:      0.205D-01 0.135D+00 0.460D+00 0.392D+00
 Gap=     0.134 Goal=   None    Shift=    0.000
 RMSDP=6.75D-09 MaxDP=2.81D-07 DE=-1.59D-11 OVMax= 1.29D-06

 SCF Done:  E(RM06L) =  -323.598556729     A.U. after   19 cycles
            NFock= 19  Conv=0.68D-08     -V/T= 2.0034
 KE= 3.224941982190D+02 PE=-1.309022594174D+03 EE= 3.860911747763D+02
 Leave Link  502 at Fri Aug 27 00:05:26 2021, MaxMem= 17179869184 cpu:       307.3
 (Enter /public3/home/sc51754/softwares/g09e01/l601.exe)
 Copying SCF densities to generalized density rwf, IOpCl= 0 IROHF=0.

 **********************************************************************

            Population analysis using the SCF density.

 **********************************************************************

 Orbital symmetries:
       Occupied  (A') (A') (A') (A') (A') (A') (A') (A') (A') (A')
                 (A') (A') (A') (A') (A') (A') (A') (A") (A') (A')
                 (A') (A") (A") (A') (A")
       Virtual   (A") (A") (A') (A') (A') (A') (A') (A") (A') (A')
                 (A') (A") (A') (A') (A") (A') (A") (A') (A') (A')
                 (A') (A') (A") (A') (A') (A") (A') (A') (A') (A')
                 (A") (A') (A') (A') (A') (A") (A') (A') (A') (A')
                 (A') (A') (A") (A') (A') (A') (A") (A') (A") (A")
                 (A') (A") (A') (A') (A") (A') (A') (A') (A') (A")
                 (A') (A') (A") (A') (A") (A') (A') (A') (A") (A')
                 (A") (A') (A") (A") (A') (A") (A') (A") (A') (A')
                 (A") (A') (A') (A") (A") (A') (A') (A') (A") (A')
                 (A") (A') (A") (A') (A') (A') (A') (A') (A") (A')
                 (A') (A') (A') (A') (A") (A') (A") (A') (A') (A')
                 (A') (A") (A') (A') (A') (A') (A") (A') (A') (A')
                 (A") (A") (A') (A') (A") (A') (A") (A") (A') (A")
                 (A') (A') (A") (A') (A') (A") (A") (A') (A') (A')
                 (A') (A") (A') (A") (A') (A') (A') (A') (A') (A')
                 (A') (A") (A") (A") (A") (A") (A') (A") (A') (A")
                 (A') (A') (A") (A') (A") (A') (A') (A') (A') (A")
                 (A') (A") (A") (A') (A') (A") (A") (A') (A") (A")
                 (A') (A') (A") (A') (A") (A") (A') (A") (A') (A')
                 (A") (A') (A") (A") (A') (A") (A') (A') (A') (A")
                 (A') (A') (A") (A") (A') (A') (A") (A') (A') (A")
                 (A') (A') (A") (A') (A") (A') (A') (A') (A") (A')
                 (A") (A') (A') (A") (A") (A') (A') (A") (A') (A')
                 (A') (A') (A') (A") (A') (A') (A') (A") (A') (A')
                 (A') (A') (A") (A') (A') (A') (A') (A') (A') (A')
                 (A') (A') (A') (A') (A')
 The electronic state is 1-A'.
 Alpha  occ. eigenvalues --  -18.91384 -14.22784 -10.13943 -10.10988 -10.07167
 Alpha  occ. eigenvalues --  -10.05726 -10.05232  -1.00458  -0.92672  -0.78757
 Alpha  occ. eigenvalues --   -0.72565  -0.61981  -0.60046  -0.52633  -0.47099
 Alpha  occ. eigenvalues --   -0.45149  -0.42682  -0.40978  -0.38979  -0.35392
 Alpha  occ. eigenvalues --   -0.34196  -0.31857  -0.28701  -0.21871  -0.20227
 Alpha virt. eigenvalues --   -0.06778  -0.01341   0.01529   0.03957   0.05405
 Alpha virt. eigenvalues --    0.07768   0.08619   0.10444   0.13516   0.15837
 Alpha virt. eigenvalues --    0.17065   0.18006   0.18539   0.19774   0.21900
 Alpha virt. eigenvalues --    0.22158   0.23332   0.23754   0.25750   0.26407
 Alpha virt. eigenvalues --    0.26811   0.28309   0.28840   0.30095   0.30563
 Alpha virt. eigenvalues --    0.30751   0.33888   0.34902   0.37834   0.40428
 Alpha virt. eigenvalues --    0.41961   0.42659   0.44891   0.46480   0.48503
 Alpha virt. eigenvalues --    0.48605   0.50319   0.51738   0.55104   0.58173
 Alpha virt. eigenvalues --    0.60172   0.60376   0.63030   0.63289   0.65140
 Alpha virt. eigenvalues --    0.68661   0.73926   0.75014   0.77425   0.78820
 Alpha virt. eigenvalues --    0.80367   0.82040   0.89583   0.90378   0.90855
 Alpha virt. eigenvalues --    0.93691   0.95180   0.98037   0.98931   1.05500
 Alpha virt. eigenvalues --    1.07493   1.08570   1.11397   1.13204   1.13640
 Alpha virt. eigenvalues --    1.14250   1.16285   1.18225   1.19048   1.23848
 Alpha virt. eigenvalues --    1.25191   1.27042   1.27051   1.28855   1.29575
 Alpha virt. eigenvalues --    1.35167   1.39448   1.41416   1.42085   1.45176
 Alpha virt. eigenvalues --    1.45977   1.48428   1.49365   1.52266   1.57051
 Alpha virt. eigenvalues --    1.58119   1.58513   1.63547   1.67344   1.67711
 Alpha virt. eigenvalues --    1.69030   1.69730   1.73575   1.73639   1.77694
 Alpha virt. eigenvalues --    1.81360   1.82754   1.87652   1.88212   1.92128
 Alpha virt. eigenvalues --    1.93918   1.97582   2.02185   2.02937   2.05882
 Alpha virt. eigenvalues --    2.08309   2.11510   2.12150   2.16173   2.19603
 Alpha virt. eigenvalues --    2.25532   2.26726   2.28030   2.29252   2.31516
 Alpha virt. eigenvalues --    2.41891   2.57396   2.61615   2.62680   2.90196
 Alpha virt. eigenvalues --    2.92204   2.94675   2.95152   2.97093   3.17744
 Alpha virt. eigenvalues --    3.20614   3.23224   3.25447   3.26748   3.28849
 Alpha virt. eigenvalues --    3.30763   3.32069   3.38308   3.40311   3.44115
 Alpha virt. eigenvalues --    3.45711   3.51744   3.56451   3.60477   3.62668
 Alpha virt. eigenvalues --    3.66084   3.66747   3.69475   3.71307   3.73004
 Alpha virt. eigenvalues --    3.74641   3.78840   3.84154   3.87729   3.90132
 Alpha virt. eigenvalues --    3.97757   3.98447   4.00164   4.05919   4.07626
 Alpha virt. eigenvalues --    4.10527   4.11898   4.14883   4.16328   4.16709
 Alpha virt. eigenvalues --    4.17753   4.20524   4.24334   4.24813   4.27620
 Alpha virt. eigenvalues --    4.29167   4.30153   4.31568   4.34307   4.35046
 Alpha virt. eigenvalues --    4.35815   4.36650   4.37915   4.37978   4.41313
 Alpha virt. eigenvalues --    4.41806   4.43668   4.45294   4.45567   4.50309
 Alpha virt. eigenvalues --    4.51462   4.51953   4.55823   4.57420   4.57832
 Alpha virt. eigenvalues --    4.59214   4.61384   4.63880   4.65559   4.68404
 Alpha virt. eigenvalues --    4.70976   4.73210   4.73729   4.78175   4.78846
 Alpha virt. eigenvalues --    4.84869   4.88739   4.92391   4.96858   4.97562
 Alpha virt. eigenvalues --    5.00963   5.05994   5.06285   5.10086   5.11012
 Alpha virt. eigenvalues --    5.15598   5.21675   5.27608   5.30098   5.33252
 Alpha virt. eigenvalues --    5.33400   5.39464   5.41871   5.43741   5.45550
 Alpha virt. eigenvalues --    5.46429   5.51144   5.52961   5.53481   5.60468
 Alpha virt. eigenvalues --    5.60470   5.65905   5.67664   5.69296   5.73468
 Alpha virt. eigenvalues --    5.74959   5.83043   5.84880   5.85882   5.90914
 Alpha virt. eigenvalues --    5.96953   6.04791   6.09312   6.11494   6.19162
 Alpha virt. eigenvalues --    6.21302   6.25840   6.29253   6.35655   6.38998
 Alpha virt. eigenvalues --    6.52420   6.66183   6.67631   6.73085   6.96562
 Alpha virt. eigenvalues --    7.11003   7.14785   7.41902   9.67182  12.41659
 Alpha virt. eigenvalues --   13.28375  14.82172  17.93695  18.39002  22.90378
          Condensed to atoms (all electrons):
               1          2          3          4          5          6
     1  O    8.289090  -0.096942   0.412882  -0.030618   0.010882   0.006738
     2  N   -0.096942   6.487079   0.363097  -0.029019   0.307436  -0.031589
     3  C    0.412882   0.363097   4.386718   0.382833  -0.039487  -0.007094
     4  C   -0.030618  -0.029019   0.382833   4.964835  -0.043721   0.435879
     5  C    0.010882   0.307436  -0.039487  -0.043721   4.663512  -0.041250
     6  C    0.006738  -0.031589  -0.007094   0.435879  -0.041250   4.786667
     7  C    0.002305  -0.023272  -0.034107  -0.025763   0.518972   0.357465
     8  H    0.010991   0.411006  -0.034602   0.007636  -0.023859  -0.000949
     9  H    0.004940   0.005725  -0.062211   0.493728  -0.000811  -0.068224
    10  H   -0.000705  -0.050774  -0.000899  -0.003615   0.451729   0.007146
    11  H   -0.000658  -0.001967   0.009927  -0.066436   0.010495   0.471768
    12  H    0.000032   0.008667  -0.000877   0.008072  -0.064159  -0.065330
               7          8          9         10         11         12
     1  O    0.002305   0.010991   0.004940  -0.000705  -0.000658   0.000032
     2  N   -0.023272   0.411006   0.005725  -0.050774  -0.001967   0.008667
     3  C   -0.034107  -0.034602  -0.062211  -0.000899   0.009927  -0.000877
     4  C   -0.025763   0.007636   0.493728  -0.003615  -0.066436   0.008072
     5  C    0.518972  -0.023859  -0.000811   0.451729   0.010495  -0.064159
     6  C    0.357465  -0.000949  -0.068224   0.007146   0.471768  -0.065330
     7  C    4.917300   0.004376   0.009298  -0.053295  -0.074472   0.495231
     8  H    0.004376   0.467261  -0.000641  -0.009813   0.000429  -0.000486
     9  H    0.009298  -0.000641   0.651262   0.000275  -0.020601   0.000190
    10  H   -0.053295  -0.009813   0.000275   0.653516  -0.000682  -0.012269
    11  H   -0.074472   0.000429  -0.020601  -0.000682   0.709228  -0.017106
    12  H    0.495231  -0.000486   0.000190  -0.012269  -0.017106   0.679836
 Mulliken charges:
               1
     1  O   -0.608937
     2  N   -0.349448
     3  C    0.623822
     4  C   -0.093810
     5  C    0.250261
     6  C    0.148771
     7  C   -0.094036
     8  H    0.168650
     9  H   -0.012930
    10  H    0.019385
    11  H   -0.019925
    12  H   -0.031802
 Sum of Mulliken charges =  -0.00000
 Mulliken charges with hydrogens summed into heavy atoms:
               1
     1  O   -0.608937
     2  N   -0.180799
     3  C    0.623822
     4  C   -0.106741
     5  C    0.269646
     6  C    0.128847
     7  C   -0.125838
 Electronic spatial extent (au):  <R**2>=            624.3636
 Charge=             -0.0000 electrons
 Dipole moment (field-independent basis, Debye):
    X=             -1.2478    Y=             -3.9353    Z=             -0.0000  Tot=              4.1284
 Quadrupole moment (field-independent basis, Debye-Ang):
   XX=            -31.4886   YY=            -47.0133   ZZ=            -41.8578
   XY=              0.0756   XZ=              0.0000   YZ=             -0.0000
 Traceless Quadrupole moment (field-independent basis, Debye-Ang):
   XX=              8.6313   YY=             -6.8934   ZZ=             -1.7379
   XY=              0.0756   XZ=              0.0000   YZ=             -0.0000
 Octapole moment (field-independent basis, Debye-Ang**2):
  XXX=            -11.6741  YYY=            -27.9475  ZZZ=              0.0000  XYY=             -0.1899
  XXY=              1.8016  XXZ=              0.0000  XZZ=             -2.0529  YZZ=              5.2124
  YYZ=             -0.0000  XYZ=              0.0000
 Hexadecapole moment (field-independent basis, Debye-Ang**3):
 XXXX=           -233.9826 YYYY=           -527.1794 ZZZZ=            -42.5518 XXXY=              2.0204
 XXXZ=              0.0000 YYYX=              7.5683 YYYZ=             -0.0000 ZZZX=              0.0000
 ZZZY=             -0.0000 XXYY=           -114.8998 XXZZ=            -58.1769 YYZZ=            -92.2888
 XXYZ=             -0.0000 YYXZ=              0.0000 ZZXY=              1.1748
 N-N= 2.768386644497D+02 E-N=-1.309022593812D+03  KE= 3.224941982190D+02
 Symmetry A'   KE= 3.109241396032D+02
 Symmetry A"   KE= 1.157005861586D+01
 No NMR shielding tensors so no spin-rotation constants.
 Leave Link  601 at Fri Aug 27 00:05:28 2021, MaxMem= 17179869184 cpu:        93.4
 (Enter /public3/home/sc51754/softwares/g09e01/l701.exe)
 Compute integral first derivatives.
 ... and contract with generalized density number  0.
 Leave Link  701 at Fri Aug 27 00:05:29 2021, MaxMem= 17179869184 cpu:        74.6
 (Enter /public3/home/sc51754/softwares/g09e01/l702.exe)
 L702 exits ... SP integral derivatives will be done elsewhere.
 Leave Link  702 at Fri Aug 27 00:05:29 2021, MaxMem= 17179869184 cpu:         0.2
 (Enter /public3/home/sc51754/softwares/g09e01/l703.exe)
 Compute integral first derivatives, UseDBF=F ICtDFT=           0.
 Integral derivatives from FoFJK, PRISM(SPDF).
 Calling FoFJK, ICntrl=      2527 FMM=F ISym2X=1 I1Cent= 0 IOpClX= 0 NMat=1 NMatS=1 NMatT=0.
 FoFJK:  IHMeth= 1 ICntrl=    2527 DoSepK=F KAlg= 0 I1Cent=   0 FoldK=F
 IRaf=         0 NMat=   1 IRICut=       1 DoRegI=T DoRafI=F ISym2E= 1.
 FoFCou: FMM=F IPFlag=           0 FMFlag=      100000 FMFlg1=         800
         NFxFlg=           0 DoJE=F BraDBF=F KetDBF=F FulRan=T
         wScrn=  0.000000 ICntrl=    2527 IOpCl=  0 I1Cent=           0 NGrid=           0
         NMat0=    1 NMatS0=      1 NMatT0=    0 NMatD0=    1 NMtDS0=    0 NMtDT0=    0
 Petite list used in FoFCou.
 Leave Link  703 at Fri Aug 27 00:05:32 2021, MaxMem= 17179869184 cpu:       164.2
 (Enter /public3/home/sc51754/softwares/g09e01/l716.exe)
 Dipole        =-4.90929405D-01-1.54826204D+00-4.10683228D-32
 ***** Axes restored to original set *****
 -------------------------------------------------------------------
 Center     Atomic                   Forces (Hartrees/Bohr)
 Number     Number              X              Y              Z
 -------------------------------------------------------------------
      1        8          -0.001384339    0.008379917   -0.000000000
      2        7          -0.004589407   -0.000900790   -0.000000000
      3        6           0.005153939   -0.004309319    0.000000000
      4        6           0.000240016    0.004836049   -0.000000000
      5        6          -0.005454790    0.000594869   -0.000000000
      6        6           0.001051803   -0.005199974    0.000000000
      7        6           0.004858697   -0.002656295    0.000000000
      8        1           0.001446156   -0.001730791    0.000000000
      9        1          -0.001109772   -0.001119915   -0.000000000
     10        1           0.000670577    0.000727119   -0.000000000
     11        1          -0.000797157    0.000042206   -0.000000000
     12        1          -0.000085724    0.001336924   -0.000000000
 -------------------------------------------------------------------
 Cartesian Forces:  Max     0.008379917 RMS     0.002700269
 Leave Link  716 at Fri Aug 27 00:05:32 2021, MaxMem= 17179869184 cpu:         0.4
 (Enter /public3/home/sc51754/softwares/g09e01/l103.exe)

 GradGradGradGradGradGradGradGradGradGradGradGradGradGradGradGradGradGrad
 Berny optimization.
 FormGI is forming the generalized inverse of G from B-inverse, IUseBI=4.
 Internal  Forces:  Max     0.008479687 RMS     0.001687009
 Search for a local minimum.
 Step number   1 out of a maximum of   64
 All quantities printed in internal units (Hartrees-Bohrs-Radians)
 RMS Force = .16870D-02 SwitMx=.10000D-02 MixMth= 1
 Mixed Optimization -- RFO/linear search
 Second derivative matrix not updated -- first step.
 ITU=  0
     Eigenvalues ---    0.01577   0.01761   0.01972   0.02080   0.02183
     Eigenvalues ---    0.02246   0.02365   0.02483   0.02557   0.16000
     Eigenvalues ---    0.16000   0.16000   0.16000   0.16000   0.22000
     Eigenvalues ---    0.22000   0.23415   0.25000   0.35622   0.35864
     Eigenvalues ---    0.35940   0.36221   0.37867   0.40757   0.44267
     Eigenvalues ---    0.46319   0.50118   0.53776   0.54239   0.98595
 RFO step:  Lambda=-2.53870806D-04 EMin= 1.57720798D-02
 Linear search not attempted -- first point.
 Iteration  1 RMS(Cart)=  0.00373992 RMS(Int)=  0.00000536
 Iteration  2 RMS(Cart)=  0.00000708 RMS(Int)=  0.00000052
 Iteration  3 RMS(Cart)=  0.00000000 RMS(Int)=  0.00000052
 ITry= 1 IFail=0 DXMaxC= 1.71D-02 DCOld= 1.00D+10 DXMaxT= 3.00D-01 DXLimC= 3.00D+00 Rises=F
 ClnCor:  largest displacement from symmetrization is 6.28D-12 for atom    11.
 Variable       Old X    -DE/DX   Delta X   Delta X   Delta X     New X
                                 (Linear)    (Quad)   (Total)
    R1        2.29207   0.00848   0.00000   0.00860   0.00860   2.30067
    R2        2.65138   0.00482   0.00000   0.01069   0.01069   2.66207
    R3        2.56109   0.00043   0.00000   0.00084   0.00084   2.56193
    R4        1.90473  -0.00211   0.00000  -0.00456  -0.00456   1.90017
    R5        2.72731   0.00048   0.00000   0.00118   0.00118   2.72849
    R6        2.55600   0.00473   0.00000   0.00864   0.00864   2.56463
    R7        2.04176  -0.00154   0.00000  -0.00428  -0.00428   2.03748
    R8        2.55244   0.00452   0.00000   0.00826   0.00826   2.56070
    R9        2.04295  -0.00093   0.00000  -0.00258  -0.00258   2.04036
   R10        2.67947  -0.00072   0.00000  -0.00170  -0.00170   2.67777
   R11        2.04676  -0.00072   0.00000  -0.00202  -0.00202   2.04474
   R12        2.03737  -0.00134   0.00000  -0.00369  -0.00369   2.03368
    A1        2.18960   0.00044   0.00000   0.00204   0.00204   2.19163
    A2        1.99125   0.00052   0.00000   0.00360   0.00360   1.99485
    A3        2.10233  -0.00096   0.00000  -0.00564  -0.00564   2.09670
    A4        2.09504  -0.00010   0.00000  -0.00034  -0.00034   2.09470
    A5        2.21834   0.00096   0.00000   0.00392   0.00392   2.22225
    A6        1.96981  -0.00086   0.00000  -0.00357  -0.00357   1.96623
    A7        2.12410   0.00064   0.00000   0.00267   0.00267   2.12677
    A8        2.02595   0.00003   0.00000   0.00087   0.00087   2.02682
    A9        2.13313  -0.00067   0.00000  -0.00353  -0.00353   2.12960
   A10        2.10267  -0.00034   0.00000  -0.00146  -0.00146   2.10120
   A11        2.03035  -0.00019   0.00000  -0.00151  -0.00151   2.02884
   A12        2.15017   0.00053   0.00000   0.00297   0.00298   2.15314
   A13        2.12246  -0.00016   0.00000  -0.00092  -0.00092   2.12154
   A14        2.08387   0.00044   0.00000   0.00273   0.00273   2.08660
   A15        2.07686  -0.00028   0.00000  -0.00181  -0.00181   2.07505
   A16        2.05775   0.00028   0.00000   0.00125   0.00125   2.05900
   A17        2.10204  -0.00022   0.00000  -0.00113  -0.00113   2.10091
   A18        2.12340  -0.00006   0.00000  -0.00012  -0.00012   2.12328
    D1        3.14159  -0.00000   0.00000  -0.00000   0.00000   3.14159
    D2       -0.00000  -0.00000   0.00000  -0.00000   0.00000   0.00000
    D3        0.00000  -0.00000   0.00000  -0.00000  -0.00000   0.00000
    D4        3.14159   0.00000   0.00000  -0.00000   0.00000   3.14159
    D5        0.00000  -0.00000   0.00000  -0.00000   0.00000   0.00000
    D6        3.14159   0.00000   0.00000   0.00000   0.00000   3.14159
    D7        3.14159  -0.00000   0.00000  -0.00000   0.00000   3.14159
    D8       -0.00000  -0.00000   0.00000  -0.00000   0.00000   0.00000
    D9        3.14159   0.00000   0.00000   0.00000   0.00000   3.14159
   D10        0.00000  -0.00000   0.00000   0.00000  -0.00000   0.00000
   D11        0.00000   0.00000   0.00000   0.00000  -0.00000   0.00000
   D12        3.14159   0.00000   0.00000   0.00000   0.00000   3.14159
   D13        0.00000  -0.00000   0.00000  -0.00000   0.00000   0.00000
   D14        3.14159  -0.00000   0.00000  -0.00000   0.00000   3.14159
   D15        3.14159   0.00000   0.00000   0.00000   0.00000   3.14159
   D16       -0.00000   0.00000   0.00000   0.00000   0.00000   0.00000
   D17       -0.00000   0.00000   0.00000   0.00000   0.00000   0.00000
   D18        3.14159   0.00000   0.00000   0.00000   0.00000   3.14159
   D19        3.14159  -0.00000   0.00000   0.00000   0.00000   3.14159
   D20       -0.00000  -0.00000   0.00000  -0.00000   0.00000   0.00000
   D21        0.00000  -0.00000   0.00000  -0.00000  -0.00000   0.00000
   D22        3.14159   0.00000   0.00000   0.00000   0.00000   3.14159
   D23        3.14159  -0.00000   0.00000  -0.00000   0.00000   3.14159
   D24        0.00000  -0.00000   0.00000  -0.00000   0.00000   0.00000
         Item               Value     Threshold  Converged?
 Maximum Force            0.008480     0.000450     NO 
 RMS     Force            0.001687     0.000300     NO 
 Maximum Displacement     0.017084     0.001800     NO 
 RMS     Displacement     0.003738     0.001200     NO 
 Predicted change in Energy=-1.270023D-04
 Lowest energy point so far.  Saving SCF results.
 GradGradGradGradGradGradGradGradGradGradGradGradGradGradGradGradGradGrad

 Leave Link  103 at Fri Aug 27 00:05:33 2021, MaxMem= 17179869184 cpu:        40.6
 (Enter /public3/home/sc51754/softwares/g09e01/l202.exe)
                          Input orientation:                          
 ---------------------------------------------------------------------
 Center     Atomic      Atomic             Coordinates (Angstroms)
 Number     Number       Type             X           Y           Z
 ---------------------------------------------------------------------
      1          8           0       -0.131262    2.276936   -0.000000
      2          7           0       -1.133663    0.232968   -0.000000
      3          6           0        0.001783    1.066767   -0.000000
      4          6           0        1.238735    0.322005    0.000000
      5          6           0       -1.116631   -1.122639   -0.000000
      6          6           0        1.257749   -1.035007    0.000000
      7          6           0        0.060767   -1.793405    0.000000
      8          1           0       -2.009587    0.726769   -0.000000
      9          1           0        2.144818    0.906383    0.000000
     10          1           0       -2.078973   -1.612208   -0.000000
     11          1           0        2.206391   -1.555460    0.000000
     12          1           0        0.073976   -2.869500    0.000000
 ---------------------------------------------------------------------
                    Distance matrix (angstroms):
                    1          2          3          4          5
     1  O    0.000000
     2  N    2.276535   0.000000
     3  C    1.217461   1.408707   0.000000
     4  C    2.387184   2.374068   1.443857   0.000000
     5  C    3.539501   1.355714   2.458526   2.763105   0.000000
     6  C    3.591423   2.706771   2.448450   1.357145   2.375997
     7  C    4.074869   2.352201   2.860780   2.421274   1.355062
     8  H    2.435390   1.005526   2.039904   3.273443   2.053699
     9  H    2.656870   3.346927   2.149029   1.078186   3.841091
    10  H    4.349600   2.073231   3.392116   3.840360   1.079713
    11  H    4.489085   3.788725   3.425839   2.112163   3.351091
    12  H    5.150528   3.329219   3.936930   3.397406   2.114017
                    6          7          8          9         10
     6  C    0.000000
     7  C    1.417016   0.000000
     8  H    3.712053   3.261540   0.000000
     9  H    2.134452   3.410590   4.158286   0.000000
    10  H    3.386278   2.147398   2.340005   4.917694   0.000000
    11  H    1.082032   2.158778   4.794063   2.462613   4.285740
    12  H    2.183274   1.076176   4.156247   4.306470   2.493185
                   11         12
    11  H    0.000000
    12  H    2.504775   0.000000
 Stoichiometry    C5H5NO
 Framework group  CS[SG(C5H5NO)]
 Deg. of freedom    21
 Full point group                 CS      NOp   2
 RotChk:  IX=0 Diff= 2.23D-03
 Largest Abelian subgroup         CS      NOp   2
 Largest concise Abelian subgroup C1      NOp   1
                         Standard orientation:                         
 ---------------------------------------------------------------------
 Center     Atomic      Atomic             Coordinates (Angstroms)
 Number     Number       Type             X           Y           Z
 ---------------------------------------------------------------------
      1          8           0       -0.134948    2.275355    0.000000
      2          7           0       -1.134132    0.229812    0.000000
      3          6           0       -0.000000    1.065397    0.000000
      4          6           0        1.238123    0.322582    0.000000
      5          6           0       -1.114967   -1.125767    0.000000
      6          6           0        1.259272   -1.034398    0.000000
      7          6           0        0.063485   -1.794679    0.000000
      8          1           0       -2.010832    0.722234    0.000000
      9          1           0        2.143285    0.908385    0.000000
     10          1           0       -2.076538   -1.616849    0.000000
     11          1           0        2.208732   -1.553358    0.000000
     12          1           0        0.078387   -2.870752    0.000000
 ---------------------------------------------------------------------
 Rotational constants (GHZ):      5.7211338      2.8080310      1.8835515
 Leave Link  202 at Fri Aug 27 00:05:33 2021, MaxMem= 17179869184 cpu:         3.2
 (Enter /public3/home/sc51754/softwares/g09e01/l301.exe)
 Basis read from rwf:  (5D, 7F)
 No pseudopotential information found on rwf file.
 There are   223 symmetry adapted cartesian basis functions of A'  symmetry.
 There are    97 symmetry adapted cartesian basis functions of A"  symmetry.
 There are   190 symmetry adapted basis functions of A'  symmetry.
 There are    90 symmetry adapted basis functions of A"  symmetry.
   280 basis functions,   475 primitive gaussians,   320 cartesian basis functions
    25 alpha electrons       25 beta electrons
       nuclear repulsion energy       276.3380917167 Hartrees.
 IExCor= 4134 DFT=T Ex+Corr=M06L ExCW=0 ScaHFX=  0.000000
 ScaDFX=  1.000000  1.000000  1.000000  1.000000 ScalE2=  1.000000  1.000000
 IRadAn=      0 IRanWt=     -1 IRanGd=            0 ICorTp=0 IEmpDi=  4
 NAtoms=   12 NActive=   12 NUniq=   12 SFac= 1.00D+00 NAtFMM=   60 NAOKFM=F Big=F
 Integral buffers will be    131072 words long.
 Raffenetti 2 integral format.
 Two-electron integral symmetry is turned on.
 No density basis found on file   724.
 Leave Link  301 at Fri Aug 27 00:05:33 2021, MaxMem= 17179869184 cpu:         1.1
 (Enter /public3/home/sc51754/softwares/g09e01/l302.exe)
 NPDir=0 NMtPBC=     1 NCelOv=     1 NCel=       1 NClECP=     1 NCelD=      1
         NCelK=      1 NCelE2=     1 NClLst=     1 CellRange=     0.0.
 One-electron integrals computed using PRISM.
 NBasis=   280 RedAO= T EigKep=  2.31D-04  NBF=   190    90
 NBsUse=   280 1.00D-06 EigRej= -1.00D+00 NBFU=   190    90
 Precomputing XC quadrature grid using
 IXCGrd= 4 IRadAn=           0 IRanWt=          -1 IRanGd=           0 AccXCQ= 0.00D+00.
 Generated NRdTot=       0 NPtTot=           0 NUsed=           0 NTot=          32
 NSgBfM=   320   320   320   320   320 MxSgAt=    12 MxSgA2=    12.
 Leave Link  302 at Fri Aug 27 00:05:34 2021, MaxMem= 17179869184 cpu:        46.9
 (Enter /public3/home/sc51754/softwares/g09e01/l303.exe)
 DipDrv:  MaxL=1.
 Leave Link  303 at Fri Aug 27 00:05:34 2021, MaxMem= 17179869184 cpu:        12.7
 (Enter /public3/home/sc51754/softwares/g09e01/l401.exe)
 Initial guess from the checkpoint file:  "PY_M06L_PC2_OPT_FREQ.chk"
 B after Tr=     0.000000   -0.000000   -0.000000
         Rot=    1.000000    0.000000   -0.000000   -0.000837 Ang=  -0.10 deg.
 Guess basis will be translated and rotated to current coordinates.
 JPrj=2 DoOrth=T DoCkMO=T.
 Initial guess orbital symmetries:
       Occupied  (A') (A') (A') (A') (A') (A') (A') (A') (A') (A')
                 (A') (A') (A') (A') (A') (A') (A') (A") (A') (A')
                 (A') (A") (A") (A') (A")
       Virtual   (A') (A') (A') (A') (A') (A') (A') (A') (A') (A')
                 (A') (A') (A') (A') (A') (A') (A') (A') (A') (A')
                 (A') (A') (A') (A') (A') (A') (A') (A') (A') (A')
                 (A') (A') (A') (A') (A') (A') (A') (A') (A') (A')
                 (A') (A') (A') (A') (A') (A') (A') (A') (A') (A')
                 (A') (A') (A') (A') (A') (A') (A') (A') (A') (A')
                 (A') (A') (A') (A') (A') (A') (A') (A') (A') (A')
                 (A') (A') (A') (A') (A') (A') (A') (A') (A') (A')
                 (A') (A') (A') (A') (A') (A') (A') (A') (A') (A')
                 (A') (A') (A') (A') (A') (A') (A') (A') (A') (A')
                 (A') (A') (A') (A') (A') (A') (A') (A') (A') (A')
                 (A') (A') (A') (A') (A') (A') (A') (A') (A') (A')
                 (A') (A') (A') (A') (A') (A') (A') (A') (A') (A')
                 (A') (A') (A') (A') (A') (A') (A') (A') (A') (A')
                 (A') (A') (A') (A') (A') (A') (A') (A') (A') (A')
                 (A') (A') (A') (A') (A') (A') (A') (A') (A') (A')
                 (A') (A') (A') (A') (A') (A') (A') (A') (A') (A")
                 (A") (A") (A") (A") (A") (A") (A") (A") (A") (A")
                 (A") (A") (A") (A") (A") (A") (A") (A") (A") (A")
                 (A") (A") (A") (A") (A") (A") (A") (A") (A") (A")
                 (A") (A") (A") (A") (A") (A") (A") (A") (A") (A")
                 (A") (A") (A") (A") (A") (A") (A") (A") (A") (A")
                 (A") (A") (A") (A") (A") (A") (A") (A") (A") (A")
                 (A") (A") (A") (A") (A") (A") (A") (A") (A") (A")
                 (A") (A") (A") (A") (A") (A") (A") (A") (A") (A")
                 (A") (A") (A") (A") (A")
 The electronic state of the initial guess is 1-A'.
 Leave Link  401 at Fri Aug 27 00:05:36 2021, MaxMem= 17179869184 cpu:        59.5
 (Enter /public3/home/sc51754/softwares/g09e01/l502.exe)
 Closed shell SCF:
 Using DIIS extrapolation, IDIIS=  1040.
 Integral symmetry usage will be decided dynamically.
 Keep J ints in memory in symmetry-blocked form, NReq=1167802198.
 IVT=      348658 IEndB=      348658 NGot= 17179869184 MDV= 16785904737
 LenX= 16785904737 LenY= 16785801896
 Requested convergence on RMS density matrix=1.00D-08 within 128 cycles.
 Requested convergence on MAX density matrix=1.00D-06.
 Requested convergence on             energy=1.00D-06.
 No special actions if energy rises.
 FoFCou: FMM=F IPFlag=           0 FMFlag=           0 FMFlg1=           0
         NFxFlg=           0 DoJE=F BraDBF=F KetDBF=F FulRan=T
         wScrn=  0.000000 ICntrl=     600 IOpCl=  0 I1Cent=           0 NGrid=           0
         NMat0=    1 NMatS0=  39340 NMatT0=    0 NMatD0=    1 NMtDS0=    0 NMtDT0=    0
 Petite list used in FoFCou.

 Cycle   1  Pass 1  IDiag  1:
 E= -323.598647271152    
 DIIS: error= 3.04D-04 at cycle   1 NSaved=   1.
 NSaved= 1 IEnMin= 1 EnMin= -323.598647271152     IErMin= 1 ErrMin= 3.04D-04
 ErrMax= 3.04D-04  0.00D+00 EMaxC= 1.00D-01 BMatC= 4.80D-05 BMatP= 4.80D-05
 IDIUse=3 WtCom= 9.97D-01 WtEn= 3.04D-03
 Coeff-Com:  0.100D+01
 Coeff-En:   0.100D+01
 Coeff:      0.100D+01
 Gap=     0.536 Goal=   None    Shift=    0.000
 RMSDP=3.31D-05 MaxDP=8.95D-04              OVMax= 4.02D-03

 Cycle   2  Pass 1  IDiag  1:
 E= -323.598690170884     Delta-E=       -0.000042899732 Rises=F Damp=F
 DIIS: error= 1.70D-04 at cycle   2 NSaved=   2.
 NSaved= 2 IEnMin= 2 EnMin= -323.598690170884     IErMin= 2 ErrMin= 1.70D-04
 ErrMax= 1.70D-04  0.00D+00 EMaxC= 1.00D-01 BMatC= 6.75D-06 BMatP= 4.80D-05
 IDIUse=3 WtCom= 9.98D-01 WtEn= 1.70D-03
 Coeff-Com:  0.190D+00 0.810D+00
 Coeff-En:   0.000D+00 0.100D+01
 Coeff:      0.190D+00 0.810D+00
 Gap=     0.133 Goal=   None    Shift=    0.000
 RMSDP=1.54D-05 MaxDP=5.21D-04 DE=-4.29D-05 OVMax= 2.77D-03

 Cycle   3  Pass 1  IDiag  1:
 E= -323.598687388601     Delta-E=        0.000002782284 Rises=F Damp=F
 DIIS: error= 1.87D-04 at cycle   3 NSaved=   3.
 NSaved= 3 IEnMin= 2 EnMin= -323.598690170884     IErMin= 2 ErrMin= 1.70D-04
 ErrMax= 1.87D-04  0.00D+00 EMaxC= 1.00D-01 BMatC= 8.49D-06 BMatP= 6.75D-06
 IDIUse=3 WtCom= 4.22D-01 WtEn= 5.78D-01
 Coeff-Com:  0.454D-01 0.523D+00 0.431D+00
 Coeff-En:   0.000D+00 0.579D+00 0.421D+00
 Coeff:      0.192D-01 0.556D+00 0.425D+00
 Gap=     0.133 Goal=   None    Shift=    0.000
 RMSDP=1.01D-05 MaxDP=3.88D-04 DE= 2.78D-06 OVMax= 2.39D-03

 Cycle   4  Pass 1  IDiag  1:
 E= -323.598694997984     Delta-E=       -0.000007609383 Rises=F Damp=F
 DIIS: error= 6.66D-05 at cycle   4 NSaved=   4.
 NSaved= 4 IEnMin= 4 EnMin= -323.598694997984     IErMin= 4 ErrMin= 6.66D-05
 ErrMax= 6.66D-05  0.00D+00 EMaxC= 1.00D-01 BMatC= 1.43D-06 BMatP= 6.75D-06
 IDIUse=1 WtCom= 1.00D+00 WtEn= 0.00D+00
 Coeff-Com:  0.649D-03 0.278D+00 0.296D+00 0.425D+00
 Coeff:      0.649D-03 0.278D+00 0.296D+00 0.425D+00
 Gap=     0.133 Goal=   None    Shift=    0.000
 RMSDP=4.20D-06 MaxDP=1.68D-04 DE=-7.61D-06 OVMax= 7.65D-04

 Cycle   5  Pass 1  IDiag  1:
 E= -323.598696296395     Delta-E=       -0.000001298411 Rises=F Damp=F
 DIIS: error= 1.86D-05 at cycle   5 NSaved=   5.
 NSaved= 5 IEnMin= 5 EnMin= -323.598696296395     IErMin= 5 ErrMin= 1.86D-05
 ErrMax= 1.86D-05  0.00D+00 EMaxC= 1.00D-01 BMatC= 8.14D-08 BMatP= 1.43D-06
 IDIUse=1 WtCom= 1.00D+00 WtEn= 0.00D+00
 Coeff-Com: -0.181D-02 0.955D-01 0.118D+00 0.245D+00 0.543D+00
 Coeff:     -0.181D-02 0.955D-01 0.118D+00 0.245D+00 0.543D+00
 Gap=     0.133 Goal=   None    Shift=    0.000
 RMSDP=1.13D-06 MaxDP=5.83D-05 DE=-1.30D-06 OVMax= 1.77D-04

 Cycle   6  Pass 1  IDiag  1:
 E= -323.598696352703     Delta-E=       -0.000000056308 Rises=F Damp=F
 DIIS: error= 9.11D-06 at cycle   6 NSaved=   6.
 NSaved= 6 IEnMin= 6 EnMin= -323.598696352703     IErMin= 6 ErrMin= 9.11D-06
 ErrMax= 9.11D-06  0.00D+00 EMaxC= 1.00D-01 BMatC= 1.78D-08 BMatP= 8.14D-08
 IDIUse=1 WtCom= 1.00D+00 WtEn= 0.00D+00
 Coeff-Com: -0.812D-03 0.383D-01 0.516D-01 0.124D+00 0.375D+00 0.412D+00
 Coeff:     -0.812D-03 0.383D-01 0.516D-01 0.124D+00 0.375D+00 0.412D+00
 Gap=     0.133 Goal=   None    Shift=    0.000
 RMSDP=4.37D-07 MaxDP=1.80D-05 DE=-5.63D-08 OVMax= 7.34D-05

 Cycle   7  Pass 1  IDiag  1:
 E= -323.598696367636     Delta-E=       -0.000000014932 Rises=F Damp=F
 DIIS: error= 3.03D-06 at cycle   7 NSaved=   7.
 NSaved= 7 IEnMin= 7 EnMin= -323.598696367636     IErMin= 7 ErrMin= 3.03D-06
 ErrMax= 3.03D-06  0.00D+00 EMaxC= 1.00D-01 BMatC= 1.36D-09 BMatP= 1.78D-08
 IDIUse=1 WtCom= 1.00D+00 WtEn= 0.00D+00
 Coeff-Com: -0.235D-03-0.164D-02 0.193D-02 0.120D-01 0.940D-01 0.240D+00
 Coeff-Com:  0.654D+00
 Coeff:     -0.235D-03-0.164D-02 0.193D-02 0.120D-01 0.940D-01 0.240D+00
 Coeff:      0.654D+00
 Gap=     0.133 Goal=   None    Shift=    0.000
 RMSDP=1.17D-07 MaxDP=4.06D-06 DE=-1.49D-08 OVMax= 1.79D-05

 Cycle   8  Pass 1  IDiag  1:
 E= -323.598696368926     Delta-E=       -0.000000001291 Rises=F Damp=F
 DIIS: error= 8.31D-07 at cycle   8 NSaved=   8.
 NSaved= 8 IEnMin= 8 EnMin= -323.598696368926     IErMin= 8 ErrMin= 8.31D-07
 ErrMax= 8.31D-07  0.00D+00 EMaxC= 1.00D-01 BMatC= 7.72D-11 BMatP= 1.36D-09
[...]
     32  0.000000D+00 -0.366335D-02 -0.436998D-02  0.000000D+00  0.305438D-01
     33 -0.619557D-03  0.000000D+00  0.000000D+00  0.126569D-01  0.000000D+00
     34  0.000000D+00 -0.211892D-02 -0.192439D-03  0.000000D+00 -0.496913D-02
     35  0.000000D+00 -0.415394D-03  0.639106D-03  0.000000D+00 -0.299329D-02
     36  0.762752D-02  0.000000D+00  0.000000D+00 -0.395470D-03  0.000000D+00
               11            12            13            14            15 
     11  0.787275D+00
     12  0.000000D+00  0.116536D+00
     13  0.210976D-01  0.000000D+00  0.835119D+00
     14 -0.308919D-01  0.000000D+00 -0.198481D-01  0.676524D+00
     15  0.000000D+00  0.669677D-03  0.000000D+00  0.000000D+00  0.135437D+00
     16  0.262868D-01  0.000000D+00 -0.620725D-01  0.159513D-01  0.000000D+00
     17 -0.436680D+00  0.000000D+00 -0.207269D-01  0.470316D-01  0.000000D+00
     18  0.000000D+00 -0.546052D-01  0.000000D+00  0.000000D+00  0.702576D-02
     19 -0.534454D-01  0.000000D+00 -0.355733D+00  0.107326D+00  0.000000D+00
     20 -0.284314D-01  0.000000D+00  0.148546D+00 -0.188836D+00  0.000000D+00
     21  0.000000D+00  0.690843D-02  0.000000D+00  0.000000D+00 -0.620866D-01
     22 -0.410834D-02  0.000000D+00  0.622212D-02 -0.225869D-02  0.000000D+00
     23 -0.343475D-02  0.000000D+00  0.335856D-01 -0.125330D-01  0.000000D+00
     24  0.000000D+00  0.479971D-02  0.000000D+00  0.000000D+00 -0.609085D-02
     25 -0.129172D+00  0.000000D+00 -0.202084D-03  0.289550D-02  0.000000D+00
     26 -0.139288D+00  0.000000D+00  0.773949D-03 -0.114342D-02  0.000000D+00
     27  0.000000D+00 -0.340173D-01  0.000000D+00  0.000000D+00 -0.813125D-03
     28  0.768410D-03  0.000000D+00 -0.291376D+00 -0.115001D+00  0.000000D+00
     29  0.802999D-04  0.000000D+00 -0.109276D+00 -0.113340D+00  0.000000D+00
     30  0.000000D+00  0.117335D-03  0.000000D+00  0.000000D+00 -0.363160D-01
     31 -0.923947D-03  0.000000D+00 -0.413565D-02 -0.445772D-02  0.000000D+00
     32 -0.113379D-01  0.000000D+00 -0.347492D-02 -0.135985D-02  0.000000D+00
     33  0.000000D+00  0.660172D-02  0.000000D+00  0.000000D+00  0.483071D-02
     34 -0.180640D-02  0.000000D+00  0.480866D-02  0.293749D-01  0.000000D+00
     35  0.504451D-03  0.000000D+00 -0.397846D-02 -0.115408D-01  0.000000D+00
     36  0.000000D+00  0.401415D-02  0.000000D+00  0.000000D+00 -0.148759D-02
               16            17            18            19            20 
     16  0.681158D+00
     17 -0.442484D-01  0.753309D+00
     18  0.000000D+00  0.000000D+00  0.141762D+00
     19 -0.240349D+00 -0.524042D-01  0.000000D+00  0.687977D+00
     20 -0.101795D+00 -0.168509D+00  0.000000D+00 -0.595684D-01  0.768108D+00
     21  0.000000D+00  0.000000D+00 -0.603650D-01  0.000000D+00  0.000000D+00
     22 -0.104054D-02 -0.283974D-02  0.000000D+00  0.473612D-02 -0.234951D-02
     23 -0.145348D-03  0.392272D-03  0.000000D+00 -0.400064D-02 -0.603451D-02
     24  0.000000D+00  0.000000D+00 -0.694783D-03  0.000000D+00  0.000000D+00
     25  0.532252D-02  0.300045D-02  0.000000D+00  0.275479D-02  0.880702D-03
     26 -0.281370D-01 -0.119360D-01  0.000000D+00  0.210217D-02 -0.489677D-02
     27  0.000000D+00  0.000000D+00  0.231440D-02  0.000000D+00  0.000000D+00
     28 -0.387138D-02  0.476391D-02  0.000000D+00 -0.156610D-01 -0.159381D-01
     29  0.276257D-02 -0.163798D-02  0.000000D+00  0.136668D-01  0.127579D-01
     30  0.000000D+00  0.000000D+00  0.824134D-02  0.000000D+00  0.000000D+00
     31 -0.273999D+00  0.117041D+00  0.000000D+00 -0.181940D-01  0.153694D-01
     32  0.116715D+00 -0.122442D+00  0.000000D+00 -0.153619D-01  0.114894D-01
     33  0.000000D+00  0.000000D+00 -0.419863D-01  0.000000D+00  0.000000D+00
     34  0.560949D-02 -0.280849D-01  0.000000D+00 -0.576197D-01  0.283771D-02
     35  0.343714D-02 -0.104747D-01  0.000000D+00  0.534506D-02 -0.349224D+00
     36  0.000000D+00  0.000000D+00 -0.362177D-03  0.000000D+00  0.000000D+00
               21            22            23            24            25 
     21  0.113670D+00
     22  0.000000D+00  0.369749D+00
     23  0.000000D+00 -0.166649D+00  0.155481D+00
     24  0.532096D-02  0.000000D+00  0.000000D+00  0.163137D-01
     25  0.000000D+00 -0.124785D-02 -0.117616D-02  0.000000D+00  0.276631D+00
     26  0.000000D+00  0.101901D-02  0.667034D-03  0.000000D+00  0.140671D+00
     27  0.961615D-02  0.000000D+00  0.000000D+00 -0.541994D-03  0.000000D+00
     28  0.000000D+00  0.112579D-02 -0.402659D-03  0.000000D+00 -0.239850D-04
     29  0.000000D+00 -0.357770D-03  0.813603D-03  0.000000D+00 -0.175808D-03
     30  0.618238D-02  0.000000D+00  0.000000D+00 -0.272241D-02  0.000000D+00
     31  0.000000D+00  0.388369D-04  0.572242D-04  0.000000D+00  0.101831D-02
     32  0.000000D+00  0.397893D-04  0.164232D-04  0.000000D+00 -0.472674D-03
     33  0.413502D-02  0.000000D+00  0.000000D+00 -0.889278D-03  0.000000D+00
     34  0.000000D+00  0.286580D-03  0.147639D-02  0.000000D+00  0.173165D-03
     35  0.000000D+00 -0.404214D-03 -0.467443D-03  0.000000D+00  0.263849D-03
     36 -0.272482D-01  0.000000D+00  0.000000D+00  0.203860D-02  0.000000D+00
               26            27            28            29            30 
     26  0.145074D+00
     27  0.000000D+00  0.247668D-01
     28 -0.131145D-03  0.000000D+00  0.302314D+00
     29  0.125096D-03  0.000000D+00  0.123508D+00  0.124032D+00
     30  0.000000D+00 -0.143181D-02  0.000000D+00  0.000000D+00  0.234694D-01
     31  0.146646D-03  0.000000D+00 -0.122012D-02  0.855083D-03  0.000000D+00
     32  0.115467D-02  0.000000D+00 -0.918200D-03  0.598818D-03  0.000000D+00
     33  0.000000D+00 -0.589511D-02  0.000000D+00  0.000000D+00 -0.424621D-03
     34 -0.140247D-02  0.000000D+00  0.102829D-02 -0.524531D-03  0.000000D+00
     35 -0.609325D-03  0.000000D+00  0.124324D-03  0.642109D-03  0.000000D+00
     36  0.000000D+00  0.672630D-03  0.000000D+00  0.000000D+00 -0.492820D-02
               31            32            33            34            35 
     31  0.289456D+00
     32 -0.126546D+00  0.127391D+00
     33  0.000000D+00  0.000000D+00  0.266467D-01
     34  0.126096D-02  0.740376D-03  0.000000D+00  0.563739D-01
     35  0.000000D+00  0.772231D-03  0.000000D+00 -0.475657D-02  0.368234D+00
     36  0.000000D+00  0.000000D+00 -0.234888D-02  0.000000D+00  0.000000D+00
               36 
     36  0.229855D-01
 FormGI is forming the generalized inverse of G from B-inverse, IUseBI=4.
 Leave Link  716 at Fri Aug 27 00:06:43 2021, MaxMem= 17179869184 cpu:        20.8
 (Enter /public3/home/sc51754/softwares/g09e01/l103.exe)

 GradGradGradGradGradGradGradGradGradGradGradGradGradGradGradGradGradGrad
 Berny optimization.
 Red2BG is reusing G-inverse.
 Internal  Forces:  Max     0.000447157 RMS     0.000120452
 Search for a local minimum.
 Step number   1 out of a maximum of    2
 All quantities printed in internal units (Hartrees-Bohrs-Radians)
 Second derivative matrix not updated -- analytic derivatives used.
 ITU=  0
     Eigenvalues ---    0.00776   0.01111   0.01564   0.01690   0.01960
     Eigenvalues ---    0.02206   0.02639   0.03253   0.04644   0.10114
     Eigenvalues ---    0.10599   0.10846   0.11996   0.12534   0.16615
     Eigenvalues ---    0.19122   0.20094   0.23154   0.30372   0.32228
     Eigenvalues ---    0.35900   0.36555   0.36734   0.36973   0.38423
     Eigenvalues ---    0.42258   0.46222   0.51836   0.54546   0.81352
 Angle between quadratic step and forces=  29.12 degrees.
 Linear search not attempted -- first point.
 Iteration  1 RMS(Cart)=  0.00066927 RMS(Int)=  0.00000061
 Iteration  2 RMS(Cart)=  0.00000062 RMS(Int)=  0.00000006
 ITry= 1 IFail=0 DXMaxC= 2.16D-03 DCOld= 1.00D+10 DXMaxT= 3.00D-01 DXLimC= 3.00D+00 Rises=F
 ClnCor:  largest displacement from symmetrization is 9.87D-12 for atom     1.
 Variable       Old X    -DE/DX   Delta X   Delta X   Delta X     New X
                                 (Linear)    (Quad)   (Total)
    R1        2.30165  -0.00029   0.00000  -0.00045  -0.00045   2.30120
    R2        2.66502   0.00033   0.00000   0.00205   0.00205   2.66708
    R3        2.56048  -0.00034   0.00000  -0.00139  -0.00139   2.55909
    R4        1.89987   0.00010   0.00000   0.00025   0.00025   1.90011
    R5        2.72479  -0.00045   0.00000  -0.00178  -0.00178   2.72302
    R6        2.56609   0.00010   0.00000   0.00060   0.00060   2.56669
    R7        2.03733   0.00007   0.00000   0.00020   0.00020   2.03753
    R8        2.56206   0.00007   0.00000   0.00059   0.00059   2.56265
    R9        2.04009   0.00007   0.00000   0.00026   0.00026   2.04035
   R10        2.67536  -0.00029   0.00000  -0.00122  -0.00122   2.67414
   R11        2.04429   0.00006   0.00000   0.00020   0.00020   2.04449
   R12        2.03360   0.00008   0.00000   0.00019   0.00019   2.03379
    A1        2.19172   0.00003   0.00000   0.00038   0.00038   2.19210
    A2        1.99639  -0.00009   0.00000  -0.00130  -0.00130   1.99509
    A3        2.09508   0.00007   0.00000   0.00092   0.00092   2.09600
    A4        2.09216  -0.00014   0.00000  -0.00118  -0.00118   2.09098
    A5        2.22477   0.00020   0.00000   0.00182   0.00182   2.22659
    A6        1.96625  -0.00006   0.00000  -0.00064  -0.00063   1.96562
    A7        2.12653   0.00000   0.00000   0.00004   0.00004   2.12657
    A8        2.02864   0.00011   0.00000   0.00138   0.00138   2.03002
    A9        2.12802  -0.00011   0.00000  -0.00142  -0.00142   2.12660
   A10        2.10054   0.00000   0.00000   0.00001   0.00001   2.10055
   A11        2.02882   0.00006   0.00000   0.00075   0.00075   2.02957
   A12        2.15383  -0.00006   0.00000  -0.00076  -0.00076   2.15307
   A13        2.12242   0.00010   0.00000   0.00079   0.00079   2.12321
   A14        2.08564  -0.00014   0.00000  -0.00145  -0.00145   2.08419
   A15        2.07513   0.00004   0.00000   0.00066   0.00066   2.07579
   A16        2.05891  -0.00007   0.00000  -0.00058  -0.00058   2.05833
   A17        2.10008  -0.00001   0.00000  -0.00021  -0.00021   2.09986
   A18        2.12420   0.00008   0.00000   0.00079   0.00079   2.12499
    D1        3.14159  -0.00000   0.00000   0.00000   0.00000   3.14159
    D2       -0.00000  -0.00000   0.00000   0.00000   0.00000   0.00000
    D3        0.00000  -0.00000   0.00000   0.00000  -0.00000   0.00000
    D4        3.14159   0.00000   0.00000   0.00000   0.00000   3.14159
    D5        0.00000   0.00000   0.00000  -0.00000  -0.00000   0.00000
    D6        3.14159  -0.00000   0.00000  -0.00000   0.00000   3.14159
    D7        3.14159  -0.00000   0.00000   0.00000   0.00000   3.14159
    D8       -0.00000  -0.00000   0.00000   0.00000   0.00000   0.00000
    D9        3.14159   0.00000   0.00000  -0.00000   0.00000   3.14159
   D10       -0.00000  -0.00000   0.00000  -0.00000   0.00000   0.00000
   D11        0.00000  -0.00000   0.00000  -0.00000  -0.00000   0.00000
   D12        3.14159  -0.00000   0.00000  -0.00000   0.00000   3.14159
   D13       -0.00000  -0.00000   0.00000   0.00000   0.00000   0.00000
   D14        3.14159  -0.00000   0.00000   0.00000   0.00000   3.14159
   D15        3.14159   0.00000   0.00000   0.00000   0.00000   3.14159
   D16        0.00000   0.00000   0.00000   0.00000  -0.00000   0.00000
   D17        0.00000  -0.00000   0.00000   0.00000   0.00000   0.00000
   D18        3.14159  -0.00000   0.00000  -0.00000   0.00000   3.14159
   D19        3.14159  -0.00000   0.00000   0.00000   0.00000   3.14159
   D20       -0.00000   0.00000   0.00000  -0.00000   0.00000   0.00000
   D21        0.00000   0.00000   0.00000   0.00000  -0.00000   0.00000
   D22        3.14159   0.00000   0.00000   0.00000   0.00000   3.14159
   D23        3.14159   0.00000   0.00000  -0.00000   0.00000   3.14159
   D24        0.00000   0.00000   0.00000   0.00000   0.00000   0.00000
         Item               Value     Threshold  Converged?
 Maximum Force            0.000447     0.000450     YES
 RMS     Force            0.000120     0.000300     YES
 Maximum Displacement     0.002157     0.001800     NO 
 RMS     Displacement     0.000669     0.001200     YES
 Predicted change in Energy=-2.081310D-06
 GradGradGradGradGradGradGradGradGradGradGradGradGradGradGradGradGradGrad

 Leave Link  103 at Fri Aug 27 00:06:45 2021, MaxMem= 17179869184 cpu:        48.9
 (Enter /public3/home/sc51754/softwares/g09e01/l9999.exe)
 1\1\GINC-S2515\Freq\RM06L\Gen\C5H5N1O1\SC51754\27-Aug-2021\0\\#P Geom=
 AllCheck Guess=TCheck SCRF=Check GenChk RM06L/ChkBas Freq\\PY_M06L_PC2
 _OPT_FREQ\\0,1\O,-0.1323161245,2.2772559599,0.\N,-1.1334151523,0.23246
 74258,0.\C,0.0035215315,1.0668759448,0.\C,1.2386034593,0.3228040415,0.
 \C,-1.1168878709,-1.1223818781,0.\C,1.2569518984,-1.0349862884,0.\C,0.
 061335867,-1.7931550729,0.\H,-2.0098198455,0.7250889463,0.\H,2.1458363
 935,0.9052546592,0.\H,-2.0792910594,-1.6115123335,0.\H,2.2056225405,-1
 .55488757,0.\H,0.0739613622,-2.8692158345,0.\\Version=EM64L-G09RevE.01
 \State=1-A'\HF=-323.5987082\RMSD=4.929e-09\RMSF=2.553e-04\ZeroPoint=0.
 0937537\Thermal=0.0990286\Dipole=-0.4901999,-1.5657484,0.\DipoleDeriv=
 -0.4343275,0.2505437,0.,0.0627911,-1.7615118,0.,0.,0.,-0.4135226,-0.30
 90718,-0.5261827,0.,0.3685843,-0.7504296,0.,0.,0.,-0.2077606,0.4778357
 ,-0.140627,0.,-0.0328762,2.1819559,0.,0.,0.,0.2644698,-0.056634,0.4855
 604,0.,-0.0377605,-0.5543494,0.,0.,0.,-0.163437,0.3348954,-0.0233779,0
 .,-0.6015192,0.4159873,0.,0.,0.,-0.0108679,0.3780876,0.2115414,0.,0.15
 71638,0.4613879,0.,0.,0.,-0.0649875,-0.5235816,-0.197948,0.,0.1134125,
 -0.1229434,0.,0.,0.,-0.1934657,0.1947174,-0.0205661,0.,-0.0048175,0.11
 98573,0.,0.,0.,0.2664951,-0.0167555,-0.0377539,0.,-0.0467231,0.0205491
 ,0.,0.,0.,0.1349324,-0.0357351,-0.0605796,0.,-0.0374409,0.0195545,0.,0
 .,0.,0.1292538,-0.0671415,0.0740159,0.,0.075379,0.0307164,0.,0.,0.,0.1
 083868,0.0577109,-0.0146262,0.,-0.0161932,-0.0607741,0.,0.,0.,0.150503
 4\Polar=72.2405015,0.2098602,89.476533,0.,0.,36.5501261\PG=CS [SG(C5H5
 N1O1)]\NImag=0\\0.09749298,-0.06756941,0.77820799,0.,0.,0.03262728,0.0
 1361451,-0.03890795,0.,0.73194049,-0.06850242,-0.07665318,0.,-0.119658
 66,0.74808831,0.,0.,0.01887406,0.,0.,0.07207258,-0.11148760,0.07906340
 ,0.,-0.19405223,0.02956563,0.,0.53807845,0.07503287,-0.64494110,0.,-0.
 02156628,-0.12681894,0.,-0.12089183,0.91995110,0.,0.,-0.07275143,0.,0.
 ,-0.05796195,0.,0.,0.19703324,0.00461658,0.02904281,0.,-0.04586019,-0.
 01532440,0.,-0.21971237,0.05587659,0.,0.65230582,0.05154166,-0.0544722
 9,0.,-0.00802830,0.04456100,0.,0.03139572,-0.12788361,0.,0.06639471,0.
 78727474,0.,0.,0.02220554,0.,0.,0.00400120,0.,0.,-0.07723148,0.,0.,0.1
 1653624,-0.01028070,-0.00331218,0.,-0.14566108,-0.02303184,0.,0.036100
 95,-0.02035428,0.,-0.01278939,0.02109756,0.,0.83511879,0.01438223,-0.0
 0237818,0.,0.03030729,-0.33170345,0.,-0.07629908,-0.02982863,0.,0.0176
 2832,-0.03089189,0.,-0.01984814,0.67652394,0.,0.,0.00531546,0.,0.,-0.0
 4252922,0.,0.,-0.00395542,0.,0.,0.00066968,0.,0.,0.13543718,-0.0138542
 4,0.00698552,0.,-0.00458070,-0.03187051,0.,0.03697177,0.03405800,0.,-0
 .12929347,0.02628680,0.,-0.06207248,0.01595132,0.,0.68115774,-0.005822
 91,0.01114311,0.,-0.00493760,-0.03533748,0.,0.04793533,-0.02485871,0.,
 -0.01367653,-0.43668031,0.,-0.02072689,0.04703160,0.,-0.04424845,0.753
 30882,0.,0.,0.00429824,0.,0.,-0.00510386,0.,0.,-0.00052455,0.,0.,-0.05
 460519,0.,0.,0.00702576,0.,0.,0.14176211,0.01067204,-0.00701090,0.,0.0
 0874796,0.06633394,0.,-0.04854853,-0.00298207,0.,0.02121784,-0.0534453
 8,0.,-0.35573344,0.10732550,0.,-0.24034923,-0.05240417,0.,0.68797713,-
 0.00298867,-0.00441261,0.,0.03809818,-0.04730362,0.,0.01006781,0.00529
 307,0.,-0.03315971,-0.02843136,0.,0.14854577,-0.18883623,0.,-0.1017951
 7,-0.16850908,0.,-0.05956841,0.76810801,0.,0.,-0.00012294,0.,0.,0.0113
 3783,0.,0.,-0.00734790,0.,0.,0.00690843,0.,0.,-0.06208655,0.,0.,-0.060
 36499,0.,0.,0.11366984,0.00550542,0.00045689,0.,-0.35844114,0.15667713
 ,0.,-0.02250599,0.02077397,0.,-0.00442855,-0.00410834,0.,0.00622212,-0
 .00225869,0.,-0.00104054,-0.00283974,0.,0.00473612,-0.00234951,0.,0.36
 974920,0.00566027,-0.00206493,0.,0.15320183,-0.15435163,0.,-0.01824151
 ,0.02151588,0.,-0.00336643,-0.00343475,0.,0.03358555,-0.01253297,0.,-0
 .00014535,0.00039227,0.,-0.00400064,-0.00603451,0.,-0.16664852,0.15548
 102,0.,0.,-0.00455298,0.,0.,-0.01578462,0.,0.,0.00280396,0.,0.,0.00479
 971,0.,0.,-0.00609085,0.,0.,-0.00069478,0.,0.,0.00532096,0.,0.,0.01631
 369,0.00328056,0.00078066,0.,-0.00591554,0.00276836,0.,-0.01708907,-0.
 02026332,0.,-0.26470149,-0.12917248,0.,-0.00020208,0.00289550,0.,0.005
 32252,0.00300045,0.,0.00275479,0.00088070,0.,-0.00124785,-0.00117616,0
 .,0.27663067,-0.00200663,0.00063481,0.,0.00401556,-0.00088448,0.,0.013
 60748,0.01110253,0.,-0.13065846,-0.13928838,0.,0.00077395,-0.00114342,
 0.,-0.02813703,-0.01193603,0.,0.00210217,-0.00489677,0.,0.00101901,0.0
 0066703,0.,0.14067092,0.14507426,0.,0.,-0.00227408,0.,0.,0.00533686,0.
 ,0.,0.00226663,0.,0.,-0.03401732,0.,0.,-0.00081313,0.,0.,0.00231440,0.
 ,0.,0.00961615,0.,0.,-0.00054199,0.,0.,0.02476677,-0.00019090,-0.00028
 263,0.,0.00458976,0.00139910,0.,0.00264226,0.00211021,0.,0.00064326,0.
 00076841,0.,-0.29137570,-0.11500139,0.,-0.00387138,0.00476391,0.,-0.01
 566098,-0.01593810,0.,0.00112579,-0.00040266,0.,-0.00002399,-0.0001311
 5,0.,0.30231371,-0.00197015,-0.00332739,0.,-0.03605660,-0.02094359,0.,
 0.00787580,0.00019928,0.,-0.00030744,0.00008030,0.,-0.10927614,-0.1133
 4010,0.,0.00276257,-0.00163798,0.,0.01366683,0.01275791,0.,-0.00035777
 ,0.00081360,0.,-0.00017581,0.00012510,0.,0.12350817,0.12403194,0.,0.,-
 0.00034403,0.,0.,0.00274915,0.,0.,0.00540745,0.,0.,0.00011734,0.,0.,-0
 .03631602,0.,0.,0.00824134,0.,0.,0.00618238,0.,0.,-0.00272241,0.,0.,-0
 .00143181,0.,0.,0.02346942,-0.00016668,0.00074624,0.,0.00124940,-0.000
 68675,0.,0.00172127,-0.00160144,0.,0.00297109,-0.00092395,0.,-0.004135
 65,-0.00445772,0.,-0.27399949,0.11704149,0.,-0.01819398,0.01536942,0.,
 0.00003884,0.00005722,0.,0.00101831,0.00014665,0.,-0.00122012,0.000855
 08,0.,0.28945605,0.00213871,-0.00167394,0.,0.00025906,-0.00023955,0.,-
 0.00366335,-0.00436998,0.,0.03054385,-0.01133791,0.,-0.00347492,-0.001
 35985,0.,0.11671516,-0.12244154,0.,-0.01536194,0.01148936,0.,0.0000397
 9,0.00001642,0.,-0.00047267,0.00115467,0.,-0.00091820,0.00059882,0.,-0
 .12654587,0.12739127,0.,0.,-0.00270732,0.,0.,-0.00061956,0.,0.,0.01265
 692,0.,0.,0.00660172,0.,0.,0.00483071,0.,0.,-0.04198630,0.,0.,0.004135
 02,0.,0.,-0.00088928,0.,0.,-0.00589511,0.,0.,-0.00042462,0.,0.,0.02664
 669,0.00079803,0.00000756,0.,-0.00563126,0.00233042,0.,-0.00211892,-0.
 00019244,0.,-0.00496913,-0.00180640,0.,0.00480866,0.02937485,0.,0.0056
 0949,-0.02808489,0.,-0.05761972,0.00283771,0.,0.00028658,0.00147639,0.
 ,0.00017317,-0.00140247,0.,0.00102829,-0.00052453,0.,0.00126096,0.0007
 4038,0.,0.05637385,0.00010444,-0.00006229,0.,0.00327349,0.00158662,0.,
 -0.00041539,0.00063911,0.,-0.00299329,0.00050445,0.,-0.00397846,-0.011
 54082,0.,0.00343714,-0.01047468,0.,0.00534506,-0.34922417,0.,-0.000404
 21,-0.00046744,0.,0.00026385,-0.00060933,0.,0.00012432,0.00064211,0.,-
 0.00000037,0.00077223,0.,-0.00475657,0.36823421,0.,0.,-0.00056782,0.,0
 .,0.00762752,0.,0.,-0.00039547,0.,0.,0.00401415,0.,0.,-0.00148759,0.,0
 .,-0.00036218,0.,0.,-0.02724824,0.,0.,0.00203860,0.,0.,0.00067263,0.,0
 .,-0.00492820,0.,0.,-0.00234888,0.,0.,0.02298547\\0.00012337,0.0003020
 2,0.,0.00020073,0.00068106,0.,-0.00076968,-0.00032499,0.,0.00047945,-0
 .00033761,0.,0.00000130,-0.00050435,0.,0.00043049,0.00022614,0.,-0.000
 36795,-0.00008678,0.,0.00005147,-0.00011491,0.,-0.00010940,0.00004033,
 0.,0.00003248,0.00009502,0.,-0.00010093,-0.00005599,0.,0.00002867,0.00
 008006,0.\\\@


 BOOKS ARE LIGHTHOUSES ERECTED IN THE GREAT SEA OF TIME.
     -- E.P.WHIPPLE
 Job cpu time:       0 days  0 hours 41 minutes 55.0 seconds.
 File lengths (MBytes):  RWF=     80 Int=      0 D2E=      0 Chk=      7 Scr=      1
 Normal termination of Gaussian 09 at Fri Aug 27 00:06:45 2021.
