 Entering Gaussian System, Link 0=g09
 AtFile(1): pc-2.gbs
            -H     0
            S    4   1.00
                  0.754230D+02           0.240650D-02
                  0.113500D+02           0.184870D-01
                  0.259930D+01           0.897420D-01
                  0.735130D+00           0.281110D+00
            S    1   1.00
                  0.231670D+00           0.100000D+01
            S    1   1.00
                  0.741470D-01           0.100000D+01
            P    1   1.00
                  0.160000D+01           0.100000D+01
            P    1   1.00
                  0.450000D+00           0.100000D+01
            D    1   1.00
                  0.125000D+01           0.100000D+01
            ****
            -C     0
            S    7   1.00
                  0.785710D+04           0.568250D-03
                  0.117870D+04           0.439150D-02
                  0.268320D+03           0.225040D-01
                  0.759480D+02           0.866530D-01
                  0.245590D+02           0.244050D+00
                  0.862120D+01           0.441480D+00
                  0.312780D+01           0.353320D+00
            S    7   1.00
                  0.117870D+04          -0.594920D-06
                  0.268320D+03          -0.627480D-04
                  0.759480D+02          -0.757730D-03
                  0.245590D+02          -0.733080D-02
                  0.862120D+01          -0.389320D-01
                  0.312780D+01          -0.889080D-01
                  0.822020D+00           0.216890D+00
            S    1   1.00
                  0.330170D+00           0.100000D+01
            S    1   1.00
                  0.114630D+00           0.100000D+01
            P    4   1.00
                  0.337750D+02           0.602940D-02
                  0.767660D+01           0.432280D-01
                  0.223570D+01           0.163010D+00
                  0.764470D+00           0.365040D+00
            P    1   1.00
                  0.262320D+00           0.100000D+01
            P    1   1.00
                  0.846380D-01           0.100000D+01
            D    1   1.00
                  0.140000D+01           0.100000D+01
            D    1   1.00
                  0.450000D+00           0.100000D+01
            F    1   1.00
                  0.950000D+00           0.100000D+01
            ****
            -N     0
            S    7   1.00
                  0.111010D+05           0.545700D-03
                  0.166530D+04           0.421810D-02
                  0.379080D+03           0.216450D-01
                  0.107300D+03           0.837760D-01
                  0.347470D+02           0.238810D+00
                  0.122490D+02           0.439940D+00
                  0.447430D+01           0.363640D+00
            S    7   1.00
                  0.166530D+04          -0.150060D-05
                  0.379080D+03          -0.587530D-04
                  0.107300D+03          -0.774530D-03
                  0.347470D+02          -0.721610D-02
                  0.122490D+02          -0.393380D-01
                  0.447430D+01          -0.906110D-01
                  0.124040D+01           0.198820D+00
            S    1   1.00
                  0.487430D+00           0.100000D+01
            S    1   1.00
                  0.164840D+00           0.100000D+01
            P    4   1.00
                  0.479340D+02           0.617060D-02
                  0.109990D+02           0.442600D-01
                  0.324720D+01           0.168250D+00
                  0.111140D+01           0.368480D+00
            P    1   1.00
                  0.379880D+00           0.100000D+01
            P    1   1.00
                  0.120680D+00           0.100000D+01
            D    1   1.00
                  0.180000D+01           0.100000D+01
            D    1   1.00
                  0.550000D+00           0.100000D+01
            F    1   1.00
                  0.102000D+01           0.100000D+01
            ****
            -O     0
            S    7   1.00
                  0.147820D+05           0.535190D-03
                  0.221730D+04           0.413750D-02
                  0.504740D+03           0.212450D-01
                  0.142870D+03           0.824530D-01
                  0.463000D+02           0.236710D+00
                  0.163370D+02           0.440390D+00
                  0.598280D+01           0.364650D+00
            S    7   1.00
                  0.221730D+04          -0.192750D-05
                  0.504740D+03          -0.579640D-04
                  0.142870D+03          -0.794940D-03
                  0.463000D+02          -0.731250D-02
                  0.163370D+02          -0.405740D-01
                  0.598280D+01          -0.915940D-01
                  0.167180D+01           0.209400D+00
            S    1   1.00
                  0.646620D+00           0.100000D+01
            S    1   1.00
                  0.216690D+00           0.100000D+01
            P    4   1.00
                  0.604240D+02           0.689490D-02
                  0.139350D+02           0.490050D-01
                  0.415310D+01           0.182550D+00
                  0.141580D+01           0.376330D+00
            P    1   1.00
                  0.475490D+00           0.100000D+01
            P    1   1.00
                  0.145290D+00           0.100000D+01
            D    1   1.00
                  0.220000D+01           0.100000D+01
            D    1   1.00
                  0.650000D+00           0.100000D+01
            F    1   1.00
                  0.110000D+01           0.100000D+01
            ****
 Initial command:
 /public3/home/sc51754/softwares/g09e01/l1.exe "./Gau-62713.inp" -scrdir="./"
 Entering Link 1 = /public3/home/sc51754/softwares/g09e01/l1.exe PID=     62714.
  
 Copyright (c) 1988,1990,1992,1993,1995,1998,2003,2009,2015,
            Gaussian, Inc.  All Rights Reserved.
  
 This is part of the Gaussian(R) 09 program.  It is based on
 the Gaussian(R) 03 system (copyright 2003, Gaussian, Inc.),
 the Gaussian(R) 98 system (copyright 1998, Gaussian, Inc.),
 the Gaussian(R) 94 system (copyright 1995, Gaussian, Inc.),
 the Gaussian 92(TM) system (copyright 1992, Gaussian, Inc.),
 the Gaussian 90(TM) system (copyright 1990, Gaussian, Inc.),
 the Gaussian 88(TM) system (copyright 1988, Gaussian, Inc.),
 the Gaussian 86(TM) system (copyright 1986, Carnegie Mellon
 University), and the Gaussian 82(TM) system (copyright 1983,
 Carnegie Mellon University). Gaussian is a federally registered
 trademark of Gaussian, Inc.
  
 This software contains proprietary and confidential information,
 including trade secrets, belonging to Gaussian, Inc.
  
 This software is provided under written license and may be
 used, copied, transmitted, or stored only in accord with that
 written license.
  
 The following legend is applicable only to US Government
 contracts under FAR:
  
                    RESTRICTED RIGHTS LEGEND
  
 Use, reproduction and disclosure by the US Government is
 subject to restrictions as set forth in subparagraphs (a)
 and (c) of the Commercial Computer Software - Restricted
 Rights clause in FAR 52.227-19.
  
 Gaussian, Inc.
 340 Quinnipiac St., Bldg. 40, Wallingford CT 06492
  
  
 ---------------------------------------------------------------
 Warning -- This program may not be used in any manner that
 competes with the business of Gaussian, Inc. or will provide
 assistance to any competitor of Gaussian, Inc.  The licensee
 of this program is prohibited from giving any competitor of
 Gaussian, Inc. access to this program.  By using this program,
 the user acknowledges that Gaussian, Inc. is engaged in the
 business of creating and licensing software in the field of
 computational chemistry and represents and warrants to the
 licensee that it is not a competitor of Gaussian, Inc. and that
 it will not use this program in any manner prohibited above.
 ---------------------------------------------------------------
  

 Cite this work as:
 Gaussian 09, Revision E.01,
 M. J. Frisch, G. W. Trucks, H. B. Schlegel, G. E. Scuseria, 
 M. A. Robb, J. R. Cheeseman, G. Scalmani, V. Barone, B. Mennucci, 
 G. A. Petersson, H. Nakatsuji, M. Caricato, X. Li, H. P. Hratchian, 
 A. F. Izmaylov, J. Bloino, G. Zheng, J. L. Sonnenberg, M. Hada, 
 M. Ehara, K. Toyota, R. Fukuda, J. Hasegawa, M. Ishida, T. Nakajima, 
 Y. Honda, O. Kitao, H. Nakai, T. Vreven, J. A. Montgomery, Jr., 
 J. E. Peralta, F. Ogliaro, M. Bearpark, J. J. Heyd, E. Brothers, 
 K. N. Kudin, V. N. Staroverov, T. Keith, R. Kobayashi, J. Normand, 
 K. Raghavachari, A. Rendell, J. C. Burant, S. S. Iyengar, J. Tomasi, 
 M. Cossi, N. Rega, J. M. Millam, M. Klene, J. E. Knox, J. B. Cross, 
 V. Bakken, C. Adamo, J. Jaramillo, R. Gomperts, R. E. Stratmann, 
 O. Yazyev, A. J. Austin, R. Cammi, C. Pomelli, J. W. Ochterski, 
 R. L. Martin, K. Morokuma, V. G. Zakrzewski, G. A. Voth, 
 P. Salvador, J. J. Dannenberg, S. Dapprich, A. D. Daniels, 
 O. Farkas, J. B. Foresman, J. V. Ortiz, J. Cioslowski, 
 and D. J. Fox, Gaussian, Inc., Wallingford CT, 2013.
 
 ******************************************
 Gaussian 09:  EM64L-G09RevE.01 30-Nov-2015
                27-Aug-2021 
 ******************************************
 %nprocshared=64
 Will use up to   64 processors via shared memory.
 %mem=128GB
 %chk=PY_M06_PC2_OPT_FREQ.chk
 -------------------
 #p opt freq M06/gen
 -------------------
 1/14=-1,18=20,19=15,26=3,38=1/1,3;
 2/9=110,12=2,17=6,18=5,40=1/2;
 3/5=7,11=2,16=1,25=1,30=1,71=1,74=-54/1,2,3;
 4//1;
 5/5=2,38=5/2;
 6/7=2,8=2,9=2,10=2,28=1/1;
 7//1,2,3,16;
 1/14=-1,18=20,19=15,26=3/3(2);
 2/9=110/2;
 99//99;
 2/9=110/2;
 3/5=7,6=1,11=2,16=1,25=1,30=1,71=1,74=-54,82=7/1,2,3;
 4/5=5,16=3,69=1/1;
 5/5=2,38=5/2;
 7//1,2,3,16;
 1/14=-1,18=20,19=15,26=3/3(-5);
 2/9=110/2;
 6/7=2,8=2,9=2,10=2,19=2,28=1/1;
 99/9=1/99;
 Leave Link    1 at Fri Aug 27 00:15:43 2021, MaxMem= 17179869184 cpu:         6.0
 (Enter /public3/home/sc51754/softwares/g09e01/l101.exe)
 -------------------
 PY_M06_PC2_OPT_FREQ
 -------------------
 Symbolic Z-matrix:
 Charge =  0 Multiplicity = 1
 O                    -0.1303    2.2679    0. 
 N                    -1.13214   0.23327   0. 
 C                     0.        1.06201   0. 
 C                     1.23795   0.32011   0. 
 C                    -1.11441  -1.12189   0. 
 C                     1.25607  -1.03234   0. 
 C                     0.05856  -1.79159   0. 
 H                    -2.00762   0.73274   0. 
 H                     2.14422   0.90837   0. 
 H                    -2.07697  -1.61403   0. 
 H                     2.20675  -1.5513    0. 
 H                     0.072    -2.86964   0. 
 
 NAtoms=     12 NQM=       12 NQMF=       0 NMMI=      0 NMMIF=      0
                NMic=       0 NMicF=      0.
                    Isotopes and Nuclear Properties:
 (Nuclear quadrupole moments (NQMom) in fm**2, nuclear magnetic moments (NMagM)
  in nuclear magnetons)

  Atom         1           2           3           4           5           6           7           8           9          10
 IAtWgt=          16          14          12          12          12          12          12           1           1           1
 AtmWgt=  15.9949146  14.0030740  12.0000000  12.0000000  12.0000000  12.0000000  12.0000000   1.0078250   1.0078250   1.0078250
 NucSpn=           0           2           0           0           0           0           0           1           1           1
 AtZEff=   0.0000000   0.0000000   0.0000000   0.0000000   0.0000000   0.0000000   0.0000000   0.0000000   0.0000000   0.0000000
 NQMom=    0.0000000   2.0440000   0.0000000   0.0000000   0.0000000   0.0000000   0.0000000   0.0000000   0.0000000   0.0000000
 NMagM=    0.0000000   0.4037610   0.0000000   0.0000000   0.0000000   0.0000000   0.0000000   2.7928460   2.7928460   2.7928460
 AtZNuc=   8.0000000   7.0000000   6.0000000   6.0000000   6.0000000   6.0000000   6.0000000   1.0000000   1.0000000   1.0000000

  Atom        11          12
 IAtWgt=           1           1
 AtmWgt=   1.0078250   1.0078250
 NucSpn=           1           1
 AtZEff=   0.0000000   0.0000000
 NQMom=    0.0000000   0.0000000
 NMagM=    2.7928460   2.7928460
 AtZNuc=   1.0000000   1.0000000
 Leave Link  101 at Fri Aug 27 00:15:44 2021, MaxMem= 17179869184 cpu:        11.8
 (Enter /public3/home/sc51754/softwares/g09e01/l103.exe)

 GradGradGradGradGradGradGradGradGradGradGradGradGradGradGradGradGradGrad
 Berny optimization.
 Initialization pass.
                           ----------------------------
                           !    Initial Parameters    !
                           ! (Angstroms and Degrees)  !
 --------------------------                            --------------------------
 ! Name  Definition              Value          Derivative Info.                !
 --------------------------------------------------------------------------------
 ! R1    R(1,3)                  1.2129         estimate D2E/DX2                !
 ! R2    R(2,3)                  1.403          estimate D2E/DX2                !
 ! R3    R(2,5)                  1.3553         estimate D2E/DX2                !
 ! R4    R(2,8)                  1.0079         estimate D2E/DX2                !
 ! R5    R(3,4)                  1.4432         estimate D2E/DX2                !
 ! R6    R(4,6)                  1.3526         estimate D2E/DX2                !
 ! R7    R(4,9)                  1.0805         estimate D2E/DX2                !
 ! R8    R(5,7)                  1.3507         estimate D2E/DX2                !
 ! R9    R(5,10)                 1.0811         estimate D2E/DX2                !
 ! R10   R(6,7)                  1.4179         estimate D2E/DX2                !
 ! R11   R(6,11)                 1.0831         estimate D2E/DX2                !
 ! R12   R(7,12)                 1.0781         estimate D2E/DX2                !
 ! A1    A(3,2,5)              125.4546         estimate D2E/DX2                !
 ! A2    A(3,2,8)              114.0905         estimate D2E/DX2                !
 ! A3    A(5,2,8)              120.4549         estimate D2E/DX2                !
 ! A4    A(1,3,2)              120.0371         estimate D2E/DX2                !
 ! A5    A(1,3,4)              127.1013         estimate D2E/DX2                !
 ! A6    A(2,3,4)              112.8616         estimate D2E/DX2                !
 ! A7    A(3,4,6)              121.7019         estimate D2E/DX2                !
 ! A8    A(3,4,9)              116.0785         estimate D2E/DX2                !
 ! A9    A(6,4,9)              122.2196         estimate D2E/DX2                !
 ! A10   A(2,5,7)              120.4739         estimate D2E/DX2                !
 ! A11   A(2,5,10)             116.3305         estimate D2E/DX2                !
 ! A12   A(7,5,10)             123.1956         estimate D2E/DX2                !
 ! A13   A(4,6,7)              121.6078         estimate D2E/DX2                !
 ! A14   A(4,6,11)             119.3971         estimate D2E/DX2                !
 ! A15   A(7,6,11)             118.9951         estimate D2E/DX2                !
 ! A16   A(5,7,6)              117.9002         estimate D2E/DX2                !
 ! A17   A(5,7,12)             120.4381         estimate D2E/DX2                !
 ! A18   A(6,7,12)             121.6617         estimate D2E/DX2                !
 ! D1    D(5,2,3,1)            180.0            estimate D2E/DX2                !
 ! D2    D(5,2,3,4)              0.0            estimate D2E/DX2                !
 ! D3    D(8,2,3,1)              0.0            estimate D2E/DX2                !
 ! D4    D(8,2,3,4)            180.0            estimate D2E/DX2                !
 ! D5    D(3,2,5,7)              0.0            estimate D2E/DX2                !
 ! D6    D(3,2,5,10)           180.0            estimate D2E/DX2                !
 ! D7    D(8,2,5,7)            180.0            estimate D2E/DX2                !
 ! D8    D(8,2,5,10)             0.0            estimate D2E/DX2                !
 ! D9    D(1,3,4,6)            180.0            estimate D2E/DX2                !
 ! D10   D(1,3,4,9)              0.0            estimate D2E/DX2                !
 ! D11   D(2,3,4,6)              0.0            estimate D2E/DX2                !
 ! D12   D(2,3,4,9)            180.0            estimate D2E/DX2                !
 ! D13   D(3,4,6,7)              0.0            estimate D2E/DX2                !
 ! D14   D(3,4,6,11)           180.0            estimate D2E/DX2                !
 ! D15   D(9,4,6,7)            180.0            estimate D2E/DX2                !
 ! D16   D(9,4,6,11)             0.0            estimate D2E/DX2                !
 ! D17   D(2,5,7,6)              0.0            estimate D2E/DX2                !
 ! D18   D(2,5,7,12)           180.0            estimate D2E/DX2                !
 ! D19   D(10,5,7,6)           180.0            estimate D2E/DX2                !
 ! D20   D(10,5,7,12)            0.0            estimate D2E/DX2                !
 ! D21   D(4,6,7,5)              0.0            estimate D2E/DX2                !
 ! D22   D(4,6,7,12)           180.0            estimate D2E/DX2                !
 ! D23   D(11,6,7,5)           180.0            estimate D2E/DX2                !
 ! D24   D(11,6,7,12)            0.0            estimate D2E/DX2                !
 --------------------------------------------------------------------------------
 Trust Radius=3.00D-01 FncErr=1.00D-07 GrdErr=1.00D-06
 Number of steps in this run=     64 maximum allowed number of steps=    100.
 GradGradGradGradGradGradGradGradGradGradGradGradGradGradGradGradGradGrad

 Leave Link  103 at Fri Aug 27 00:15:44 2021, MaxMem= 17179869184 cpu:         0.2
 (Enter /public3/home/sc51754/softwares/g09e01/l202.exe)
                          Input orientation:                          
 ---------------------------------------------------------------------
 Center     Atomic      Atomic             Coordinates (Angstroms)
 Number     Number       Type             X           Y           Z
 ---------------------------------------------------------------------
      1          8           0       -0.130304    2.267896    0.000000
      2          7           0       -1.132141    0.233271    0.000000
      3          6           0        0.000000    1.062005    0.000000
      4          6           0        1.237945    0.320111    0.000000
      5          6           0       -1.114407   -1.121885    0.000000
      6          6           0        1.256071   -1.032342    0.000000
      7          6           0        0.058564   -1.791590    0.000000
      8          1           0       -2.007624    0.732742    0.000000
      9          1           0        2.144218    0.908369    0.000000
     10          1           0       -2.076968   -1.614034    0.000000
     11          1           0        2.206750   -1.551299    0.000000
     12          1           0        0.071999   -2.869636    0.000000
 ---------------------------------------------------------------------
                    Distance matrix (angstroms):
                    1          2          3          4          5
     1  O    0.000000
     2  N    2.267901   0.000000
     3  C    1.212911   1.403048   0.000000
     4  C    2.380330   2.371676   1.443231   0.000000
     5  C    3.529741   1.355272   2.451791   2.759151   0.000000
     6  C    3.579610   2.702838   2.442131   1.352574   2.372169
     7  C    4.063877   2.349008   2.854196   2.418723   1.350691
     8  H    2.425083   1.007939   2.034445   3.271694   2.058514
     9  H    2.649861   3.345188   2.149715   1.080453   3.839345
    10  H    4.342681   2.074906   3.387474   3.837912   1.081080
    11  H    4.477507   3.785879   3.420395   2.107311   3.348803
    12  H    5.141514   3.328361   3.932300   3.396162   2.112390
                    6          7          8          9         10
     6  C    0.000000
     7  C    1.417914   0.000000
     8  H    3.710421   3.262114   0.000000
     9  H    2.134283   3.411705   4.155555   0.000000
    10  H    3.383418   2.142901   2.347800   4.917411   0.000000
    11  H    1.083101   2.161583   4.793516   2.460463   4.284177
    12  H    2.185790   1.078130   4.159562   4.308992   2.488894
                   11         12
    11  H    0.000000
    12  H    2.509019   0.000000
 Stoichiometry    C5H5NO
 Framework group  CS[SG(C5H5NO)]
 Deg. of freedom    21
 Full point group                 CS      NOp   2
 Largest Abelian subgroup         CS      NOp   2
 Largest concise Abelian subgroup C1      NOp   1
                         Standard orientation:                         
 ---------------------------------------------------------------------
 Center     Atomic      Atomic             Coordinates (Angstroms)
 Number     Number       Type             X           Y           Z
 ---------------------------------------------------------------------
      1          8           0       -0.130304    2.267896    0.000000
      2          7           0       -1.132141    0.233271    0.000000
      3          6           0       -0.000000    1.062005    0.000000
      4          6           0        1.237945    0.320111   -0.000000
      5          6           0       -1.114407   -1.121885    0.000000
      6          6           0        1.256071   -1.032342   -0.000000
      7          6           0        0.058564   -1.791590   -0.000000
      8          1           0       -2.007624    0.732742    0.000000
      9          1           0        2.144218    0.908369   -0.000000
     10          1           0       -2.076968   -1.614034    0.000000
     11          1           0        2.206750   -1.551299   -0.000000
     12          1           0        0.071999   -2.869636   -0.000000
 ---------------------------------------------------------------------
 Rotational constants (GHZ):      5.7341355      2.8228169      1.8916098
 Leave Link  202 at Fri Aug 27 00:15:44 2021, MaxMem= 17179869184 cpu:         7.1
 (Enter /public3/home/sc51754/softwares/g09e01/l301.exe)
 General basis read from cards:  (5D, 7F)
 Centers:       8      9     10     11     12
 S 4 1.00
     Exponent=  7.5423000000D+01 Coefficients=  2.4065000000D-03
     Exponent=  1.1350000000D+01 Coefficients=  1.8487000000D-02
     Exponent=  2.5993000000D+00 Coefficients=  8.9742000000D-02
     Exponent=  7.3513000000D-01 Coefficients=  2.8111000000D-01
 S 1 1.00
     Exponent=  2.3167000000D-01 Coefficients=  1.0000000000D+00
 S 1 1.00
     Exponent=  7.4147000000D-02 Coefficients=  1.0000000000D+00
 P 1 1.00
     Exponent=  1.6000000000D+00 Coefficients=  1.0000000000D+00
 P 1 1.00
     Exponent=  4.5000000000D-01 Coefficients=  1.0000000000D+00
 D 1 1.00
     Exponent=  1.2500000000D+00 Coefficients=  1.0000000000D+00
 ****
 Centers:       3      4      5      6      7
 S 7 1.00
     Exponent=  7.8571000000D+03 Coefficients=  5.6825000000D-04
     Exponent=  1.1787000000D+03 Coefficients=  4.3915000000D-03
     Exponent=  2.6832000000D+02 Coefficients=  2.2504000000D-02
     Exponent=  7.5948000000D+01 Coefficients=  8.6653000000D-02
     Exponent=  2.4559000000D+01 Coefficients=  2.4405000000D-01
     Exponent=  8.6212000000D+00 Coefficients=  4.4148000000D-01
     Exponent=  3.1278000000D+00 Coefficients=  3.5332000000D-01
 S 7 1.00
     Exponent=  1.1787000000D+03 Coefficients= -5.9492000000D-07
     Exponent=  2.6832000000D+02 Coefficients= -6.2748000000D-05
     Exponent=  7.5948000000D+01 Coefficients= -7.5773000000D-04
     Exponent=  2.4559000000D+01 Coefficients= -7.3308000000D-03
     Exponent=  8.6212000000D+00 Coefficients= -3.8932000000D-02
     Exponent=  3.1278000000D+00 Coefficients= -8.8908000000D-02
     Exponent=  8.2202000000D-01 Coefficients=  2.1689000000D-01
 S 1 1.00
     Exponent=  3.3017000000D-01 Coefficients=  1.0000000000D+00
 S 1 1.00
     Exponent=  1.1463000000D-01 Coefficients=  1.0000000000D+00
 P 4 1.00
     Exponent=  3.3775000000D+01 Coefficients=  6.0294000000D-03
     Exponent=  7.6766000000D+00 Coefficients=  4.3228000000D-02
     Exponent=  2.2357000000D+00 Coefficients=  1.6301000000D-01
     Exponent=  7.6447000000D-01 Coefficients=  3.6504000000D-01
 P 1 1.00
     Exponent=  2.6232000000D-01 Coefficients=  1.0000000000D+00
 P 1 1.00
     Exponent=  8.4638000000D-02 Coefficients=  1.0000000000D+00
 D 1 1.00
     Exponent=  1.4000000000D+00 Coefficients=  1.0000000000D+00
 D 1 1.00
     Exponent=  4.5000000000D-01 Coefficients=  1.0000000000D+00
 F 1 1.00
     Exponent=  9.5000000000D-01 Coefficients=  1.0000000000D+00
 ****
 Centers:       2
 S 7 1.00
     Exponent=  1.1101000000D+04 Coefficients=  5.4570000000D-04
     Exponent=  1.6653000000D+03 Coefficients=  4.2181000000D-03
     Exponent=  3.7908000000D+02 Coefficients=  2.1645000000D-02
     Exponent=  1.0730000000D+02 Coefficients=  8.3776000000D-02
     Exponent=  3.4747000000D+01 Coefficients=  2.3881000000D-01
     Exponent=  1.2249000000D+01 Coefficients=  4.3994000000D-01
     Exponent=  4.4743000000D+00 Coefficients=  3.6364000000D-01
 S 7 1.00
     Exponent=  1.6653000000D+03 Coefficients= -1.5006000000D-06
     Exponent=  3.7908000000D+02 Coefficients= -5.8753000000D-05
     Exponent=  1.0730000000D+02 Coefficients= -7.7453000000D-04
     Exponent=  3.4747000000D+01 Coefficients= -7.2161000000D-03
     Exponent=  1.2249000000D+01 Coefficients= -3.9338000000D-02
     Exponent=  4.4743000000D+00 Coefficients= -9.0611000000D-02
     Exponent=  1.2404000000D+00 Coefficients=  1.9882000000D-01
 S 1 1.00
     Exponent=  4.8743000000D-01 Coefficients=  1.0000000000D+00
 S 1 1.00
     Exponent=  1.6484000000D-01 Coefficients=  1.0000000000D+00
 P 4 1.00
     Exponent=  4.7934000000D+01 Coefficients=  6.1706000000D-03
     Exponent=  1.0999000000D+01 Coefficients=  4.4260000000D-02
     Exponent=  3.2472000000D+00 Coefficients=  1.6825000000D-01
     Exponent=  1.1114000000D+00 Coefficients=  3.6848000000D-01
 P 1 1.00
     Exponent=  3.7988000000D-01 Coefficients=  1.0000000000D+00
 P 1 1.00
     Exponent=  1.2068000000D-01 Coefficients=  1.0000000000D+00
 D 1 1.00
     Exponent=  1.8000000000D+00 Coefficients=  1.0000000000D+00
 D 1 1.00
     Exponent=  5.5000000000D-01 Coefficients=  1.0000000000D+00
 F 1 1.00
     Exponent=  1.0200000000D+00 Coefficients=  1.0000000000D+00
 ****
 Centers:       1
 S 7 1.00
     Exponent=  1.4782000000D+04 Coefficients=  5.3519000000D-04
     Exponent=  2.2173000000D+03 Coefficients=  4.1375000000D-03
     Exponent=  5.0474000000D+02 Coefficients=  2.1245000000D-02
     Exponent=  1.4287000000D+02 Coefficients=  8.2453000000D-02
     Exponent=  4.6300000000D+01 Coefficients=  2.3671000000D-01
     Exponent=  1.6337000000D+01 Coefficients=  4.4039000000D-01
     Exponent=  5.9828000000D+00 Coefficients=  3.6465000000D-01
 S 7 1.00
     Exponent=  2.2173000000D+03 Coefficients= -1.9275000000D-06
     Exponent=  5.0474000000D+02 Coefficients= -5.7964000000D-05
     Exponent=  1.4287000000D+02 Coefficients= -7.9494000000D-04
     Exponent=  4.6300000000D+01 Coefficients= -7.3125000000D-03
     Exponent=  1.6337000000D+01 Coefficients= -4.0574000000D-02
     Exponent=  5.9828000000D+00 Coefficients= -9.1594000000D-02
     Exponent=  1.6718000000D+00 Coefficients=  2.0940000000D-01
 S 1 1.00
     Exponent=  6.4662000000D-01 Coefficients=  1.0000000000D+00
 S 1 1.00
     Exponent=  2.1669000000D-01 Coefficients=  1.0000000000D+00
 P 4 1.00
     Exponent=  6.0424000000D+01 Coefficients=  6.8949000000D-03
     Exponent=  1.3935000000D+01 Coefficients=  4.9005000000D-02
     Exponent=  4.1531000000D+00 Coefficients=  1.8255000000D-01
     Exponent=  1.4158000000D+00 Coefficients=  3.7633000000D-01
 P 1 1.00
     Exponent=  4.7549000000D-01 Coefficients=  1.0000000000D+00
 P 1 1.00
     Exponent=  1.4529000000D-01 Coefficients=  1.0000000000D+00
 D 1 1.00
     Exponent=  2.2000000000D+00 Coefficients=  1.0000000000D+00
 D 1 1.00
     Exponent=  6.5000000000D-01 Coefficients=  1.0000000000D+00
 F 1 1.00
     Exponent=  1.1000000000D+00 Coefficients=  1.0000000000D+00
 ****
 Ernie: Thresh=  0.10000D-02 Tol=  0.10000D-05 Strict=F.
 Ernie:  7 primitive shells out of 220 were deleted.
 There are   223 symmetry adapted cartesian basis functions of A'  symmetry.
 There are    97 symmetry adapted cartesian basis functions of A"  symmetry.
 There are   190 symmetry adapted basis functions of A'  symmetry.
 There are    90 symmetry adapted basis functions of A"  symmetry.
   280 basis functions,   475 primitive gaussians,   320 cartesian basis functions
    25 alpha electrons       25 beta electrons
       nuclear repulsion energy       276.8386644497 Hartrees.
 IExCor= 4235 DFT=T Ex+Corr=M06 ExCW=0 ScaHFX=  0.270000
 ScaDFX=  1.000000  1.000000  1.000000  1.000000 ScalE2=  1.000000  1.000000
 IRadAn=      0 IRanWt=     -1 IRanGd=            0 ICorTp=0 IEmpDi=  4
 NAtoms=   12 NActive=   12 NUniq=   12 SFac= 1.00D+00 NAtFMM=   60 NAOKFM=F Big=F
 Integral buffers will be    131072 words long.
 Raffenetti 2 integral format.
 Two-electron integral symmetry is turned on.
 Leave Link  301 at Fri Aug 27 00:15:44 2021, MaxMem= 17179869184 cpu:         1.3
 (Enter /public3/home/sc51754/softwares/g09e01/l302.exe)
 NPDir=0 NMtPBC=     1 NCelOv=     1 NCel=       1 NClECP=     1 NCelD=      1
         NCelK=      1 NCelE2=     1 NClLst=     1 CellRange=     0.0.
 One-electron integrals computed using PRISM.
 NBasis=   280 RedAO= T EigKep=  2.29D-04  NBF=   190    90
 NBsUse=   280 1.00D-06 EigRej= -1.00D+00 NBFU=   190    90
 Precomputing XC quadrature grid using
 IXCGrd= 4 IRadAn=           0 IRanWt=          -1 IRanGd=           0 AccXCQ= 0.00D+00.
 Generated NRdTot=       0 NPtTot=           0 NUsed=           0 NTot=          32
 NSgBfM=   320   320   320   320   320 MxSgAt=    12 MxSgA2=    12.
 Leave Link  302 at Fri Aug 27 00:15:45 2021, MaxMem= 17179869184 cpu:        42.4
 (Enter /public3/home/sc51754/softwares/g09e01/l303.exe)
 DipDrv:  MaxL=1.
 Leave Link  303 at Fri Aug 27 00:15:46 2021, MaxMem= 17179869184 cpu:        12.0
 (Enter /public3/home/sc51754/softwares/g09e01/l401.exe)
 ExpMin= 7.41D-02 ExpMax= 1.48D+04 ExpMxC= 5.05D+02 IAcc=2 IRadAn=         4 AccDes= 0.00D+00
 Harris functional with IExCor= 1009 and IRadAn=       4 diagonalized for initial guess.
 HarFok:  IExCor= 1009 AccDes= 0.00D+00 IRadAn=         4 IDoV= 1 UseB2=F ITyADJ=14
 ICtDFT=  3500011 ScaDFX=  1.000000  1.000000  1.000000  1.000000
 FoFCou: FMM=F IPFlag=           0 FMFlag=      100000 FMFlg1=           0
         NFxFlg=           0 DoJE=T BraDBF=F KetDBF=T FulRan=T
         wScrn=  0.000000 ICntrl=     500 IOpCl=  0 I1Cent=   200000004 NGrid=           0
         NMat0=    1 NMatS0=      1 NMatT0=    0 NMatD0=    1 NMtDS0=    0 NMtDT0=    0
 Petite list used in FoFCou.
 Harris En= -323.391688734430    
 JPrj=0 DoOrth=F DoCkMO=F.
 Initial guess orbital symmetries:
       Occupied  (A') (A') (A') (A') (A') (A') (A') (A') (A') (A')
                 (A') (A') (A') (A') (A') (A') (A') (A') (A") (A')
                 (A') (A") (A") (A') (A")
       Virtual   (A") (A") (A') (A') (A") (A') (A') (A') (A') (A')
                 (A') (A') (A") (A') (A") (A') (A") (A') (A') (A')
                 (A') (A') (A") (A') (A") (A') (A') (A') (A') (A')
                 (A") (A') (A') (A') (A") (A') (A') (A') (A') (A')
                 (A') (A') (A") (A') (A') (A') (A") (A') (A") (A")
                 (A') (A") (A') (A') (A") (A') (A') (A') (A') (A")
                 (A') (A") (A') (A') (A") (A') (A") (A') (A") (A")
                 (A') (A') (A') (A") (A') (A") (A') (A") (A') (A')
                 (A") (A') (A") (A') (A") (A') (A') (A') (A") (A")
                 (A') (A') (A") (A') (A') (A') (A') (A") (A') (A')
                 (A') (A') (A") (A') (A') (A') (A") (A') (A') (A')
                 (A") (A') (A') (A') (A') (A') (A") (A') (A') (A")
                 (A') (A') (A") (A') (A') (A") (A") (A") (A') (A")
                 (A') (A') (A") (A') (A") (A') (A') (A") (A') (A')
                 (A') (A') (A") (A') (A") (A') (A') (A') (A') (A')
                 (A') (A") (A") (A") (A") (A') (A") (A") (A') (A")
                 (A') (A") (A') (A') (A") (A') (A') (A') (A') (A")
                 (A') (A") (A') (A") (A") (A') (A') (A") (A") (A")
                 (A') (A") (A') (A") (A") (A') (A') (A") (A') (A")
                 (A') (A") (A') (A") (A') (A") (A') (A') (A") (A')
                 (A') (A') (A") (A") (A') (A') (A") (A') (A') (A')
                 (A") (A') (A') (A") (A') (A") (A') (A") (A') (A')
                 (A") (A') (A") (A') (A") (A') (A') (A') (A") (A')
                 (A') (A') (A') (A") (A') (A") (A') (A') (A') (A')
                 (A') (A") (A') (A') (A') (A') (A') (A') (A') (A')
                 (A') (A') (A') (A') (A')
 The electronic state of the initial guess is 1-A'.
 Leave Link  401 at Fri Aug 27 00:15:47 2021, MaxMem= 17179869184 cpu:        47.0
 (Enter /public3/home/sc51754/softwares/g09e01/l502.exe)
 Closed shell SCF:
 Using DIIS extrapolation, IDIIS=  1040.
 Integral symmetry usage will be decided dynamically.
 Keep R1 ints in memory in symmetry-blocked form, NReq=1167802198.
 IVT=      348658 IEndB=      348658 NGot= 17179869184 MDV= 16785904737
 LenX= 16785904737 LenY= 16785801896
 Requested convergence on RMS density matrix=1.00D-08 within 128 cycles.
 Requested convergence on MAX density matrix=1.00D-06.
 Requested convergence on             energy=1.00D-06.
 No special actions if energy rises.
 FoFCou: FMM=F IPFlag=           0 FMFlag=           0 FMFlg1=           0
         NFxFlg=           0 DoJE=F BraDBF=F KetDBF=F FulRan=T
         wScrn=  0.000000 ICntrl=     600 IOpCl=  0 I1Cent=           0 NGrid=           0
         NMat0=    1 NMatS0=  39340 NMatT0=    0 NMatD0=    1 NMtDS0=    0 NMtDT0=    0
 Petite list used in FoFCou.
 Integral accuracy reduced to 1.0D-05 until final iterations.

 Cycle   1  Pass 0  IDiag  1:
 E= -323.262858118123    
 DIIS: error= 2.71D-02 at cycle   1 NSaved=   1.
 NSaved= 1 IEnMin= 1 EnMin= -323.262858118123     IErMin= 1 ErrMin= 2.71D-02
 ErrMax= 2.71D-02  0.00D+00 EMaxC= 1.00D-01 BMatC= 1.97D-01 BMatP= 1.97D-01
 IDIUse=3 WtCom= 7.29D-01 WtEn= 2.71D-01
 Coeff-Com:  0.100D+01
 Coeff-En:   0.100D+01
 Coeff:      0.100D+01
 Gap=     0.143 Goal=   None    Shift=    0.000
 GapD=    0.143 DampG=1.000 DampE=0.500 DampFc=0.5000 IDamp=-1.
 Damping current iteration by 5.00D-01
 RMSDP=3.79D-03 MaxDP=1.41D-01              OVMax= 3.08D-01

 Cycle   2  Pass 0  IDiag  1:
 E= -323.311034722278     Delta-E=       -0.048176604156 Rises=F Damp=T
 DIIS: error= 8.68D-03 at cycle   2 NSaved=   2.
 NSaved= 2 IEnMin= 2 EnMin= -323.311034722278     IErMin= 2 ErrMin= 8.68D-03
 ErrMax= 8.68D-03  0.00D+00 EMaxC= 1.00D-01 BMatC= 2.96D-02 BMatP= 1.97D-01
 IDIUse=3 WtCom= 9.13D-01 WtEn= 8.68D-02
 Coeff-Com:  0.208D+00 0.792D+00
 Coeff-En:   0.336D+00 0.664D+00
 Coeff:      0.219D+00 0.781D+00
 Gap=     0.205 Goal=   None    Shift=    0.000
 RMSDP=1.43D-03 MaxDP=3.33D-02 DE=-4.82D-02 OVMax= 2.28D-01

 Cycle   3  Pass 0  IDiag  1:
 E= -323.416494941436     Delta-E=       -0.105460219158 Rises=F Damp=F
 DIIS: error= 9.75D-03 at cycle   3 NSaved=   3.
 NSaved= 3 IEnMin= 3 EnMin= -323.416494941436     IErMin= 2 ErrMin= 8.68D-03
 ErrMax= 9.75D-03  0.00D+00 EMaxC= 1.00D-01 BMatC= 2.42D-02 BMatP= 2.96D-02
 IDIUse=3 WtCom= 9.02D-01 WtEn= 9.75D-02
 Coeff-Com:  0.500D-01 0.471D+00 0.479D+00
 Coeff-En:   0.000D+00 0.000D+00 0.100D+01
 Coeff:      0.451D-01 0.425D+00 0.530D+00
 Gap=     0.194 Goal=   None    Shift=    0.000
 RMSDP=5.15D-04 MaxDP=2.20D-02 DE=-1.05D-01 OVMax= 7.38D-02

 Cycle   4  Pass 0  IDiag  1:
 E= -323.434363358007     Delta-E=       -0.017868416570 Rises=F Damp=F
 DIIS: error= 3.53D-03 at cycle   4 NSaved=   4.
 NSaved= 4 IEnMin= 4 EnMin= -323.434363358007     IErMin= 4 ErrMin= 3.53D-03
 ErrMax= 3.53D-03  0.00D+00 EMaxC= 1.00D-01 BMatC= 3.39D-03 BMatP= 2.42D-02
 IDIUse=3 WtCom= 9.65D-01 WtEn= 3.53D-02
 Coeff-Com:  0.102D-02 0.101D+00 0.300D+00 0.598D+00
 Coeff-En:   0.000D+00 0.000D+00 0.132D+00 0.868D+00
 Coeff:      0.987D-03 0.975D-01 0.294D+00 0.608D+00
 Gap=     0.196 Goal=   None    Shift=    0.000
 RMSDP=1.64D-04 MaxDP=6.06D-03 DE=-1.79D-02 OVMax= 1.95D-02

 Cycle   5  Pass 0  IDiag  1:
 E= -323.437144636685     Delta-E=       -0.002781278679 Rises=F Damp=F
 DIIS: error= 6.58D-04 at cycle   5 NSaved=   5.
 NSaved= 5 IEnMin= 5 EnMin= -323.437144636685     IErMin= 5 ErrMin= 6.58D-04
 ErrMax= 6.58D-04  0.00D+00 EMaxC= 1.00D-01 BMatC= 1.18D-04 BMatP= 3.39D-03
 IDIUse=3 WtCom= 9.93D-01 WtEn= 6.58D-03
 Coeff-Com: -0.430D-02 0.143D-01 0.101D+00 0.272D+00 0.617D+00
 Coeff-En:   0.000D+00 0.000D+00 0.000D+00 0.000D+00 0.100D+01
 Coeff:     -0.428D-02 0.142D-01 0.100D+00 0.270D+00 0.620D+00
 Gap=     0.195 Goal=   None    Shift=    0.000
 RMSDP=5.23D-05 MaxDP=1.83D-03 DE=-2.78D-03 OVMax= 7.74D-03

 Cycle   6  Pass 0  IDiag  1:
 E= -323.437222603085     Delta-E=       -0.000077966399 Rises=F Damp=F
 DIIS: error= 4.68D-04 at cycle   6 NSaved=   6.
 NSaved= 6 IEnMin= 6 EnMin= -323.437222603085     IErMin= 6 ErrMin= 4.68D-04
 ErrMax= 4.68D-04  0.00D+00 EMaxC= 1.00D-01 BMatC= 3.86D-05 BMatP= 1.18D-04
 IDIUse=3 WtCom= 9.95D-01 WtEn= 4.68D-03
 Coeff-Com: -0.254D-02-0.251D-02 0.218D-01 0.793D-01 0.392D+00 0.512D+00
 Coeff-En:   0.000D+00 0.000D+00 0.000D+00 0.000D+00 0.269D+00 0.731D+00
 Coeff:     -0.253D-02-0.250D-02 0.217D-01 0.789D-01 0.391D+00 0.513D+00
 Gap=     0.195 Goal=   None    Shift=    0.000
 RMSDP=1.89D-05 MaxDP=7.39D-04 DE=-7.80D-05 OVMax= 2.74D-03

 Cycle   7  Pass 0  IDiag  1:
 E= -323.437262176122     Delta-E=       -0.000039573037 Rises=F Damp=F
 DIIS: error= 5.38D-05 at cycle   7 NSaved=   7.
 NSaved= 7 IEnMin= 7 EnMin= -323.437262176122     IErMin= 7 ErrMin= 5.38D-05
 ErrMax= 5.38D-05  0.00D+00 EMaxC= 1.00D-01 BMatC= 9.67D-07 BMatP= 3.86D-05
 IDIUse=1 WtCom= 1.00D+00 WtEn= 0.00D+00
 Coeff-Com: -0.523D-03-0.240D-02-0.489D-03 0.354D-02 0.846D-01 0.174D+00
 Coeff-Com:  0.741D+00
 Coeff:     -0.523D-03-0.240D-02-0.489D-03 0.354D-02 0.846D-01 0.174D+00
 Coeff:      0.741D+00
 Gap=     0.195 Goal=   None    Shift=    0.000
 RMSDP=4.02D-06 MaxDP=2.47D-04 DE=-3.96D-05 OVMax= 3.92D-04

 Initial convergence to 1.0D-05 achieved.  Increase integral accuracy.
 Cycle   8  Pass 1  IDiag  1:
 E= -323.437314450796     Delta-E=       -0.000052274674 Rises=F Damp=F
 DIIS: error= 5.30D-04 at cycle   1 NSaved=   1.
 NSaved= 1 IEnMin= 1 EnMin= -323.437314450796     IErMin= 1 ErrMin= 5.30D-04
 ErrMax= 5.30D-04  0.00D+00 EMaxC= 1.00D-01 BMatC= 8.80D-05 BMatP= 8.80D-05
 IDIUse=3 WtCom= 9.95D-01 WtEn= 5.30D-03
 Coeff-Com:  0.100D+01
 Coeff-En:   0.100D+01
 Coeff:      0.100D+01
 Gap=     0.195 Goal=   None    Shift=    0.000
 RMSDP=4.02D-06 MaxDP=2.47D-04 DE=-5.23D-05 OVMax= 1.11D-03

 Cycle   9  Pass 1  IDiag  1:
 E= -323.437350316147     Delta-E=       -0.000035865351 Rises=F Damp=F
 DIIS: error= 9.96D-05 at cycle   2 NSaved=   2.
 NSaved= 2 IEnMin= 2 EnMin= -323.437350316147     IErMin= 2 ErrMin= 9.96D-05
 ErrMax= 9.96D-05  0.00D+00 EMaxC= 1.00D-01 BMatC= 3.93D-06 BMatP= 8.80D-05
 IDIUse=1 WtCom= 1.00D+00 WtEn= 0.00D+00
 Coeff-Com:  0.126D+00 0.874D+00
 Coeff:      0.126D+00 0.874D+00
 Gap=     0.195 Goal=   None    Shift=    0.000
 RMSDP=7.44D-06 MaxDP=2.88D-04 DE=-3.59D-05 OVMax= 4.51D-04

 Cycle  10  Pass 1  IDiag  1:
 E= -323.437351362635     Delta-E=       -0.000001046488 Rises=F Damp=F
 DIIS: error= 6.99D-05 at cycle   3 NSaved=   3.
 NSaved= 3 IEnMin= 3 EnMin= -323.437351362635     IErMin= 3 ErrMin= 6.99D-05
 ErrMax= 6.99D-05  0.00D+00 EMaxC= 1.00D-01 BMatC= 1.43D-06 BMatP= 3.93D-06
 IDIUse=1 WtCom= 1.00D+00 WtEn= 0.00D+00
 Coeff-Com:  0.347D-01 0.390D+00 0.575D+00
 Coeff:      0.347D-01 0.390D+00 0.575D+00
 Gap=     0.195 Goal=   None    Shift=    0.000
 RMSDP=3.98D-06 MaxDP=1.83D-04 DE=-1.05D-06 OVMax= 3.44D-04

 Cycle  11  Pass 1  IDiag  1:
 E= -323.437352339130     Delta-E=       -0.000000976495 Rises=F Damp=F
 DIIS: error= 2.90D-05 at cycle   4 NSaved=   4.
 NSaved= 4 IEnMin= 4 EnMin= -323.437352339130     IErMin= 4 ErrMin= 2.90D-05
 ErrMax= 2.90D-05  0.00D+00 EMaxC= 1.00D-01 BMatC= 2.86D-07 BMatP= 1.43D-06
 IDIUse=1 WtCom= 1.00D+00 WtEn= 0.00D+00
 Coeff-Com:  0.514D-03 0.846D-01 0.325D+00 0.590D+00
 Coeff:      0.514D-03 0.846D-01 0.325D+00 0.590D+00
 Gap=     0.195 Goal=   None    Shift=    0.000
 RMSDP=1.67D-06 MaxDP=8.47D-05 DE=-9.76D-07 OVMax= 1.52D-04

 Cycle  12  Pass 1  IDiag  1:
 E= -323.437352528393     Delta-E=       -0.000000189263 Rises=F Damp=F
 DIIS: error= 1.24D-05 at cycle   5 NSaved=   5.
 NSaved= 5 IEnMin= 5 EnMin= -323.437352528393     IErMin= 5 ErrMin= 1.24D-05
 ErrMax= 1.24D-05  0.00D+00 EMaxC= 1.00D-01 BMatC= 4.27D-08 BMatP= 2.86D-07
 IDIUse=1 WtCom= 1.00D+00 WtEn= 0.00D+00
 Coeff-Com: -0.240D-02 0.222D-01 0.159D+00 0.368D+00 0.454D+00
 Coeff:     -0.240D-02 0.222D-01 0.159D+00 0.368D+00 0.454D+00
 Gap=     0.195 Goal=   None    Shift=    0.000
 RMSDP=5.96D-07 MaxDP=2.90D-05 DE=-1.89D-07 OVMax= 6.09D-05

 Cycle  13  Pass 1  IDiag  1:
 E= -323.437352558915     Delta-E=       -0.000000030522 Rises=F Damp=F
 DIIS: error= 2.19D-06 at cycle   6 NSaved=   6.
 NSaved= 6 IEnMin= 6 EnMin= -323.437352558915     IErMin= 6 ErrMin= 2.19D-06
 ErrMax= 2.19D-06  0.00D+00 EMaxC= 1.00D-01 BMatC= 1.37D-09 BMatP= 4.27D-08
 IDIUse=1 WtCom= 1.00D+00 WtEn= 0.00D+00
 Coeff-Com: -0.995D-03 0.154D-02 0.368D-01 0.100D+00 0.197D+00 0.666D+00
 Coeff:     -0.995D-03 0.154D-02 0.368D-01 0.100D+00 0.197D+00 0.666D+00
 Gap=     0.195 Goal=   None    Shift=    0.000
 RMSDP=1.32D-07 MaxDP=7.75D-06 DE=-3.05D-08 OVMax= 2.30D-05

 Cycle  14  Pass 1  IDiag  1:
 E= -323.437352559708     Delta-E=       -0.000000000793 Rises=F Damp=F
 DIIS: error= 1.14D-06 at cycle   7 NSaved=   7.
 NSaved= 7 IEnMin= 7 EnMin= -323.437352559708     IErMin= 7 ErrMin= 1.14D-06
 ErrMax= 1.14D-06  0.00D+00 EMaxC= 1.00D-01 BMatC= 4.57D-10 BMatP= 1.37D-09
 IDIUse=1 WtCom= 1.00D+00 WtEn= 0.00D+00
 Coeff-Com: -0.189D-03-0.380D-02-0.893D-02-0.990D-02 0.326D-01 0.416D+00
 Coeff-Com:  0.575D+00
 Coeff:     -0.189D-03-0.380D-02-0.893D-02-0.990D-02 0.326D-01 0.416D+00
 Coeff:      0.575D+00
 Gap=     0.195 Goal=   None    Shift=    0.000
 RMSDP=6.01D-08 MaxDP=2.82D-06 DE=-7.93D-10 OVMax= 7.33D-06

 Cycle  15  Pass 1  IDiag  1:
 E= -323.437352560098     Delta-E=       -0.000000000390 Rises=F Damp=F
 DIIS: error= 3.66D-07 at cycle   8 NSaved=   8.
 NSaved= 8 IEnMin= 8 EnMin= -323.437352560098     IErMin= 8 ErrMin= 3.66D-07
 ErrMax= 3.66D-07  0.00D+00 EMaxC= 1.00D-01 BMatC= 1.83D-11 BMatP= 4.57D-10
 IDIUse=1 WtCom= 1.00D+00 WtEn= 0.00D+00
 Coeff-Com: -0.188D-04-0.161D-02-0.560D-02-0.948D-02 0.386D-02 0.150D+00
 Coeff-Com:  0.247D+00 0.617D+00
 Coeff:     -0.188D-04-0.161D-02-0.560D-02-0.948D-02 0.386D-02 0.150D+00
 Coeff:      0.247D+00 0.617D+00
 Gap=     0.195 Goal=   None    Shift=    0.000
 RMSDP=2.06D-08 MaxDP=9.31D-07 DE=-3.90D-10 OVMax= 4.01D-06

 Cycle  16  Pass 1  IDiag  1:
 E= -323.437352560120     Delta-E=       -0.000000000022 Rises=F Damp=F
 DIIS: error= 2.01D-07 at cycle   9 NSaved=   9.
 NSaved= 9 IEnMin= 9 EnMin= -323.437352560120     IErMin= 9 ErrMin= 2.01D-07
 ErrMax= 2.01D-07  0.00D+00 EMaxC= 1.00D-01 BMatC= 5.99D-12 BMatP= 1.83D-11
 IDIUse=1 WtCom= 1.00D+00 WtEn= 0.00D+00
 Coeff-Com:  0.375D-04-0.667D-04-0.139D-02-0.392D-02-0.660D-02-0.151D-01
 Coeff-Com: -0.108D-01 0.362D+00 0.676D+00
 Coeff:      0.375D-04-0.667D-04-0.139D-02-0.392D-02-0.660D-02-0.151D-01
 Coeff:     -0.108D-01 0.362D+00 0.676D+00
 Gap=     0.195 Goal=   None    Shift=    0.000
 RMSDP=7.84D-09 MaxDP=3.79D-07 DE=-2.17D-11 OVMax= 8.16D-07

 SCF Done:  E(RM06) =  -323.437352560     A.U. after   16 cycles
            NFock= 16  Conv=0.78D-08     -V/T= 2.0029
 KE= 3.224953246703D+02 PE=-1.309002161339D+03 EE= 3.862308196585D+02
 Leave Link  502 at Fri Aug 27 00:15:54 2021, MaxMem= 17179869184 cpu:       261.9
 (Enter /public3/home/sc51754/softwares/g09e01/l601.exe)
 Copying SCF densities to generalized density rwf, IOpCl= 0 IROHF=0.

 **********************************************************************

            Population analysis using the SCF density.

 **********************************************************************

 Orbital symmetries:
       Occupied  (A') (A') (A') (A') (A') (A') (A') (A') (A') (A')
                 (A') (A') (A') (A') (A') (A') (A') (A") (A') (A')
                 (A') (A") (A") (A') (A")
       Virtual   (A") (A') (A") (A') (A') (A') (A') (A") (A') (A')
                 (A') (A") (A') (A') (A") (A") (A') (A') (A') (A')
                 (A") (A') (A') (A") (A') (A') (A') (A') (A') (A')
                 (A") (A') (A') (A') (A') (A") (A') (A') (A') (A')
                 (A') (A') (A') (A") (A') (A') (A') (A") (A") (A')
                 (A") (A") (A') (A') (A") (A') (A') (A') (A') (A')
                 (A") (A') (A') (A") (A") (A') (A') (A') (A") (A')
                 (A") (A") (A') (A") (A') (A") (A') (A') (A") (A')
                 (A') (A") (A') (A") (A") (A') (A') (A') (A') (A")
                 (A') (A") (A') (A") (A') (A') (A') (A') (A") (A')
                 (A') (A') (A') (A') (A") (A') (A") (A') (A') (A')
                 (A') (A") (A') (A') (A') (A') (A") (A') (A') (A')
                 (A") (A") (A') (A') (A") (A') (A") (A") (A') (A")
                 (A') (A') (A") (A') (A') (A") (A") (A') (A') (A')
                 (A') (A") (A') (A") (A') (A') (A') (A') (A') (A')
                 (A') (A") (A") (A") (A") (A') (A") (A") (A') (A")
                 (A') (A') (A") (A') (A") (A') (A') (A') (A") (A')
                 (A') (A") (A') (A") (A") (A') (A') (A") (A") (A")
                 (A') (A') (A") (A') (A") (A') (A") (A") (A') (A')
                 (A") (A") (A') (A") (A') (A") (A') (A') (A") (A')
                 (A') (A") (A') (A") (A') (A') (A") (A') (A') (A")
                 (A') (A") (A') (A') (A") (A') (A') (A') (A") (A')
                 (A") (A') (A') (A") (A') (A") (A") (A') (A') (A')
                 (A') (A') (A") (A') (A') (A') (A') (A') (A") (A')
                 (A') (A') (A') (A") (A') (A') (A') (A') (A') (A')
                 (A') (A') (A') (A') (A')
 The electronic state is 1-A'.
 Alpha  occ. eigenvalues --  -19.16044 -14.44232 -10.33912 -10.30390 -10.26612
 Alpha  occ. eigenvalues --  -10.24785 -10.24427  -1.06084  -0.97958  -0.83837
 Alpha  occ. eigenvalues --   -0.77533  -0.67022  -0.65199  -0.57782  -0.52402
 Alpha  occ. eigenvalues --   -0.50179  -0.47642  -0.46348  -0.44301  -0.40638
 Alpha  occ. eigenvalues --   -0.39108  -0.36834  -0.32893  -0.27449  -0.24095
 Alpha virt. eigenvalues --   -0.04557  -0.00785   0.00921   0.00981   0.02278
 Alpha virt. eigenvalues --    0.04666   0.05165   0.12518   0.13384   0.14205
 Alpha virt. eigenvalues --    0.15658   0.16160   0.17581   0.18931   0.19759
 Alpha virt. eigenvalues --    0.21127   0.21374   0.22729   0.24659   0.26194
 Alpha virt. eigenvalues --    0.26506   0.26995   0.28098   0.28697   0.29561
 Alpha virt. eigenvalues --    0.31071   0.33002   0.34988   0.37245   0.39260
 Alpha virt. eigenvalues --    0.40199   0.40708   0.43386   0.45278   0.46972
 Alpha virt. eigenvalues --    0.48122   0.49317   0.50517   0.53010   0.56949
 Alpha virt. eigenvalues --    0.59247   0.59723   0.62252   0.63551   0.63950
 Alpha virt. eigenvalues --    0.67407   0.73894   0.74523   0.78342   0.78967
 Alpha virt. eigenvalues --    0.79533   0.82551   0.88708   0.89596   0.90650
 Alpha virt. eigenvalues --    0.92047   0.94077   0.96360   0.97730   1.04694
 Alpha virt. eigenvalues --    1.04702   1.06633   1.09991   1.10428   1.11875
 Alpha virt. eigenvalues --    1.12029   1.13700   1.16539   1.17503   1.21220
 Alpha virt. eigenvalues --    1.22761   1.24552   1.24932   1.26664   1.27528
 Alpha virt. eigenvalues --    1.32649   1.36732   1.38765   1.38797   1.41668
 Alpha virt. eigenvalues --    1.44458   1.44501   1.45746   1.48154   1.54132
 Alpha virt. eigenvalues --    1.54532   1.54871   1.59900   1.63073   1.64484
 Alpha virt. eigenvalues --    1.64543   1.65586   1.68446   1.71145   1.73758
 Alpha virt. eigenvalues --    1.77497   1.77800   1.82096   1.84623   1.87465
 Alpha virt. eigenvalues --    1.89436   1.93509   1.98526   1.99276   2.02423
 Alpha virt. eigenvalues --    2.04850   2.07849   2.07942   2.11448   2.14999
 Alpha virt. eigenvalues --    2.20928   2.22392   2.22628   2.24334   2.26715
 Alpha virt. eigenvalues --    2.38578   2.54130   2.56478   2.56692   2.84195
 Alpha virt. eigenvalues --    2.86444   2.88587   2.88720   2.90813   3.09772
 Alpha virt. eigenvalues --    3.13774   3.15214   3.17163   3.19974   3.20778
 Alpha virt. eigenvalues --    3.22673   3.24881   3.28907   3.31338   3.35927
 Alpha virt. eigenvalues --    3.36538   3.42240   3.46609   3.49883   3.52397
 Alpha virt. eigenvalues --    3.55392   3.56296   3.58707   3.62141   3.62685
 Alpha virt. eigenvalues --    3.63835   3.67659   3.72177   3.78051   3.79576
 Alpha virt. eigenvalues --    3.86686   3.87858   3.90411   3.94108   3.95992
 Alpha virt. eigenvalues --    4.00041   4.00503   4.00974   4.03314   4.04813
 Alpha virt. eigenvalues --    4.05959   4.08926   4.10921   4.11272   4.14458
 Alpha virt. eigenvalues --    4.14938   4.16439   4.17196   4.20802   4.21692
 Alpha virt. eigenvalues --    4.22383   4.23507   4.24806   4.26015   4.27463
 Alpha virt. eigenvalues --    4.27993   4.28825   4.29248   4.30783   4.35907
 Alpha virt. eigenvalues --    4.36339   4.37491   4.41321   4.42991   4.43245
 Alpha virt. eigenvalues --    4.44466   4.44740   4.47977   4.50270   4.52714
 Alpha virt. eigenvalues --    4.54566   4.56545   4.57520   4.59901   4.63024
 Alpha virt. eigenvalues --    4.67333   4.71662   4.74637   4.79226   4.81061
 Alpha virt. eigenvalues --    4.84417   4.87149   4.88686   4.91244   4.93612
 Alpha virt. eigenvalues --    4.96830   5.03281   5.09298   5.10067   5.13526
 Alpha virt. eigenvalues --    5.16501   5.19428   5.19938   5.23785   5.26397
 Alpha virt. eigenvalues --    5.27429   5.32301   5.32946   5.37263   5.40337
 Alpha virt. eigenvalues --    5.41975   5.45208   5.46061   5.49416   5.52261
 Alpha virt. eigenvalues --    5.56833   5.61964   5.62925   5.63753   5.71464
 Alpha virt. eigenvalues --    5.76201   5.83643   5.87775   5.92371   5.99574
 Alpha virt. eigenvalues --    6.00189   6.06871   6.15933   6.23834   6.24910
 Alpha virt. eigenvalues --    6.33220   6.44349   6.48365   6.57846   6.76929
 Alpha virt. eigenvalues --    6.97073   6.98110   7.14132   9.49195  12.23622
 Alpha virt. eigenvalues --   13.09675  14.62861  17.72696  18.18342  22.66847
          Condensed to atoms (all electrons):
               1          2          3          4          5          6
     1  O    8.148199  -0.104578   0.489718  -0.050658   0.010854   0.007552
     2  N   -0.104578   6.425648   0.358782  -0.036767   0.327266  -0.025282
     3  C    0.489718   0.358782   4.451990   0.381541  -0.036157  -0.017603
     4  C   -0.050658  -0.036767   0.381541   5.040027  -0.047694   0.460919
     5  C    0.010854   0.327266  -0.036157  -0.047694   4.734294  -0.052488
     6  C    0.007552  -0.025282  -0.017603   0.460919  -0.052488   4.863818
     7  C    0.001146  -0.042941  -0.033060  -0.043611   0.546279   0.368460
     8  H    0.013012   0.404186  -0.037158   0.011158  -0.026692  -0.002150
     9  H    0.004418   0.006019  -0.058879   0.477878  -0.000948  -0.059824
    10  H   -0.000921  -0.041655   0.001720  -0.004805   0.442180   0.008213
    11  H   -0.000613  -0.002382   0.009869  -0.055022   0.011026   0.458216
    12  H    0.000016   0.007647  -0.001038   0.008465  -0.051666  -0.060549
               7          8          9         10         11         12
     1  O    0.001146   0.013012   0.004418  -0.000921  -0.000613   0.000016
     2  N   -0.042941   0.404186   0.006019  -0.041655  -0.002382   0.007647
     3  C   -0.033060  -0.037158  -0.058879   0.001720   0.009869  -0.001038
     4  C   -0.043611   0.011158   0.477878  -0.004805  -0.055022   0.008465
     5  C    0.546279  -0.026692  -0.000948   0.442180   0.011026  -0.051666
     6  C    0.368460  -0.002150  -0.059824   0.008213   0.458216  -0.060549
     7  C    4.949975   0.007404   0.009738  -0.053591  -0.064930   0.476603
     8  H    0.007404   0.486647  -0.000659  -0.012754   0.000442  -0.000444
     9  H    0.009738  -0.000659   0.584081   0.000308  -0.018471   0.000325
    10  H   -0.053591  -0.012754   0.000308   0.599600  -0.000610  -0.010414
    11  H   -0.064930   0.000442  -0.018471  -0.000610   0.627489  -0.015229
    12  H    0.476603  -0.000444   0.000325  -0.010414  -0.015229   0.609998
 Mulliken charges:
               1
     1  O   -0.518148
     2  N   -0.275943
     3  C    0.490275
     4  C   -0.141432
     5  C    0.143745
     6  C    0.050719
     7  C   -0.121473
     8  H    0.157009
     9  H    0.056014
    10  H    0.072730
    11  H    0.050216
    12  H    0.036287
 Sum of Mulliken charges =  -0.00000
 Mulliken charges with hydrogens summed into heavy atoms:
               1
     1  O   -0.518148
     2  N   -0.118934
     3  C    0.490275
     4  C   -0.085417
     5  C    0.216474
     6  C    0.100935
     7  C   -0.085186
 Electronic spatial extent (au):  <R**2>=            625.0534
 Charge=             -0.0000 electrons
 Dipole moment (field-independent basis, Debye):
    X=             -1.1816    Y=             -4.0995    Z=             -0.0000  Tot=              4.2664
 Quadrupole moment (field-independent basis, Debye-Ang):
   XX=            -31.4244   YY=            -47.3809   ZZ=            -42.4823
   XY=              0.0933   XZ=              0.0000   YZ=             -0.0000
 Traceless Quadrupole moment (field-independent basis, Debye-Ang):
   XX=              9.0048   YY=             -6.9517   ZZ=             -2.0531
   XY=              0.0933   XZ=              0.0000   YZ=             -0.0000
 Octapole moment (field-independent basis, Debye-Ang**2):
  XXX=            -11.5621  YYY=            -29.0772  ZZZ=              0.0000  XYY=             -0.0351
  XXY=              1.3011  XXZ=              0.0000  XZZ=             -2.1273  YZZ=              5.4356
  YYZ=             -0.0000  XYZ=              0.0000
 Hexadecapole moment (field-independent basis, Debye-Ang**3):
 XXXX=           -235.0037 YYYY=           -533.1733 ZZZZ=            -45.2924 XXXY=              2.0866
 XXXZ=              0.0000 YYYX=              7.4315 YYYZ=             -0.0000 ZZZX=              0.0000
 ZZZY=             -0.0000 XXYY=           -115.3649 XXZZ=            -59.6949 YYZZ=            -94.2620
 XXYZ=             -0.0000 YYXZ=              0.0000 ZZXY=              1.1369
 N-N= 2.768386644497D+02 E-N=-1.309002175343D+03  KE= 3.224953246703D+02
 Symmetry A'   KE= 3.108945239345D+02
 Symmetry A"   KE= 1.160080073581D+01
 No NMR shielding tensors so no spin-rotation constants.
 Leave Link  601 at Fri Aug 27 00:15:56 2021, MaxMem= 17179869184 cpu:        75.3
 (Enter /public3/home/sc51754/softwares/g09e01/l701.exe)
 Compute integral first derivatives.
 ... and contract with generalized density number  0.
 Leave Link  701 at Fri Aug 27 00:15:57 2021, MaxMem= 17179869184 cpu:        55.4
 (Enter /public3/home/sc51754/softwares/g09e01/l702.exe)
 L702 exits ... SP integral derivatives will be done elsewhere.
 Leave Link  702 at Fri Aug 27 00:15:57 2021, MaxMem= 17179869184 cpu:         0.3
 (Enter /public3/home/sc51754/softwares/g09e01/l703.exe)
 Compute integral first derivatives, UseDBF=F ICtDFT=           0.
 Integral derivatives from FoFJK, PRISM(SPDF).
 Calling FoFJK, ICntrl=      2127 FMM=F ISym2X=1 I1Cent= 0 IOpClX= 0 NMat=1 NMatS=1 NMatT=0.
 FoFJK:  IHMeth= 1 ICntrl=    2127 DoSepK=F KAlg= 0 I1Cent=   0 FoldK=F
 IRaf=         0 NMat=   1 IRICut=       1 DoRegI=T DoRafI=F ISym2E= 1.
 FoFCou: FMM=F IPFlag=           0 FMFlag=      100000 FMFlg1=         800
         NFxFlg=           0 DoJE=F BraDBF=F KetDBF=F FulRan=T
         wScrn=  0.000000 ICntrl=    2127 IOpCl=  0 I1Cent=           0 NGrid=           0
         NMat0=    1 NMatS0=      1 NMatT0=    0 NMatD0=    1 NMtDS0=    0 NMtDT0=    0
 Petite list used in FoFCou.
 Leave Link  703 at Fri Aug 27 00:16:00 2021, MaxMem= 17179869184 cpu:       177.7
 (Enter /public3/home/sc51754/softwares/g09e01/l716.exe)
 Dipole        =-4.64871720D-01-1.61286201D+00-4.12961059D-32
 ***** Axes restored to original set *****
 -------------------------------------------------------------------
 Center     Atomic                   Forces (Hartrees/Bohr)
 Number     Number              X              Y              Z
 -------------------------------------------------------------------
      1        8           0.000129447   -0.000141513    0.000000000
      2        7          -0.000092288    0.000029378   -0.000000000
      3        6           0.000015422    0.000073604   -0.000000000
      4        6           0.000076720    0.000268103   -0.000000000
      5        6           0.000092626    0.000256465   -0.000000000
      6        6          -0.000002732   -0.000017831    0.000000000
      7        6          -0.000274707   -0.000099863   -0.000000000
      8        1           0.000002466   -0.000033839    0.000000000
      9        1           0.000036511   -0.000183983    0.000000000
     10        1           0.000000327   -0.000062394    0.000000000
     11        1          -0.000014454   -0.000085912    0.000000000
     12        1           0.000030663   -0.000002215    0.000000000
 -------------------------------------------------------------------
 Cartesian Forces:  Max     0.000274707 RMS     0.000096962
 Leave Link  716 at Fri Aug 27 00:16:00 2021, MaxMem= 17179869184 cpu:         0.4
 (Enter /public3/home/sc51754/softwares/g09e01/l103.exe)

 GradGradGradGradGradGradGradGradGradGradGradGradGradGradGradGradGradGrad
 Berny optimization.
 FormGI is forming the generalized inverse of G from B-inverse, IUseBI=4.
 Internal  Forces:  Max     0.000155151 RMS     0.000056282
 Search for a local minimum.
 Step number   1 out of a maximum of   64
 All quantities printed in internal units (Hartrees-Bohrs-Radians)
 RMS Force = .56282D-04 SwitMx=.10000D-02 MixMth= 2
 Mixed Optimization -- En-DIIS/RFO-DIIS
 Second derivative matrix not updated -- first step.
 ITU=  0
     Eigenvalues ---    0.01577   0.01761   0.01972   0.02080   0.02183
     Eigenvalues ---    0.02246   0.02365   0.02483   0.02557   0.16000
     Eigenvalues ---    0.16000   0.16000   0.16000   0.16000   0.22000
     Eigenvalues ---    0.22000   0.23415   0.25000   0.35622   0.35864
     Eigenvalues ---    0.35940   0.36221   0.37867   0.40757   0.44267
     Eigenvalues ---    0.46319   0.50118   0.53776   0.54239   0.98595
 RFO step:  Lambda=-7.48569229D-07 EMin= 1.57720798D-02
 Linear search not attempted -- first point.
 Iteration  1 RMS(Cart)=  0.00033717 RMS(Int)=  0.00000013
 Iteration  2 RMS(Cart)=  0.00000013 RMS(Int)=  0.00000000
 ITry= 1 IFail=0 DXMaxC= 1.04D-03 DCOld= 1.00D+10 DXMaxT= 3.00D-01 DXLimC= 3.00D+00 Rises=F
 ClnCor:  largest displacement from symmetrization is 4.26D-13 for atom    11.
 Variable       Old X    -DE/DX   Delta X   Delta X   Delta X     New X
                                 (Linear)    (Quad)   (Total)
    R1        2.29207  -0.00015   0.00000  -0.00015  -0.00015   2.29191
    R2        2.65138   0.00012   0.00000   0.00027   0.00027   2.65164
    R3        2.56109  -0.00005   0.00000  -0.00010  -0.00010   2.56100
    R4        1.90473  -0.00002   0.00000  -0.00004  -0.00004   1.90469
    R5        2.72731   0.00001   0.00000   0.00004   0.00004   2.72736
    R6        2.55600   0.00006   0.00000   0.00011   0.00011   2.55611
    R7        2.04176  -0.00007   0.00000  -0.00019  -0.00019   2.04157
    R8        2.55244  -0.00008   0.00000  -0.00016  -0.00016   2.55227
    R9        2.04295   0.00003   0.00000   0.00007   0.00007   2.04302
   R10        2.67947   0.00003   0.00000   0.00007   0.00007   2.67954
   R11        2.04676   0.00003   0.00000   0.00008   0.00008   2.04684
   R12        2.03737   0.00000   0.00000   0.00001   0.00001   2.03738
    A1        2.18960  -0.00005   0.00000  -0.00025  -0.00025   2.18935
    A2        1.99125   0.00010   0.00000   0.00060   0.00060   1.99185
    A3        2.10233  -0.00005   0.00000  -0.00035  -0.00035   2.10199
    A4        2.09504   0.00005   0.00000   0.00017   0.00017   2.09521
    A5        2.21834  -0.00008   0.00000  -0.00034  -0.00034   2.21799
    A6        1.96981   0.00003   0.00000   0.00018   0.00018   1.96998
    A7        2.12410  -0.00006   0.00000  -0.00024  -0.00024   2.12386
    A8        2.02595   0.00016   0.00000   0.00089   0.00089   2.02684
    A9        2.13313  -0.00009   0.00000  -0.00065  -0.00065   2.13248
   A10        2.10267   0.00007   0.00000   0.00027   0.00027   2.10294
   A11        2.03035   0.00008   0.00000   0.00056   0.00056   2.03091
   A12        2.15017  -0.00015   0.00000  -0.00083  -0.00083   2.14933
   A13        2.12246   0.00004   0.00000   0.00018   0.00018   2.12263
   A14        2.08387   0.00001   0.00000   0.00009   0.00009   2.08397
   A15        2.07686  -0.00005   0.00000  -0.00027  -0.00027   2.07659
   A16        2.05775  -0.00002   0.00000  -0.00014  -0.00014   2.05760
   A17        2.10204   0.00010   0.00000   0.00061   0.00061   2.10266
   A18        2.12340  -0.00008   0.00000  -0.00047  -0.00047   2.12293
    D1        3.14159   0.00000   0.00000  -0.00000   0.00000   3.14159
    D2       -0.00000   0.00000   0.00000  -0.00000   0.00000   0.00000
    D3        0.00000   0.00000   0.00000  -0.00000   0.00000   0.00000
    D4        3.14159   0.00000   0.00000  -0.00000   0.00000   3.14159
    D5        0.00000   0.00000   0.00000   0.00000   0.00000   0.00000
    D6        3.14159  -0.00000   0.00000  -0.00000   0.00000   3.14159
    D7        3.14159   0.00000   0.00000   0.00000   0.00000   3.14159
    D8       -0.00000  -0.00000   0.00000  -0.00000   0.00000   0.00000
    D9        3.14159   0.00000   0.00000  -0.00000   0.00000   3.14159
   D10        0.00000   0.00000   0.00000  -0.00000   0.00000   0.00000
   D11        0.00000  -0.00000   0.00000  -0.00000   0.00000   0.00000
   D12        3.14159  -0.00000   0.00000  -0.00000   0.00000   3.14159
   D13        0.00000   0.00000   0.00000   0.00000   0.00000   0.00000
   D14        3.14159   0.00000   0.00000  -0.00000   0.00000   3.14159
   D15        3.14159   0.00000   0.00000   0.00000   0.00000   3.14159
   D16       -0.00000  -0.00000   0.00000   0.00000   0.00000   0.00000
   D17       -0.00000  -0.00000   0.00000  -0.00000   0.00000   0.00000
   D18        3.14159  -0.00000   0.00000  -0.00000   0.00000   3.14159
   D19        3.14159  -0.00000   0.00000   0.00000   0.00000   3.14159
   D20       -0.00000   0.00000   0.00000   0.00000   0.00000   0.00000
   D21        0.00000   0.00000   0.00000   0.00000   0.00000   0.00000
   D22        3.14159  -0.00000   0.00000  -0.00000   0.00000   3.14159
   D23        3.14159   0.00000   0.00000   0.00000   0.00000   3.14159
   D24        0.00000   0.00000   0.00000   0.00000  -0.00000   0.00000
         Item               Value     Threshold  Converged?
 Maximum Force            0.000155     0.000450     YES
 RMS     Force            0.000056     0.000300     YES
 Maximum Displacement     0.001040     0.001800     YES
 RMS     Displacement     0.000337     0.001200     YES
 Predicted change in Energy=-3.742848D-07
 Optimization completed.
    -- Stationary point found.
                           ----------------------------
                           !   Optimized Parameters   !
                           ! (Angstroms and Degrees)  !
 --------------------------                            --------------------------
 ! Name  Definition              Value          Derivative Info.                !
 --------------------------------------------------------------------------------
 ! R1    R(1,3)                  1.2129         -DE/DX =   -0.0002              !
 ! R2    R(2,3)                  1.403          -DE/DX =    0.0001              !
 ! R3    R(2,5)                  1.3553         -DE/DX =    0.0                 !
 ! R4    R(2,8)                  1.0079         -DE/DX =    0.0                 !
 ! R5    R(3,4)                  1.4432         -DE/DX =    0.0                 !
 ! R6    R(4,6)                  1.3526         -DE/DX =    0.0001              !
 ! R7    R(4,9)                  1.0805         -DE/DX =   -0.0001              !
 ! R8    R(5,7)                  1.3507         -DE/DX =   -0.0001              !
 ! R9    R(5,10)                 1.0811         -DE/DX =    0.0                 !
 ! R10   R(6,7)                  1.4179         -DE/DX =    0.0                 !
 ! R11   R(6,11)                 1.0831         -DE/DX =    0.0                 !
 ! R12   R(7,12)                 1.0781         -DE/DX =    0.0                 !
 ! A1    A(3,2,5)              125.4546         -DE/DX =   -0.0001              !
 ! A2    A(3,2,8)              114.0905         -DE/DX =    0.0001              !
 ! A3    A(5,2,8)              120.4549         -DE/DX =    0.0                 !
 ! A4    A(1,3,2)              120.0371         -DE/DX =    0.0                 !
 ! A5    A(1,3,4)              127.1013         -DE/DX =   -0.0001              !
 ! A6    A(2,3,4)              112.8616         -DE/DX =    0.0                 !
 ! A7    A(3,4,6)              121.7019         -DE/DX =   -0.0001              !
 ! A8    A(3,4,9)              116.0785         -DE/DX =    0.0002              !
 ! A9    A(6,4,9)              122.2196         -DE/DX =   -0.0001              !
 ! A10   A(2,5,7)              120.4739         -DE/DX =    0.0001              !
 ! A11   A(2,5,10)             116.3305         -DE/DX =    0.0001              !
 ! A12   A(7,5,10)             123.1956         -DE/DX =   -0.0001              !
 ! A13   A(4,6,7)              121.6078         -DE/DX =    0.0                 !
 ! A14   A(4,6,11)             119.3971         -DE/DX =    0.0                 !
 ! A15   A(7,6,11)             118.9951         -DE/DX =    0.0                 !
 ! A16   A(5,7,6)              117.9002         -DE/DX =    0.0                 !
 ! A17   A(5,7,12)             120.4381         -DE/DX =    0.0001              !
 ! A18   A(6,7,12)             121.6617         -DE/DX =   -0.0001              !
 ! D1    D(5,2,3,1)            180.0            -DE/DX =    0.0                 !
 ! D2    D(5,2,3,4)              0.0            -DE/DX =    0.0                 !
 ! D3    D(8,2,3,1)              0.0            -DE/DX =    0.0                 !
 ! D4    D(8,2,3,4)            180.0            -DE/DX =    0.0                 !
 ! D5    D(3,2,5,7)              0.0            -DE/DX =    0.0                 !
 ! D6    D(3,2,5,10)           180.0            -DE/DX =    0.0                 !
 ! D7    D(8,2,5,7)            180.0            -DE/DX =    0.0                 !
 ! D8    D(8,2,5,10)             0.0            -DE/DX =    0.0                 !
 ! D9    D(1,3,4,6)            180.0            -DE/DX =    0.0                 !
 ! D10   D(1,3,4,9)              0.0            -DE/DX =    0.0                 !
 ! D11   D(2,3,4,6)              0.0            -DE/DX =    0.0                 !
 ! D12   D(2,3,4,9)            180.0            -DE/DX =    0.0                 !
 ! D13   D(3,4,6,7)              0.0            -DE/DX =    0.0                 !
 ! D14   D(3,4,6,11)           180.0            -DE/DX =    0.0                 !
 ! D15   D(9,4,6,7)            180.0            -DE/DX =    0.0                 !
 ! D16   D(9,4,6,11)             0.0            -DE/DX =    0.0                 !
 ! D17   D(2,5,7,6)              0.0            -DE/DX =    0.0                 !
 ! D18   D(2,5,7,12)           180.0            -DE/DX =    0.0                 !
 ! D19   D(10,5,7,6)           180.0            -DE/DX =    0.0                 !
 ! D20   D(10,5,7,12)            0.0            -DE/DX =    0.0                 !
 ! D21   D(4,6,7,5)              0.0            -DE/DX =    0.0                 !
 ! D22   D(4,6,7,12)           180.0            -DE/DX =    0.0                 !
 ! D23   D(11,6,7,5)           180.0            -DE/DX =    0.0                 !
 ! D24   D(11,6,7,12)            0.0            -DE/DX =    0.0                 !
 --------------------------------------------------------------------------------
 Lowest energy point so far.  Saving SCF results.
 GradGradGradGradGradGradGradGradGradGradGradGradGradGradGradGradGradGrad

 Largest change from initial coordinates is atom    2       0.000 Angstoms.
 Leave Link  103 at Fri Aug 27 00:16:01 2021, MaxMem= 17179869184 cpu:        48.7
 (Enter /public3/home/sc51754/softwares/g09e01/l202.exe)
                          Input orientation:                          
 ---------------------------------------------------------------------
 Center     Atomic      Atomic             Coordinates (Angstroms)
 Number     Number       Type             X           Y           Z
 ---------------------------------------------------------------------
      1          8           0       -0.130304    2.267896   -0.000000
      2          7           0       -1.132141    0.233271   -0.000000
      3          6           0        0.000000    1.062005   -0.000000
      4          6           0        1.237945    0.320111    0.000000
      5          6           0       -1.114407   -1.121885   -0.000000
      6          6           0        1.256071   -1.032342    0.000000
      7          6           0        0.058564   -1.791590    0.000000
      8          1           0       -2.007624    0.732742   -0.000000
      9          1           0        2.144218    0.908369    0.000000
     10          1           0       -2.076968   -1.614034   -0.000000
     11          1           0        2.206750   -1.551299    0.000000
     12          1           0        0.071999   -2.869636    0.000000
 ---------------------------------------------------------------------
                    Distance matrix (angstroms):
                    1          2          3          4          5
     1  O    0.000000
     2  N    2.267901   0.000000
     3  C    1.212911   1.403048   0.000000
     4  C    2.380330   2.371676   1.443231   0.000000
     5  C    3.529741   1.355272   2.451791   2.759151   0.000000
     6  C    3.579610   2.702838   2.442131   1.352574   2.372169
     7  C    4.063877   2.349008   2.854196   2.418723   1.350691
     8  H    2.425083   1.007939   2.034445   3.271694   2.058514
     9  H    2.649861   3.345188   2.149715   1.080453   3.839345
    10  H    4.342681   2.074906   3.387474   3.837912   1.081080
    11  H    4.477507   3.785879   3.420395   2.107311   3.348803
    12  H    5.141514   3.328361   3.932300   3.396162   2.112390
                    6          7          8          9         10
     6  C    0.000000
     7  C    1.417914   0.000000
     8  H    3.710421   3.262114   0.000000
     9  H    2.134283   3.411705   4.155555   0.000000
    10  H    3.383418   2.142901   2.347800   4.917411   0.000000
    11  H    1.083101   2.161583   4.793516   2.460463   4.284177
    12  H    2.185790   1.078130   4.159562   4.308992   2.488894
                   11         12
    11  H    0.000000
    12  H    2.509019   0.000000
 Stoichiometry    C5H5NO
 Framework group  CS[SG(C5H5NO)]
 Deg. of freedom    21
 Full point group                 CS      NOp   2
 RotChk:  IX=0 Diff= 3.14D-16
 Largest Abelian subgroup         CS      NOp   2
 Largest concise Abelian subgroup C1      NOp   1
                         Standard orientation:                         
 ---------------------------------------------------------------------
 Center     Atomic      Atomic             Coordinates (Angstroms)
 Number     Number       Type             X           Y           Z
 ---------------------------------------------------------------------
      1          8           0       -0.130304    2.267896    0.000000
      2          7           0       -1.132141    0.233271    0.000000
      3          6           0       -0.000000    1.062005    0.000000
      4          6           0        1.237945    0.320111   -0.000000
      5          6           0       -1.114407   -1.121885    0.000000
      6          6           0        1.256071   -1.032342   -0.000000
      7          6           0        0.058564   -1.791590   -0.000000
      8          1           0       -2.007624    0.732742    0.000000
      9          1           0        2.144218    0.908369   -0.000000
     10          1           0       -2.076968   -1.614034    0.000000
     11          1           0        2.206750   -1.551299   -0.000000
     12          1           0        0.071999   -2.869636   -0.000000
 ---------------------------------------------------------------------
 Rotational constants (GHZ):      5.7341355      2.8228169      1.8916098
 Leave Link  202 at Fri Aug 27 00:16:02 2021, MaxMem= 17179869184 cpu:         7.0
 (Enter /public3/home/sc51754/softwares/g09e01/l9999.exe)
 1\1\GINC-S2515\FOpt\RM06\Gen\C5H5N1O1\SC51754\27-Aug-2021\0\\#p opt fr
 eq M06/gen\\PY_M06_PC2_OPT_FREQ\\0,1\O,-0.130304,2.267896,0.\N,-1.1321
 41,0.233271,0.\C,0.,1.062005,0.\C,1.237945,0.320111,0.\C,-1.114407,-1.
 121885,0.\C,1.256071,-1.032342,0.\C,0.058564,-1.79159,0.\H,-2.007624,0
 .732742,0.\H,2.144218,0.908369,0.\H,-2.076968,-1.614034,0.\H,2.20675,-
 1.551299,0.\H,0.071999,-2.869636,0.\\Version=EM64L-G09RevE.01\State=1-
 A'\HF=-323.4373526\RMSD=7.840e-09\RMSF=9.696e-05\Dipole=-0.4648719,-1.
 612862,0.\Quadrupole=6.6948764,-5.1684386,-1.5264378,0.0693708,0.,0.\P
 G=CS [SG(C5H5N1O1)]\\@


 At the touch of love, everyone becomves a poet.
                                -- Plato
 Leave Link 9999 at Fri Aug 27 00:16:02 2021, MaxMem= 17179869184 cpu:         2.2
 Job cpu time:       0 days  0 hours 13 minutes 48.9 seconds.
 File lengths (MBytes):  RWF=     34 Int=      0 D2E=      0 Chk=      6 Scr=      1
 Normal termination of Gaussian 09 at Fri Aug 27 00:16:02 2021.
 (Enter /public3/home/sc51754/softwares/g09e01/l1.exe)
 Link1:  Proceeding to internal job step number  2.
 ----------------------------------------------------------------
 #P Geom=AllCheck Guess=TCheck SCRF=Check GenChk RM06/ChkBas Freq
 ----------------------------------------------------------------
 1/10=4,29=7,30=1,38=1,40=1/1,3;
 2/12=2,40=1/2;
 3/5=7,6=2,11=2,14=-4,16=1,25=1,30=1,67=1,70=2,71=2,74=-54,82=7,116=1,140=1/1,2,3;
 4/5=101/1;
 5/5=2,38=6,98=1/2;
 8/6=4,10=90,11=11/1;
 11/6=1,8=1,9=11,15=111,16=1/1,2,10;
 10/6=1/2;
 6/7=2,8=2,9=2,10=2,18=1,28=1/1;
 7/8=1,10=1,25=1/1,2,3,16;
 1/10=4,30=1/3;
 99//99;
 Leave Link    1 at Fri Aug 27 00:16:02 2021, MaxMem= 17179869184 cpu:         2.3
 (Enter /public3/home/sc51754/softwares/g09e01/l101.exe)
 Structure from the checkpoint file:  "PY_M06_PC2_OPT_FREQ.chk"
 -------------------
 PY_M06_PC2_OPT_FREQ
 -------------------
 Charge =  0 Multiplicity = 1
 Redundant internal coordinates found in file.
 O,0,-0.130304,2.267896,0.
 N,0,-1.132141,0.233271,0.
 C,0,0.,1.062005,0.
 C,0,1.237945,0.320111,0.
 C,0,-1.114407,-1.121885,0.
 C,0,1.256071,-1.032342,0.
 C,0,0.058564,-1.79159,0.
 H,0,-2.007624,0.732742,0.
 H,0,2.144218,0.908369,0.
 H,0,-2.076968,-1.614034,0.
 H,0,2.20675,-1.551299,0.
 H,0,0.071999,-2.869636,0.
 Recover connectivity data from disk.
 NAtoms=     12 NQM=       12 NQMF=       0 NMMI=      0 NMMIF=      0
                NMic=       0 NMicF=      0.
                    Isotopes and Nuclear Properties:
 (Nuclear quadrupole moments (NQMom) in fm**2, nuclear magnetic moments (NMagM)
  in nuclear magnetons)

  Atom         1           2           3           4           5           6           7           8           9          10
 IAtWgt=          16          14          12          12          12          12          12           1           1           1
 AtmWgt=  15.9949146  14.0030740  12.0000000  12.0000000  12.0000000  12.0000000  12.0000000   1.0078250   1.0078250   1.0078250
 NucSpn=           0           2           0           0           0           0           0           1           1           1
 AtZEff=  -5.6000000  -4.5500000  -3.6000000  -3.6000000  -3.6000000  -3.6000000  -3.6000000  -1.0000000  -1.0000000  -1.0000000
 NQMom=    0.0000000   2.0440000   0.0000000   0.0000000   0.0000000   0.0000000   0.0000000   0.0000000   0.0000000   0.0000000
 NMagM=    0.0000000   0.4037610   0.0000000   0.0000000   0.0000000   0.0000000   0.0000000   2.7928460   2.7928460   2.7928460
 AtZNuc=   8.0000000   7.0000000   6.0000000   6.0000000   6.0000000   6.0000000   6.0000000   1.0000000   1.0000000   1.0000000

  Atom        11          12
 IAtWgt=           1           1
 AtmWgt=   1.0078250   1.0078250
 NucSpn=           1           1
 AtZEff=  -1.0000000  -1.0000000
 NQMom=    0.0000000   0.0000000
 NMagM=    2.7928460   2.7928460
 AtZNuc=   1.0000000   1.0000000
 Leave Link  101 at Fri Aug 27 00:16:02 2021, MaxMem= 17179869184 cpu:        12.6
 (Enter /public3/home/sc51754/softwares/g09e01/l103.exe)

 GradGradGradGradGradGradGradGradGradGradGradGradGradGradGradGradGradGrad
 Berny optimization.
 Initialization pass.
                           ----------------------------
                           !    Initial Parameters    !
                           ! (Angstroms and Degrees)  !
 --------------------------                            --------------------------
 ! Name  Definition              Value          Derivative Info.                !
 --------------------------------------------------------------------------------
 ! R1    R(1,3)                  1.2129         calculate D2E/DX2 analytically  !
 ! R2    R(2,3)                  1.403          calculate D2E/DX2 analytically  !
 ! R3    R(2,5)                  1.3553         calculate D2E/DX2 analytically  !
 ! R4    R(2,8)                  1.0079         calculate D2E/DX2 analytically  !
 ! R5    R(3,4)                  1.4432         calculate D2E/DX2 analytically  !
 ! R6    R(4,6)                  1.3526         calculate D2E/DX2 analytically  !
 ! R7    R(4,9)                  1.0805         calculate D2E/DX2 analytically  !
 ! R8    R(5,7)                  1.3507         calculate D2E/DX2 analytically  !
 ! R9    R(5,10)                 1.0811         calculate D2E/DX2 analytically  !
 ! R10   R(6,7)                  1.4179         calculate D2E/DX2 analytically  !
 ! R11   R(6,11)                 1.0831         calculate D2E/DX2 analytically  !
 ! R12   R(7,12)                 1.0781         calculate D2E/DX2 analytically  !
 ! A1    A(3,2,5)              125.4546         calculate D2E/DX2 analytically  !
 ! A2    A(3,2,8)              114.0905         calculate D2E/DX2 analytically  !
 ! A3    A(5,2,8)              120.4549         calculate D2E/DX2 analytically  !
 ! A4    A(1,3,2)              120.0371         calculate D2E/DX2 analytically  !
 ! A5    A(1,3,4)              127.1013         calculate D2E/DX2 analytically  !
 ! A6    A(2,3,4)              112.8616         calculate D2E/DX2 analytically  !
 ! A7    A(3,4,6)              121.7019         calculate D2E/DX2 analytically  !
 ! A8    A(3,4,9)              116.0785         calculate D2E/DX2 analytically  !
 ! A9    A(6,4,9)              122.2196         calculate D2E/DX2 analytically  !
 ! A10   A(2,5,7)              120.4739         calculate D2E/DX2 analytically  !
 ! A11   A(2,5,10)             116.3305         calculate D2E/DX2 analytically  !
 ! A12   A(7,5,10)             123.1956         calculate D2E/DX2 analytically  !
 ! A13   A(4,6,7)              121.6078         calculate D2E/DX2 analytically  !
 ! A14   A(4,6,11)             119.3971         calculate D2E/DX2 analytically  !
 ! A15   A(7,6,11)             118.9951         calculate D2E/DX2 analytically  !
 ! A16   A(5,7,6)              117.9002         calculate D2E/DX2 analytically  !
[...]
     34  0.000000D+00  0.288854D-03  0.123054D-02  0.000000D+00  0.179216D-03
     35  0.000000D+00 -0.371443D-03 -0.355272D-03  0.000000D+00  0.235911D-03
     36 -0.275734D-01  0.000000D+00  0.000000D+00  0.179022D-02  0.000000D+00
               26            27            28            29            30 
     26  0.142109D+00
     27  0.000000D+00  0.243121D-01
     28 -0.925619D-04  0.000000D+00  0.299010D+00
     29  0.920758D-04  0.000000D+00  0.123189D+00  0.122454D+00
     30  0.000000D+00 -0.125434D-02  0.000000D+00  0.000000D+00  0.235188D-01
     31  0.149634D-03  0.000000D+00 -0.986084D-03  0.762893D-03  0.000000D+00
     32  0.105645D-02  0.000000D+00 -0.810328D-03  0.518086D-03  0.000000D+00
     33  0.000000D+00 -0.601954D-02  0.000000D+00  0.000000D+00 -0.433432D-03
     34 -0.119691D-02  0.000000D+00  0.917122D-03 -0.559194D-03  0.000000D+00
     35 -0.486351D-03  0.000000D+00  0.695755D-04  0.466884D-03  0.000000D+00
     36  0.000000D+00  0.538365D-03  0.000000D+00  0.000000D+00 -0.507134D-02
               31            32            33            34            35 
     31  0.288187D+00
     32 -0.126089D+00  0.124864D+00
     33  0.000000D+00  0.000000D+00  0.265302D-01
     34  0.111614D-02  0.868320D-03  0.000000D+00  0.543317D-01
     35  0.539726D-05  0.563399D-03  0.000000D+00 -0.492598D-02  0.367851D+00
     36  0.000000D+00  0.000000D+00 -0.210647D-02  0.000000D+00  0.000000D+00
               36 
     36  0.227684D-01
 FormGI is forming the generalized inverse of G from B-inverse, IUseBI=4.
 Leave Link  716 at Fri Aug 27 00:16:45 2021, MaxMem= 17179869184 cpu:        14.5
 (Enter /public3/home/sc51754/softwares/g09e01/l103.exe)

 GradGradGradGradGradGradGradGradGradGradGradGradGradGradGradGradGradGrad
 Berny optimization.
 Red2BG is reusing G-inverse.
 Internal  Forces:  Max     0.000155140 RMS     0.000056272
 Search for a local minimum.
 Step number   1 out of a maximum of    2
 All quantities printed in internal units (Hartrees-Bohrs-Radians)
 Second derivative matrix not updated -- analytic derivatives used.
 ITU=  0
     Eigenvalues ---    0.00769   0.01101   0.01530   0.01691   0.01918
     Eigenvalues ---    0.02190   0.02609   0.03211   0.04731   0.09810
     Eigenvalues ---    0.10330   0.10544   0.11711   0.12163   0.16410
     Eigenvalues ---    0.19073   0.19687   0.22981   0.31356   0.32350
     Eigenvalues ---    0.35699   0.36245   0.36342   0.36907   0.38355
     Eigenvalues ---    0.42111   0.46442   0.52535   0.55222   0.84211
 Angle between quadratic step and forces=  26.79 degrees.
 Linear search not attempted -- first point.
 Iteration  1 RMS(Cart)=  0.00044316 RMS(Int)=  0.00000023
 Iteration  2 RMS(Cart)=  0.00000024 RMS(Int)=  0.00000000
 ITry= 1 IFail=0 DXMaxC= 1.52D-03 DCOld= 1.00D+10 DXMaxT= 3.00D-01 DXLimC= 3.00D+00 Rises=F
 ClnCor:  largest displacement from symmetrization is 1.22D-10 for atom     8.
 Variable       Old X    -DE/DX   Delta X   Delta X   Delta X     New X
                                 (Linear)    (Quad)   (Total)
    R1        2.29207  -0.00015   0.00000  -0.00023  -0.00023   2.29184
    R2        2.65138   0.00012   0.00000   0.00041   0.00041   2.65178
    R3        2.56109  -0.00005   0.00000  -0.00018  -0.00018   2.56091
    R4        1.90473  -0.00002   0.00000  -0.00008  -0.00008   1.90465
    R5        2.72731   0.00001   0.00000   0.00002   0.00002   2.72733
    R6        2.55600   0.00006   0.00000   0.00015   0.00015   2.55614
    R7        2.04176  -0.00007   0.00000  -0.00022  -0.00022   2.04154
    R8        2.55244  -0.00008   0.00000  -0.00018  -0.00018   2.55226
    R9        2.04295   0.00003   0.00000   0.00010   0.00010   2.04305
   R10        2.67947   0.00003   0.00000   0.00014   0.00014   2.67961
   R11        2.04676   0.00003   0.00000   0.00009   0.00009   2.04686
   R12        2.03737   0.00000   0.00000  -0.00001  -0.00001   2.03736
    A1        2.18960  -0.00005   0.00000  -0.00025  -0.00025   2.18935
    A2        1.99125   0.00010   0.00000   0.00077   0.00077   1.99203
    A3        2.10233  -0.00005   0.00000  -0.00053  -0.00053   2.10181
    A4        2.09504   0.00005   0.00000   0.00015   0.00015   2.09519
    A5        2.21834  -0.00008   0.00000  -0.00027  -0.00027   2.21807
    A6        1.96981   0.00003   0.00000   0.00012   0.00012   1.96992
    A7        2.12410  -0.00006   0.00000  -0.00021  -0.00021   2.12389
    A8        2.02595   0.00016   0.00000   0.00118   0.00118   2.02713
    A9        2.13313  -0.00009   0.00000  -0.00097  -0.00097   2.13217
   A10        2.10267   0.00007   0.00000   0.00037   0.00037   2.10303
   A11        2.03035   0.00008   0.00000   0.00073   0.00073   2.03108
   A12        2.15017  -0.00015   0.00000  -0.00110  -0.00110   2.14907
   A13        2.12246   0.00004   0.00000   0.00022   0.00022   2.12267
   A14        2.08387   0.00001   0.00000   0.00011   0.00011   2.08398
   A15        2.07686  -0.00005   0.00000  -0.00033  -0.00033   2.07653
   A16        2.05775  -0.00002   0.00000  -0.00024  -0.00024   2.05751
   A17        2.10204   0.00010   0.00000   0.00090   0.00090   2.10295
   A18        2.12340  -0.00008   0.00000  -0.00066  -0.00066   2.12273
    D1        3.14159  -0.00000   0.00000  -0.00000   0.00000   3.14159
    D2       -0.00000  -0.00000   0.00000  -0.00000   0.00000   0.00000
    D3        0.00000  -0.00000   0.00000  -0.00000   0.00000   0.00000
    D4        3.14159  -0.00000   0.00000  -0.00000   0.00000   3.14159
    D5        0.00000   0.00000   0.00000   0.00000   0.00000   0.00000
    D6        3.14159  -0.00000   0.00000   0.00000   0.00000   3.14159
    D7        3.14159  -0.00000   0.00000   0.00000   0.00000   3.14159
    D8       -0.00000  -0.00000   0.00000   0.00000   0.00000   0.00000
    D9        3.14159   0.00000   0.00000  -0.00000   0.00000   3.14159
   D10        0.00000   0.00000   0.00000  -0.00000  -0.00000   0.00000
   D11        0.00000   0.00000   0.00000   0.00000   0.00000   0.00000
   D12        3.14159   0.00000   0.00000   0.00000   0.00000   3.14159
   D13        0.00000  -0.00000   0.00000   0.00000  -0.00000   0.00000
   D14        3.14159  -0.00000   0.00000   0.00000   0.00000   3.14159
   D15        3.14159   0.00000   0.00000   0.00000   0.00000   3.14159
   D16       -0.00000   0.00000   0.00000   0.00000   0.00000   0.00000
   D17       -0.00000   0.00000   0.00000   0.00000   0.00000   0.00000
   D18        3.14159   0.00000   0.00000   0.00000   0.00000   3.14159
   D19        3.14159   0.00000   0.00000   0.00000   0.00000   3.14159
   D20       -0.00000   0.00000   0.00000   0.00000   0.00000   0.00000
   D21       -0.00000  -0.00000   0.00000  -0.00000   0.00000   0.00000
   D22        3.14159  -0.00000   0.00000  -0.00000   0.00000   3.14159
   D23        3.14159  -0.00000   0.00000  -0.00000   0.00000   3.14159
   D24        0.00000  -0.00000   0.00000  -0.00000  -0.00000   0.00000
         Item               Value     Threshold  Converged?
 Maximum Force            0.000155     0.000450     YES
 RMS     Force            0.000056     0.000300     YES
 Maximum Displacement     0.001519     0.001800     YES
 RMS     Displacement     0.000443     0.001200     YES
 Predicted change in Energy=-4.940880D-07
 Optimization completed.
    -- Stationary point found.
                           ----------------------------
                           !   Optimized Parameters   !
                           ! (Angstroms and Degrees)  !
 --------------------------                            --------------------------
 ! Name  Definition              Value          Derivative Info.                !
 --------------------------------------------------------------------------------
 ! R1    R(1,3)                  1.2129         -DE/DX =   -0.0002              !
 ! R2    R(2,3)                  1.403          -DE/DX =    0.0001              !
 ! R3    R(2,5)                  1.3553         -DE/DX =    0.0                 !
 ! R4    R(2,8)                  1.0079         -DE/DX =    0.0                 !
 ! R5    R(3,4)                  1.4432         -DE/DX =    0.0                 !
 ! R6    R(4,6)                  1.3526         -DE/DX =    0.0001              !
 ! R7    R(4,9)                  1.0805         -DE/DX =   -0.0001              !
 ! R8    R(5,7)                  1.3507         -DE/DX =   -0.0001              !
 ! R9    R(5,10)                 1.0811         -DE/DX =    0.0                 !
 ! R10   R(6,7)                  1.4179         -DE/DX =    0.0                 !
 ! R11   R(6,11)                 1.0831         -DE/DX =    0.0                 !
 ! R12   R(7,12)                 1.0781         -DE/DX =    0.0                 !
 ! A1    A(3,2,5)              125.4546         -DE/DX =   -0.0001              !
 ! A2    A(3,2,8)              114.0905         -DE/DX =    0.0001              !
 ! A3    A(5,2,8)              120.4549         -DE/DX =    0.0                 !
 ! A4    A(1,3,2)              120.0371         -DE/DX =    0.0                 !
 ! A5    A(1,3,4)              127.1013         -DE/DX =   -0.0001              !
 ! A6    A(2,3,4)              112.8616         -DE/DX =    0.0                 !
 ! A7    A(3,4,6)              121.7019         -DE/DX =   -0.0001              !
 ! A8    A(3,4,9)              116.0785         -DE/DX =    0.0002              !
 ! A9    A(6,4,9)              122.2196         -DE/DX =   -0.0001              !
 ! A10   A(2,5,7)              120.4739         -DE/DX =    0.0001              !
 ! A11   A(2,5,10)             116.3305         -DE/DX =    0.0001              !
 ! A12   A(7,5,10)             123.1956         -DE/DX =   -0.0001              !
 ! A13   A(4,6,7)              121.6078         -DE/DX =    0.0                 !
 ! A14   A(4,6,11)             119.3971         -DE/DX =    0.0                 !
 ! A15   A(7,6,11)             118.9951         -DE/DX =    0.0                 !
 ! A16   A(5,7,6)              117.9002         -DE/DX =    0.0                 !
 ! A17   A(5,7,12)             120.4381         -DE/DX =    0.0001              !
 ! A18   A(6,7,12)             121.6617         -DE/DX =   -0.0001              !
 ! D1    D(5,2,3,1)            180.0            -DE/DX =    0.0                 !
 ! D2    D(5,2,3,4)              0.0            -DE/DX =    0.0                 !
 ! D3    D(8,2,3,1)              0.0            -DE/DX =    0.0                 !
 ! D4    D(8,2,3,4)            180.0            -DE/DX =    0.0                 !
 ! D5    D(3,2,5,7)              0.0            -DE/DX =    0.0                 !
 ! D6    D(3,2,5,10)           180.0            -DE/DX =    0.0                 !
 ! D7    D(8,2,5,7)            180.0            -DE/DX =    0.0                 !
 ! D8    D(8,2,5,10)             0.0            -DE/DX =    0.0                 !
 ! D9    D(1,3,4,6)            180.0            -DE/DX =    0.0                 !
 ! D10   D(1,3,4,9)              0.0            -DE/DX =    0.0                 !
 ! D11   D(2,3,4,6)              0.0            -DE/DX =    0.0                 !
 ! D12   D(2,3,4,9)            180.0            -DE/DX =    0.0                 !
 ! D13   D(3,4,6,7)              0.0            -DE/DX =    0.0                 !
 ! D14   D(3,4,6,11)           180.0            -DE/DX =    0.0                 !
 ! D15   D(9,4,6,7)            180.0            -DE/DX =    0.0                 !
 ! D16   D(9,4,6,11)             0.0            -DE/DX =    0.0                 !
 ! D17   D(2,5,7,6)              0.0            -DE/DX =    0.0                 !
 ! D18   D(2,5,7,12)           180.0            -DE/DX =    0.0                 !
 ! D19   D(10,5,7,6)           180.0            -DE/DX =    0.0                 !
 ! D20   D(10,5,7,12)            0.0            -DE/DX =    0.0                 !
 ! D21   D(4,6,7,5)              0.0            -DE/DX =    0.0                 !
 ! D22   D(4,6,7,12)           180.0            -DE/DX =    0.0                 !
 ! D23   D(11,6,7,5)           180.0            -DE/DX =    0.0                 !
 ! D24   D(11,6,7,12)            0.0            -DE/DX =    0.0                 !
 --------------------------------------------------------------------------------
 GradGradGradGradGradGradGradGradGradGradGradGradGradGradGradGradGradGrad

 Leave Link  103 at Fri Aug 27 00:16:46 2021, MaxMem= 17179869184 cpu:        49.3
 (Enter /public3/home/sc51754/softwares/g09e01/l9999.exe)
 1\1\GINC-S2515\Freq\RM06\Gen\C5H5N1O1\SC51754\27-Aug-2021\0\\#P Geom=A
 llCheck Guess=TCheck SCRF=Check GenChk RM06/ChkBas Freq\\PY_M06_PC2_OP
 T_FREQ\\0,1\O,-0.130304,2.267896,0.\N,-1.132141,0.233271,0.\C,0.,1.062
 005,0.\C,1.237945,0.320111,0.\C,-1.114407,-1.121885,0.\C,1.256071,-1.0
 32342,0.\C,0.058564,-1.79159,0.\H,-2.007624,0.732742,0.\H,2.144218,0.9
 08369,0.\H,-2.076968,-1.614034,0.\H,2.20675,-1.551299,0.\H,0.071999,-2
 .869636,0.\\Version=EM64L-G09RevE.01\State=1-A'\HF=-323.4373526\RMSD=2
 .000e-09\RMSF=9.694e-05\ZeroPoint=0.093523\Thermal=0.098813\Dipole=-0.
 464871,-1.6128622,0.\DipoleDeriv=-0.4447381,0.2505381,0.,0.0626761,-1.
 8097355,0.,0.,0.,-0.4338824,-0.3505477,-0.5311888,0.,0.401703,-0.81549
 83,0.,0.,0.,-0.2345511,0.4807389,-0.1594877,0.,-0.0269997,2.2491325,0.
 ,0.,0.,0.3015247,-0.0756897,0.5089926,0.,-0.0522328,-0.6113026,0.,0.,0
 .,-0.1787962,0.33923,-0.0256941,0.,-0.6469788,0.4396741,0.,0.,0.,-0.00
 39591,0.3963003,0.2298503,0.,0.1758048,0.4790661,0.,0.,0.,-0.0631125,-
 0.5780505,-0.2100046,0.,0.1275577,-0.1339957,0.,0.,0.,-0.2060332,0.229
 7716,-0.0307682,0.,-0.0205149,0.1370736,0.,0.,0.,0.2724688,0.0000633,-
 0.0315501,0.,-0.0413818,0.0319914,0.,0.,0.,0.1412694,-0.013738,-0.0510
 453,0.,-0.0312204,0.0339218,0.,0.,0.,0.1333826,-0.0458834,0.065723,0.,
 0.0653536,0.0465055,0.,0.,0.,0.1147034,0.0625433,-0.0153652,0.,-0.0137
 667,-0.0468329,0.,0.,0.,0.1569856\Polar=72.1987943,0.153573,88.6779788
 ,0.,0.,37.3806721\PG=CS [SG(C5H5N1O1)]\NImag=0\\0.09876056,-0.06701947
 ,0.80640267,0.,0.,0.03373414,0.01237881,-0.04383643,0.,0.73677623,-0.0
 7104377,-0.07869492,0.,-0.11430482,0.75646435,0.,0.,0.01985130,0.,0.,0
 .07310496,-0.11080363,0.08075593,0.,-0.20374328,0.02514729,0.,0.550723
 35,0.07576172,-0.67033670,0.,-0.02478902,-0.13106998,0.,-0.11479339,0.
 94600484,0.,0.,-0.07499784,0.,0.,-0.06027583,0.,0.,0.20155888,0.003746
 80,0.03018872,0.,-0.04521083,-0.01574997,0.,-0.22232736,0.05620143,0.,
 0.65098581,0.05290400,-0.05585173,0.,-0.00729153,0.04617400,0.,0.03061
 671,-0.12489022,0.,0.06206522,0.79494968,0.,0.,0.02283364,0.,0.,0.0061
 3472,0.,0.,-0.07874948,0.,0.,0.11544654,-0.01013325,-0.00242469,0.,-0.
 14284215,-0.02412791,0.,0.03702313,-0.02167603,0.,-0.01360357,0.022249
 16,0.,0.83297507,0.01556200,-0.00224410,0.,0.02914957,-0.33168114,0.,-
 0.08088845,-0.02828705,0.,0.02001278,-0.03477751,0.,-0.02085088,0.6730
 7574,0.,0.,0.00507441,0.,0.,-0.04371640,0.,0.,-0.00329573,0.,0.,0.0004
 3088,0.,0.,0.13638194,-0.01426526,0.00871680,0.,-0.00531797,-0.0345791
 0,0.,0.03996689,0.03058451,0.,-0.13174287,0.02905086,0.,-0.06114321,0.
 01817236,0.,0.67639338,-0.00637710,0.01267189,0.,-0.00450865,-0.038177
 51,0.,0.04886200,-0.02658673,0.,-0.01457413,-0.44779081,0.,-0.02236686
 ,0.05110581,0.,-0.04458980,0.75976944,0.,0.,0.00382998,0.,0.,-0.005711
 14,0.,0.,0.00017837,0.,0.,-0.05454848,0.,0.,0.00739704,0.,0.,0.1405609
 6,0.01147796,-0.00858105,0.,0.00997273,0.06993353,0.,-0.05248002,-0.00
 109630,0.,0.02444097,-0.05556917,0.,-0.36132743,0.10774821,0.,-0.23678
 808,-0.05021554,0.,0.68650512,-0.00303977,-0.00519139,0.,0.03614139,-0
 .04795229,0.,0.01095934,0.00658787,0.,-0.03138150,-0.02730181,0.,0.152
 90132,-0.18961099,0.,-0.10235133,-0.16810056,0.,-0.06418454,0.76698920
 ,0.,0.,-0.00003864,0.,0.,0.01209968,0.,0.,-0.00762387,0.,0.,0.00707956
 ,0.,0.,-0.06271988,0.,0.,-0.05980862,0.,0.,0.11305789,0.00511652,0.000
 83057,0.,-0.35753264,0.15916049,0.,-0.02293617,0.01918724,0.,-0.003949
 06,-0.00349197,0.,0.00657177,-0.00105939,0.,-0.00122058,-0.00273110,0.
 ,0.00467942,-0.00252944,0.,0.36919112,0.00529885,-0.00264093,0.,0.1572
 2149,-0.15477454,0.,-0.01757918,0.02091907,0.,-0.00305900,-0.00323850,
 0.,0.03165336,-0.01238984,0.,0.00002301,0.00054100,0.,-0.00382725,-0.0
 0536007,0.,-0.16955742,0.15594270,0.,0.,-0.00471475,0.,0.,-0.01604700,
 0.,0.,0.00350633,0.,0.,0.00428517,0.,0.,-0.00552450,0.,0.,-0.00053131,
 0.,0.,0.00486137,0.,0.,0.01607264,0.00325309,0.00090780,0.,-0.00542258
 ,0.00246296,0.,-0.01711355,-0.01955665,0.,-0.26158164,-0.12877744,0.,-
 0.00017319,0.00264778,0.,0.00574907,0.00268161,0.,0.00247512,0.0009973
 7,0.,-0.00101202,-0.00100681,0.,0.27294847,-0.00225581,0.00039505,0.,0
 .00382293,-0.00084387,0.,0.01328874,0.01103448,0.,-0.13032252,-0.13660
 390,0.,0.00069437,-0.00113326,0.,-0.02684532,-0.01182879,0.,0.00184588
 ,-0.00439812,0.,0.00086607,0.00060726,0.,0.14004550,0.14210897,0.,0.,-
 0.00229139,0.,0.,0.00460358,0.,0.,0.00273716,0.,0.,-0.03379791,0.,0.,-
 0.00075410,0.,0.,0.00295296,0.,0.,0.00943600,0.,0.,-0.00046290,0.,0.,0
 .02431212,-0.00016759,-0.00015520,0.,0.00492595,0.00119863,0.,0.002326
 84,0.00195018,0.,0.00055531,0.00069093,0.,-0.28819390,-0.11486918,0.,-
 0.00352451,0.00413527,0.,-0.01561625,-0.01487582,0.,0.00077238,-0.0004
 3022,0.,-0.00001938,-0.00009256,0.,0.29901013,-0.00172764,-0.00297065,
 0.,-0.03463969,-0.02048298,0.,0.00698909,0.00008282,0.,-0.00025479,0.0
 0005359,0.,-0.10936827,-0.11190319,0.,0.00275507,-0.00151324,0.,0.0133
 0233,0.01246015,0.,-0.00031319,0.00074217,0.,-0.00013537,0.00009208,0.
 ,0.12318874,0.12245430,0.,0.,-0.00022727,0.,0.,0.00289964,0.,0.,0.0049
 8826,0.,0.,-0.00006626,0.,0.,-0.03695296,0.,0.,0.00816951,0.,0.,0.0069
 0129,0.,0.,-0.00247187,0.,0.,-0.00125434,0.,0.,0.02351876,-0.00009496,
 0.00065008,0.,0.00115549,-0.00053887,0.,0.00143217,-0.00164034,0.,0.00
 323985,-0.00060634,0.,-0.00374842,-0.00399463,0.,-0.27352508,0.1168671
 1,0.,-0.01752368,0.01440143,0.,0.00003041,0.00003264,0.,0.00071740,0.0
 0014963,0.,-0.00098608,0.00076289,0.,0.28818676,0.00184947,-0.00144264
 ,0.,0.00026970,-0.00036269,0.,-0.00302326,-0.00406927,0.,0.02945695,-0
 .01116469,0.,-0.00350211,-0.00118475,0.,0.11617611,-0.12019240,0.,-0.0
 1470274,0.01140747,0.,0.00000957,0.00000696,0.,-0.00050267,0.00105645,
 0.,-0.00081033,0.00051809,0.,-0.12608901,0.12486408,0.,0.,-0.00258537,
 0.,0.,-0.00071328,0.,0.,0.01242031,0.,0.,0.00719330,0.,0.,0.00442263,0
 .,0.,-0.04227350,0.,0.,0.00432860,0.,0.,-0.00076341,0.,0.,-0.00601954,
 0.,0.,-0.00043343,0.,0.,0.02653017,0.00073095,-0.00003307,0.,-0.005139
 75,0.00244152,0.,-0.00206836,-0.00013336,0.,-0.00455343,-0.00184043,0.
 ,0.00459514,0.02836983,0.,0.00541823,-0.02718281,0.,-0.05581584,0.0029
 6154,0.,0.00028885,0.00123054,0.,0.00017922,-0.00119691,0.,0.00091712,
 -0.00055919,0.,0.00111614,0.00086832,0.,0.05433174,0.00008752,-0.00009
 656,0.,0.00276507,0.00140157,0.,-0.00033483,0.00061087,0.,-0.00258321,
 0.00044190,0.,-0.00318146,-0.01096974,0.,0.00288681,-0.00989810,0.,0.0
 0534664,-0.34952945,0.,-0.00037144,-0.00035527,0.,0.00023591,-0.000486
 35,0.,0.00006958,0.00046688,0.,0.00000540,0.00056340,0.,-0.00492598,0.
 36785084,0.,0.,-0.00046821,0.,0.,0.00776975,0.,0.,-0.00044655,0.,0.,0.
 00375832,0.,0.,-0.00074334,0.,0.,-0.00021578,0.,0.,-0.02757338,0.,0.,0
 .00179022,0.,0.,0.00053837,0.,0.,-0.00507134,0.,0.,-0.00210647,0.,0.,0
 .02276841\\-0.00012944,0.00014145,0.,0.00009229,-0.00002942,0.,-0.0000
 1536,-0.00007353,0.,-0.00007674,-0.00026798,0.,-0.00009260,-0.00025645
 ,0.,0.00000260,0.00001783,0.,0.00027468,0.00009973,0.,-0.00000248,0.00
 003384,0.,-0.00003651,0.00018398,0.,-0.00000032,0.00006240,0.,0.000014
 54,0.00008586,0.,-0.00003065,0.00000230,0.\\\@


 MODELS ARE TO BE USED, NOT BELIEVED.

    -- PARAPHRASED BY H. THIEL IN "PRINCIPLES OF ECONOMETRICS"
 Job cpu time:       0 days  0 hours 44 minutes 32.3 seconds.
 File lengths (MBytes):  RWF=     80 Int=      0 D2E=      0 Chk=      6 Scr=      1
 Normal termination of Gaussian 09 at Fri Aug 27 00:16:46 2021.
