 Entering Gaussian System, Link 0=g09
 AtFile(1): pc-2.gbs
            -H     0
            S    4   1.00
                  0.754230D+02           0.240650D-02
                  0.113500D+02           0.184870D-01
                  0.259930D+01           0.897420D-01
                  0.735130D+00           0.281110D+00
            S    1   1.00
                  0.231670D+00           0.100000D+01
            S    1   1.00
                  0.741470D-01           0.100000D+01
            P    1   1.00
                  0.160000D+01           0.100000D+01
            P    1   1.00
                  0.450000D+00           0.100000D+01
            D    1   1.00
                  0.125000D+01           0.100000D+01
            ****
            -C     0
            S    7   1.00
                  0.785710D+04           0.568250D-03
                  0.117870D+04           0.439150D-02
                  0.268320D+03           0.225040D-01
                  0.759480D+02           0.866530D-01
                  0.245590D+02           0.244050D+00
                  0.862120D+01           0.441480D+00
                  0.312780D+01           0.353320D+00
            S    7   1.00
                  0.117870D+04          -0.594920D-06
                  0.268320D+03          -0.627480D-04
                  0.759480D+02          -0.757730D-03
                  0.245590D+02          -0.733080D-02
                  0.862120D+01          -0.389320D-01
                  0.312780D+01          -0.889080D-01
                  0.822020D+00           0.216890D+00
            S    1   1.00
                  0.330170D+00           0.100000D+01
            S    1   1.00
                  0.114630D+00           0.100000D+01
            P    4   1.00
                  0.337750D+02           0.602940D-02
                  0.767660D+01           0.432280D-01
                  0.223570D+01           0.163010D+00
                  0.764470D+00           0.365040D+00
            P    1   1.00
                  0.262320D+00           0.100000D+01
            P    1   1.00
                  0.846380D-01           0.100000D+01
            D    1   1.00
                  0.140000D+01           0.100000D+01
            D    1   1.00
                  0.450000D+00           0.100000D+01
            F    1   1.00
                  0.950000D+00           0.100000D+01
            ****
            -N     0
            S    7   1.00
                  0.111010D+05           0.545700D-03
                  0.166530D+04           0.421810D-02
                  0.379080D+03           0.216450D-01
                  0.107300D+03           0.837760D-01
                  0.347470D+02           0.238810D+00
                  0.122490D+02           0.439940D+00
                  0.447430D+01           0.363640D+00
            S    7   1.00
                  0.166530D+04          -0.150060D-05
                  0.379080D+03          -0.587530D-04
                  0.107300D+03          -0.774530D-03
                  0.347470D+02          -0.721610D-02
                  0.122490D+02          -0.393380D-01
                  0.447430D+01          -0.906110D-01
                  0.124040D+01           0.198820D+00
            S    1   1.00
                  0.487430D+00           0.100000D+01
            S    1   1.00
                  0.164840D+00           0.100000D+01
            P    4   1.00
                  0.479340D+02           0.617060D-02
                  0.109990D+02           0.442600D-01
                  0.324720D+01           0.168250D+00
                  0.111140D+01           0.368480D+00
            P    1   1.00
                  0.379880D+00           0.100000D+01
            P    1   1.00
                  0.120680D+00           0.100000D+01
            D    1   1.00
                  0.180000D+01           0.100000D+01
            D    1   1.00
                  0.550000D+00           0.100000D+01
            F    1   1.00
                  0.102000D+01           0.100000D+01
            ****
            -O     0
            S    7   1.00
                  0.147820D+05           0.535190D-03
                  0.221730D+04           0.413750D-02
                  0.504740D+03           0.212450D-01
                  0.142870D+03           0.824530D-01
                  0.463000D+02           0.236710D+00
                  0.163370D+02           0.440390D+00
                  0.598280D+01           0.364650D+00
            S    7   1.00
                  0.221730D+04          -0.192750D-05
                  0.504740D+03          -0.579640D-04
                  0.142870D+03          -0.794940D-03
                  0.463000D+02          -0.731250D-02
                  0.163370D+02          -0.405740D-01
                  0.598280D+01          -0.915940D-01
                  0.167180D+01           0.209400D+00
            S    1   1.00
                  0.646620D+00           0.100000D+01
            S    1   1.00
                  0.216690D+00           0.100000D+01
            P    4   1.00
                  0.604240D+02           0.689490D-02
                  0.139350D+02           0.490050D-01
                  0.415310D+01           0.182550D+00
                  0.141580D+01           0.376330D+00
            P    1   1.00
                  0.475490D+00           0.100000D+01
            P    1   1.00
                  0.145290D+00           0.100000D+01
            D    1   1.00
                  0.220000D+01           0.100000D+01
            D    1   1.00
                  0.650000D+00           0.100000D+01
            F    1   1.00
                  0.110000D+01           0.100000D+01
            ****
 Initial command:
 /public3/home/sc51754/softwares/g09e01/l1.exe "./Gau-30258.inp" -scrdir="./"
 Entering Link 1 = /public3/home/sc51754/softwares/g09e01/l1.exe PID=     30259.
  
 Copyright (c) 1988,1990,1992,1993,1995,1998,2003,2009,2015,
            Gaussian, Inc.  All Rights Reserved.
  
 This is part of the Gaussian(R) 09 program.  It is based on
 the Gaussian(R) 03 system (copyright 2003, Gaussian, Inc.),
 the Gaussian(R) 98 system (copyright 1998, Gaussian, Inc.),
 the Gaussian(R) 94 system (copyright 1995, Gaussian, Inc.),
 the Gaussian 92(TM) system (copyright 1992, Gaussian, Inc.),
 the Gaussian 90(TM) system (copyright 1990, Gaussian, Inc.),
 the Gaussian 88(TM) system (copyright 1988, Gaussian, Inc.),
 the Gaussian 86(TM) system (copyright 1986, Carnegie Mellon
 University), and the Gaussian 82(TM) system (copyright 1983,
 Carnegie Mellon University). Gaussian is a federally registered
 trademark of Gaussian, Inc.
  
 This software contains proprietary and confidential information,
 including trade secrets, belonging to Gaussian, Inc.
  
 This software is provided under written license and may be
 used, copied, transmitted, or stored only in accord with that
 written license.
  
 The following legend is applicable only to US Government
 contracts under FAR:
  
                    RESTRICTED RIGHTS LEGEND
  
 Use, reproduction and disclosure by the US Government is
 subject to restrictions as set forth in subparagraphs (a)
 and (c) of the Commercial Computer Software - Restricted
 Rights clause in FAR 52.227-19.
  
 Gaussian, Inc.
 340 Quinnipiac St., Bldg. 40, Wallingford CT 06492
  
  
 ---------------------------------------------------------------
 Warning -- This program may not be used in any manner that
 competes with the business of Gaussian, Inc. or will provide
 assistance to any competitor of Gaussian, Inc.  The licensee
 of this program is prohibited from giving any competitor of
 Gaussian, Inc. access to this program.  By using this program,
 the user acknowledges that Gaussian, Inc. is engaged in the
 business of creating and licensing software in the field of
 computational chemistry and represents and warrants to the
 licensee that it is not a competitor of Gaussian, Inc. and that
 it will not use this program in any manner prohibited above.
 ---------------------------------------------------------------
  

 Cite this work as:
 Gaussian 09, Revision E.01,
 M. J. Frisch, G. W. Trucks, H. B. Schlegel, G. E. Scuseria, 
 M. A. Robb, J. R. Cheeseman, G. Scalmani, V. Barone, B. Mennucci, 
 G. A. Petersson, H. Nakatsuji, M. Caricato, X. Li, H. P. Hratchian, 
 A. F. Izmaylov, J. Bloino, G. Zheng, J. L. Sonnenberg, M. Hada, 
 M. Ehara, K. Toyota, R. Fukuda, J. Hasegawa, M. Ishida, T. Nakajima, 
 Y. Honda, O. Kitao, H. Nakai, T. Vreven, J. A. Montgomery, Jr., 
 J. E. Peralta, F. Ogliaro, M. Bearpark, J. J. Heyd, E. Brothers, 
 K. N. Kudin, V. N. Staroverov, T. Keith, R. Kobayashi, J. Normand, 
 K. Raghavachari, A. Rendell, J. C. Burant, S. S. Iyengar, J. Tomasi, 
 M. Cossi, N. Rega, J. M. Millam, M. Klene, J. E. Knox, J. B. Cross, 
 V. Bakken, C. Adamo, J. Jaramillo, R. Gomperts, R. E. Stratmann, 
 O. Yazyev, A. J. Austin, R. Cammi, C. Pomelli, J. W. Ochterski, 
 R. L. Martin, K. Morokuma, V. G. Zakrzewski, G. A. Voth, 
 P. Salvador, J. J. Dannenberg, S. Dapprich, A. D. Daniels, 
 O. Farkas, J. B. Foresman, J. V. Ortiz, J. Cioslowski, 
 and D. J. Fox, Gaussian, Inc., Wallingford CT, 2013.
 
 ******************************************
 Gaussian 09:  EM64L-G09RevE.01 30-Nov-2015
                27-Aug-2021 
 ******************************************
 %nprocshared=64
 Will use up to   64 processors via shared memory.
 %mem=128GB
 %chk=PY_TPSSTPSS_PC2_OPT_FREQ.chk
 ------------------------
 #p opt freq TPSSTPSS/gen
 ------------------------
 1/14=-1,18=20,19=15,26=3,38=1/1,3;
 2/9=110,12=2,17=6,18=5,40=1/2;
 3/5=7,11=2,16=1,25=1,30=1,71=1,74=2523/1,2,3;
 4//1;
 5/5=2,38=5/2;
 6/7=2,8=2,9=2,10=2,28=1/1;
 7//1,2,3,16;
 1/14=-1,18=20,19=15,26=3/3(2);
 2/9=110/2;
 99//99;
 2/9=110/2;
 3/5=7,6=1,11=2,16=1,25=1,30=1,71=1,74=2523,82=7/1,2,3;
 4/5=5,16=3,69=1/1;
 5/5=2,38=5/2;
 7//1,2,3,16;
 1/14=-1,18=20,19=15,26=3/3(-5);
 2/9=110/2;
 6/7=2,8=2,9=2,10=2,19=2,28=1/1;
 99/9=1/99;
 Leave Link    1 at Fri Aug 27 00:03:30 2021, MaxMem= 17179869184 cpu:         2.3
 (Enter /public3/home/sc51754/softwares/g09e01/l101.exe)
 ------------------------
 PY_TPSSTPSS_PC2_OPT_FREQ
 ------------------------
 Symbolic Z-matrix:
 Charge =  0 Multiplicity = 1
 O                    -0.1303    2.2679    0. 
 N                    -1.13214   0.23327   0. 
 C                     0.        1.06201   0. 
 C                     1.23795   0.32011   0. 
 C                    -1.11441  -1.12189   0. 
 C                     1.25607  -1.03234   0. 
 C                     0.05856  -1.79159   0. 
 H                    -2.00762   0.73274   0. 
 H                     2.14422   0.90837   0. 
 H                    -2.07697  -1.61403   0. 
 H                     2.20675  -1.5513    0. 
 H                     0.072    -2.86964   0. 
 
 NAtoms=     12 NQM=       12 NQMF=       0 NMMI=      0 NMMIF=      0
                NMic=       0 NMicF=      0.
                    Isotopes and Nuclear Properties:
 (Nuclear quadrupole moments (NQMom) in fm**2, nuclear magnetic moments (NMagM)
  in nuclear magnetons)

  Atom         1           2           3           4           5           6           7           8           9          10
 IAtWgt=          16          14          12          12          12          12          12           1           1           1
 AtmWgt=  15.9949146  14.0030740  12.0000000  12.0000000  12.0000000  12.0000000  12.0000000   1.0078250   1.0078250   1.0078250
 NucSpn=           0           2           0           0           0           0           0           1           1           1
 AtZEff=   0.0000000   0.0000000   0.0000000   0.0000000   0.0000000   0.0000000   0.0000000   0.0000000   0.0000000   0.0000000
 NQMom=    0.0000000   2.0440000   0.0000000   0.0000000   0.0000000   0.0000000   0.0000000   0.0000000   0.0000000   0.0000000
 NMagM=    0.0000000   0.4037610   0.0000000   0.0000000   0.0000000   0.0000000   0.0000000   2.7928460   2.7928460   2.7928460
 AtZNuc=   8.0000000   7.0000000   6.0000000   6.0000000   6.0000000   6.0000000   6.0000000   1.0000000   1.0000000   1.0000000

  Atom        11          12
 IAtWgt=           1           1
 AtmWgt=   1.0078250   1.0078250
 NucSpn=           1           1
 AtZEff=   0.0000000   0.0000000
 NQMom=    0.0000000   0.0000000
 NMagM=    2.7928460   2.7928460
 AtZNuc=   1.0000000   1.0000000
 Leave Link  101 at Fri Aug 27 00:03:30 2021, MaxMem= 17179869184 cpu:         5.4
 (Enter /public3/home/sc51754/softwares/g09e01/l103.exe)

 GradGradGradGradGradGradGradGradGradGradGradGradGradGradGradGradGradGrad
 Berny optimization.
 Initialization pass.
                           ----------------------------
                           !    Initial Parameters    !
                           ! (Angstroms and Degrees)  !
 --------------------------                            --------------------------
 ! Name  Definition              Value          Derivative Info.                !
 --------------------------------------------------------------------------------
 ! R1    R(1,3)                  1.2129         estimate D2E/DX2                !
 ! R2    R(2,3)                  1.403          estimate D2E/DX2                !
 ! R3    R(2,5)                  1.3553         estimate D2E/DX2                !
 ! R4    R(2,8)                  1.0079         estimate D2E/DX2                !
 ! R5    R(3,4)                  1.4432         estimate D2E/DX2                !
 ! R6    R(4,6)                  1.3526         estimate D2E/DX2                !
 ! R7    R(4,9)                  1.0805         estimate D2E/DX2                !
 ! R8    R(5,7)                  1.3507         estimate D2E/DX2                !
 ! R9    R(5,10)                 1.0811         estimate D2E/DX2                !
 ! R10   R(6,7)                  1.4179         estimate D2E/DX2                !
 ! R11   R(6,11)                 1.0831         estimate D2E/DX2                !
 ! R12   R(7,12)                 1.0781         estimate D2E/DX2                !
 ! A1    A(3,2,5)              125.4546         estimate D2E/DX2                !
 ! A2    A(3,2,8)              114.0905         estimate D2E/DX2                !
 ! A3    A(5,2,8)              120.4549         estimate D2E/DX2                !
 ! A4    A(1,3,2)              120.0371         estimate D2E/DX2                !
 ! A5    A(1,3,4)              127.1013         estimate D2E/DX2                !
 ! A6    A(2,3,4)              112.8616         estimate D2E/DX2                !
 ! A7    A(3,4,6)              121.7019         estimate D2E/DX2                !
 ! A8    A(3,4,9)              116.0785         estimate D2E/DX2                !
 ! A9    A(6,4,9)              122.2196         estimate D2E/DX2                !
 ! A10   A(2,5,7)              120.4739         estimate D2E/DX2                !
 ! A11   A(2,5,10)             116.3305         estimate D2E/DX2                !
 ! A12   A(7,5,10)             123.1956         estimate D2E/DX2                !
 ! A13   A(4,6,7)              121.6078         estimate D2E/DX2                !
 ! A14   A(4,6,11)             119.3971         estimate D2E/DX2                !
 ! A15   A(7,6,11)             118.9951         estimate D2E/DX2                !
 ! A16   A(5,7,6)              117.9002         estimate D2E/DX2                !
 ! A17   A(5,7,12)             120.4381         estimate D2E/DX2                !
 ! A18   A(6,7,12)             121.6617         estimate D2E/DX2                !
 ! D1    D(5,2,3,1)            180.0            estimate D2E/DX2                !
 ! D2    D(5,2,3,4)              0.0            estimate D2E/DX2                !
 ! D3    D(8,2,3,1)              0.0            estimate D2E/DX2                !
 ! D4    D(8,2,3,4)            180.0            estimate D2E/DX2                !
 ! D5    D(3,2,5,7)              0.0            estimate D2E/DX2                !
 ! D6    D(3,2,5,10)           180.0            estimate D2E/DX2                !
 ! D7    D(8,2,5,7)            180.0            estimate D2E/DX2                !
 ! D8    D(8,2,5,10)             0.0            estimate D2E/DX2                !
 ! D9    D(1,3,4,6)            180.0            estimate D2E/DX2                !
 ! D10   D(1,3,4,9)              0.0            estimate D2E/DX2                !
 ! D11   D(2,3,4,6)              0.0            estimate D2E/DX2                !
 ! D12   D(2,3,4,9)            180.0            estimate D2E/DX2                !
 ! D13   D(3,4,6,7)              0.0            estimate D2E/DX2                !
 ! D14   D(3,4,6,11)           180.0            estimate D2E/DX2                !
 ! D15   D(9,4,6,7)            180.0            estimate D2E/DX2                !
 ! D16   D(9,4,6,11)             0.0            estimate D2E/DX2                !
 ! D17   D(2,5,7,6)              0.0            estimate D2E/DX2                !
 ! D18   D(2,5,7,12)           180.0            estimate D2E/DX2                !
 ! D19   D(10,5,7,6)           180.0            estimate D2E/DX2                !
 ! D20   D(10,5,7,12)            0.0            estimate D2E/DX2                !
 ! D21   D(4,6,7,5)              0.0            estimate D2E/DX2                !
 ! D22   D(4,6,7,12)           180.0            estimate D2E/DX2                !
 ! D23   D(11,6,7,5)           180.0            estimate D2E/DX2                !
 ! D24   D(11,6,7,12)            0.0            estimate D2E/DX2                !
 --------------------------------------------------------------------------------
 Trust Radius=3.00D-01 FncErr=1.00D-07 GrdErr=1.00D-06
 Number of steps in this run=     64 maximum allowed number of steps=    100.
 GradGradGradGradGradGradGradGradGradGradGradGradGradGradGradGradGradGrad

 Leave Link  103 at Fri Aug 27 00:03:30 2021, MaxMem= 17179869184 cpu:         0.1
 (Enter /public3/home/sc51754/softwares/g09e01/l202.exe)
                          Input orientation:                          
 ---------------------------------------------------------------------
 Center     Atomic      Atomic             Coordinates (Angstroms)
 Number     Number       Type             X           Y           Z
 ---------------------------------------------------------------------
      1          8           0       -0.130304    2.267896    0.000000
      2          7           0       -1.132141    0.233271    0.000000
      3          6           0        0.000000    1.062005    0.000000
      4          6           0        1.237945    0.320111    0.000000
      5          6           0       -1.114407   -1.121885    0.000000
      6          6           0        1.256071   -1.032342    0.000000
      7          6           0        0.058564   -1.791590    0.000000
      8          1           0       -2.007624    0.732742    0.000000
      9          1           0        2.144218    0.908369    0.000000
     10          1           0       -2.076968   -1.614034    0.000000
     11          1           0        2.206750   -1.551299    0.000000
     12          1           0        0.071999   -2.869636    0.000000
 ---------------------------------------------------------------------
                    Distance matrix (angstroms):
                    1          2          3          4          5
     1  O    0.000000
     2  N    2.267901   0.000000
     3  C    1.212911   1.403048   0.000000
     4  C    2.380330   2.371676   1.443231   0.000000
     5  C    3.529741   1.355272   2.451791   2.759151   0.000000
     6  C    3.579610   2.702838   2.442131   1.352574   2.372169
     7  C    4.063877   2.349008   2.854196   2.418723   1.350691
     8  H    2.425083   1.007939   2.034445   3.271694   2.058514
     9  H    2.649861   3.345188   2.149715   1.080453   3.839345
    10  H    4.342681   2.074906   3.387474   3.837912   1.081080
    11  H    4.477507   3.785879   3.420395   2.107311   3.348803
    12  H    5.141514   3.328361   3.932300   3.396162   2.112390
                    6          7          8          9         10
     6  C    0.000000
     7  C    1.417914   0.000000
     8  H    3.710421   3.262114   0.000000
     9  H    2.134283   3.411705   4.155555   0.000000
    10  H    3.383418   2.142901   2.347800   4.917411   0.000000
    11  H    1.083101   2.161583   4.793516   2.460463   4.284177
    12  H    2.185790   1.078130   4.159562   4.308992   2.488894
                   11         12
    11  H    0.000000
    12  H    2.509019   0.000000
 Stoichiometry    C5H5NO
 Framework group  CS[SG(C5H5NO)]
 Deg. of freedom    21
 Full point group                 CS      NOp   2
 Largest Abelian subgroup         CS      NOp   2
 Largest concise Abelian subgroup C1      NOp   1
                         Standard orientation:                         
 ---------------------------------------------------------------------
 Center     Atomic      Atomic             Coordinates (Angstroms)
 Number     Number       Type             X           Y           Z
 ---------------------------------------------------------------------
      1          8           0       -0.130304    2.267896    0.000000
      2          7           0       -1.132141    0.233271    0.000000
      3          6           0       -0.000000    1.062005    0.000000
      4          6           0        1.237945    0.320111   -0.000000
      5          6           0       -1.114407   -1.121885    0.000000
      6          6           0        1.256071   -1.032342   -0.000000
      7          6           0        0.058564   -1.791590   -0.000000
      8          1           0       -2.007624    0.732742    0.000000
      9          1           0        2.144218    0.908369   -0.000000
     10          1           0       -2.076968   -1.614034    0.000000
     11          1           0        2.206750   -1.551299   -0.000000
     12          1           0        0.071999   -2.869636   -0.000000
 ---------------------------------------------------------------------
 Rotational constants (GHZ):      5.7341355      2.8228169      1.8916098
 Leave Link  202 at Fri Aug 27 00:03:31 2021, MaxMem= 17179869184 cpu:         7.8
 (Enter /public3/home/sc51754/softwares/g09e01/l301.exe)
 General basis read from cards:  (5D, 7F)
 Centers:       8      9     10     11     12
 S 4 1.00
     Exponent=  7.5423000000D+01 Coefficients=  2.4065000000D-03
     Exponent=  1.1350000000D+01 Coefficients=  1.8487000000D-02
     Exponent=  2.5993000000D+00 Coefficients=  8.9742000000D-02
     Exponent=  7.3513000000D-01 Coefficients=  2.8111000000D-01
 S 1 1.00
     Exponent=  2.3167000000D-01 Coefficients=  1.0000000000D+00
 S 1 1.00
     Exponent=  7.4147000000D-02 Coefficients=  1.0000000000D+00
 P 1 1.00
     Exponent=  1.6000000000D+00 Coefficients=  1.0000000000D+00
 P 1 1.00
     Exponent=  4.5000000000D-01 Coefficients=  1.0000000000D+00
 D 1 1.00
     Exponent=  1.2500000000D+00 Coefficients=  1.0000000000D+00
 ****
 Centers:       3      4      5      6      7
 S 7 1.00
     Exponent=  7.8571000000D+03 Coefficients=  5.6825000000D-04
     Exponent=  1.1787000000D+03 Coefficients=  4.3915000000D-03
     Exponent=  2.6832000000D+02 Coefficients=  2.2504000000D-02
     Exponent=  7.5948000000D+01 Coefficients=  8.6653000000D-02
     Exponent=  2.4559000000D+01 Coefficients=  2.4405000000D-01
     Exponent=  8.6212000000D+00 Coefficients=  4.4148000000D-01
     Exponent=  3.1278000000D+00 Coefficients=  3.5332000000D-01
 S 7 1.00
     Exponent=  1.1787000000D+03 Coefficients= -5.9492000000D-07
     Exponent=  2.6832000000D+02 Coefficients= -6.2748000000D-05
     Exponent=  7.5948000000D+01 Coefficients= -7.5773000000D-04
     Exponent=  2.4559000000D+01 Coefficients= -7.3308000000D-03
     Exponent=  8.6212000000D+00 Coefficients= -3.8932000000D-02
     Exponent=  3.1278000000D+00 Coefficients= -8.8908000000D-02
     Exponent=  8.2202000000D-01 Coefficients=  2.1689000000D-01
 S 1 1.00
     Exponent=  3.3017000000D-01 Coefficients=  1.0000000000D+00
 S 1 1.00
     Exponent=  1.1463000000D-01 Coefficients=  1.0000000000D+00
 P 4 1.00
     Exponent=  3.3775000000D+01 Coefficients=  6.0294000000D-03
     Exponent=  7.6766000000D+00 Coefficients=  4.3228000000D-02
     Exponent=  2.2357000000D+00 Coefficients=  1.6301000000D-01
     Exponent=  7.6447000000D-01 Coefficients=  3.6504000000D-01
 P 1 1.00
     Exponent=  2.6232000000D-01 Coefficients=  1.0000000000D+00
 P 1 1.00
     Exponent=  8.4638000000D-02 Coefficients=  1.0000000000D+00
 D 1 1.00
     Exponent=  1.4000000000D+00 Coefficients=  1.0000000000D+00
 D 1 1.00
     Exponent=  4.5000000000D-01 Coefficients=  1.0000000000D+00
 F 1 1.00
     Exponent=  9.5000000000D-01 Coefficients=  1.0000000000D+00
 ****
 Centers:       2
 S 7 1.00
     Exponent=  1.1101000000D+04 Coefficients=  5.4570000000D-04
     Exponent=  1.6653000000D+03 Coefficients=  4.2181000000D-03
     Exponent=  3.7908000000D+02 Coefficients=  2.1645000000D-02
     Exponent=  1.0730000000D+02 Coefficients=  8.3776000000D-02
     Exponent=  3.4747000000D+01 Coefficients=  2.3881000000D-01
     Exponent=  1.2249000000D+01 Coefficients=  4.3994000000D-01
     Exponent=  4.4743000000D+00 Coefficients=  3.6364000000D-01
 S 7 1.00
     Exponent=  1.6653000000D+03 Coefficients= -1.5006000000D-06
     Exponent=  3.7908000000D+02 Coefficients= -5.8753000000D-05
     Exponent=  1.0730000000D+02 Coefficients= -7.7453000000D-04
     Exponent=  3.4747000000D+01 Coefficients= -7.2161000000D-03
     Exponent=  1.2249000000D+01 Coefficients= -3.9338000000D-02
     Exponent=  4.4743000000D+00 Coefficients= -9.0611000000D-02
     Exponent=  1.2404000000D+00 Coefficients=  1.9882000000D-01
 S 1 1.00
     Exponent=  4.8743000000D-01 Coefficients=  1.0000000000D+00
 S 1 1.00
     Exponent=  1.6484000000D-01 Coefficients=  1.0000000000D+00
 P 4 1.00
     Exponent=  4.7934000000D+01 Coefficients=  6.1706000000D-03
     Exponent=  1.0999000000D+01 Coefficients=  4.4260000000D-02
     Exponent=  3.2472000000D+00 Coefficients=  1.6825000000D-01
     Exponent=  1.1114000000D+00 Coefficients=  3.6848000000D-01
 P 1 1.00
     Exponent=  3.7988000000D-01 Coefficients=  1.0000000000D+00
 P 1 1.00
     Exponent=  1.2068000000D-01 Coefficients=  1.0000000000D+00
 D 1 1.00
     Exponent=  1.8000000000D+00 Coefficients=  1.0000000000D+00
 D 1 1.00
     Exponent=  5.5000000000D-01 Coefficients=  1.0000000000D+00
 F 1 1.00
     Exponent=  1.0200000000D+00 Coefficients=  1.0000000000D+00
 ****
 Centers:       1
 S 7 1.00
     Exponent=  1.4782000000D+04 Coefficients=  5.3519000000D-04
     Exponent=  2.2173000000D+03 Coefficients=  4.1375000000D-03
     Exponent=  5.0474000000D+02 Coefficients=  2.1245000000D-02
     Exponent=  1.4287000000D+02 Coefficients=  8.2453000000D-02
     Exponent=  4.6300000000D+01 Coefficients=  2.3671000000D-01
     Exponent=  1.6337000000D+01 Coefficients=  4.4039000000D-01
     Exponent=  5.9828000000D+00 Coefficients=  3.6465000000D-01
 S 7 1.00
     Exponent=  2.2173000000D+03 Coefficients= -1.9275000000D-06
     Exponent=  5.0474000000D+02 Coefficients= -5.7964000000D-05
     Exponent=  1.4287000000D+02 Coefficients= -7.9494000000D-04
     Exponent=  4.6300000000D+01 Coefficients= -7.3125000000D-03
     Exponent=  1.6337000000D+01 Coefficients= -4.0574000000D-02
     Exponent=  5.9828000000D+00 Coefficients= -9.1594000000D-02
     Exponent=  1.6718000000D+00 Coefficients=  2.0940000000D-01
 S 1 1.00
     Exponent=  6.4662000000D-01 Coefficients=  1.0000000000D+00
 S 1 1.00
     Exponent=  2.1669000000D-01 Coefficients=  1.0000000000D+00
 P 4 1.00
     Exponent=  6.0424000000D+01 Coefficients=  6.8949000000D-03
     Exponent=  1.3935000000D+01 Coefficients=  4.9005000000D-02
     Exponent=  4.1531000000D+00 Coefficients=  1.8255000000D-01
     Exponent=  1.4158000000D+00 Coefficients=  3.7633000000D-01
 P 1 1.00
     Exponent=  4.7549000000D-01 Coefficients=  1.0000000000D+00
 P 1 1.00
     Exponent=  1.4529000000D-01 Coefficients=  1.0000000000D+00
 D 1 1.00
     Exponent=  2.2000000000D+00 Coefficients=  1.0000000000D+00
 D 1 1.00
     Exponent=  6.5000000000D-01 Coefficients=  1.0000000000D+00
 F 1 1.00
     Exponent=  1.1000000000D+00 Coefficients=  1.0000000000D+00
 ****
 Ernie: Thresh=  0.10000D-02 Tol=  0.10000D-05 Strict=F.
 Ernie:  7 primitive shells out of 220 were deleted.
 There are   223 symmetry adapted cartesian basis functions of A'  symmetry.
 There are    97 symmetry adapted cartesian basis functions of A"  symmetry.
 There are   190 symmetry adapted basis functions of A'  symmetry.
 There are    90 symmetry adapted basis functions of A"  symmetry.
   280 basis functions,   475 primitive gaussians,   320 cartesian basis functions
    25 alpha electrons       25 beta electrons
       nuclear repulsion energy       276.8386644497 Hartrees.
 IExCor= 2523 DFT=T Ex=TPSS Corr=TPSS ExCW=0 ScaHFX=  0.000000
 ScaDFX=  1.000000  1.000000  1.000000  1.000000 ScalE2=  1.000000  1.000000
 IRadAn=      0 IRanWt=     -1 IRanGd=            0 ICorTp=0 IEmpDi=  4
 NAtoms=   12 NActive=   12 NUniq=   12 SFac= 1.00D+00 NAtFMM=   60 NAOKFM=F Big=F
 Integral buffers will be    131072 words long.
 Raffenetti 2 integral format.
 Two-electron integral symmetry is turned on.
 Leave Link  301 at Fri Aug 27 00:03:31 2021, MaxMem= 17179869184 cpu:         1.7
 (Enter /public3/home/sc51754/softwares/g09e01/l302.exe)
 NPDir=0 NMtPBC=     1 NCelOv=     1 NCel=       1 NClECP=     1 NCelD=      1
         NCelK=      1 NCelE2=     1 NClLst=     1 CellRange=     0.0.
 One-electron integrals computed using PRISM.
 NBasis=   280 RedAO= T EigKep=  2.29D-04  NBF=   190    90
 NBsUse=   280 1.00D-06 EigRej= -1.00D+00 NBFU=   190    90
 Precomputing XC quadrature grid using
 IXCGrd= 4 IRadAn=           0 IRanWt=          -1 IRanGd=           0 AccXCQ= 0.00D+00.
 Generated NRdTot=       0 NPtTot=           0 NUsed=           0 NTot=          32
 NSgBfM=   320   320   320   320   320 MxSgAt=    12 MxSgA2=    12.
 Leave Link  302 at Fri Aug 27 00:03:32 2021, MaxMem= 17179869184 cpu:        34.8
 (Enter /public3/home/sc51754/softwares/g09e01/l303.exe)
 DipDrv:  MaxL=1.
 Leave Link  303 at Fri Aug 27 00:03:32 2021, MaxMem= 17179869184 cpu:        13.0
 (Enter /public3/home/sc51754/softwares/g09e01/l401.exe)
 ExpMin= 7.41D-02 ExpMax= 1.48D+04 ExpMxC= 5.05D+02 IAcc=2 IRadAn=         4 AccDes= 0.00D+00
 Harris functional with IExCor= 1009 and IRadAn=       4 diagonalized for initial guess.
 HarFok:  IExCor= 1009 AccDes= 0.00D+00 IRadAn=         4 IDoV= 1 UseB2=F ITyADJ=14
 ICtDFT=  3500011 ScaDFX=  1.000000  1.000000  1.000000  1.000000
 FoFCou: FMM=F IPFlag=           0 FMFlag=      100000 FMFlg1=           0
         NFxFlg=           0 DoJE=T BraDBF=F KetDBF=T FulRan=T
         wScrn=  0.000000 ICntrl=     500 IOpCl=  0 I1Cent=   200000004 NGrid=           0
         NMat0=    1 NMatS0=      1 NMatT0=    0 NMatD0=    1 NMtDS0=    0 NMtDT0=    0
 Petite list used in FoFCou.
 Harris En= -323.391688734430    
 JPrj=0 DoOrth=F DoCkMO=F.
 Initial guess orbital symmetries:
       Occupied  (A') (A') (A') (A') (A') (A') (A') (A') (A') (A')
                 (A') (A') (A') (A') (A') (A') (A') (A') (A") (A')
                 (A') (A") (A") (A') (A")
       Virtual   (A") (A") (A') (A') (A") (A') (A') (A') (A') (A')
                 (A') (A') (A") (A') (A") (A') (A") (A') (A') (A')
                 (A') (A') (A") (A') (A") (A') (A') (A') (A') (A')
                 (A") (A') (A') (A') (A") (A') (A') (A') (A') (A')
                 (A') (A') (A") (A') (A') (A') (A") (A') (A") (A")
                 (A') (A") (A') (A') (A") (A') (A') (A') (A') (A")
                 (A') (A") (A') (A') (A") (A') (A") (A') (A") (A")
                 (A') (A') (A') (A") (A') (A") (A') (A") (A') (A')
                 (A") (A') (A") (A') (A") (A') (A') (A') (A") (A")
                 (A') (A') (A") (A') (A') (A') (A') (A") (A') (A')
                 (A') (A') (A") (A') (A') (A') (A") (A') (A') (A')
                 (A") (A') (A') (A') (A') (A') (A") (A') (A') (A")
                 (A') (A') (A") (A') (A') (A") (A") (A") (A') (A")
                 (A') (A') (A") (A') (A") (A') (A') (A") (A') (A')
                 (A') (A') (A") (A') (A") (A') (A') (A') (A') (A')
                 (A') (A") (A") (A") (A") (A') (A") (A") (A') (A")
                 (A') (A") (A') (A') (A") (A') (A') (A') (A') (A")
                 (A') (A") (A') (A") (A") (A') (A') (A") (A") (A")
                 (A') (A") (A') (A") (A") (A') (A') (A") (A') (A")
                 (A') (A") (A') (A") (A') (A") (A') (A') (A") (A')
                 (A') (A') (A") (A") (A') (A') (A") (A') (A') (A')
                 (A") (A') (A') (A") (A') (A") (A') (A") (A') (A')
                 (A") (A') (A") (A') (A") (A') (A') (A') (A") (A')
                 (A') (A') (A') (A") (A') (A") (A') (A') (A') (A')
                 (A') (A") (A') (A') (A') (A') (A') (A') (A') (A')
                 (A') (A') (A') (A') (A')
 The electronic state of the initial guess is 1-A'.
 Leave Link  401 at Fri Aug 27 00:03:33 2021, MaxMem= 17179869184 cpu:        44.2
 (Enter /public3/home/sc51754/softwares/g09e01/l502.exe)
 Closed shell SCF:
 Using DIIS extrapolation, IDIIS=  1040.
 Integral symmetry usage will be decided dynamically.
 Keep J ints in memory in symmetry-blocked form, NReq=1167802198.
 IVT=      348658 IEndB=      348658 NGot= 17179869184 MDV= 16785904737
 LenX= 16785904737 LenY= 16785801896
 Requested convergence on RMS density matrix=1.00D-08 within 128 cycles.
 Requested convergence on MAX density matrix=1.00D-06.
 Requested convergence on             energy=1.00D-06.
 No special actions if energy rises.
 FoFCou: FMM=F IPFlag=           0 FMFlag=           0 FMFlg1=           0
         NFxFlg=           0 DoJE=F BraDBF=F KetDBF=F FulRan=T
         wScrn=  0.000000 ICntrl=     600 IOpCl=  0 I1Cent=           0 NGrid=           0
         NMat0=    1 NMatS0=  39340 NMatT0=    0 NMatD0=    1 NMtDS0=    0 NMtDT0=    0
 Petite list used in FoFCou.
 Integral accuracy reduced to 1.0D-05 until final iterations.

 Cycle   1  Pass 0  IDiag  1:
 E= -323.518585547208    
 DIIS: error= 2.63D-02 at cycle   1 NSaved=   1.
 NSaved= 1 IEnMin= 1 EnMin= -323.518585547208     IErMin= 1 ErrMin= 2.63D-02
 ErrMax= 2.63D-02  0.00D+00 EMaxC= 1.00D-01 BMatC= 2.04D-01 BMatP= 2.04D-01
 IDIUse=3 WtCom= 7.37D-01 WtEn= 2.63D-01
 Coeff-Com:  0.100D+01
 Coeff-En:   0.100D+01
 Coeff:      0.100D+01
 Gap=     0.050 Goal=   None    Shift=    0.000
 GapD=    0.050 DampG=0.250 DampE=0.500 DampFc=0.2500 IDamp=-1.
 Damping current iteration by 2.50D-01
 RMSDP=5.76D-03 MaxDP=2.24D-01              OVMax= 4.87D-01

 Cycle   2  Pass 0  IDiag  1:
 E= -323.568343128127     Delta-E=       -0.049757580918 Rises=F Damp=T
 DIIS: error= 1.39D-02 at cycle   2 NSaved=   2.
 NSaved= 2 IEnMin= 2 EnMin= -323.568343128127     IErMin= 2 ErrMin= 1.39D-02
 ErrMax= 1.39D-02  0.00D+00 EMaxC= 1.00D-01 BMatC= 3.53D-02 BMatP= 2.04D-01
 IDIUse=3 WtCom= 8.61D-01 WtEn= 1.39D-01
 Coeff-Com: -0.214D+00 0.121D+01
 Coeff-En:   0.177D+00 0.823D+00
 Coeff:     -0.160D+00 0.116D+01
 Gap=     0.116 Goal=   None    Shift=    0.000
 RMSDP=1.43D-03 MaxDP=5.02D-02 DE=-4.98D-02 OVMax= 4.62D-01

 Cycle   3  Pass 0  IDiag  1:
 E= -323.620923115377     Delta-E=       -0.052579987250 Rises=F Damp=F
 DIIS: error= 1.90D-02 at cycle   3 NSaved=   3.
 NSaved= 3 IEnMin= 3 EnMin= -323.620923115377     IErMin= 2 ErrMin= 1.39D-02
 ErrMax= 1.90D-02  0.00D+00 EMaxC= 1.00D-01 BMatC= 8.36D-02 BMatP= 3.53D-02
 IDIUse=2 WtCom= 0.00D+00 WtEn= 1.00D+00
 Coeff-En:   0.000D+00 0.258D+00 0.742D+00
 Coeff:      0.000D+00 0.258D+00 0.742D+00
 Gap=     0.053 Goal=   None    Shift=    0.000
 RMSDP=2.70D-03 MaxDP=1.18D-01 DE=-5.26D-02 OVMax= 4.80D-01

 Cycle   4  Pass 0  IDiag  1:
 E= -323.320553639494     Delta-E=        0.300369475883 Rises=F Damp=F
 DIIS: error= 4.75D-02 at cycle   4 NSaved=   4.
 NSaved= 4 IEnMin= 3 EnMin= -323.620923115377     IErMin= 2 ErrMin= 1.39D-02
 ErrMax= 4.75D-02  0.00D+00 EMaxC= 1.00D-01 BMatC= 4.19D-01 BMatP= 3.53D-02
 IDIUse=2 WtCom= 0.00D+00 WtEn= 1.00D+00
 Coeff-En:   0.000D+00 0.000D+00 0.750D+00 0.250D+00
 Coeff:      0.000D+00 0.000D+00 0.750D+00 0.250D+00
 Gap=     0.110 Goal=   None    Shift=    0.000
 RMSDP=1.76D-03 MaxDP=7.26D-02 DE= 3.00D-01 OVMax= 2.77D-01

 Cycle   5  Pass 0  IDiag  1:
 E= -323.678637909508     Delta-E=       -0.358084270014 Rises=F Damp=F
 DIIS: error= 1.07D-02 at cycle   5 NSaved=   5.
 NSaved= 5 IEnMin= 5 EnMin= -323.678637909508     IErMin= 5 ErrMin= 1.07D-02
 ErrMax= 1.07D-02  0.00D+00 EMaxC= 1.00D-01 BMatC= 2.39D-02 BMatP= 3.53D-02
 IDIUse=3 WtCom= 8.93D-01 WtEn= 1.07D-01
 Coeff-Com: -0.139D+00 0.237D+00 0.345D+00-0.222D-01 0.579D+00
 Coeff-En:   0.000D+00 0.000D+00 0.283D+00 0.000D+00 0.717D+00
 Coeff:     -0.124D+00 0.212D+00 0.338D+00-0.198D-01 0.594D+00
 Gap=     0.130 Goal=   None    Shift=    0.000
 RMSDP=4.54D-04 MaxDP=1.74D-02 DE=-3.58D-01 OVMax= 8.47D-02

 Cycle   6  Pass 0  IDiag  1:
 E= -323.701684512201     Delta-E=       -0.023046602693 Rises=F Damp=F
 DIIS: error= 2.18D-03 at cycle   6 NSaved=   6.
 NSaved= 6 IEnMin= 6 EnMin= -323.701684512201     IErMin= 6 ErrMin= 2.18D-03
 ErrMax= 2.18D-03  0.00D+00 EMaxC= 1.00D-01 BMatC= 9.97D-04 BMatP= 2.39D-02
 IDIUse=3 WtCom= 9.78D-01 WtEn= 2.18D-02
 Coeff-Com: -0.104D+00 0.150D+00 0.161D+00-0.429D-01 0.393D+00 0.443D+00
 Coeff-En:   0.000D+00 0.000D+00 0.000D+00 0.000D+00 0.000D+00 0.100D+01
 Coeff:     -0.102D+00 0.147D+00 0.157D+00-0.420D-01 0.385D+00 0.455D+00
 Gap=     0.128 Goal=   None    Shift=    0.000
 RMSDP=9.85D-05 MaxDP=3.86D-03 DE=-2.30D-02 OVMax= 1.73D-02

 Cycle   7  Pass 0  IDiag  1:
 E= -323.702632203412     Delta-E=       -0.000947691212 Rises=F Damp=F
 DIIS: error= 6.34D-04 at cycle   7 NSaved=   7.
 NSaved= 7 IEnMin= 7 EnMin= -323.702632203412     IErMin= 7 ErrMin= 6.34D-04
 ErrMax= 6.34D-04  0.00D+00 EMaxC= 1.00D-01 BMatC= 8.24D-05 BMatP= 9.97D-04
 IDIUse=3 WtCom= 9.94D-01 WtEn= 6.34D-03
 Coeff-Com: -0.493D-01 0.654D-01 0.699D-01-0.204D-01 0.185D+00 0.286D+00
 Coeff-Com:  0.463D+00
 Coeff-En:   0.000D+00 0.000D+00 0.000D+00 0.000D+00 0.000D+00 0.333D-01
 Coeff-En:   0.967D+00
 Coeff:     -0.490D-01 0.649D-01 0.695D-01-0.203D-01 0.184D+00 0.284D+00
 Coeff:      0.466D+00
 Gap=     0.128 Goal=   None    Shift=    0.000
 RMSDP=3.61D-05 MaxDP=1.23D-03 DE=-9.48D-04 OVMax= 7.21D-03

 Cycle   8  Pass 0  IDiag  1:
 E= -323.702701544996     Delta-E=       -0.000069341583 Rises=F Damp=F
 DIIS: error= 2.54D-04 at cycle   8 NSaved=   8.
 NSaved= 8 IEnMin= 8 EnMin= -323.702701544996     IErMin= 8 ErrMin= 2.54D-04
 ErrMax= 2.54D-04  0.00D+00 EMaxC= 1.00D-01 BMatC= 1.27D-05 BMatP= 8.24D-05
 IDIUse=3 WtCom= 9.97D-01 WtEn= 2.54D-03
 Coeff-Com: -0.594D-02 0.538D-02 0.557D-02-0.107D-02 0.179D-01 0.736D-01
 Coeff-Com:  0.318D+00 0.586D+00
 Coeff-En:   0.000D+00 0.000D+00 0.000D+00 0.000D+00 0.000D+00 0.000D+00
 Coeff-En:   0.163D+00 0.837D+00
 Coeff:     -0.592D-02 0.537D-02 0.556D-02-0.107D-02 0.179D-01 0.734D-01
 Coeff:      0.318D+00 0.587D+00
 Gap=     0.128 Goal=   None    Shift=    0.000
 RMSDP=1.16D-05 MaxDP=6.37D-04 DE=-6.93D-05 OVMax= 2.46D-03

 Cycle   9  Pass 0  IDiag  1:
 E= -323.702714532860     Delta-E=       -0.000012987864 Rises=F Damp=F
 DIIS: error= 7.09D-05 at cycle   9 NSaved=   9.
 NSaved= 9 IEnMin= 9 EnMin= -323.702714532860     IErMin= 9 ErrMin= 7.09D-05
 ErrMax= 7.09D-05  0.00D+00 EMaxC= 1.00D-01 BMatC= 5.68D-07 BMatP= 1.27D-05
 IDIUse=1 WtCom= 1.00D+00 WtEn= 0.00D+00
 Coeff-Com: -0.173D-02 0.177D-02 0.191D-03-0.129D-03 0.202D-02 0.268D-01
 Coeff-Com:  0.139D+00 0.297D+00 0.535D+00
 Coeff:     -0.173D-02 0.177D-02 0.191D-03-0.129D-03 0.202D-02 0.268D-01
 Coeff:      0.139D+00 0.297D+00 0.535D+00
 Gap=     0.128 Goal=   None    Shift=    0.000
 RMSDP=3.41D-06 MaxDP=1.33D-04 DE=-1.30D-05 OVMax= 5.29D-04

 Initial convergence to 1.0D-05 achieved.  Increase integral accuracy.
 Cycle  10  Pass 1  IDiag  1:
 E= -323.702694579771     Delta-E=        0.000019953089 Rises=F Damp=F
 DIIS: error= 4.23D-05 at cycle   1 NSaved=   1.
 NSaved= 1 IEnMin= 1 EnMin= -323.702694579771     IErMin= 1 ErrMin= 4.23D-05
 ErrMax= 4.23D-05  0.00D+00 EMaxC= 1.00D-01 BMatC= 4.27D-07 BMatP= 4.27D-07
 IDIUse=1 WtCom= 1.00D+00 WtEn= 0.00D+00
 Coeff-Com:  0.100D+01
 Coeff:      0.100D+01
 Gap=     0.128 Goal=   None    Shift=    0.000
 RMSDP=3.41D-06 MaxDP=1.33D-04 DE= 2.00D-05 OVMax= 7.87D-04

 Cycle  11  Pass 1  IDiag  1:
 E= -323.702693707630     Delta-E=        0.000000872141 Rises=F Damp=F
 DIIS: error= 1.12D-04 at cycle   2 NSaved=   2.
 NSaved= 2 IEnMin= 1 EnMin= -323.702694579771     IErMin= 1 ErrMin= 4.23D-05
 ErrMax= 1.12D-04  0.00D+00 EMaxC= 1.00D-01 BMatC= 1.13D-06 BMatP= 4.27D-07
 IDIUse=3 WtCom= 4.86D-01 WtEn= 5.14D-01
 Coeff-Com:  0.646D+00 0.354D+00
 Coeff-En:   0.737D+00 0.263D+00
 Coeff:      0.693D+00 0.307D+00
 Gap=     0.128 Goal=   None    Shift=    0.000
 RMSDP=3.49D-06 MaxDP=1.33D-04 DE= 8.72D-07 OVMax= 5.82D-04

 Cycle  12  Pass 1  IDiag  1:
 E= -323.702695003366     Delta-E=       -0.000001295736 Rises=F Damp=F
 DIIS: error= 1.26D-05 at cycle   3 NSaved=   3.
 NSaved= 3 IEnMin= 3 EnMin= -323.702695003366     IErMin= 3 ErrMin= 1.26D-05
 ErrMax= 1.26D-05  0.00D+00 EMaxC= 1.00D-01 BMatC= 2.10D-08 BMatP= 4.27D-07
 IDIUse=1 WtCom= 1.00D+00 WtEn= 0.00D+00
 Coeff-Com:  0.575D-01 0.105D+00 0.837D+00
 Coeff:      0.575D-01 0.105D+00 0.837D+00
 Gap=     0.128 Goal=   None    Shift=    0.000
 RMSDP=8.12D-07 MaxDP=3.34D-05 DE=-1.30D-06 OVMax= 1.34D-04

 Cycle  13  Pass 1  IDiag  1:
 E= -323.702694996090     Delta-E=        0.000000007275 Rises=F Damp=F
 DIIS: error= 1.36D-05 at cycle   4 NSaved=   4.
 NSaved= 4 IEnMin= 3 EnMin= -323.702695003366     IErMin= 3 ErrMin= 1.26D-05
 ErrMax= 1.36D-05  0.00D+00 EMaxC= 1.00D-01 BMatC= 3.47D-08 BMatP= 2.10D-08
 IDIUse=1 WtCom= 1.00D+00 WtEn= 0.00D+00
 Coeff-Com: -0.636D-02 0.520D-01 0.609D+00 0.346D+00
 Coeff:     -0.636D-02 0.520D-01 0.609D+00 0.346D+00
 Gap=     0.128 Goal=   None    Shift=    0.000
 RMSDP=5.57D-07 MaxDP=2.99D-05 DE= 7.28D-09 OVMax= 8.44D-05

 Cycle  14  Pass 1  IDiag  1:
 E= -323.702695023468     Delta-E=       -0.000000027377 Rises=F Damp=F
 DIIS: error= 3.33D-06 at cycle   5 NSaved=   5.
 NSaved= 5 IEnMin= 5 EnMin= -323.702695023468     IErMin= 5 ErrMin= 3.33D-06
 ErrMax= 3.33D-06  0.00D+00 EMaxC= 1.00D-01 BMatC= 3.12D-09 BMatP= 2.10D-08
 IDIUse=1 WtCom= 1.00D+00 WtEn= 0.00D+00
 Coeff-Com: -0.101D-01 0.275D-01 0.361D+00 0.254D+00 0.368D+00
 Coeff:     -0.101D-01 0.275D-01 0.361D+00 0.254D+00 0.368D+00
 Gap=     0.128 Goal=   None    Shift=    0.000
 RMSDP=1.75D-07 MaxDP=8.01D-06 DE=-2.74D-08 OVMax= 2.28D-05

 Cycle  15  Pass 1  IDiag  1:
 E= -323.702695025969     Delta-E=       -0.000000002501 Rises=F Damp=F
 DIIS: error= 3.88D-07 at cycle   6 NSaved=   6.
 NSaved= 6 IEnMin= 6 EnMin= -323.702695025969     IErMin= 6 ErrMin= 3.88D-07
 ErrMax= 3.88D-07  0.00D+00 EMaxC= 1.00D-01 BMatC= 3.92D-11 BMatP= 3.12D-09
 IDIUse=1 WtCom= 1.00D+00 WtEn= 0.00D+00
 Coeff-Com: -0.414D-02 0.993D-02 0.129D+00 0.987D-01 0.167D+00 0.600D+00
 Coeff:     -0.414D-02 0.993D-02 0.129D+00 0.987D-01 0.167D+00 0.600D+00
 Gap=     0.128 Goal=   None    Shift=    0.000
 RMSDP=2.77D-08 MaxDP=1.15D-06 DE=-2.50D-09 OVMax= 4.99D-06

 Cycle  16  Pass 1  IDiag  1:
 E= -323.702695025999     Delta-E=       -0.000000000030 Rises=F Damp=F
 DIIS: error= 2.88D-07 at cycle   7 NSaved=   7.
 NSaved= 7 IEnMin= 7 EnMin= -323.702695025999     IErMin= 7 ErrMin= 2.88D-07
 ErrMax= 2.88D-07  0.00D+00 EMaxC= 1.00D-01 BMatC= 1.70D-11 BMatP= 3.92D-11
 IDIUse=1 WtCom= 1.00D+00 WtEn= 0.00D+00
 Coeff-Com: -0.199D-02 0.427D-02 0.551D-01 0.442D-01 0.761D-01 0.408D+00
 Coeff-Com:  0.414D+00
 Coeff:     -0.199D-02 0.427D-02 0.551D-01 0.442D-01 0.761D-01 0.408D+00
 Coeff:      0.414D+00
 Gap=     0.128 Goal=   None    Shift=    0.000
 RMSDP=1.44D-08 MaxDP=6.71D-07 DE=-3.02D-11 OVMax= 3.30D-06

 Cycle  17  Pass 1  IDiag  1:
 E= -323.702695026005     Delta-E=       -0.000000000006 Rises=F Damp=F
 DIIS: error= 9.97D-08 at cycle   8 NSaved=   8.
 NSaved= 8 IEnMin= 8 EnMin= -323.702695026005     IErMin= 8 ErrMin= 9.97D-08
 ErrMax= 9.97D-08  0.00D+00 EMaxC= 1.00D-01 BMatC= 1.75D-12 BMatP= 1.70D-11
 IDIUse=1 WtCom= 1.00D+00 WtEn= 0.00D+00
 Coeff-Com: -0.350D-03 0.544D-03 0.664D-02 0.642D-02 0.117D-01 0.137D+00
 Coeff-Com:  0.268D+00 0.570D+00
 Coeff:     -0.350D-03 0.544D-03 0.664D-02 0.642D-02 0.117D-01 0.137D+00
 Coeff:      0.268D+00 0.570D+00
 Gap=     0.128 Goal=   None    Shift=    0.000
 RMSDP=4.97D-09 MaxDP=1.82D-07 DE=-6.14D-12 OVMax= 9.94D-07

 SCF Done:  E(RTPSS-TPSS) =  -323.702695026     A.U. after   17 cycles
            NFock= 17  Conv=0.50D-08     -V/T= 2.0034
 KE= 3.226134716722D+02 PE=-1.308966775559D+03 EE= 3.858119444107D+02
 Leave Link  502 at Fri Aug 27 00:03:40 2021, MaxMem= 17179869184 cpu:       278.7
 (Enter /public3/home/sc51754/softwares/g09e01/l601.exe)
 Copying SCF densities to generalized density rwf, IOpCl= 0 IROHF=0.

 **********************************************************************

            Population analysis using the SCF density.

 **********************************************************************

 Orbital symmetries:
       Occupied  (A') (A') (A') (A') (A') (A') (A') (A') (A') (A')
                 (A') (A') (A') (A') (A') (A') (A') (A") (A') (A')
                 (A') (A") (A") (A') (A")
       Virtual   (A") (A") (A') (A') (A') (A') (A') (A") (A') (A')
                 (A") (A') (A') (A') (A") (A") (A') (A') (A') (A')
                 (A") (A') (A") (A') (A') (A') (A') (A') (A') (A')
                 (A") (A') (A') (A') (A") (A') (A') (A') (A') (A')
                 (A') (A') (A") (A') (A') (A') (A") (A') (A") (A")
                 (A') (A") (A') (A') (A") (A') (A') (A') (A') (A")
                 (A') (A') (A") (A") (A') (A') (A') (A") (A') (A")
                 (A") (A') (A') (A") (A') (A") (A') (A") (A') (A')
                 (A") (A') (A') (A") (A") (A') (A') (A') (A") (A")
                 (A') (A') (A") (A') (A') (A') (A') (A') (A") (A')
                 (A') (A') (A') (A") (A') (A') (A") (A') (A') (A")
                 (A') (A') (A') (A') (A') (A') (A") (A') (A') (A")
                 (A') (A') (A') (A") (A') (A") (A") (A") (A') (A")
                 (A') (A") (A') (A') (A") (A') (A") (A') (A') (A')
                 (A') (A') (A') (A') (A") (A") (A') (A') (A') (A')
                 (A") (A') (A") (A") (A") (A") (A') (A") (A') (A")
                 (A') (A") (A') (A") (A') (A') (A') (A") (A') (A')
                 (A") (A') (A") (A') (A") (A') (A") (A') (A") (A')
                 (A") (A") (A") (A') (A") (A') (A") (A') (A") (A')
                 (A") (A') (A') (A") (A') (A") (A') (A') (A") (A')
                 (A') (A") (A') (A") (A') (A') (A") (A') (A') (A')
                 (A") (A') (A') (A') (A") (A") (A") (A') (A') (A')
                 (A") (A') (A") (A') (A") (A') (A') (A") (A') (A')
                 (A') (A') (A') (A") (A') (A") (A') (A') (A') (A')
                 (A') (A") (A') (A') (A') (A') (A') (A') (A') (A')
                 (A') (A') (A') (A') (A')
 The electronic state is 1-A'.
 Alpha  occ. eigenvalues --  -18.83847 -14.16072 -10.07942 -10.05163 -10.01365
 Alpha  occ. eigenvalues --  -10.00008  -9.99591  -0.97328  -0.90061  -0.76933
 Alpha  occ. eigenvalues --   -0.70939  -0.60976  -0.59262  -0.52356  -0.46686
 Alpha  occ. eigenvalues --   -0.44937  -0.42533  -0.40596  -0.38577  -0.35155
 Alpha  occ. eigenvalues --   -0.34139  -0.31629  -0.28536  -0.21587  -0.20210
 Alpha virt. eigenvalues --   -0.07407  -0.02211  -0.00601   0.02073   0.03499
 Alpha virt. eigenvalues --    0.06064   0.07104   0.09246   0.11426   0.13539
 Alpha virt. eigenvalues --    0.13919   0.14613   0.16302   0.17951   0.17955
 Alpha virt. eigenvalues --    0.19506   0.21145   0.21892   0.25064   0.25272
 Alpha virt. eigenvalues --    0.25553   0.26663   0.27498   0.27857   0.29542
 Alpha virt. eigenvalues --    0.30084   0.32076   0.32947   0.36232   0.38549
 Alpha virt. eigenvalues --    0.39264   0.40692   0.43052   0.44693   0.46162
 Alpha virt. eigenvalues --    0.47203   0.48780   0.50459   0.53985   0.57038
 Alpha virt. eigenvalues --    0.58530   0.59659   0.61227   0.62399   0.64647
 Alpha virt. eigenvalues --    0.68341   0.72659   0.72983   0.74725   0.77159
 Alpha virt. eigenvalues --    0.78958   0.80657   0.87218   0.88580   0.88925
 Alpha virt. eigenvalues --    0.91864   0.93388   0.95802   0.96994   1.02771
 Alpha virt. eigenvalues --    1.05623   1.07383   1.07468   1.10581   1.11310
 Alpha virt. eigenvalues --    1.12644   1.15244   1.15312   1.17326   1.20843
 Alpha virt. eigenvalues --    1.21490   1.22800   1.23149   1.24731   1.25261
 Alpha virt. eigenvalues --    1.30764   1.34651   1.36770   1.38284   1.41194
 Alpha virt. eigenvalues --    1.41528   1.44677   1.46608   1.47100   1.51930
 Alpha virt. eigenvalues --    1.53781   1.56173   1.59486   1.62497   1.63595
 Alpha virt. eigenvalues --    1.63778   1.65857   1.68088   1.69186   1.72098
 Alpha virt. eigenvalues --    1.75996   1.77609   1.82588   1.82686   1.86708
 Alpha virt. eigenvalues --    1.88647   1.93076   1.96873   1.97507   1.97995
 Alpha virt. eigenvalues --    2.03992   2.04126   2.11259   2.14555   2.18779
 Alpha virt. eigenvalues --    2.18900   2.21698   2.24296   2.25922   2.29733
 Alpha virt. eigenvalues --    2.33153   2.46875   2.60086   2.63669   2.83581
 Alpha virt. eigenvalues --    2.84529   2.87039   2.92469   2.93004   3.12680
 Alpha virt. eigenvalues --    3.16063   3.19593   3.22577   3.22778   3.24060
 Alpha virt. eigenvalues --    3.26435   3.30593   3.32110   3.33640   3.37224
 Alpha virt. eigenvalues --    3.42521   3.47064   3.48864   3.53707   3.54933
 Alpha virt. eigenvalues --    3.58924   3.61810   3.65922   3.67142   3.68895
 Alpha virt. eigenvalues --    3.69179   3.71424   3.78322   3.86498   3.87398
 Alpha virt. eigenvalues --    3.91182   3.92789   3.94901   3.96326   3.97824
 Alpha virt. eigenvalues --    4.00732   4.01994   4.04160   4.06735   4.08833
 Alpha virt. eigenvalues --    4.10194   4.12710   4.15606   4.16627   4.17032
 Alpha virt. eigenvalues --    4.21103   4.22939   4.23790   4.23813   4.24206
 Alpha virt. eigenvalues --    4.25865   4.27332   4.27367   4.27699   4.31359
 Alpha virt. eigenvalues --    4.33714   4.35529   4.35558   4.40091   4.42302
 Alpha virt. eigenvalues --    4.42443   4.46725   4.48651   4.49091   4.50272
 Alpha virt. eigenvalues --    4.52807   4.52858   4.55591   4.58305   4.58933
 Alpha virt. eigenvalues --    4.62133   4.63809   4.65671   4.67014   4.72355
 Alpha virt. eigenvalues --    4.72627   4.76947   4.79817   4.85026   4.86135
 Alpha virt. eigenvalues --    4.88336   4.94079   4.94371   4.97888   4.98501
 Alpha virt. eigenvalues --    5.04713   5.08854   5.13179   5.17732   5.20966
 Alpha virt. eigenvalues --    5.25414   5.26765   5.31987   5.36350   5.36728
 Alpha virt. eigenvalues --    5.38294   5.40494   5.42854   5.45685   5.48621
 Alpha virt. eigenvalues --    5.51166   5.58210   5.59206   5.63598   5.64669
 Alpha virt. eigenvalues --    5.69570   5.72940   5.79818   5.79983   5.82407
 Alpha virt. eigenvalues --    5.87509   5.94657   5.98479   6.03916   6.07620
 Alpha virt. eigenvalues --    6.12497   6.13119   6.13686   6.21384   6.31938
 Alpha virt. eigenvalues --    6.40666   6.49234   6.55932   6.64364   6.81467
 Alpha virt. eigenvalues --    6.95024   6.99250   7.30687   9.56964  12.29428
 Alpha virt. eigenvalues --   13.17614  14.66258  17.80185  18.24527  22.73889
          Condensed to atoms (all electrons):
               1          2          3          4          5          6
     1  O    8.004776  -0.122966   0.609877  -0.065728   0.005095   0.006642
     2  N   -0.122966   6.437782   0.333830  -0.039349   0.390073  -0.018628
     3  C    0.609877   0.333830   4.370069   0.411899  -0.036622  -0.028652
     4  C   -0.065728  -0.039349   0.411899   4.976196  -0.047408   0.534130
     5  C    0.005095   0.390073  -0.036622  -0.047408   4.583545  -0.080685
     6  C    0.006642  -0.018628  -0.028652   0.534130  -0.080685   4.721639
     7  C    0.001035  -0.059317  -0.020193  -0.061716   0.627377   0.465472
     8  H    0.018363   0.380250  -0.025423   0.017269  -0.026252  -0.004926
     9  H    0.009122   0.009031  -0.044021   0.432821  -0.000482  -0.033276
    10  H   -0.001405  -0.032130   0.000254  -0.004674   0.402673   0.008695
    11  H   -0.000691  -0.002213   0.005183  -0.025629   0.007495   0.404764
    12  H    0.000026   0.005825   0.000084   0.005570  -0.028611  -0.025619
               7          8          9         10         11         12
     1  O    0.001035   0.018363   0.009122  -0.001405  -0.000691   0.000026
     2  N   -0.059317   0.380250   0.009031  -0.032130  -0.002213   0.005825
     3  C   -0.020193  -0.025423  -0.044021   0.000254   0.005183   0.000084
     4  C   -0.061716   0.017269   0.432821  -0.004674  -0.025629   0.005570
     5  C    0.627377  -0.026252  -0.000482   0.402673   0.007495  -0.028611
     6  C    0.465472  -0.004926  -0.033276   0.008695   0.404764  -0.025619
     7  C    4.812411   0.008495   0.006760  -0.026271  -0.031687   0.425898
     8  H    0.008495   0.489774  -0.000654  -0.013372   0.000430  -0.000424
     9  H    0.006760  -0.000654   0.587009   0.000399  -0.008832  -0.000456
    10  H   -0.026271  -0.013372   0.000399   0.605446  -0.001074  -0.003544
    11  H   -0.031687   0.000430  -0.008832  -0.001074   0.608163  -0.004986
    12  H    0.425898  -0.000424  -0.000456  -0.003544  -0.004986   0.589344
 Mulliken charges:
               1
     1  O   -0.464148
     2  N   -0.282189
     3  C    0.423714
     4  C   -0.133380
     5  C    0.203804
     6  C    0.050445
     7  C   -0.148265
     8  H    0.156470
     9  H    0.042579
    10  H    0.065003
    11  H    0.049077
    12  H    0.036891
 Sum of Mulliken charges =  -0.00000
 Mulliken charges with hydrogens summed into heavy atoms:
               1
     1  O   -0.464148
     2  N   -0.125719
     3  C    0.423714
     4  C   -0.090801
     5  C    0.268806
     6  C    0.099522
     7  C   -0.111374
 Electronic spatial extent (au):  <R**2>=            625.4716
 Charge=             -0.0000 electrons
 Dipole moment (field-independent basis, Debye):
    X=             -1.2198    Y=             -4.0104    Z=             -0.0000  Tot=              4.1918
 Quadrupole moment (field-independent basis, Debye-Ang):
   XX=            -31.7511   YY=            -47.4084   ZZ=            -42.6906
   XY=              0.1599   XZ=              0.0000   YZ=             -0.0000
 Traceless Quadrupole moment (field-independent basis, Debye-Ang):
   XX=              8.8656   YY=             -6.7917   ZZ=             -2.0739
   XY=              0.1599   XZ=              0.0000   YZ=             -0.0000
 Octapole moment (field-independent basis, Debye-Ang**2):
  XXX=            -11.2895  YYY=            -28.8210  ZZZ=              0.0000  XYY=             -0.1562
  XXY=              1.4259  XXZ=              0.0000  XZZ=             -2.0867  YZZ=              5.3261
  YYZ=             -0.0000  XYZ=              0.0000
 Hexadecapole moment (field-independent basis, Debye-Ang**3):
 XXXX=           -238.8502 YYYY=           -535.5340 ZZZZ=            -45.8614 XXXY=              2.6085
 XXXZ=              0.0000 YYYX=              7.9141 YYYZ=             -0.0000 ZZZX=              0.0000
 ZZZY=             -0.0000 XXYY=           -117.0770 XXZZ=            -60.1750 YYZZ=            -94.9887
 XXYZ=             -0.0000 YYXZ=              0.0000 ZZXY=              1.2423
 N-N= 2.768386644497D+02 E-N=-1.308966770019D+03  KE= 3.226134716722D+02
 Symmetry A'   KE= 3.110541841722D+02
 Symmetry A"   KE= 1.155928750003D+01
 No NMR shielding tensors so no spin-rotation constants.
 Leave Link  601 at Fri Aug 27 00:03:42 2021, MaxMem= 17179869184 cpu:        90.5
 (Enter /public3/home/sc51754/softwares/g09e01/l701.exe)
 Compute integral first derivatives.
 ... and contract with generalized density number  0.
 Leave Link  701 at Fri Aug 27 00:03:44 2021, MaxMem= 17179869184 cpu:        98.2
 (Enter /public3/home/sc51754/softwares/g09e01/l702.exe)
 L702 exits ... SP integral derivatives will be done elsewhere.
 Leave Link  702 at Fri Aug 27 00:03:44 2021, MaxMem= 17179869184 cpu:         0.5
 (Enter /public3/home/sc51754/softwares/g09e01/l703.exe)
 Compute integral first derivatives, UseDBF=F ICtDFT=           0.
 Integral derivatives from FoFJK, PRISM(SPDF).
 Calling FoFJK, ICntrl=      2527 FMM=F ISym2X=1 I1Cent= 0 IOpClX= 0 NMat=1 NMatS=1 NMatT=0.
 FoFJK:  IHMeth= 1 ICntrl=    2527 DoSepK=F KAlg= 0 I1Cent=   0 FoldK=F
 IRaf=         0 NMat=   1 IRICut=       1 DoRegI=T DoRafI=F ISym2E= 1.
 FoFCou: FMM=F IPFlag=           0 FMFlag=      100000 FMFlg1=         800
         NFxFlg=           0 DoJE=F BraDBF=F KetDBF=F FulRan=T
         wScrn=  0.000000 ICntrl=    2527 IOpCl=  0 I1Cent=           0 NGrid=           0
         NMat0=    1 NMatS0=      1 NMatT0=    0 NMatD0=    1 NMtDS0=    0 NMtDT0=    0
 Petite list used in FoFCou.
 Leave Link  703 at Fri Aug 27 00:03:47 2021, MaxMem= 17179869184 cpu:       151.2
 (Enter /public3/home/sc51754/softwares/g09e01/l716.exe)
 Dipole        =-4.79900856D-01-1.57782711D+00-4.07659988D-32
 ***** Axes restored to original set *****
 -------------------------------------------------------------------
 Center     Atomic                   Forces (Hartrees/Bohr)
 Number     Number              X              Y              Z
 -------------------------------------------------------------------
      1        8          -0.003314936    0.028226475   -0.000000000
      2        7          -0.003906801   -0.000956670   -0.000000000
      3        6           0.007376300   -0.016132786    0.000000000
      4        6           0.002543837    0.009289189   -0.000000000
      5        6          -0.010948167   -0.002103603   -0.000000000
      6        6           0.004392363   -0.009974953    0.000000000
      7        6           0.007085668   -0.006773441    0.000000000
      8        1          -0.005310364    0.002134795   -0.000000000
      9        1           0.002018357    0.000983232    0.000000000
     10        1          -0.002191699   -0.000462676   -0.000000000
     11        1           0.002162113   -0.001592758    0.000000000
     12        1           0.000093328   -0.002636804    0.000000000
 -------------------------------------------------------------------
 Cartesian Forces:  Max     0.028226475 RMS     0.006723699
 Leave Link  716 at Fri Aug 27 00:03:47 2021, MaxMem= 17179869184 cpu:         0.3
 (Enter /public3/home/sc51754/softwares/g09e01/l103.exe)

 GradGradGradGradGradGradGradGradGradGradGradGradGradGradGradGradGradGrad
 Berny optimization.
 FormGI is forming the generalized inverse of G from B-inverse, IUseBI=4.
 Internal  Forces:  Max     0.028418617 RMS     0.005452301
 Search for a local minimum.
 Step number   1 out of a maximum of   64
 All quantities printed in internal units (Hartrees-Bohrs-Radians)
 RMS Force = .54523D-02 SwitMx=.10000D-02 MixMth= 1
 Mixed Optimization -- RFO/linear search
 Second derivative matrix not updated -- first step.
 ITU=  0
     Eigenvalues ---    0.01577   0.01761   0.01972   0.02080   0.02183
     Eigenvalues ---    0.02246   0.02365   0.02483   0.02557   0.16000
     Eigenvalues ---    0.16000   0.16000   0.16000   0.16000   0.22000
     Eigenvalues ---    0.22000   0.23415   0.25000   0.35622   0.35864
     Eigenvalues ---    0.35940   0.36221   0.37867   0.40757   0.44267
     Eigenvalues ---    0.46319   0.50118   0.53776   0.54239   0.98595
 RFO step:  Lambda=-2.43853938D-03 EMin= 1.57720798D-02
 Linear search not attempted -- first point.
 Iteration  1 RMS(Cart)=  0.01366753 RMS(Int)=  0.00001158
 Iteration  2 RMS(Cart)=  0.00001297 RMS(Int)=  0.00000103
 Iteration  3 RMS(Cart)=  0.00000000 RMS(Int)=  0.00000103
 ITry= 1 IFail=0 DXMaxC= 5.32D-02 DCOld= 1.00D+10 DXMaxT= 3.00D-01 DXLimC= 3.00D+00 Rises=F
 ClnCor:  largest displacement from symmetrization is 1.13D-10 for atom    11.
 Variable       Old X    -DE/DX   Delta X   Delta X   Delta X     New X
                                 (Linear)    (Quad)   (Total)
    R1        2.29207   0.02842   0.00000   0.02875   0.02875   2.32082
    R2        2.65138   0.01248   0.00000   0.02735   0.02736   2.67873
    R3        2.56109   0.00882   0.00000   0.01642   0.01642   2.57751
    R4        1.90473   0.00567   0.00000   0.01218   0.01218   1.91691
    R5        2.72731   0.00726   0.00000   0.01804   0.01804   2.74535
    R6        2.55600   0.01473   0.00000   0.02679   0.02679   2.58278
    R7        2.04176   0.00223   0.00000   0.00616   0.00616   2.04792
    R8        2.55244   0.01395   0.00000   0.02560   0.02560   2.57803
    R9        2.04295   0.00216   0.00000   0.00599   0.00599   2.04894
   R10        2.67947   0.00617   0.00000   0.01453   0.01453   2.69400
   R11        2.04676   0.00266   0.00000   0.00742   0.00742   2.05418
   R12        2.03737   0.00264   0.00000   0.00723   0.00723   2.04460
    A1        2.18960   0.00060   0.00000   0.00260   0.00260   2.19220
    A2        1.99125   0.00043   0.00000   0.00318   0.00318   1.99443
    A3        2.10233  -0.00103   0.00000  -0.00578  -0.00578   2.09655
    A4        2.09504   0.00004   0.00000   0.00069   0.00069   2.09573
    A5        2.21834   0.00061   0.00000   0.00295   0.00295   2.22128
    A6        1.96981  -0.00065   0.00000  -0.00364  -0.00364   1.96617
    A7        2.12410   0.00090   0.00000   0.00292   0.00292   2.12702
    A8        2.02595  -0.00016   0.00000   0.00035   0.00035   2.02630
    A9        2.13313  -0.00074   0.00000  -0.00327  -0.00327   2.12986
   A10        2.10267  -0.00067   0.00000  -0.00202  -0.00202   2.10065
   A11        2.03035  -0.00028   0.00000  -0.00276  -0.00276   2.02759
   A12        2.15017   0.00095   0.00000   0.00478   0.00478   2.15495
   A13        2.12246  -0.00039   0.00000  -0.00182  -0.00182   2.12064
   A14        2.08387   0.00058   0.00000   0.00328   0.00328   2.08715
   A15        2.07686  -0.00019   0.00000  -0.00146  -0.00146   2.07540
   A16        2.05775   0.00021   0.00000   0.00195   0.00195   2.05970
   A17        2.10204  -0.00006   0.00000  -0.00069  -0.00068   2.10136
   A18        2.12340  -0.00015   0.00000  -0.00127  -0.00127   2.12213
    D1        3.14159  -0.00000   0.00000  -0.00000   0.00000   3.14159
    D2       -0.00000  -0.00000   0.00000  -0.00000   0.00000   0.00000
    D3        0.00000  -0.00000   0.00000  -0.00000   0.00000   0.00000
    D4        3.14159   0.00000   0.00000   0.00000   0.00000   3.14159
    D5        0.00000  -0.00000   0.00000   0.00000   0.00000   0.00000
    D6        3.14159   0.00000   0.00000   0.00000   0.00000   3.14159
    D7        3.14159  -0.00000   0.00000  -0.00000   0.00000   3.14159
    D8       -0.00000  -0.00000   0.00000  -0.00000   0.00000   0.00000
    D9        3.14159   0.00000   0.00000   0.00000   0.00000   3.14159
   D10        0.00000  -0.00000   0.00000   0.00000  -0.00000   0.00000
   D11        0.00000   0.00000   0.00000   0.00000   0.00000   0.00000
   D12        3.14159   0.00000   0.00000   0.00000   0.00000   3.14159
   D13        0.00000  -0.00000   0.00000  -0.00000  -0.00000   0.00000
   D14        3.14159  -0.00000   0.00000   0.00000   0.00000   3.14159
   D15        3.14159  -0.00000   0.00000   0.00000   0.00000   3.14159
   D16       -0.00000   0.00000   0.00000   0.00000   0.00000   0.00000
   D17       -0.00000   0.00000   0.00000   0.00000   0.00000   0.00000
   D18        3.14159  -0.00000   0.00000   0.00000   0.00000   3.14159
   D19        3.14159  -0.00000   0.00000  -0.00000   0.00000   3.14159
   D20       -0.00000  -0.00000   0.00000  -0.00000   0.00000   0.00000
   D21        0.00000  -0.00000   0.00000   0.00000   0.00000   0.00000
   D22        3.14159   0.00000   0.00000   0.00000   0.00000   3.14159
   D23        3.14159  -0.00000   0.00000  -0.00000   0.00000   3.14159
   D24        0.00000  -0.00000   0.00000  -0.00000  -0.00000   0.00000
         Item               Value     Threshold  Converged?
 Maximum Force            0.028419     0.000450     NO 
 RMS     Force            0.005452     0.000300     NO 
 Maximum Displacement     0.053242     0.001800     NO 
 RMS     Displacement     0.013667     0.001200     NO 
 Predicted change in Energy=-1.224433D-03
 Lowest energy point so far.  Saving SCF results.
 GradGradGradGradGradGradGradGradGradGradGradGradGradGradGradGradGradGrad

 Leave Link  103 at Fri Aug 27 00:03:49 2021, MaxMem= 17179869184 cpu:        82.7
 (Enter /public3/home/sc51754/softwares/g09e01/l202.exe)
                          Input orientation:                          
 ---------------------------------------------------------------------
 Center     Atomic      Atomic             Coordinates (Angstroms)
 Number     Number       Type             X           Y           Z
 ---------------------------------------------------------------------
      1          8           0       -0.131788    2.296071   -0.000000
      2          7           0       -1.140820    0.235864   -0.000000
      3          6           0        0.001498    1.075199   -0.000000
      4          6           0        1.246254    0.326101    0.000000
      5          6           0       -1.124073   -1.127995   -0.000000
      6          6           0        1.266045   -1.040504    0.000000
      7          6           0        0.061480   -1.802980    0.000000
      8          1           0       -2.024389    0.734140   -0.000000
      9          1           0        2.156551    0.914139    0.000000
     10          1           0       -2.091212   -1.618140   -0.000000
     11          1           0        2.219023   -1.563438    0.000000
     12          1           0        0.075534   -2.884847    0.000000
 ---------------------------------------------------------------------
                    Distance matrix (angstroms):
                    1          2          3          4          5
     1  O    0.000000
     2  N    2.294035   0.000000
     3  C    1.228126   1.417524   0.000000
     4  C    2.404117   2.388778   1.452778   0.000000
     5  C    3.564948   1.363962   2.474060   2.780799   0.000000
     6  C    3.617550   2.724355   2.464808   1.366749   2.391719
     7  C    4.103605   2.366941   2.878804   2.436529   1.364237
     8  H    2.453888   1.014384   2.054396   3.295998   2.068361
     9  H    2.673243   3.366409   2.161063   1.083711   3.864299
    10  H    4.377257   2.083404   3.410792   3.862479   1.084250
    11  H    4.519084   3.811303   3.446712   2.125238   3.371335
    12  H    5.185064   3.349380   3.960737   3.417714   2.127342
                    6          7          8          9         10
     6  C    0.000000
     7  C    1.425603   0.000000
     8  H    3.738492   3.284484   0.000000
     9  H    2.147937   3.431043   4.184813   0.000000
    10  H    3.406587   2.160613   2.353228   4.945293   0.000000
    11  H    1.087027   2.170799   4.825496   2.478365   4.310581
    12  H    2.195202   1.081958   4.184106   4.331619   2.509847
                   11         12
    11  H    0.000000
    12  H    2.518067   0.000000
 Stoichiometry    C5H5NO
 Framework group  CS[SG(C5H5NO)]
 Deg. of freedom    21
 Full point group                 CS      NOp   2
 RotChk:  IX=0 Diff= 1.91D-03
 Largest Abelian subgroup         CS      NOp   2
 Largest concise Abelian subgroup C1      NOp   1
                         Standard orientation:                         
 ---------------------------------------------------------------------
 Center     Atomic      Atomic             Coordinates (Angstroms)
 Number     Number       Type             X           Y           Z
 ---------------------------------------------------------------------
      1          8           0       -0.134931    2.292283    0.000000
      2          7           0       -1.141185    0.230718   -0.000000
      3          6           0       -0.000000    1.071592    0.000000
      4          6           0        1.245764    0.324173    0.000000
      5          6           0       -1.122601   -1.133117   -0.000000
      6          6           0        1.267397   -1.042405    0.000000
      7          6           0        0.063862   -1.806504   -0.000000
      8          1           0       -2.025426    0.727803   -0.000000
      9          1           0        2.155268    0.913437    0.000000
     10          1           0       -2.089078   -1.624564   -0.000000
     11          1           0        2.221079   -1.564054    0.000000
     12          1           0        0.079374   -2.888350   -0.000000
 ---------------------------------------------------------------------
 Rotational constants (GHZ):      5.6494847      2.7695171      1.8584560
 Leave Link  202 at Fri Aug 27 00:03:49 2021, MaxMem= 17179869184 cpu:         5.4
 (Enter /public3/home/sc51754/softwares/g09e01/l301.exe)
 Basis read from rwf:  (5D, 7F)
 No pseudopotential information found on rwf file.
 There are   223 symmetry adapted cartesian basis functions of A'  symmetry.
 There are    97 symmetry adapted cartesian basis functions of A"  symmetry.
 There are   190 symmetry adapted basis functions of A'  symmetry.
 There are    90 symmetry adapted basis functions of A"  symmetry.
   280 basis functions,   475 primitive gaussians,   320 cartesian basis functions
    25 alpha electrons       25 beta electrons
       nuclear repulsion energy       274.5098981281 Hartrees.
 IExCor= 2523 DFT=T Ex=TPSS Corr=TPSS ExCW=0 ScaHFX=  0.000000
 ScaDFX=  1.000000  1.000000  1.000000  1.000000 ScalE2=  1.000000  1.000000
 IRadAn=      0 IRanWt=     -1 IRanGd=            0 ICorTp=0 IEmpDi=  4
 NAtoms=   12 NActive=   12 NUniq=   12 SFac= 1.00D+00 NAtFMM=   60 NAOKFM=F Big=F
 Integral buffers will be    131072 words long.
 Raffenetti 2 integral format.
 Two-electron integral symmetry is turned on.
 No density basis found on file   724.
 Leave Link  301 at Fri Aug 27 00:03:49 2021, MaxMem= 17179869184 cpu:         0.7
 (Enter /public3/home/sc51754/softwares/g09e01/l302.exe)
 NPDir=0 NMtPBC=     1 NCelOv=     1 NCel=       1 NClECP=     1 NCelD=      1
         NCelK=      1 NCelE2=     1 NClLst=     1 CellRange=     0.0.
 One-electron integrals computed using PRISM.
 NBasis=   280 RedAO= T EigKep=  2.41D-04  NBF=   190    90
 NBsUse=   280 1.00D-06 EigRej= -1.00D+00 NBFU=   190    90
 Precomputing XC quadrature grid using
 IXCGrd= 4 IRadAn=           0 IRanWt=          -1 IRanGd=           0 AccXCQ= 0.00D+00.
 Generated NRdTot=       0 NPtTot=           0 NUsed=           0 NTot=          32
 NSgBfM=   320   320   320   320   320 MxSgAt=    12 MxSgA2=    12.
 Leave Link  302 at Fri Aug 27 00:03:50 2021, MaxMem= 17179869184 cpu:        41.1
 (Enter /public3/home/sc51754/softwares/g09e01/l303.exe)
 DipDrv:  MaxL=1.
 Leave Link  303 at Fri Aug 27 00:03:50 2021, MaxMem= 17179869184 cpu:        17.8
 (Enter /public3/home/sc51754/softwares/g09e01/l401.exe)
 Initial guess from the checkpoint file:  "PY_TPSSTPSS_PC2_OPT_FREQ.chk"
 B after Tr=     0.000000    0.000000    0.000000
         Rot=    1.000000    0.000000    0.000000   -0.000710 Ang=  -0.08 deg.
 Guess basis will be translated and rotated to current coordinates.
 JPrj=2 DoOrth=T DoCkMO=T.
 Initial guess orbital symmetries:
       Occupied  (A') (A') (A') (A') (A') (A') (A') (A') (A') (A')
                 (A') (A') (A') (A') (A') (A') (A') (A") (A') (A')
                 (A') (A") (A") (A') (A")
       Virtual   (A') (A') (A') (A') (A') (A') (A') (A') (A') (A')
                 (A') (A') (A') (A') (A') (A') (A') (A') (A') (A')
                 (A') (A') (A') (A') (A') (A') (A') (A') (A') (A')
                 (A') (A') (A') (A') (A') (A') (A') (A') (A') (A')
                 (A') (A') (A') (A') (A') (A') (A') (A') (A') (A')
                 (A') (A') (A') (A') (A') (A') (A') (A') (A') (A')
                 (A') (A') (A') (A') (A') (A') (A') (A') (A') (A')
                 (A') (A') (A') (A') (A') (A') (A') (A') (A') (A')
                 (A') (A') (A') (A') (A') (A') (A') (A') (A') (A')
                 (A') (A') (A') (A') (A') (A') (A') (A') (A') (A')
                 (A') (A') (A') (A') (A') (A') (A') (A') (A') (A')
                 (A') (A') (A') (A') (A') (A') (A') (A') (A') (A')
                 (A') (A') (A') (A') (A') (A') (A') (A') (A') (A')
                 (A') (A') (A') (A') (A') (A') (A') (A') (A') (A')
                 (A') (A') (A') (A') (A') (A') (A') (A') (A') (A')
                 (A') (A') (A') (A') (A') (A') (A') (A') (A') (A')
                 (A') (A') (A') (A') (A') (A') (A') (A') (A') (A")
                 (A") (A") (A") (A") (A") (A") (A") (A") (A") (A")
                 (A") (A") (A") (A") (A") (A") (A") (A") (A") (A")
                 (A") (A") (A") (A") (A") (A") (A") (A") (A") (A")
                 (A") (A") (A") (A") (A") (A") (A") (A") (A") (A")
                 (A") (A") (A") (A") (A") (A") (A") (A") (A") (A")
                 (A") (A") (A") (A") (A") (A") (A") (A") (A") (A")
                 (A") (A") (A") (A") (A") (A") (A") (A") (A") (A")
                 (A") (A") (A") (A") (A") (A") (A") (A") (A") (A")
                 (A") (A") (A") (A") (A")
 The electronic state of the initial guess is 1-A'.
 Generating alternative initial guess.
 ExpMin= 7.41D-02 ExpMax= 1.48D+04 ExpMxC= 5.05D+02 IAcc=2 IRadAn=         4 AccDes= 0.00D+00
 Harris functional with IExCor= 1009 and IRadAn=       4 diagonalized for initial guess.
 HarFok:  IExCor= 1009 AccDes= 0.00D+00 IRadAn=         4 IDoV= 1 UseB2=F ITyADJ=14
 ICtDFT=  3500011 ScaDFX=  1.000000  1.000000  1.000000  1.000000
 FoFCou: FMM=F IPFlag=           0 FMFlag=      100000 FMFlg1=           0
         NFxFlg=           0 DoJE=T BraDBF=F KetDBF=T FulRan=T
         wScrn=  0.000000 ICntrl=     500 IOpCl=  0 I1Cent=   200000004 NGrid=           0
         NMat0=    1 NMatS0=      1 NMatT0=    0 NMatD0=    1 NMtDS0=    0 NMtDT0=    0
 Petite list used in FoFCou.
 Harris En= -323.384875181636    
 Leave Link  401 at Fri Aug 27 00:03:52 2021, MaxMem= 17179869184 cpu:        64.7
 (Enter /public3/home/sc51754/softwares/g09e01/l502.exe)
 Closed shell SCF:
 Using DIIS extrapolation, IDIIS=  1040.
 Integral symmetry usage will be decided dynamically.
 Keep J ints in memory in symmetry-blocked form, NReq=1167802198.
 IVT=      348658 IEndB=      348658 NGot= 17179869184 MDV= 16785904737
 LenX= 16785904737 LenY= 16785801896
 Requested convergence on RMS density matrix=1.00D-08 within 128 cycles.
 Requested convergence on MAX density matrix=1.00D-06.
 Requested convergence on             energy=1.00D-06.
 No special actions if energy rises.
 FoFCou: FMM=F IPFlag=           0 FMFlag=           0 FMFlg1=           0
         NFxFlg=           0 DoJE=F BraDBF=F KetDBF=F FulRan=T
         wScrn=  0.000000 ICntrl=     600 IOpCl=  0 I1Cent=           0 NGrid=           0
         NMat0=    1 NMatS0=  39340 NMatT0=    0 NMatD0=    1 NMtDS0=    0 NMtDT0=    0
 Petite list used in FoFCou.
 Integral accuracy reduced to 1.0D-05 until final iterations.

 Cycle   1  Pass 0  IDiag  1:
 E= -323.703593955298    
 DIIS: error= 9.61D-04 at cycle   1 NSaved=   1.
 NSaved= 1 IEnMin= 1 EnMin= -323.703593955298     IErMin= 1 ErrMin= 9.61D-04
 ErrMax= 9.61D-04  0.00D+00 EMaxC= 1.00D-01 BMatC= 3.79D-04 BMatP= 3.79D-04
 IDIUse=3 WtCom= 9.90D-01 WtEn= 9.61D-03
 Coeff-Com:  0.100D+01
 Coeff-En:   0.100D+01
 Coeff:      0.100D+01
 Gap=     0.513 Goal=   None    Shift=    0.000
 RMSDP=7.43D-05 MaxDP=2.26D-03              OVMax= 6.23D-03

 Cycle   2  Pass 0  IDiag  1:
 E= -323.703860293299     Delta-E=       -0.000266338002 Rises=F Damp=F
 DIIS: error= 7.11D-04 at cycle   2 NSaved=   2.
 NSaved= 2 IEnMin= 2 EnMin= -323.703860293299     IErMin= 2 ErrMin= 7.11D-04
 ErrMax= 7.11D-04  0.00D+00 EMaxC= 1.00D-01 BMatC= 8.39D-05 BMatP= 3.79D-04
 IDIUse=3 WtCom= 9.93D-01 WtEn= 7.11D-03
 Coeff-Com:  0.268D+00 0.732D+00
 Coeff-En:   0.000D+00 0.100D+01
 Coeff:      0.266D+00 0.734D+00
 Gap=     0.125 Goal=   None    Shift=    0.000
 RMSDP=4.77D-05 MaxDP=2.02D-03 DE=-2.66D-04 OVMax= 6.00D-03

 Cycle   3  Pass 0  IDiag  1:
 E= -323.703863009250     Delta-E=       -0.000002715951 Rises=F Damp=F
 DIIS: error= 5.91D-04 at cycle   3 NSaved=   3.
 NSaved= 3 IEnMin= 3 EnMin= -323.703863009250     IErMin= 3 ErrMin= 5.91D-04
 ErrMax= 5.91D-04  0.00D+00 EMaxC= 1.00D-01 BMatC= 7.82D-05 BMatP= 8.39D-05
 IDIUse=3 WtCom= 9.94D-01 WtEn= 5.91D-03
 Coeff-Com:  0.756D-01 0.487D+00 0.437D+00
 Coeff-En:   0.000D+00 0.492D+00 0.508D+00
 Coeff:      0.752D-01 0.487D+00 0.438D+00
 Gap=     0.125 Goal=   None    Shift=    0.000
 RMSDP=3.13D-05 MaxDP=1.39D-03 DE=-2.72D-06 OVMax= 5.89D-03

 Cycle   4  Pass 0  IDiag  1:
 E= -323.703917056914     Delta-E=       -0.000054047663 Rises=F Damp=F
 DIIS: error= 3.22D-04 at cycle   4 NSaved=   4.
 NSaved= 4 IEnMin= 4 EnMin= -323.703917056914     IErMin= 4 ErrMin= 3.22D-04
 ErrMax= 3.22D-04  0.00D+00 EMaxC= 1.00D-01 BMatC= 2.48D-05 BMatP= 7.82D-05
 IDIUse=3 WtCom= 9.97D-01 WtEn= 3.22D-03
 Coeff-Com:  0.161D-01 0.281D+00 0.350D+00 0.352D+00
 Coeff-En:   0.000D+00 0.000D+00 0.241D+00 0.759D+00
 Coeff:      0.161D-01 0.280D+00 0.350D+00 0.354D+00
 Gap=     0.125 Goal=   None    Shift=    0.000
 RMSDP=1.66D-05 MaxDP=7.97D-04 DE=-5.40D-05 OVMax= 2.72D-03

 Cycle   5  Pass 0  IDiag  1:
 E= -323.703937459827     Delta-E=       -0.000020402914 Rises=F Damp=F
 DIIS: error= 5.59D-05 at cycle   5 NSaved=   5.
 NSaved= 5 IEnMin= 5 EnMin= -323.703937459827     IErMin= 5 ErrMin= 5.59D-05
 ErrMax= 5.59D-05  0.00D+00 EMaxC= 1.00D-01 BMatC= 5.85D-07 BMatP= 2.48D-05
 IDIUse=1 WtCom= 1.00D+00 WtEn= 0.00D+00
 Coeff-Com:  0.183D-02 0.939D-01 0.142D+00 0.196D+00 0.567D+00
 Coeff:      0.183D-02 0.939D-01 0.142D+00 0.196D+00 0.567D+00
 Gap=     0.125 Goal=   None    Shift=    0.000
 RMSDP=3.04D-06 MaxDP=1.29D-04 DE=-2.04D-05 OVMax= 4.42D-04

 Initial convergence to 1.0D-05 achieved.  Increase integral accuracy.
 Cycle   6  Pass 1  IDiag  1:
 E= -323.703922707822     Delta-E=        0.000014752005 Rises=F Damp=F
 DIIS: error= 3.16D-05 at cycle   1 NSaved=   1.
 NSaved= 1 IEnMin= 1 EnMin= -323.703922707822     IErMin= 1 ErrMin= 3.16D-05
 ErrMax= 3.16D-05  0.00D+00 EMaxC= 1.00D-01 BMatC= 3.42D-07 BMatP= 3.42D-07
 IDIUse=1 WtCom= 1.00D+00 WtEn= 0.00D+00
 Coeff-Com:  0.100D+01
 Coeff:      0.100D+01
 Gap=     0.125 Goal=   None    Shift=    0.000
 RMSDP=3.04D-06 MaxDP=1.29D-04 DE= 1.48D-05 OVMax= 5.77D-04

 Cycle   7  Pass 1  IDiag  1:
 E= -323.703922395920     Delta-E=        0.000000311902 Rises=F Damp=F
 DIIS: error= 4.61D-05 at cycle   2 NSaved=   2.
 NSaved= 2 IEnMin= 1 EnMin= -323.703922707822     IErMin= 1 ErrMin= 3.16D-05
 ErrMax= 4.61D-05  0.00D+00 EMaxC= 1.00D-01 BMatC= 6.69D-07 BMatP= 3.42D-07
 IDIUse=1 WtCom= 1.00D+00 WtEn= 0.00D+00
 Coeff-Com:  0.609D+00 0.391D+00
 Coeff:      0.609D+00 0.391D+00
 Gap=     0.125 Goal=   None    Shift=    0.000
 RMSDP=3.32D-06 MaxDP=1.37D-04 DE= 3.12D-07 OVMax= 5.29D-04

 Cycle   8  Pass 1  IDiag  1:
 E= -323.703922912183     Delta-E=       -0.000000516263 Rises=F Damp=F
 DIIS: error= 2.38D-05 at cycle   3 NSaved=   3.
 NSaved= 3 IEnMin= 3 EnMin= -323.703922912183     IErMin= 3 ErrMin= 2.38D-05
 ErrMax= 2.38D-05  0.00D+00 EMaxC= 1.00D-01 BMatC= 1.33D-07 BMatP= 3.42D-07
 IDIUse=1 WtCom= 1.00D+00 WtEn= 0.00D+00
 Coeff-Com:  0.754D-01 0.296D+00 0.629D+00
 Coeff:      0.754D-01 0.296D+00 0.629D+00
 Gap=     0.125 Goal=   None    Shift=    0.000
 RMSDP=1.58D-06 MaxDP=7.39D-05 DE=-5.16D-07 OVMax= 2.65D-04

 Cycle   9  Pass 1  IDiag  1:
 E= -323.703922996968     Delta-E=       -0.000000084785 Rises=F Damp=F
 DIIS: error= 1.43D-05 at cycle   4 NSaved=   4.
 NSaved= 4 IEnMin= 4 EnMin= -323.703922996968     IErMin= 4 ErrMin= 1.43D-05
 ErrMax= 1.43D-05  0.00D+00 EMaxC= 1.00D-01 BMatC= 5.02D-08 BMatP= 1.33D-07
 IDIUse=1 WtCom= 1.00D+00 WtEn= 0.00D+00
 Coeff-Com: -0.131D-01 0.182D+00 0.480D+00 0.351D+00
 Coeff:     -0.131D-01 0.182D+00 0.480D+00 0.351D+00
[...]
     36 -0.261623D-01  0.000000D+00  0.000000D+00  0.192992D-02  0.000000D+00
               26            27            28            29            30 
     26  0.140114D+00
     27  0.000000D+00  0.233313D-01
     28 -0.123754D-03  0.000000D+00  0.293195D+00
     29  0.111122D-03  0.000000D+00  0.117927D+00  0.120048D+00
     30  0.000000D+00 -0.130962D-02  0.000000D+00  0.000000D+00  0.229458D-01
     31  0.218687D-03  0.000000D+00 -0.107566D-02  0.853360D-03  0.000000D+00
     32  0.125395D-02  0.000000D+00 -0.900193D-03  0.620760D-03  0.000000D+00
     33  0.000000D+00 -0.564827D-02  0.000000D+00  0.000000D+00 -0.389769D-03
     34 -0.139061D-02  0.000000D+00  0.879099D-03 -0.574777D-03  0.000000D+00
     35 -0.589119D-03  0.000000D+00  0.270262D-03  0.574963D-03  0.000000D+00
     36  0.000000D+00  0.642760D-03  0.000000D+00  0.000000D+00 -0.451287D-02
               31            32            33            34            35 
     31  0.280014D+00
     32 -0.121321D+00  0.123821D+00
     33  0.000000D+00  0.000000D+00  0.256667D-01
     34  0.108742D-02  0.815940D-03  0.000000D+00  0.552808D-01
     35 -0.172153D-03  0.729106D-03  0.000000D+00 -0.502596D-02  0.357668D+00
     36  0.000000D+00  0.000000D+00 -0.222137D-02  0.000000D+00  0.000000D+00
               36 
     36  0.221102D-01
 FormGI is forming the generalized inverse of G from B-inverse, IUseBI=4.
 Leave Link  716 at Fri Aug 27 00:05:12 2021, MaxMem= 17179869184 cpu:        18.4
 (Enter /public3/home/sc51754/softwares/g09e01/l103.exe)

 GradGradGradGradGradGradGradGradGradGradGradGradGradGradGradGradGradGrad
 Berny optimization.
 Red2BG is reusing G-inverse.
 Internal  Forces:  Max     0.000195792 RMS     0.000047077
 Search for a local minimum.
 Step number   1 out of a maximum of    2
 All quantities printed in internal units (Hartrees-Bohrs-Radians)
 Second derivative matrix not updated -- analytic derivatives used.
 ITU=  0
     Eigenvalues ---    0.00758   0.01099   0.01509   0.01649   0.01886
     Eigenvalues ---    0.02138   0.02526   0.03131   0.04386   0.09927
     Eigenvalues ---    0.10499   0.10703   0.11916   0.12494   0.16075
     Eigenvalues ---    0.18453   0.19594   0.22231   0.28680   0.30487
     Eigenvalues ---    0.34637   0.35257   0.35619   0.35874   0.36567
     Eigenvalues ---    0.40204   0.44488   0.48387   0.51169   0.74117
 Angle between quadratic step and forces=  36.91 degrees.
 Linear search not attempted -- first point.
 Iteration  1 RMS(Cart)=  0.00028257 RMS(Int)=  0.00000010
 Iteration  2 RMS(Cart)=  0.00000011 RMS(Int)=  0.00000001
 ITry= 1 IFail=0 DXMaxC= 9.50D-04 DCOld= 1.00D+10 DXMaxT= 3.00D-01 DXLimC= 3.00D+00 Rises=F
 ClnCor:  largest displacement from symmetrization is 2.75D-12 for atom     1.
 Variable       Old X    -DE/DX   Delta X   Delta X   Delta X     New X
                                 (Linear)    (Quad)   (Total)
    R1        2.32593  -0.00020   0.00000  -0.00033  -0.00033   2.32560
    R2        2.68178   0.00008   0.00000   0.00063   0.00063   2.68240
    R3        2.57605  -0.00019   0.00000  -0.00070  -0.00070   2.57535
    R4        1.91698   0.00000   0.00000   0.00003   0.00003   1.91700
    R5        2.73595  -0.00000   0.00000  -0.00015  -0.00015   2.73580
    R6        2.58501   0.00006   0.00000   0.00027   0.00027   2.58528
    R7        2.04744   0.00000   0.00000   0.00000   0.00000   2.04745
    R8        2.57938   0.00009   0.00000   0.00032   0.00032   2.57970
    R9        2.04814   0.00002   0.00000   0.00008   0.00008   2.04821
   R10        2.68894  -0.00002   0.00000  -0.00020  -0.00020   2.68874
   R11        2.05330   0.00002   0.00000   0.00005   0.00005   2.05335
   R12        2.04453  -0.00001   0.00000  -0.00004  -0.00004   2.04448
    A1        2.19202   0.00003   0.00000   0.00019   0.00019   2.19221
    A2        1.99530  -0.00008   0.00000  -0.00083  -0.00083   1.99447
    A3        2.09586   0.00005   0.00000   0.00064   0.00064   2.09650
    A4        2.08969  -0.00003   0.00000  -0.00032  -0.00032   2.08937
    A5        2.22563   0.00004   0.00000   0.00054   0.00054   2.22617
    A6        1.96787  -0.00001   0.00000  -0.00022  -0.00022   1.96765
    A7        2.12568  -0.00002   0.00000  -0.00003  -0.00003   2.12565
    A8        2.02998   0.00006   0.00000   0.00065   0.00065   2.03062
    A9        2.12753  -0.00005   0.00000  -0.00061  -0.00061   2.12691
   A10        2.09824   0.00002   0.00000   0.00006   0.00006   2.09830
   A11        2.02737   0.00002   0.00000   0.00040   0.00040   2.02777
   A12        2.15757  -0.00004   0.00000  -0.00046  -0.00046   2.15711
   A13        2.12227  -0.00000   0.00000   0.00016   0.00016   2.12243
   A14        2.08486  -0.00003   0.00000  -0.00045  -0.00045   2.08441
   A15        2.07605   0.00003   0.00000   0.00029   0.00029   2.07634
   A16        2.06028  -0.00002   0.00000  -0.00016  -0.00016   2.06013
   A17        2.09970  -0.00000   0.00000  -0.00008  -0.00008   2.09962
   A18        2.12320   0.00002   0.00000   0.00024   0.00024   2.12344
    D1        3.14159   0.00000   0.00000   0.00000   0.00000   3.14159
    D2        0.00000   0.00000   0.00000   0.00000   0.00000   0.00000
    D3       -0.00000  -0.00000   0.00000   0.00000   0.00000   0.00000
    D4        3.14159   0.00000   0.00000   0.00000   0.00000   3.14159
    D5        0.00000  -0.00000   0.00000  -0.00000  -0.00000   0.00000
    D6        3.14159   0.00000   0.00000  -0.00000   0.00000   3.14159
    D7        3.14159  -0.00000   0.00000  -0.00000   0.00000   3.14159
    D8       -0.00000   0.00000   0.00000  -0.00000   0.00000   0.00000
    D9        3.14159  -0.00000   0.00000  -0.00000   0.00000   3.14159
   D10        0.00000  -0.00000   0.00000  -0.00000   0.00000   0.00000
   D11       -0.00000  -0.00000   0.00000  -0.00000   0.00000   0.00000
   D12        3.14159   0.00000   0.00000  -0.00000   0.00000   3.14159
   D13        0.00000  -0.00000   0.00000  -0.00000   0.00000   0.00000
   D14        3.14159  -0.00000   0.00000  -0.00000   0.00000   3.14159
   D15        3.14159  -0.00000   0.00000   0.00000   0.00000   3.14159
   D16       -0.00000  -0.00000   0.00000   0.00000   0.00000   0.00000
   D17       -0.00000   0.00000   0.00000  -0.00000   0.00000   0.00000
   D18        3.14159   0.00000   0.00000  -0.00000   0.00000   3.14159
   D19        3.14159  -0.00000   0.00000   0.00000   0.00000   3.14159
   D20        0.00000  -0.00000   0.00000   0.00000   0.00000   0.00000
   D21        0.00000  -0.00000   0.00000   0.00000   0.00000   0.00000
   D22        3.14159  -0.00000   0.00000   0.00000   0.00000   3.14159
   D23        3.14159  -0.00000   0.00000   0.00000   0.00000   3.14159
   D24       -0.00000  -0.00000   0.00000   0.00000   0.00000   0.00000
         Item               Value     Threshold  Converged?
 Maximum Force            0.000196     0.000450     YES
 RMS     Force            0.000047     0.000300     YES
 Maximum Displacement     0.000950     0.001800     YES
 RMS     Displacement     0.000283     0.001200     YES
 Predicted change in Energy=-2.892827D-07
 Optimization completed.
    -- Stationary point found.
                           ----------------------------
                           !   Optimized Parameters   !
                           ! (Angstroms and Degrees)  !
 --------------------------                            --------------------------
 ! Name  Definition              Value          Derivative Info.                !
 --------------------------------------------------------------------------------
 ! R1    R(1,3)                  1.2308         -DE/DX =   -0.0002              !
 ! R2    R(2,3)                  1.4191         -DE/DX =    0.0001              !
 ! R3    R(2,5)                  1.3632         -DE/DX =   -0.0002              !
 ! R4    R(2,8)                  1.0144         -DE/DX =    0.0                 !
 ! R5    R(3,4)                  1.4478         -DE/DX =    0.0                 !
 ! R6    R(4,6)                  1.3679         -DE/DX =    0.0001              !
 ! R7    R(4,9)                  1.0835         -DE/DX =    0.0                 !
 ! R8    R(5,7)                  1.3649         -DE/DX =    0.0001              !
 ! R9    R(5,10)                 1.0838         -DE/DX =    0.0                 !
 ! R10   R(6,7)                  1.4229         -DE/DX =    0.0                 !
 ! R11   R(6,11)                 1.0866         -DE/DX =    0.0                 !
 ! R12   R(7,12)                 1.0819         -DE/DX =    0.0                 !
 ! A1    A(3,2,5)              125.5935         -DE/DX =    0.0                 !
 ! A2    A(3,2,8)              114.3225         -DE/DX =   -0.0001              !
 ! A3    A(5,2,8)              120.084          -DE/DX =    0.0001              !
 ! A4    A(1,3,2)              119.7302         -DE/DX =    0.0                 !
 ! A5    A(1,3,4)              127.5193         -DE/DX =    0.0                 !
 ! A6    A(2,3,4)              112.7504         -DE/DX =    0.0                 !
 ! A7    A(3,4,6)              121.7927         -DE/DX =    0.0                 !
 ! A8    A(3,4,9)              116.3091         -DE/DX =    0.0001              !
 ! A9    A(6,4,9)              121.8982         -DE/DX =    0.0                 !
 ! A10   A(2,5,7)              120.2205         -DE/DX =    0.0                 !
 ! A11   A(2,5,10)             116.1598         -DE/DX =    0.0                 !
 ! A12   A(7,5,10)             123.6197         -DE/DX =    0.0                 !
 ! A13   A(4,6,7)              121.5974         -DE/DX =    0.0                 !
 ! A14   A(4,6,11)             119.4537         -DE/DX =    0.0                 !
 ! A15   A(7,6,11)             118.949          -DE/DX =    0.0                 !
 ! A16   A(5,7,6)              118.0456         -DE/DX =    0.0                 !
 ! A17   A(5,7,12)             120.3038         -DE/DX =    0.0                 !
 ! A18   A(6,7,12)             121.6506         -DE/DX =    0.0                 !
 ! D1    D(5,2,3,1)            180.0            -DE/DX =    0.0                 !
 ! D2    D(5,2,3,4)              0.0            -DE/DX =    0.0                 !
 ! D3    D(8,2,3,1)              0.0            -DE/DX =    0.0                 !
 ! D4    D(8,2,3,4)            180.0            -DE/DX =    0.0                 !
 ! D5    D(3,2,5,7)              0.0            -DE/DX =    0.0                 !
 ! D6    D(3,2,5,10)           180.0            -DE/DX =    0.0                 !
 ! D7    D(8,2,5,7)            180.0            -DE/DX =    0.0                 !
 ! D8    D(8,2,5,10)             0.0            -DE/DX =    0.0                 !
 ! D9    D(1,3,4,6)            180.0            -DE/DX =    0.0                 !
 ! D10   D(1,3,4,9)              0.0            -DE/DX =    0.0                 !
 ! D11   D(2,3,4,6)              0.0            -DE/DX =    0.0                 !
 ! D12   D(2,3,4,9)            180.0            -DE/DX =    0.0                 !
 ! D13   D(3,4,6,7)              0.0            -DE/DX =    0.0                 !
 ! D14   D(3,4,6,11)           180.0            -DE/DX =    0.0                 !
 ! D15   D(9,4,6,7)            180.0            -DE/DX =    0.0                 !
 ! D16   D(9,4,6,11)             0.0            -DE/DX =    0.0                 !
 ! D17   D(2,5,7,6)              0.0            -DE/DX =    0.0                 !
 ! D18   D(2,5,7,12)           180.0            -DE/DX =    0.0                 !
 ! D19   D(10,5,7,6)           180.0            -DE/DX =    0.0                 !
 ! D20   D(10,5,7,12)            0.0            -DE/DX =    0.0                 !
 ! D21   D(4,6,7,5)              0.0            -DE/DX =    0.0                 !
 ! D22   D(4,6,7,12)           180.0            -DE/DX =    0.0                 !
 ! D23   D(11,6,7,5)           180.0            -DE/DX =    0.0                 !
 ! D24   D(11,6,7,12)            0.0            -DE/DX =    0.0                 !
 --------------------------------------------------------------------------------
 GradGradGradGradGradGradGradGradGradGradGradGradGradGradGradGradGradGrad

 Leave Link  103 at Fri Aug 27 00:05:14 2021, MaxMem= 17179869184 cpu:        61.4
 (Enter /public3/home/sc51754/softwares/g09e01/l9999.exe)
 1\1\GINC-S2515\Freq\RTPSSTPSS\Gen\C5H5N1O1\SC51754\27-Aug-2021\0\\#P G
 eom=AllCheck Guess=TCheck SCRF=Check GenChk RTPSSTPSS/ChkBas Freq\\PY_
 TPSSTPSS_PC2_OPT_FREQ\\0,1\O,-0.1344835665,2.2963835946,0.\N,-1.139825
 7223,0.2346799237,0.\C,0.0048899719,1.0734705349,0.\C,1.2456723066,0.3
 274188823,0.\C,-1.124631276,-1.1284236103,0.\C,1.2641799475,-1.0403850
 584,0.\C,0.0623990325,-1.8022522738,0.\H,-2.023208131,0.7333620763,0.\
 H,2.1576860894,0.9123250425,0.\H,-2.0920533473,-1.6170717332,0.\H,2.21
 74456111,-1.5618167566,0.\H,0.0760320841,-2.8840826219,0.\\Version=EM6
 4L-G09RevE.01\State=1-A'\HF=-323.7039562\RMSD=5.653e-09\RMSF=1.012e-04
 \ZeroPoint=0.0918454\Thermal=0.0972273\Dipole=-0.474671,-1.624801,0.\D
 ipoleDeriv=-0.4157314,0.2417986,0.,0.055471,-1.663213,0.,0.,0.,-0.3988
 659,-0.3139887,-0.4934758,0.,0.3489575,-0.7157174,0.,0.,0.,-0.1941782,
 0.430974,-0.1440765,0.,-0.0245284,2.0306999,0.,0.,0.,0.2185891,-0.0456
 365,0.4809212,0.,-0.0164693,-0.5178003,0.,0.,0.,-0.1521751,0.3263945,-
 0.0213724,0.,-0.5651464,0.3912015,0.,0.,0.,-0.0241717,0.3619685,0.1875
 352,0.,0.139874,0.4435035,0.,0.,0.,-0.0829077,-0.5038425,-0.1938957,0.
 ,0.1021824,-0.1132505,0.,0.,0.,-0.1940554,0.2038502,-0.0257516,0.,-0.0
 068441,0.1274969,0.,0.,0.,0.2663685,-0.0110723,-0.0392249,0.,-0.052604
 4,0.0237528,0.,0.,0.,0.1420929,-0.0321171,-0.0566327,0.,-0.0429922,0.0
 239378,0.,0.,0.,0.1405251,-0.0638155,0.0794911,0.,0.0764857,0.0318067,
 0.,0.,0.,0.1202532,0.0630166,-0.0153165,0.,-0.0143857,-0.0624179,0.,0.
 ,0.,0.1585251\Polar=75.307344,0.1211507,92.2248885,0.,0.,37.8751175\PG
 =CS [SG(C5H5N1O1)]\NImag=0\\0.09118745,-0.06257490,0.70735289,0.,0.,0.
 03079048,0.01278992,-0.03568935,0.,0.69991750,-0.06414370,-0.07098070,
 0.,-0.11804691,0.71103392,0.,0.,0.01758454,0.,0.,0.06917626,-0.1044350
 2,0.07286785,0.,-0.18215888,0.03118217,0.,0.50818113,0.06987613,-0.584
 20766,0.,-0.01837319,-0.12075159,0.,-0.11343884,0.84551061,0.,0.,-0.06
 789334,0.,0.,-0.05404145,0.,0.,0.18321632,0.00427225,0.02685801,0.,-0.
 04432683,-0.01417009,0.,-0.20715546,0.05136191,0.,0.62601664,0.0478283
 5,-0.05043614,0.,-0.00756132,0.04339137,0.,0.02649586,-0.12234578,0.,0
 .06897933,0.73609088,0.,0.,0.02056755,0.,0.,0.00337490,0.,0.,-0.072034
 84,0.,0.,0.11029199,-0.00993825,-0.00315750,0.,-0.14199946,-0.02393867
 ,0.,0.03533814,-0.02007617,0.,-0.01160528,0.02026258,0.,0.79427071,0.0
 1401321,-0.00277996,0.,0.02778032,-0.31487500,0.,-0.07246723,-0.027226
 35,0.,0.01703317,-0.02875664,0.,-0.01139009,0.64313592,0.,0.,0.0048830
 3,0.,0.,-0.04045975,0.,0.,-0.00375522,0.,0.,0.00076319,0.,0.,0.1280662
 2,-0.01279692,0.00596231,0.,-0.00433868,-0.03022727,0.,0.03457955,0.03
 403218,0.,-0.12522095,0.02547266,0.,-0.05952698,0.01381968,0.,0.656833
 51,-0.00580991,0.01033210,0.,-0.00499210,-0.03394343,0.,0.04660804,-0.
 02298907,0.,-0.01463969,-0.40207243,0.,-0.01933717,0.04587092,0.,-0.04
 346455,0.70719999,0.,0.,0.00412213,0.,0.,-0.00446278,0.,0.,-0.00072283
 ,0.,0.,-0.05138968,0.,0.,0.00645605,0.,0.,0.13420186,0.01021934,-0.006
 25762,0.,0.00930122,0.06303692,0.,-0.04620424,-0.00361224,0.,0.0208087
 5,-0.05017798,0.,-0.33056537,0.09552672,0.,-0.23082243,-0.04783441,0.,
 0.64952520,-0.00274721,-0.00390884,0.,0.03762932,-0.04410378,0.,0.0087
 3146,0.00482311,0.,-0.03225366,-0.02737127,0.,0.13534728,-0.17928633,0
 .,-0.09564151,-0.16183899,0.,-0.05230253,0.73657301,0.,0.,-0.00024906,
 0.,0.,0.01049583,0.,0.,-0.00679297,0.,0.,0.00624810,0.,0.,-0.05777187,
 0.,0.,-0.05667792,0.,0.,0.10708861,0.00526474,0.00033965,0.,-0.3444148
 2,0.15016170,0.,-0.02271737,0.01959843,0.,-0.00405502,-0.00407780,0.,0
 .00642659,-0.00146185,0.,-0.00100178,-0.00261062,0.,0.00441089,-0.0022
 9865,0.,0.35581303,0.00503989,-0.00162685,0.,0.14744417,-0.14943187,0.
 ,-0.01745084,0.02035447,0.,-0.00324910,-0.00335531,0.,0.03242085,-0.01
 235587,0.,-0.00009207,0.00041130,0.,-0.00394130,-0.00578743,0.,-0.1600
 6513,0.15065055,0.,0.,-0.00433572,0.,0.,-0.01571358,0.,0.,0.00275704,0
 .,0.,0.00436245,0.,0.,-0.00557041,0.,0.,-0.00070297,0.,0.,0.00508525,0
 .,0.,0.01609270,0.00295808,0.00117214,0.,-0.00526264,0.00284435,0.,-0.
 01731209,-0.01940758,0.,-0.25737021,-0.12539416,0.,-0.00016367,0.00239
 611,0.,0.00534447,0.00291256,0.,0.00234445,0.00098343,0.,-0.00114313,-
 0.00106696,0.,0.26948075,-0.00176891,0.00082710,0.,0.00404832,-0.00103
 456,0.,0.01396252,0.01086343,0.,-0.12697913,-0.13407730,0.,0.00067209,
 -0.00114555,0.,-0.02766248,-0.01218268,0.,0.00209678,-0.00482422,0.,0.
 00097807,0.00068413,0.,0.13594842,0.14011370,0.,0.,-0.00213529,0.,0.,0
 .00494888,0.,0.,0.00246185,0.,0.,-0.03267288,0.,0.,-0.00070746,0.,0.,0
 .00242743,0.,0.,0.00914163,0.,0.,-0.00048037,0.,0.,0.02333133,-0.00012
 117,-0.00012940,0.,0.00492783,0.00185882,0.,0.00207132,0.00174182,0.,0
 .00057649,0.00064431,0.,-0.28271489,-0.11021153,0.,-0.00341745,0.00448
 165,0.,-0.01541535,-0.01506791,0.,0.00109640,-0.00049082,0.,-0.0000016
 8,-0.00012375,0.,0.29319505,-0.00186009,-0.00301370,0.,-0.03542722,-0.
 02062810,0.,0.00748794,-0.00011789,0.,-0.00026099,0.00014040,0.,-0.104
 26608,-0.10956607,0.,0.00266353,-0.00184107,0.,0.01382154,0.01281665,0
 .,-0.00022023,0.00085471,0.,-0.00014373,0.00011112,0.,0.11792675,0.120
 04823,0.,0.,-0.00030777,0.,0.,0.00245015,0.,0.,0.00521375,0.,0.,0.0001
 4100,0.,0.,-0.03492850,0.,0.,0.00767588,0.,0.,0.00567511,0.,0.,-0.0026
 5319,0.,0.,-0.00130962,0.,0.,0.02294583,-0.00014817,0.00057957,0.,0.00
 101795,-0.00067086,0.,0.00173165,-0.00152077,0.,0.00298167,-0.00084795
 ,0.,-0.00383197,-0.00428142,0.,-0.26486416,0.11240550,0.,-0.01787756,0
 .01470515,0.,0.00003447,0.00005155,0.,0.00093023,0.00021869,0.,-0.0010
 7566,0.00085336,0.,0.28001413,0.00205299,-0.00144715,0.,0.00031054,-0.
 00010827,0.,-0.00365576,-0.00457008,0.,0.03015438,-0.01166171,0.,-0.00
 342608,-0.00165336,0.,0.11211498,-0.11860119,0.,-0.01569220,0.01160379
 ,0.,0.00004479,0.00001360,0.,-0.00049875,0.00125395,0.,-0.00090019,0.0
 0062076,0.,-0.12132065,0.12382056,0.,0.,-0.00249410,0.,0.,-0.00059463,
 0.,0.,0.01191516,0.,0.,0.00642714,0.,0.,0.00465847,0.,0.,-0.04046784,0
 .,0.,0.00391959,0.,0.,-0.00077110,0.,0.,-0.00564827,0.,0.,-0.00038977,
 0.,0.,0.02566671,0.00074775,0.00002923,0.,-0.00545311,0.00211353,0.,-0
 .00191874,-0.00018168,0.,-0.00492206,-0.00162388,0.,0.00431045,0.02924
 292,0.,0.00523182,-0.02771930,0.,-0.05572490,0.00291482,0.,0.00028601,
 0.00139976,0.,0.00019544,-0.00139061,0.,0.00087910,-0.00057478,0.,0.00
 108742,0.00081594,0.,0.05528082,0.00009414,-0.00011108,0.,0.00287742,0
 .00143200,0.,-0.00032318,0.00065681,0.,-0.00283414,0.00045393,0.,-0.00
 311104,-0.01136171,0.,0.00302254,-0.01034545,0.,0.00533632,-0.33869568
 ,0.,-0.00038838,-0.00041143,0.,0.00025416,-0.00058912,0.,0.00027026,0.
 00057496,0.,-0.00017215,0.00072911,0.,-0.00502596,0.35766767,0.,0.,-0.
 00053246,0.,0.,0.00724163,0.,0.,-0.00032349,0.,0.,0.00392107,0.,0.,-0.
 00163375,0.,0.,-0.00045933,0.,0.,-0.02616229,0.,0.,0.00192992,0.,0.,0.
 00064276,0.,0.,-0.00451287,0.,0.,-0.00222137,0.,0.,0.02211017\\0.00002
 622,0.00019931,0.,0.00009073,0.00033432,0.,-0.00005077,-0.00026437,0.,
 0.00003968,-0.00011942,0.,0.00005093,-0.00029095,0.,0.00003915,0.00008
 189,0.,-0.00009686,0.00006903,0.,-0.00002649,-0.00004886,0.,-0.0000258
 0,0.00003284,0.,-0.00000553,0.00005050,0.,-0.00003705,-0.00003282,0.,-
 0.00000423,-0.00001146,0.\\\@


 WAR ES EIN GOTT DER DIESE ZEICHEN SCHRIEB?
          - LUDWIG BOLTZMANN, QUOTING GOETHE, ABOUT MAXWELL'S EQUATIONS.
 Job cpu time:       0 days  0 hours 41 minutes 24.7 seconds.
 File lengths (MBytes):  RWF=     80 Int=      0 D2E=      0 Chk=      7 Scr=      1
 Normal termination of Gaussian 09 at Fri Aug 27 00:05:14 2021.
