 Entering Gaussian System, Link 0=g09
 AtFile(1): pc-2.gbs
            -H     0
            S    4   1.00
                  0.754230D+02           0.240650D-02
                  0.113500D+02           0.184870D-01
                  0.259930D+01           0.897420D-01
                  0.735130D+00           0.281110D+00
            S    1   1.00
                  0.231670D+00           0.100000D+01
            S    1   1.00
                  0.741470D-01           0.100000D+01
            P    1   1.00
                  0.160000D+01           0.100000D+01
            P    1   1.00
                  0.450000D+00           0.100000D+01
            D    1   1.00
                  0.125000D+01           0.100000D+01
            ****
            -C     0
            S    7   1.00
                  0.785710D+04           0.568250D-03
                  0.117870D+04           0.439150D-02
                  0.268320D+03           0.225040D-01
                  0.759480D+02           0.866530D-01
                  0.245590D+02           0.244050D+00
                  0.862120D+01           0.441480D+00
                  0.312780D+01           0.353320D+00
            S    7   1.00
                  0.117870D+04          -0.594920D-06
                  0.268320D+03          -0.627480D-04
                  0.759480D+02          -0.757730D-03
                  0.245590D+02          -0.733080D-02
                  0.862120D+01          -0.389320D-01
                  0.312780D+01          -0.889080D-01
                  0.822020D+00           0.216890D+00
            S    1   1.00
                  0.330170D+00           0.100000D+01
            S    1   1.00
                  0.114630D+00           0.100000D+01
            P    4   1.00
                  0.337750D+02           0.602940D-02
                  0.767660D+01           0.432280D-01
                  0.223570D+01           0.163010D+00
                  0.764470D+00           0.365040D+00
            P    1   1.00
                  0.262320D+00           0.100000D+01
            P    1   1.00
                  0.846380D-01           0.100000D+01
            D    1   1.00
                  0.140000D+01           0.100000D+01
            D    1   1.00
                  0.450000D+00           0.100000D+01
            F    1   1.00
                  0.950000D+00           0.100000D+01
            ****
            -N     0
            S    7   1.00
                  0.111010D+05           0.545700D-03
                  0.166530D+04           0.421810D-02
                  0.379080D+03           0.216450D-01
                  0.107300D+03           0.837760D-01
                  0.347470D+02           0.238810D+00
                  0.122490D+02           0.439940D+00
                  0.447430D+01           0.363640D+00
            S    7   1.00
                  0.166530D+04          -0.150060D-05
                  0.379080D+03          -0.587530D-04
                  0.107300D+03          -0.774530D-03
                  0.347470D+02          -0.721610D-02
                  0.122490D+02          -0.393380D-01
                  0.447430D+01          -0.906110D-01
                  0.124040D+01           0.198820D+00
            S    1   1.00
                  0.487430D+00           0.100000D+01
            S    1   1.00
                  0.164840D+00           0.100000D+01
            P    4   1.00
                  0.479340D+02           0.617060D-02
                  0.109990D+02           0.442600D-01
                  0.324720D+01           0.168250D+00
                  0.111140D+01           0.368480D+00
            P    1   1.00
                  0.379880D+00           0.100000D+01
            P    1   1.00
                  0.120680D+00           0.100000D+01
            D    1   1.00
                  0.180000D+01           0.100000D+01
            D    1   1.00
                  0.550000D+00           0.100000D+01
            F    1   1.00
                  0.102000D+01           0.100000D+01
            ****
            -O     0
            S    7   1.00
                  0.147820D+05           0.535190D-03
                  0.221730D+04           0.413750D-02
                  0.504740D+03           0.212450D-01
                  0.142870D+03           0.824530D-01
                  0.463000D+02           0.236710D+00
                  0.163370D+02           0.440390D+00
                  0.598280D+01           0.364650D+00
            S    7   1.00
                  0.221730D+04          -0.192750D-05
                  0.504740D+03          -0.579640D-04
                  0.142870D+03          -0.794940D-03
                  0.463000D+02          -0.731250D-02
                  0.163370D+02          -0.405740D-01
                  0.598280D+01          -0.915940D-01
                  0.167180D+01           0.209400D+00
            S    1   1.00
                  0.646620D+00           0.100000D+01
            S    1   1.00
                  0.216690D+00           0.100000D+01
            P    4   1.00
                  0.604240D+02           0.689490D-02
                  0.139350D+02           0.490050D-01
                  0.415310D+01           0.182550D+00
                  0.141580D+01           0.376330D+00
            P    1   1.00
                  0.475490D+00           0.100000D+01
            P    1   1.00
                  0.145290D+00           0.100000D+01
            D    1   1.00
                  0.220000D+01           0.100000D+01
            D    1   1.00
                  0.650000D+00           0.100000D+01
            F    1   1.00
                  0.110000D+01           0.100000D+01
            ****
 Initial command:
 /public3/home/sc51754/softwares/g09e01/l1.exe "./Gau-57839.inp" -scrdir="./"
 Entering Link 1 = /public3/home/sc51754/softwares/g09e01/l1.exe PID=     57840.
  
 Copyright (c) 1988,1990,1992,1993,1995,1998,2003,2009,2015,
            Gaussian, Inc.  All Rights Reserved.
  
 This is part of the Gaussian(R) 09 program.  It is based on
 the Gaussian(R) 03 system (copyright 2003, Gaussian, Inc.),
 the Gaussian(R) 98 system (copyright 1998, Gaussian, Inc.),
 the Gaussian(R) 94 system (copyright 1995, Gaussian, Inc.),
 the Gaussian 92(TM) system (copyright 1992, Gaussian, Inc.),
 the Gaussian 90(TM) system (copyright 1990, Gaussian, Inc.),
 the Gaussian 88(TM) system (copyright 1988, Gaussian, Inc.),
 the Gaussian 86(TM) system (copyright 1986, Carnegie Mellon
 University), and the Gaussian 82(TM) system (copyright 1983,
 Carnegie Mellon University). Gaussian is a federally registered
 trademark of Gaussian, Inc.
  
 This software contains proprietary and confidential information,
 including trade secrets, belonging to Gaussian, Inc.
  
 This software is provided under written license and may be
 used, copied, transmitted, or stored only in accord with that
 written license.
  
 The following legend is applicable only to US Government
 contracts under FAR:
  
                    RESTRICTED RIGHTS LEGEND
  
 Use, reproduction and disclosure by the US Government is
 subject to restrictions as set forth in subparagraphs (a)
 and (c) of the Commercial Computer Software - Restricted
 Rights clause in FAR 52.227-19.
  
 Gaussian, Inc.
 340 Quinnipiac St., Bldg. 40, Wallingford CT 06492
  
  
 ---------------------------------------------------------------
 Warning -- This program may not be used in any manner that
 competes with the business of Gaussian, Inc. or will provide
 assistance to any competitor of Gaussian, Inc.  The licensee
 of this program is prohibited from giving any competitor of
 Gaussian, Inc. access to this program.  By using this program,
 the user acknowledges that Gaussian, Inc. is engaged in the
 business of creating and licensing software in the field of
 computational chemistry and represents and warrants to the
 licensee that it is not a competitor of Gaussian, Inc. and that
 it will not use this program in any manner prohibited above.
 ---------------------------------------------------------------
  

 Cite this work as:
 Gaussian 09, Revision E.01,
 M. J. Frisch, G. W. Trucks, H. B. Schlegel, G. E. Scuseria, 
 M. A. Robb, J. R. Cheeseman, G. Scalmani, V. Barone, B. Mennucci, 
 G. A. Petersson, H. Nakatsuji, M. Caricato, X. Li, H. P. Hratchian, 
 A. F. Izmaylov, J. Bloino, G. Zheng, J. L. Sonnenberg, M. Hada, 
 M. Ehara, K. Toyota, R. Fukuda, J. Hasegawa, M. Ishida, T. Nakajima, 
 Y. Honda, O. Kitao, H. Nakai, T. Vreven, J. A. Montgomery, Jr., 
 J. E. Peralta, F. Ogliaro, M. Bearpark, J. J. Heyd, E. Brothers, 
 K. N. Kudin, V. N. Staroverov, T. Keith, R. Kobayashi, J. Normand, 
 K. Raghavachari, A. Rendell, J. C. Burant, S. S. Iyengar, J. Tomasi, 
 M. Cossi, N. Rega, J. M. Millam, M. Klene, J. E. Knox, J. B. Cross, 
 V. Bakken, C. Adamo, J. Jaramillo, R. Gomperts, R. E. Stratmann, 
 O. Yazyev, A. J. Austin, R. Cammi, C. Pomelli, J. W. Ochterski, 
 R. L. Martin, K. Morokuma, V. G. Zakrzewski, G. A. Voth, 
 P. Salvador, J. J. Dannenberg, S. Dapprich, A. D. Daniels, 
 O. Farkas, J. B. Foresman, J. V. Ortiz, J. Cioslowski, 
 and D. J. Fox, Gaussian, Inc., Wallingford CT, 2013.
 
 ******************************************
 Gaussian 09:  EM64L-G09RevE.01 30-Nov-2015
                27-Aug-2021 
 ******************************************
 %nprocshared=64
 Will use up to   64 processors via shared memory.
 %mem=128GB
 %chk=PY_wB97_PC2_OPT_FREQ.chk
 --------------------
 #p opt freq wB97/gen
 --------------------
 1/14=-1,18=20,19=15,26=3,38=1/1,3;
 2/9=110,12=2,17=6,18=5,40=1/2;
 3/5=7,11=2,16=1,25=1,30=1,71=1,74=-56/1,2,3;
 4//1;
 5/5=2,38=5/2;
 6/7=2,8=2,9=2,10=2,28=1/1;
 7//1,2,3,16;
 1/14=-1,18=20,19=15,26=3/3(2);
 2/9=110/2;
 99//99;
 2/9=110/2;
 3/5=7,6=1,11=2,16=1,25=1,30=1,71=1,74=-56,82=7/1,2,3;
 4/5=5,16=3,69=1/1;
 5/5=2,38=5/2;
 7//1,2,3,16;
 1/14=-1,18=20,19=15,26=3/3(-5);
 2/9=110/2;
 6/7=2,8=2,9=2,10=2,19=2,28=1/1;
 99/9=1/99;
 Leave Link    1 at Fri Aug 27 00:13:40 2021, MaxMem= 17179869184 cpu:         4.0
 (Enter /public3/home/sc51754/softwares/g09e01/l101.exe)
 --------------------
 PY_wB97_PC2_OPT_FREQ
 --------------------
 Symbolic Z-matrix:
 Charge =  0 Multiplicity = 1
 O                    -0.1303    2.2679    0. 
 N                    -1.13214   0.23327   0. 
 C                     0.        1.06201   0. 
 C                     1.23795   0.32011   0. 
 C                    -1.11441  -1.12189   0. 
 C                     1.25607  -1.03234   0. 
 C                     0.05856  -1.79159   0. 
 H                    -2.00762   0.73274   0. 
 H                     2.14422   0.90837   0. 
 H                    -2.07697  -1.61403   0. 
 H                     2.20675  -1.5513    0. 
 H                     0.072    -2.86964   0. 
 
 NAtoms=     12 NQM=       12 NQMF=       0 NMMI=      0 NMMIF=      0
                NMic=       0 NMicF=      0.
                    Isotopes and Nuclear Properties:
 (Nuclear quadrupole moments (NQMom) in fm**2, nuclear magnetic moments (NMagM)
  in nuclear magnetons)

  Atom         1           2           3           4           5           6           7           8           9          10
 IAtWgt=          16          14          12          12          12          12          12           1           1           1
 AtmWgt=  15.9949146  14.0030740  12.0000000  12.0000000  12.0000000  12.0000000  12.0000000   1.0078250   1.0078250   1.0078250
 NucSpn=           0           2           0           0           0           0           0           1           1           1
 AtZEff=   0.0000000   0.0000000   0.0000000   0.0000000   0.0000000   0.0000000   0.0000000   0.0000000   0.0000000   0.0000000
 NQMom=    0.0000000   2.0440000   0.0000000   0.0000000   0.0000000   0.0000000   0.0000000   0.0000000   0.0000000   0.0000000
 NMagM=    0.0000000   0.4037610   0.0000000   0.0000000   0.0000000   0.0000000   0.0000000   2.7928460   2.7928460   2.7928460
 AtZNuc=   8.0000000   7.0000000   6.0000000   6.0000000   6.0000000   6.0000000   6.0000000   1.0000000   1.0000000   1.0000000

  Atom        11          12
 IAtWgt=           1           1
 AtmWgt=   1.0078250   1.0078250
 NucSpn=           1           1
 AtZEff=   0.0000000   0.0000000
 NQMom=    0.0000000   0.0000000
 NMagM=    2.7928460   2.7928460
 AtZNuc=   1.0000000   1.0000000
 Leave Link  101 at Fri Aug 27 00:13:41 2021, MaxMem= 17179869184 cpu:         9.0
 (Enter /public3/home/sc51754/softwares/g09e01/l103.exe)

 GradGradGradGradGradGradGradGradGradGradGradGradGradGradGradGradGradGrad
 Berny optimization.
 Initialization pass.
                           ----------------------------
                           !    Initial Parameters    !
                           ! (Angstroms and Degrees)  !
 --------------------------                            --------------------------
 ! Name  Definition              Value          Derivative Info.                !
 --------------------------------------------------------------------------------
 ! R1    R(1,3)                  1.2129         estimate D2E/DX2                !
 ! R2    R(2,3)                  1.403          estimate D2E/DX2                !
 ! R3    R(2,5)                  1.3553         estimate D2E/DX2                !
 ! R4    R(2,8)                  1.0079         estimate D2E/DX2                !
 ! R5    R(3,4)                  1.4432         estimate D2E/DX2                !
 ! R6    R(4,6)                  1.3526         estimate D2E/DX2                !
 ! R7    R(4,9)                  1.0805         estimate D2E/DX2                !
 ! R8    R(5,7)                  1.3507         estimate D2E/DX2                !
 ! R9    R(5,10)                 1.0811         estimate D2E/DX2                !
 ! R10   R(6,7)                  1.4179         estimate D2E/DX2                !
 ! R11   R(6,11)                 1.0831         estimate D2E/DX2                !
 ! R12   R(7,12)                 1.0781         estimate D2E/DX2                !
 ! A1    A(3,2,5)              125.4546         estimate D2E/DX2                !
 ! A2    A(3,2,8)              114.0905         estimate D2E/DX2                !
 ! A3    A(5,2,8)              120.4549         estimate D2E/DX2                !
 ! A4    A(1,3,2)              120.0371         estimate D2E/DX2                !
 ! A5    A(1,3,4)              127.1013         estimate D2E/DX2                !
 ! A6    A(2,3,4)              112.8616         estimate D2E/DX2                !
 ! A7    A(3,4,6)              121.7019         estimate D2E/DX2                !
 ! A8    A(3,4,9)              116.0785         estimate D2E/DX2                !
 ! A9    A(6,4,9)              122.2196         estimate D2E/DX2                !
 ! A10   A(2,5,7)              120.4739         estimate D2E/DX2                !
 ! A11   A(2,5,10)             116.3305         estimate D2E/DX2                !
 ! A12   A(7,5,10)             123.1956         estimate D2E/DX2                !
 ! A13   A(4,6,7)              121.6078         estimate D2E/DX2                !
 ! A14   A(4,6,11)             119.3971         estimate D2E/DX2                !
 ! A15   A(7,6,11)             118.9951         estimate D2E/DX2                !
 ! A16   A(5,7,6)              117.9002         estimate D2E/DX2                !
 ! A17   A(5,7,12)             120.4381         estimate D2E/DX2                !
 ! A18   A(6,7,12)             121.6617         estimate D2E/DX2                !
 ! D1    D(5,2,3,1)            180.0            estimate D2E/DX2                !
 ! D2    D(5,2,3,4)              0.0            estimate D2E/DX2                !
 ! D3    D(8,2,3,1)              0.0            estimate D2E/DX2                !
 ! D4    D(8,2,3,4)            180.0            estimate D2E/DX2                !
 ! D5    D(3,2,5,7)              0.0            estimate D2E/DX2                !
 ! D6    D(3,2,5,10)           180.0            estimate D2E/DX2                !
 ! D7    D(8,2,5,7)            180.0            estimate D2E/DX2                !
 ! D8    D(8,2,5,10)             0.0            estimate D2E/DX2                !
 ! D9    D(1,3,4,6)            180.0            estimate D2E/DX2                !
 ! D10   D(1,3,4,9)              0.0            estimate D2E/DX2                !
 ! D11   D(2,3,4,6)              0.0            estimate D2E/DX2                !
 ! D12   D(2,3,4,9)            180.0            estimate D2E/DX2                !
 ! D13   D(3,4,6,7)              0.0            estimate D2E/DX2                !
 ! D14   D(3,4,6,11)           180.0            estimate D2E/DX2                !
 ! D15   D(9,4,6,7)            180.0            estimate D2E/DX2                !
 ! D16   D(9,4,6,11)             0.0            estimate D2E/DX2                !
 ! D17   D(2,5,7,6)              0.0            estimate D2E/DX2                !
 ! D18   D(2,5,7,12)           180.0            estimate D2E/DX2                !
 ! D19   D(10,5,7,6)           180.0            estimate D2E/DX2                !
 ! D20   D(10,5,7,12)            0.0            estimate D2E/DX2                !
 ! D21   D(4,6,7,5)              0.0            estimate D2E/DX2                !
 ! D22   D(4,6,7,12)           180.0            estimate D2E/DX2                !
 ! D23   D(11,6,7,5)           180.0            estimate D2E/DX2                !
 ! D24   D(11,6,7,12)            0.0            estimate D2E/DX2                !
 --------------------------------------------------------------------------------
 Trust Radius=3.00D-01 FncErr=1.00D-07 GrdErr=1.00D-06
 Number of steps in this run=     64 maximum allowed number of steps=    100.
 GradGradGradGradGradGradGradGradGradGradGradGradGradGradGradGradGradGrad

 Leave Link  103 at Fri Aug 27 00:13:41 2021, MaxMem= 17179869184 cpu:         0.1
 (Enter /public3/home/sc51754/softwares/g09e01/l202.exe)
                          Input orientation:                          
 ---------------------------------------------------------------------
 Center     Atomic      Atomic             Coordinates (Angstroms)
 Number     Number       Type             X           Y           Z
 ---------------------------------------------------------------------
      1          8           0       -0.130304    2.267896    0.000000
      2          7           0       -1.132141    0.233271    0.000000
      3          6           0        0.000000    1.062005    0.000000
      4          6           0        1.237945    0.320111    0.000000
      5          6           0       -1.114407   -1.121885    0.000000
      6          6           0        1.256071   -1.032342    0.000000
      7          6           0        0.058564   -1.791590    0.000000
      8          1           0       -2.007624    0.732742    0.000000
      9          1           0        2.144218    0.908369    0.000000
     10          1           0       -2.076968   -1.614034    0.000000
     11          1           0        2.206750   -1.551299    0.000000
     12          1           0        0.071999   -2.869636    0.000000
 ---------------------------------------------------------------------
                    Distance matrix (angstroms):
                    1          2          3          4          5
     1  O    0.000000
     2  N    2.267901   0.000000
     3  C    1.212911   1.403048   0.000000
     4  C    2.380330   2.371676   1.443231   0.000000
     5  C    3.529741   1.355272   2.451791   2.759151   0.000000
     6  C    3.579610   2.702838   2.442131   1.352574   2.372169
     7  C    4.063877   2.349008   2.854196   2.418723   1.350691
     8  H    2.425083   1.007939   2.034445   3.271694   2.058514
     9  H    2.649861   3.345188   2.149715   1.080453   3.839345
    10  H    4.342681   2.074906   3.387474   3.837912   1.081080
    11  H    4.477507   3.785879   3.420395   2.107311   3.348803
    12  H    5.141514   3.328361   3.932300   3.396162   2.112390
                    6          7          8          9         10
     6  C    0.000000
     7  C    1.417914   0.000000
     8  H    3.710421   3.262114   0.000000
     9  H    2.134283   3.411705   4.155555   0.000000
    10  H    3.383418   2.142901   2.347800   4.917411   0.000000
    11  H    1.083101   2.161583   4.793516   2.460463   4.284177
    12  H    2.185790   1.078130   4.159562   4.308992   2.488894
                   11         12
    11  H    0.000000
    12  H    2.509019   0.000000
 Stoichiometry    C5H5NO
 Framework group  CS[SG(C5H5NO)]
 Deg. of freedom    21
 Full point group                 CS      NOp   2
 Largest Abelian subgroup         CS      NOp   2
 Largest concise Abelian subgroup C1      NOp   1
                         Standard orientation:                         
 ---------------------------------------------------------------------
 Center     Atomic      Atomic             Coordinates (Angstroms)
 Number     Number       Type             X           Y           Z
 ---------------------------------------------------------------------
      1          8           0       -0.130304    2.267896    0.000000
      2          7           0       -1.132141    0.233271    0.000000
      3          6           0       -0.000000    1.062005    0.000000
      4          6           0        1.237945    0.320111   -0.000000
      5          6           0       -1.114407   -1.121885    0.000000
      6          6           0        1.256071   -1.032342   -0.000000
      7          6           0        0.058564   -1.791590   -0.000000
      8          1           0       -2.007624    0.732742    0.000000
      9          1           0        2.144218    0.908369   -0.000000
     10          1           0       -2.076968   -1.614034    0.000000
     11          1           0        2.206750   -1.551299   -0.000000
     12          1           0        0.071999   -2.869636   -0.000000
 ---------------------------------------------------------------------
 Rotational constants (GHZ):      5.7341355      2.8228169      1.8916098
 Leave Link  202 at Fri Aug 27 00:13:41 2021, MaxMem= 17179869184 cpu:         4.0
 (Enter /public3/home/sc51754/softwares/g09e01/l301.exe)
 General basis read from cards:  (5D, 7F)
 Centers:       8      9     10     11     12
 S 4 1.00
     Exponent=  7.5423000000D+01 Coefficients=  2.4065000000D-03
     Exponent=  1.1350000000D+01 Coefficients=  1.8487000000D-02
     Exponent=  2.5993000000D+00 Coefficients=  8.9742000000D-02
     Exponent=  7.3513000000D-01 Coefficients=  2.8111000000D-01
 S 1 1.00
     Exponent=  2.3167000000D-01 Coefficients=  1.0000000000D+00
 S 1 1.00
     Exponent=  7.4147000000D-02 Coefficients=  1.0000000000D+00
 P 1 1.00
     Exponent=  1.6000000000D+00 Coefficients=  1.0000000000D+00
 P 1 1.00
     Exponent=  4.5000000000D-01 Coefficients=  1.0000000000D+00
 D 1 1.00
     Exponent=  1.2500000000D+00 Coefficients=  1.0000000000D+00
 ****
 Centers:       3      4      5      6      7
 S 7 1.00
     Exponent=  7.8571000000D+03 Coefficients=  5.6825000000D-04
     Exponent=  1.1787000000D+03 Coefficients=  4.3915000000D-03
     Exponent=  2.6832000000D+02 Coefficients=  2.2504000000D-02
     Exponent=  7.5948000000D+01 Coefficients=  8.6653000000D-02
     Exponent=  2.4559000000D+01 Coefficients=  2.4405000000D-01
     Exponent=  8.6212000000D+00 Coefficients=  4.4148000000D-01
     Exponent=  3.1278000000D+00 Coefficients=  3.5332000000D-01
 S 7 1.00
     Exponent=  1.1787000000D+03 Coefficients= -5.9492000000D-07
     Exponent=  2.6832000000D+02 Coefficients= -6.2748000000D-05
     Exponent=  7.5948000000D+01 Coefficients= -7.5773000000D-04
     Exponent=  2.4559000000D+01 Coefficients= -7.3308000000D-03
     Exponent=  8.6212000000D+00 Coefficients= -3.8932000000D-02
     Exponent=  3.1278000000D+00 Coefficients= -8.8908000000D-02
     Exponent=  8.2202000000D-01 Coefficients=  2.1689000000D-01
 S 1 1.00
     Exponent=  3.3017000000D-01 Coefficients=  1.0000000000D+00
 S 1 1.00
     Exponent=  1.1463000000D-01 Coefficients=  1.0000000000D+00
 P 4 1.00
     Exponent=  3.3775000000D+01 Coefficients=  6.0294000000D-03
     Exponent=  7.6766000000D+00 Coefficients=  4.3228000000D-02
     Exponent=  2.2357000000D+00 Coefficients=  1.6301000000D-01
     Exponent=  7.6447000000D-01 Coefficients=  3.6504000000D-01
 P 1 1.00
     Exponent=  2.6232000000D-01 Coefficients=  1.0000000000D+00
 P 1 1.00
     Exponent=  8.4638000000D-02 Coefficients=  1.0000000000D+00
 D 1 1.00
     Exponent=  1.4000000000D+00 Coefficients=  1.0000000000D+00
 D 1 1.00
     Exponent=  4.5000000000D-01 Coefficients=  1.0000000000D+00
 F 1 1.00
     Exponent=  9.5000000000D-01 Coefficients=  1.0000000000D+00
 ****
 Centers:       2
 S 7 1.00
     Exponent=  1.1101000000D+04 Coefficients=  5.4570000000D-04
     Exponent=  1.6653000000D+03 Coefficients=  4.2181000000D-03
     Exponent=  3.7908000000D+02 Coefficients=  2.1645000000D-02
     Exponent=  1.0730000000D+02 Coefficients=  8.3776000000D-02
     Exponent=  3.4747000000D+01 Coefficients=  2.3881000000D-01
     Exponent=  1.2249000000D+01 Coefficients=  4.3994000000D-01
     Exponent=  4.4743000000D+00 Coefficients=  3.6364000000D-01
 S 7 1.00
     Exponent=  1.6653000000D+03 Coefficients= -1.5006000000D-06
     Exponent=  3.7908000000D+02 Coefficients= -5.8753000000D-05
     Exponent=  1.0730000000D+02 Coefficients= -7.7453000000D-04
     Exponent=  3.4747000000D+01 Coefficients= -7.2161000000D-03
     Exponent=  1.2249000000D+01 Coefficients= -3.9338000000D-02
     Exponent=  4.4743000000D+00 Coefficients= -9.0611000000D-02
     Exponent=  1.2404000000D+00 Coefficients=  1.9882000000D-01
 S 1 1.00
     Exponent=  4.8743000000D-01 Coefficients=  1.0000000000D+00
 S 1 1.00
     Exponent=  1.6484000000D-01 Coefficients=  1.0000000000D+00
 P 4 1.00
     Exponent=  4.7934000000D+01 Coefficients=  6.1706000000D-03
     Exponent=  1.0999000000D+01 Coefficients=  4.4260000000D-02
     Exponent=  3.2472000000D+00 Coefficients=  1.6825000000D-01
     Exponent=  1.1114000000D+00 Coefficients=  3.6848000000D-01
 P 1 1.00
     Exponent=  3.7988000000D-01 Coefficients=  1.0000000000D+00
 P 1 1.00
     Exponent=  1.2068000000D-01 Coefficients=  1.0000000000D+00
 D 1 1.00
     Exponent=  1.8000000000D+00 Coefficients=  1.0000000000D+00
 D 1 1.00
     Exponent=  5.5000000000D-01 Coefficients=  1.0000000000D+00
 F 1 1.00
     Exponent=  1.0200000000D+00 Coefficients=  1.0000000000D+00
 ****
 Centers:       1
 S 7 1.00
     Exponent=  1.4782000000D+04 Coefficients=  5.3519000000D-04
     Exponent=  2.2173000000D+03 Coefficients=  4.1375000000D-03
     Exponent=  5.0474000000D+02 Coefficients=  2.1245000000D-02
     Exponent=  1.4287000000D+02 Coefficients=  8.2453000000D-02
     Exponent=  4.6300000000D+01 Coefficients=  2.3671000000D-01
     Exponent=  1.6337000000D+01 Coefficients=  4.4039000000D-01
     Exponent=  5.9828000000D+00 Coefficients=  3.6465000000D-01
 S 7 1.00
     Exponent=  2.2173000000D+03 Coefficients= -1.9275000000D-06
     Exponent=  5.0474000000D+02 Coefficients= -5.7964000000D-05
     Exponent=  1.4287000000D+02 Coefficients= -7.9494000000D-04
     Exponent=  4.6300000000D+01 Coefficients= -7.3125000000D-03
     Exponent=  1.6337000000D+01 Coefficients= -4.0574000000D-02
     Exponent=  5.9828000000D+00 Coefficients= -9.1594000000D-02
     Exponent=  1.6718000000D+00 Coefficients=  2.0940000000D-01
 S 1 1.00
     Exponent=  6.4662000000D-01 Coefficients=  1.0000000000D+00
 S 1 1.00
     Exponent=  2.1669000000D-01 Coefficients=  1.0000000000D+00
 P 4 1.00
     Exponent=  6.0424000000D+01 Coefficients=  6.8949000000D-03
     Exponent=  1.3935000000D+01 Coefficients=  4.9005000000D-02
     Exponent=  4.1531000000D+00 Coefficients=  1.8255000000D-01
     Exponent=  1.4158000000D+00 Coefficients=  3.7633000000D-01
 P 1 1.00
     Exponent=  4.7549000000D-01 Coefficients=  1.0000000000D+00
 P 1 1.00
     Exponent=  1.4529000000D-01 Coefficients=  1.0000000000D+00
 D 1 1.00
     Exponent=  2.2000000000D+00 Coefficients=  1.0000000000D+00
 D 1 1.00
     Exponent=  6.5000000000D-01 Coefficients=  1.0000000000D+00
 F 1 1.00
     Exponent=  1.1000000000D+00 Coefficients=  1.0000000000D+00
 ****
 Ernie: Thresh=  0.10000D-02 Tol=  0.10000D-05 Strict=F.
 Ernie:  7 primitive shells out of 220 were deleted.
 There are   223 symmetry adapted cartesian basis functions of A'  symmetry.
 There are    97 symmetry adapted cartesian basis functions of A"  symmetry.
 There are   190 symmetry adapted basis functions of A'  symmetry.
 There are    90 symmetry adapted basis functions of A"  symmetry.
   280 basis functions,   475 primitive gaussians,   320 cartesian basis functions
    25 alpha electrons       25 beta electrons
       nuclear repulsion energy       276.8386644497 Hartrees.
 IExCor= 4437 DFT=T Ex+Corr=wB97 ExCW=0 ScaHFX=  1.000000
 ScaDFX=  1.000000  1.000000  1.000000  1.000000 ScalE2=  1.000000  1.000000
 IRadAn=      0 IRanWt=     -1 IRanGd=            0 ICorTp=0 IEmpDi=  4
  HFx wShort=  0.000000 wLong=  0.400000 cFull=  0.000000 cShort=  0.000000 cLong=  1.000000
  DFx wShort=  0.000000 wLong=  0.400000 cFull=  0.000000 cShort=  0.000000 cLong=  1.000000
 NAtoms=   12 NActive=   12 NUniq=   12 SFac= 1.00D+00 NAtFMM=   60 NAOKFM=F Big=F
 Integral buffers will be    131072 words long.
 Raffenetti 2 integral format.
 Two-electron integral symmetry is turned on.
 Leave Link  301 at Fri Aug 27 00:13:41 2021, MaxMem= 17179869184 cpu:         1.6
 (Enter /public3/home/sc51754/softwares/g09e01/l302.exe)
 NPDir=0 NMtPBC=     1 NCelOv=     1 NCel=       1 NClECP=     1 NCelD=      1
         NCelK=      1 NCelE2=     1 NClLst=     1 CellRange=     0.0.
 One-electron integrals computed using PRISM.
 NBasis=   280 RedAO= T EigKep=  2.29D-04  NBF=   190    90
 NBsUse=   280 1.00D-06 EigRej= -1.00D+00 NBFU=   190    90
 Precomputing XC quadrature grid using
 IXCGrd= 4 IRadAn=           0 IRanWt=          -1 IRanGd=           0 AccXCQ= 0.00D+00.
 Generated NRdTot=       0 NPtTot=           0 NUsed=           0 NTot=          32
 NSgBfM=   320   320   320   320   320 MxSgAt=    12 MxSgA2=    12.
 Leave Link  302 at Fri Aug 27 00:13:42 2021, MaxMem= 17179869184 cpu:        52.4
 (Enter /public3/home/sc51754/softwares/g09e01/l303.exe)
 DipDrv:  MaxL=1.
 Leave Link  303 at Fri Aug 27 00:13:43 2021, MaxMem= 17179869184 cpu:        13.6
 (Enter /public3/home/sc51754/softwares/g09e01/l401.exe)
 ExpMin= 7.41D-02 ExpMax= 1.48D+04 ExpMxC= 5.05D+02 IAcc=2 IRadAn=         4 AccDes= 0.00D+00
 Harris functional with IExCor= 4437 and IRadAn=       4 diagonalized for initial guess.
 HarFok:  IExCor= 4437 AccDes= 0.00D+00 IRadAn=         4 IDoV= 1 UseB2=F ITyADJ=14
 ICtDFT=  3500011 ScaDFX=  1.000000  1.000000  1.000000  1.000000
 FoFCou: FMM=F IPFlag=           0 FMFlag=      100000 FMFlg1=           0
         NFxFlg=           0 DoJE=T BraDBF=F KetDBF=T FulRan=T
         wScrn=  0.000000 ICntrl=     500 IOpCl=  0 I1Cent=   200000004 NGrid=           0
         NMat0=    1 NMatS0=      1 NMatT0=    0 NMatD0=    1 NMtDS0=    0 NMtDT0=    0
 Petite list used in FoFCou.
 Harris En= -313.600734171526    
 JPrj=0 DoOrth=F DoCkMO=F.
 Initial guess orbital symmetries:
       Occupied  (A') (A') (A') (A') (A') (A') (A') (A') (A') (A')
                 (A') (A') (A') (A') (A') (A') (A') (A') (A") (A')
                 (A') (A") (A") (A') (A")
       Virtual   (A") (A") (A') (A') (A') (A') (A') (A") (A') (A')
                 (A") (A') (A') (A") (A") (A') (A') (A') (A') (A")
                 (A') (A") (A') (A') (A') (A') (A') (A') (A') (A')
                 (A") (A') (A') (A') (A") (A') (A') (A') (A') (A')
                 (A') (A') (A') (A") (A') (A') (A') (A") (A") (A')
                 (A") (A") (A') (A') (A") (A') (A') (A') (A') (A")
                 (A') (A') (A") (A') (A") (A') (A') (A") (A') (A")
                 (A") (A') (A') (A") (A') (A") (A') (A") (A') (A')
                 (A") (A') (A') (A") (A") (A') (A') (A') (A") (A")
                 (A') (A') (A") (A') (A') (A') (A') (A') (A") (A')
                 (A') (A') (A') (A") (A') (A') (A") (A') (A') (A')
                 (A") (A') (A') (A') (A') (A') (A") (A') (A') (A")
                 (A') (A') (A") (A') (A') (A") (A") (A") (A') (A")
                 (A') (A') (A") (A') (A") (A') (A") (A') (A') (A')
                 (A') (A') (A") (A') (A") (A') (A') (A') (A') (A')
                 (A') (A") (A") (A") (A") (A') (A") (A") (A') (A")
                 (A') (A') (A") (A') (A") (A') (A') (A') (A') (A")
                 (A") (A') (A') (A") (A") (A') (A') (A") (A") (A')
                 (A") (A") (A') (A") (A") (A') (A') (A") (A') (A")
                 (A') (A") (A') (A") (A') (A") (A') (A') (A") (A')
                 (A') (A') (A") (A") (A') (A') (A") (A') (A') (A')
                 (A") (A') (A') (A") (A") (A') (A') (A") (A') (A')
                 (A") (A') (A") (A') (A") (A') (A') (A') (A") (A')
                 (A') (A') (A') (A") (A') (A") (A') (A') (A') (A')
                 (A') (A") (A') (A') (A') (A') (A') (A') (A') (A')
                 (A') (A') (A') (A') (A')
 The electronic state of the initial guess is 1-A'.
 Leave Link  401 at Fri Aug 27 00:13:44 2021, MaxMem= 17179869184 cpu:        63.8
 (Enter /public3/home/sc51754/softwares/g09e01/l502.exe)
 Closed shell SCF:
 Using DIIS extrapolation, IDIIS=  1040.
 Integral symmetry usage will be decided dynamically.
 Keep R1 ints in memory in symmetry-blocked form, NReq=2335173138.
 IVT=      348658 IEndB=      348658 NGot= 17179869184 MDV= 16785904737
 LenX= 16785904737 LenY= 16785801896
 Requested convergence on RMS density matrix=1.00D-08 within 128 cycles.
 Requested convergence on MAX density matrix=1.00D-06.
 Requested convergence on             energy=1.00D-06.
 No special actions if energy rises.
 FoFCou: FMM=F IPFlag=           0 FMFlag=           0 FMFlg1=           0
         NFxFlg=           0 DoJE=F BraDBF=F KetDBF=F FulRan=T
         wScrn=  0.000000 ICntrl=     600 IOpCl=  0 I1Cent=           0 NGrid=           0
         NMat0=    1 NMatS0=  39340 NMatT0=    0 NMatD0=    1 NMtDS0=    0 NMtDT0=    0
 Petite list used in FoFCou.
 Integral accuracy reduced to 1.0D-05 until final iterations.

 Cycle   1  Pass 0  IDiag  1:
 E= -323.491879789867    
 DIIS: error= 1.60D-02 at cycle   1 NSaved=   1.
 NSaved= 1 IEnMin= 1 EnMin= -323.491879789867     IErMin= 1 ErrMin= 1.60D-02
 ErrMax= 1.60D-02  0.00D+00 EMaxC= 1.00D-01 BMatC= 1.05D-01 BMatP= 1.05D-01
 IDIUse=3 WtCom= 8.40D-01 WtEn= 1.60D-01
 Coeff-Com:  0.100D+01
 Coeff-En:   0.100D+01
 Coeff:      0.100D+01
 Gap=     0.336 Goal=   None    Shift=    0.000
 GapD=    0.336 DampG=1.000 DampE=0.500 DampFc=0.5000 IDamp=-1.
 Damping current iteration by 5.00D-01
 RMSDP=1.57D-03 MaxDP=7.19D-02              OVMax= 1.50D-01

 Cycle   2  Pass 0  IDiag  1:
 E= -323.534739377369     Delta-E=       -0.042859587502 Rises=F Damp=T
 DIIS: error= 5.84D-03 at cycle   2 NSaved=   2.
 NSaved= 2 IEnMin= 2 EnMin= -323.534739377369     IErMin= 2 ErrMin= 5.84D-03
 ErrMax= 5.84D-03  0.00D+00 EMaxC= 1.00D-01 BMatC= 9.19D-03 BMatP= 1.05D-01
 IDIUse=3 WtCom= 9.42D-01 WtEn= 5.84D-02
 Coeff-Com:  0.210D-01 0.979D+00
 Coeff-En:   0.000D+00 0.100D+01
 Coeff:      0.198D-01 0.980D+00
 Gap=     0.366 Goal=   None    Shift=    0.000
 RMSDP=5.76D-04 MaxDP=2.18D-02 DE=-4.29D-02 OVMax= 7.25D-02

 Cycle   3  Pass 0  IDiag  1:
 E= -323.581821751513     Delta-E=       -0.047082374145 Rises=F Damp=F
 DIIS: error= 3.73D-03 at cycle   3 NSaved=   3.
 NSaved= 3 IEnMin= 3 EnMin= -323.581821751513     IErMin= 3 ErrMin= 3.73D-03
 ErrMax= 3.73D-03  0.00D+00 EMaxC= 1.00D-01 BMatC= 3.03D-03 BMatP= 9.19D-03
 IDIUse=3 WtCom= 9.63D-01 WtEn= 3.73D-02
 Coeff-Com: -0.539D-01 0.345D+00 0.709D+00
 Coeff-En:   0.000D+00 0.000D+00 0.100D+01
 Coeff:     -0.519D-01 0.332D+00 0.720D+00
 Gap=     0.356 Goal=   None    Shift=    0.000
 RMSDP=1.76D-04 MaxDP=8.23D-03 DE=-4.71D-02 OVMax= 2.50D-02

 Cycle   4  Pass 0  IDiag  1:
 E= -323.584291497828     Delta-E=       -0.002469746315 Rises=F Damp=F
 DIIS: error= 1.29D-03 at cycle   4 NSaved=   4.
 NSaved= 4 IEnMin= 4 EnMin= -323.584291497828     IErMin= 4 ErrMin= 1.29D-03
 ErrMax= 1.29D-03  0.00D+00 EMaxC= 1.00D-01 BMatC= 4.80D-04 BMatP= 3.03D-03
 IDIUse=3 WtCom= 9.87D-01 WtEn= 1.29D-02
 Coeff-Com: -0.116D-01-0.748D-02 0.278D+00 0.741D+00
 Coeff-En:   0.000D+00 0.000D+00 0.000D+00 0.100D+01
 Coeff:     -0.115D-01-0.738D-02 0.274D+00 0.745D+00
 Gap=     0.359 Goal=   None    Shift=    0.000
 RMSDP=8.44D-05 MaxDP=2.81D-03 DE=-2.47D-03 OVMax= 7.69D-03

 Cycle   5  Pass 0  IDiag  1:
 E= -323.584806388371     Delta-E=       -0.000514890543 Rises=F Damp=F
 DIIS: error= 4.38D-04 at cycle   5 NSaved=   5.
 NSaved= 5 IEnMin= 5 EnMin= -323.584806388371     IErMin= 5 ErrMin= 4.38D-04
 ErrMax= 4.38D-04  0.00D+00 EMaxC= 1.00D-01 BMatC= 3.06D-05 BMatP= 4.80D-04
 IDIUse=3 WtCom= 9.96D-01 WtEn= 4.38D-03
 Coeff-Com:  0.165D-02-0.318D-01 0.216D-01 0.163D+00 0.846D+00
 Coeff-En:   0.000D+00 0.000D+00 0.000D+00 0.000D+00 0.100D+01
 Coeff:      0.164D-02-0.316D-01 0.215D-01 0.162D+00 0.846D+00
 Gap=     0.359 Goal=   None    Shift=    0.000
 RMSDP=3.33D-05 MaxDP=1.37D-03 DE=-5.15D-04 OVMax= 5.53D-03

 Cycle   6  Pass 0  IDiag  1:
 E= -323.584883981976     Delta-E=       -0.000077593605 Rises=F Damp=F
 DIIS: error= 3.26D-04 at cycle   6 NSaved=   6.
 NSaved= 6 IEnMin= 6 EnMin= -323.584883981976     IErMin= 6 ErrMin= 3.26D-04
 ErrMax= 3.26D-04  0.00D+00 EMaxC= 1.00D-01 BMatC= 7.81D-06 BMatP= 3.06D-05
 IDIUse=3 WtCom= 9.97D-01 WtEn= 3.26D-03
 Coeff-Com:  0.383D-02-0.783D-02-0.465D-01-0.117D+00 0.231D+00 0.935D+00
 Coeff-En:   0.000D+00 0.000D+00 0.000D+00 0.000D+00 0.000D+00 0.100D+01
 Coeff:      0.382D-02-0.781D-02-0.463D-01-0.116D+00 0.231D+00 0.936D+00
 Gap=     0.360 Goal=   None    Shift=    0.000
 RMSDP=2.33D-05 MaxDP=7.32D-04 DE=-7.76D-05 OVMax= 4.21D-03

 Cycle   7  Pass 0  IDiag  1:
 E= -323.584914072322     Delta-E=       -0.000030090346 Rises=F Damp=F
 DIIS: error= 1.05D-04 at cycle   7 NSaved=   7.
 NSaved= 7 IEnMin= 7 EnMin= -323.584914072322     IErMin= 7 ErrMin= 1.05D-04
 ErrMax= 1.05D-04  0.00D+00 EMaxC= 1.00D-01 BMatC= 1.71D-06 BMatP= 7.81D-06
 IDIUse=3 WtCom= 9.99D-01 WtEn= 1.05D-03
 Coeff-Com:  0.130D-02 0.248D-02-0.844D-02-0.515D-01-0.176D+00 0.155D+00
 Coeff-Com:  0.108D+01
 Coeff-En:   0.000D+00 0.000D+00 0.000D+00 0.000D+00 0.000D+00 0.000D+00
 Coeff-En:   0.100D+01
 Coeff:      0.130D-02 0.247D-02-0.843D-02-0.514D-01-0.176D+00 0.155D+00
 Coeff:      0.108D+01
 Gap=     0.360 Goal=   None    Shift=    0.000
 RMSDP=1.30D-05 MaxDP=4.06D-04 DE=-3.01D-05 OVMax= 2.63D-03

 Cycle   8  Pass 0  IDiag  1:
 E= -323.584921236752     Delta-E=       -0.000007164430 Rises=F Damp=F
 DIIS: error= 3.51D-05 at cycle   8 NSaved=   8.
 NSaved= 8 IEnMin= 8 EnMin= -323.584921236752     IErMin= 8 ErrMin= 3.51D-05
 ErrMax= 3.51D-05  0.00D+00 EMaxC= 1.00D-01 BMatC= 1.71D-07 BMatP= 1.71D-06
 IDIUse=1 WtCom= 1.00D+00 WtEn= 0.00D+00
 Coeff-Com:  0.216D-03 0.719D-03 0.550D-02 0.688D-02-0.543D-01-0.904D-01
 Coeff-Com:  0.166D+00 0.966D+00
 Coeff:      0.216D-03 0.719D-03 0.550D-02 0.688D-02-0.543D-01-0.904D-01
 Coeff:      0.166D+00 0.966D+00
 Gap=     0.360 Goal=   None    Shift=    0.000
 RMSDP=3.49D-06 MaxDP=9.97D-05 DE=-7.16D-06 OVMax= 6.65D-04

 Initial convergence to 1.0D-05 achieved.  Increase integral accuracy.
 Cycle   9  Pass 1  IDiag  1:
 E= -323.584710517070     Delta-E=        0.000210719682 Rises=F Damp=F
 DIIS: error= 7.65D-05 at cycle   1 NSaved=   1.
 NSaved= 1 IEnMin= 1 EnMin= -323.584710517070     IErMin= 1 ErrMin= 7.65D-05
 ErrMax= 7.65D-05  0.00D+00 EMaxC= 1.00D-01 BMatC= 2.17D-06 BMatP= 2.17D-06
 IDIUse=1 WtCom= 1.00D+00 WtEn= 0.00D+00
 Coeff-Com:  0.100D+01
 Coeff:      0.100D+01
 Gap=     0.360 Goal=   None    Shift=    0.000
 RMSDP=3.49D-06 MaxDP=9.97D-05 DE= 2.11D-04 OVMax= 1.82D-04

 Cycle  10  Pass 1  IDiag  1:
 E= -323.584711507656     Delta-E=       -0.000000990586 Rises=F Damp=F
 DIIS: error= 1.25D-05 at cycle   2 NSaved=   2.
 NSaved= 2 IEnMin= 2 EnMin= -323.584711507656     IErMin= 2 ErrMin= 1.25D-05
 ErrMax= 1.25D-05  0.00D+00 EMaxC= 1.00D-01 BMatC= 3.57D-08 BMatP= 2.17D-06
 IDIUse=1 WtCom= 1.00D+00 WtEn= 0.00D+00
 Coeff-Com: -0.507D-01 0.105D+01
 Coeff:     -0.507D-01 0.105D+01
 Gap=     0.360 Goal=   None    Shift=    0.000
 RMSDP=9.63D-07 MaxDP=4.20D-05 DE=-9.91D-07 OVMax= 1.16D-04

 Cycle  11  Pass 1  IDiag  1:
 E= -323.584711539556     Delta-E=       -0.000000031901 Rises=F Damp=F
 DIIS: error= 7.47D-06 at cycle   3 NSaved=   3.
 NSaved= 3 IEnMin= 3 EnMin= -323.584711539556     IErMin= 3 ErrMin= 7.47D-06
 ErrMax= 7.47D-06  0.00D+00 EMaxC= 1.00D-01 BMatC= 1.97D-08 BMatP= 3.57D-08
 IDIUse=1 WtCom= 1.00D+00 WtEn= 0.00D+00
 Coeff-Com: -0.344D-01 0.461D+00 0.574D+00
 Coeff:     -0.344D-01 0.461D+00 0.574D+00
 Gap=     0.360 Goal=   None    Shift=    0.000
 RMSDP=3.82D-07 MaxDP=2.41D-05 DE=-3.19D-08 OVMax= 3.85D-05

 Cycle  12  Pass 1  IDiag  1:
 E= -323.584711556748     Delta-E=       -0.000000017191 Rises=F Damp=F
 DIIS: error= 3.41D-06 at cycle   4 NSaved=   4.
 NSaved= 4 IEnMin= 4 EnMin= -323.584711556748     IErMin= 4 ErrMin= 3.41D-06
 ErrMax= 3.41D-06  0.00D+00 EMaxC= 1.00D-01 BMatC= 1.38D-09 BMatP= 1.97D-08
 IDIUse=1 WtCom= 1.00D+00 WtEn= 0.00D+00
 Coeff-Com: -0.294D-02-0.945D-02 0.136D+00 0.877D+00
 Coeff:     -0.294D-02-0.945D-02 0.136D+00 0.877D+00
 Gap=     0.360 Goal=   None    Shift=    0.000
 RMSDP=2.05D-07 MaxDP=7.35D-06 DE=-1.72D-08 OVMax= 4.36D-05

 Cycle  13  Pass 1  IDiag  1:
 E= -323.584711560165     Delta-E=       -0.000000003417 Rises=F Damp=F
 DIIS: error= 1.77D-06 at cycle   5 NSaved=   5.
 NSaved= 5 IEnMin= 5 EnMin= -323.584711560165     IErMin= 5 ErrMin= 1.77D-06
 ErrMax= 1.77D-06  0.00D+00 EMaxC= 1.00D-01 BMatC= 6.40D-10 BMatP= 1.38D-09
 IDIUse=1 WtCom= 1.00D+00 WtEn= 0.00D+00
 Coeff-Com:  0.747D-02-0.120D+00-0.809D-01 0.435D+00 0.758D+00
 Coeff:      0.747D-02-0.120D+00-0.809D-01 0.435D+00 0.758D+00
 Gap=     0.360 Goal=   None    Shift=    0.000
 RMSDP=1.39D-07 MaxDP=4.13D-06 DE=-3.42D-09 OVMax= 2.40D-05

 Cycle  14  Pass 1  IDiag  1:
 E= -323.584711561613     Delta-E=       -0.000000001447 Rises=F Damp=F
 DIIS: error= 1.00D-06 at cycle   6 NSaved=   6.
 NSaved= 6 IEnMin= 6 EnMin= -323.584711561613     IErMin= 6 ErrMin= 1.00D-06
 ErrMax= 1.00D-06  0.00D+00 EMaxC= 1.00D-01 BMatC= 5.82D-11 BMatP= 6.40D-10
 IDIUse=1 WtCom= 1.00D+00 WtEn= 0.00D+00
 Coeff-Com:  0.164D-02-0.109D-01-0.466D-01-0.154D+00 0.477D-02 0.121D+01
 Coeff:      0.164D-02-0.109D-01-0.466D-01-0.154D+00 0.477D-02 0.121D+01
 Gap=     0.360 Goal=   None    Shift=    0.000
 RMSDP=9.50D-08 MaxDP=2.62D-06 DE=-1.45D-09 OVMax= 2.10D-05

 Cycle  15  Pass 1  IDiag  1:
 E= -323.584711561990     Delta-E=       -0.000000000377 Rises=F Damp=F
 DIIS: error= 2.80D-07 at cycle   7 NSaved=   7.
 NSaved= 7 IEnMin= 7 EnMin= -323.584711561990     IErMin= 7 ErrMin= 2.80D-07
 ErrMax= 2.80D-07  0.00D+00 EMaxC= 1.00D-01 BMatC= 7.69D-12 BMatP= 5.82D-11
 IDIUse=1 WtCom= 1.00D+00 WtEn= 0.00D+00
 Coeff-Com: -0.655D-03 0.131D-01 0.173D-02-0.708D-01-0.112D+00 0.231D+00
 Coeff-Com:  0.938D+00
 Coeff:     -0.655D-03 0.131D-01 0.173D-02-0.708D-01-0.112D+00 0.231D+00
 Coeff:      0.938D+00
 Gap=     0.360 Goal=   None    Shift=    0.000
 RMSDP=2.53D-08 MaxDP=8.00D-07 DE=-3.77D-10 OVMax= 5.54D-06

 Cycle  16  Pass 1  IDiag  1:
 E= -323.584711562013     Delta-E=       -0.000000000023 Rises=F Damp=F
 DIIS: error= 8.05D-08 at cycle   8 NSaved=   8.
 NSaved= 8 IEnMin= 8 EnMin= -323.584711562013     IErMin= 8 ErrMin= 8.05D-08
 ErrMax= 8.05D-08  0.00D+00 EMaxC= 1.00D-01 BMatC= 1.38D-12 BMatP= 7.69D-12
 IDIUse=1 WtCom= 1.00D+00 WtEn= 0.00D+00
 Coeff-Com: -0.392D-03 0.529D-02 0.555D-02-0.224D-02-0.425D-01-0.914D-01
 Coeff-Com:  0.293D+00 0.832D+00
 Coeff:     -0.392D-03 0.529D-02 0.555D-02-0.224D-02-0.425D-01-0.914D-01
 Coeff:      0.293D+00 0.832D+00
 Gap=     0.360 Goal=   None    Shift=    0.000
 RMSDP=8.90D-09 MaxDP=3.22D-07 DE=-2.32D-11 OVMax= 1.54D-06

 SCF Done:  E(RwB97) =  -323.584711562     A.U. after   16 cycles
            NFock= 16  Conv=0.89D-08     -V/T= 2.0032
 KE= 3.225365952818D+02 PE=-1.308563049291D+03 EE= 3.856030779979D+02
 Leave Link  502 at Fri Aug 27 00:13:52 2021, MaxMem= 17179869184 cpu:       347.8
 (Enter /public3/home/sc51754/softwares/g09e01/l601.exe)
 Copying SCF densities to generalized density rwf, IOpCl= 0 IROHF=0.

 **********************************************************************

            Population analysis using the SCF density.

 **********************************************************************

 Orbital symmetries:
       Occupied  (A') (A') (A') (A') (A') (A') (A') (A') (A') (A')
                 (A') (A') (A') (A') (A') (A') (A') (A") (A') (A')
                 (A') (A") (A") (A') (A")
       Virtual   (A") (A') (A") (A') (A') (A') (A') (A') (A") (A')
                 (A") (A') (A') (A') (A") (A") (A') (A') (A") (A')
                 (A') (A') (A") (A') (A') (A') (A') (A') (A') (A')
                 (A") (A') (A') (A') (A") (A') (A') (A') (A') (A')
                 (A') (A') (A") (A') (A') (A') (A') (A") (A") (A")
                 (A') (A") (A') (A') (A") (A') (A') (A') (A') (A")
                 (A') (A') (A") (A") (A') (A') (A') (A') (A") (A")
                 (A') (A") (A') (A") (A') (A") (A') (A") (A') (A')
                 (A") (A') (A') (A") (A") (A') (A') (A') (A") (A")
                 (A') (A') (A") (A') (A') (A') (A') (A") (A') (A')
                 (A') (A') (A') (A') (A") (A') (A") (A') (A') (A')
                 (A") (A') (A') (A') (A') (A') (A") (A') (A') (A")
                 (A') (A') (A") (A') (A') (A") (A") (A") (A") (A')
                 (A') (A") (A') (A') (A") (A') (A") (A') (A') (A')
                 (A') (A') (A") (A') (A') (A") (A') (A') (A') (A')
                 (A') (A") (A") (A") (A") (A") (A') (A") (A') (A")
                 (A') (A") (A') (A') (A") (A') (A') (A') (A") (A')
                 (A") (A') (A') (A") (A") (A') (A') (A") (A") (A")
                 (A') (A") (A') (A") (A") (A') (A") (A') (A') (A")
                 (A') (A") (A') (A") (A') (A") (A') (A') (A") (A')
                 (A') (A") (A') (A") (A') (A') (A") (A') (A') (A')
                 (A") (A') (A") (A') (A") (A') (A") (A') (A') (A')
                 (A") (A') (A") (A") (A') (A') (A') (A") (A') (A')
                 (A') (A') (A') (A") (A') (A') (A') (A") (A') (A')
                 (A') (A") (A') (A') (A') (A') (A') (A') (A') (A')
                 (A') (A') (A') (A') (A')
 The electronic state is 1-A'.
 Alpha  occ. eigenvalues --  -18.95131 -14.29238 -10.23779 -10.20234 -10.16516
 Alpha  occ. eigenvalues --  -10.14281 -10.14032  -1.18445  -1.10733  -0.97723
 Alpha  occ. eigenvalues --   -0.91095  -0.79883  -0.77832  -0.69757  -0.63866
 Alpha  occ. eigenvalues --   -0.61776  -0.58919  -0.58188  -0.55150  -0.51106
 Alpha  occ. eigenvalues --   -0.49440  -0.47477  -0.42704  -0.37440  -0.32414
 Alpha virt. eigenvalues --    0.03590   0.08920   0.09432   0.11047   0.12455
 Alpha virt. eigenvalues --    0.14995   0.15570   0.21535   0.22435   0.23402
 Alpha virt. eigenvalues --    0.24304   0.24640   0.26684   0.28128   0.28221
 Alpha virt. eigenvalues --    0.29474   0.31599   0.32640   0.36266   0.36313
 Alpha virt. eigenvalues --    0.36768   0.38123   0.39099   0.39101   0.40224
 Alpha virt. eigenvalues --    0.42391   0.44649   0.45717   0.48002   0.50051
 Alpha virt. eigenvalues --    0.50599   0.51835   0.54832   0.56480   0.58489
 Alpha virt. eigenvalues --    0.58921   0.61384   0.62617   0.65185   0.70026
 Alpha virt. eigenvalues --    0.72122   0.72686   0.74765   0.75437   0.77874
 Alpha virt. eigenvalues --    0.80892   0.86594   0.86721   0.89441   0.91471
 Alpha virt. eigenvalues --    0.92007   0.95042   1.01436   1.02771   1.03611
 Alpha virt. eigenvalues --    1.06027   1.07933   1.09992   1.11841   1.17925
 Alpha virt. eigenvalues --    1.18915   1.21030   1.22953   1.25156   1.25285
 Alpha virt. eigenvalues --    1.26016   1.28632   1.30809   1.30832   1.36185
 Alpha virt. eigenvalues --    1.36255   1.38199   1.38367   1.40537   1.40631
 Alpha virt. eigenvalues --    1.46620   1.50250   1.52348   1.53411   1.55697
 Alpha virt. eigenvalues --    1.56630   1.59268   1.60231   1.62755   1.66979
 Alpha virt. eigenvalues --    1.68150   1.70329   1.73891   1.77369   1.78283
 Alpha virt. eigenvalues --    1.78345   1.79595   1.83373   1.83978   1.87090
 Alpha virt. eigenvalues --    1.91470   1.91831   1.97689   1.97707   2.01289
 Alpha virt. eigenvalues --    2.03918   2.07947   2.12170   2.13234   2.13643
 Alpha virt. eigenvalues --    2.19029   2.19408   2.25722   2.26772   2.32306
 Alpha virt. eigenvalues --    2.34281   2.35745   2.38623   2.39406   2.42465
 Alpha virt. eigenvalues --    2.49342   2.63319   2.73151   2.74939   2.96929
 Alpha virt. eigenvalues --    2.98841   3.02213   3.04592   3.04877   3.27472
 Alpha virt. eigenvalues --    3.27695   3.31343   3.32252   3.34150   3.35544
 Alpha virt. eigenvalues --    3.38323   3.42068   3.42386   3.46606   3.49032
 Alpha virt. eigenvalues --    3.53683   3.57568   3.61344   3.65613   3.67256
 Alpha virt. eigenvalues --    3.70243   3.73463   3.76082   3.77628   3.78970
 Alpha virt. eigenvalues --    3.79188   3.82759   3.88631   3.96184   3.98126
 Alpha virt. eigenvalues --    4.01912   4.04070   4.05808   4.07144   4.10090
 Alpha virt. eigenvalues --    4.11895   4.13509   4.14484   4.18520   4.18666
 Alpha virt. eigenvalues --    4.20404   4.24093   4.25265   4.26103   4.28080
 Alpha virt. eigenvalues --    4.31818   4.31963   4.33152   4.34731   4.35313
 Alpha virt. eigenvalues --    4.36911   4.37635   4.38795   4.39992   4.42726
 Alpha virt. eigenvalues --    4.43059   4.44693   4.45118   4.46620   4.51127
 Alpha virt. eigenvalues --    4.52420   4.56552   4.56592   4.58173   4.59273
 Alpha virt. eigenvalues --    4.60352   4.62228   4.62913   4.67572   4.68774
 Alpha virt. eigenvalues --    4.69460   4.70469   4.73159   4.74762   4.79169
 Alpha virt. eigenvalues --    4.82471   4.85925   4.88903   4.94535   4.96520
 Alpha virt. eigenvalues --    4.98906   5.02692   5.03557   5.06795   5.09280
 Alpha virt. eigenvalues --    5.13155   5.18632   5.23834   5.27596   5.30030
 Alpha virt. eigenvalues --    5.32586   5.36614   5.41647   5.42932   5.44020
 Alpha virt. eigenvalues --    5.46025   5.50450   5.51056   5.52833   5.57597
 Alpha virt. eigenvalues --    5.58243   5.64898   5.67639   5.68646   5.68979
 Alpha virt. eigenvalues --    5.74536   5.80996   5.82359   5.83536   5.89474
 Alpha virt. eigenvalues --    5.94209   6.02007   6.06916   6.07204   6.17453
 Alpha virt. eigenvalues --    6.20055   6.21907   6.24782   6.31226   6.38689
 Alpha virt. eigenvalues --    6.48073   6.60746   6.61335   6.68057   6.90155
 Alpha virt. eigenvalues --    7.05942   7.07956   7.33772   9.61647  12.32765
 Alpha virt. eigenvalues --   13.19199  14.68736  17.78623  18.23376  22.69206
          Condensed to atoms (all electrons):
               1          2          3          4          5          6
     1  O    8.061325  -0.119959   0.615221  -0.068825   0.007031   0.006066
     2  N   -0.119959   6.445905   0.377705  -0.053011   0.371992  -0.014809
     3  C    0.615221   0.377705   4.257683   0.430682  -0.037207  -0.029242
     4  C   -0.068825  -0.053011   0.430682   4.905843  -0.030488   0.563876
     5  C    0.007031   0.371992  -0.037207  -0.030488   4.533680  -0.076430
     6  C    0.006066  -0.014809  -0.029242   0.563876  -0.076430   4.674414
     7  C    0.001269  -0.065790  -0.020402  -0.067881   0.634584   0.450293
     8  H    0.010552   0.400269  -0.025732   0.010273  -0.025292  -0.002727
     9  H    0.001569   0.003791  -0.038266   0.457558   0.000384  -0.035376
    10  H   -0.000744  -0.037124   0.001476  -0.003618   0.438263   0.007080
    11  H   -0.000320  -0.001612   0.004692  -0.035146   0.008070   0.438941
    12  H    0.000021   0.004449  -0.000596   0.005692  -0.034527  -0.032313
               7          8          9         10         11         12
     1  O    0.001269   0.010552   0.001569  -0.000744  -0.000320   0.000021
     2  N   -0.065790   0.400269   0.003791  -0.037124  -0.001612   0.004449
     3  C   -0.020402  -0.025732  -0.038266   0.001476   0.004692  -0.000596
     4  C   -0.067881   0.010273   0.457558  -0.003618  -0.035146   0.005692
     5  C    0.634584  -0.025292   0.000384   0.438263   0.008070  -0.034527
     6  C    0.450293  -0.002727  -0.035376   0.007080   0.438941  -0.032313
     7  C    4.815730   0.005307   0.004746  -0.034580  -0.042577   0.450713
     8  H    0.005307   0.469814  -0.000277  -0.008523   0.000220  -0.000266
     9  H    0.004746  -0.000277   0.564871   0.000227  -0.006647   0.000067
    10  H   -0.034580  -0.008523   0.000227   0.594219  -0.000146  -0.003654
    11  H   -0.042577   0.000220  -0.006647  -0.000146   0.593062  -0.006656
    12  H    0.450713  -0.000266   0.000067  -0.003654  -0.006656   0.578814
 Mulliken charges:
               1
     1  O   -0.513206
     2  N   -0.311808
     3  C    0.463985
     4  C   -0.114957
     5  C    0.209939
     6  C    0.050224
     7  C   -0.131412
     8  H    0.166382
     9  H    0.047352
    10  H    0.047124
    11  H    0.048120
    12  H    0.038256
 Sum of Mulliken charges =  -0.00000
 Mulliken charges with hydrogens summed into heavy atoms:
               1
     1  O   -0.513206
     2  N   -0.145426
     3  C    0.463985
     4  C   -0.067605
     5  C    0.257063
     6  C    0.098344
     7  C   -0.093155
 Electronic spatial extent (au):  <R**2>=            625.9600
 Charge=             -0.0000 electrons
 Dipole moment (field-independent basis, Debye):
    X=             -1.2004    Y=             -4.2284    Z=             -0.0000  Tot=              4.3955
 Quadrupole moment (field-independent basis, Debye-Ang):
   XX=            -31.4480   YY=            -47.9461   ZZ=            -43.1128
   XY=              0.1302   XZ=              0.0000   YZ=             -0.0000
 Traceless Quadrupole moment (field-independent basis, Debye-Ang):
   XX=              9.3876   YY=             -7.1105   ZZ=             -2.2772
   XY=              0.1302   XZ=              0.0000   YZ=             -0.0000
 Octapole moment (field-independent basis, Debye-Ang**2):
  XXX=            -11.5557  YYY=            -30.8230  ZZZ=              0.0000  XYY=              0.1219
  XXY=              0.5298  XXZ=              0.0000  XZZ=             -2.1470  YZZ=              5.3774
  YYZ=             -0.0000  XYZ=              0.0000
 Hexadecapole moment (field-independent basis, Debye-Ang**3):
 XXXX=           -235.0413 YYYY=           -541.6844 ZZZZ=            -46.9125 XXXY=              2.5529
 XXXZ=              0.0000 YYYX=              7.5026 YYYZ=             -0.0000 ZZZX=              0.0000
 ZZZY=             -0.0000 XXYY=           -115.8840 XXZZ=            -60.7395 YYZZ=            -96.3331
 XXYZ=             -0.0000 YYXZ=              0.0000 ZZXY=              1.1673
 N-N= 2.768386644497D+02 E-N=-1.308563043802D+03  KE= 3.225365952818D+02
 Symmetry A'   KE= 3.110567923750D+02
 Symmetry A"   KE= 1.147980290679D+01
 No NMR shielding tensors so no spin-rotation constants.
 Leave Link  601 at Fri Aug 27 00:13:54 2021, MaxMem= 17179869184 cpu:        63.7
 (Enter /public3/home/sc51754/softwares/g09e01/l701.exe)
 Compute integral first derivatives.
 ... and contract with generalized density number  0.
 Leave Link  701 at Fri Aug 27 00:13:55 2021, MaxMem= 17179869184 cpu:        61.2
 (Enter /public3/home/sc51754/softwares/g09e01/l702.exe)
 L702 exits ... SP integral derivatives will be done elsewhere.
 Leave Link  702 at Fri Aug 27 00:13:55 2021, MaxMem= 17179869184 cpu:         0.3
 (Enter /public3/home/sc51754/softwares/g09e01/l703.exe)
 Compute integral first derivatives, UseDBF=F ICtDFT=           0.
 Integral derivatives from FoFJK, PRISM(SPDF).
 Calling FoFJK, ICntrl=      2127 FMM=F ISym2X=1 I1Cent= 0 IOpClX= 0 NMat=1 NMatS=1 NMatT=0.
 FoFJK:  IHMeth= 1 ICntrl=    2127 DoSepK=T KAlg= 0 I1Cent=   0 FoldK=F
 IRaf=         1 NMat=   1 IRICut=       1 DoRegI=T DoRafI=F ISym2E= 1.
 FoFCou: FMM=F IPFlag=           0 FMFlag=      100000 FMFlg1=         800
         NFxFlg=           0 DoJE=F BraDBF=F KetDBF=F FulRan=T
         wScrn=  0.000000 ICntrl=    2527 IOpCl=  0 I1Cent=           0 NGrid=           0
         NMat0=    1 NMatS0=      1 NMatT0=    0 NMatD0=    1 NMtDS0=    0 NMtDT0=    0
 Petite list used in FoFCou.
 Leave Link  703 at Fri Aug 27 00:13:59 2021, MaxMem= 17179869184 cpu:       257.2
 (Enter /public3/home/sc51754/softwares/g09e01/l716.exe)
 Dipole        =-4.72290507D-01-1.66357784D+00-4.79289974D-32
 ***** Axes restored to original set *****
 -------------------------------------------------------------------
 Center     Atomic                   Forces (Hartrees/Bohr)
 Number     Number              X              Y              Z
 -------------------------------------------------------------------
      1        8          -0.000956688    0.009717568   -0.000000000
      2        7          -0.000289861    0.007697080   -0.000000000
      3        6          -0.006646144   -0.009681067    0.000000000
      4        6           0.006451870   -0.001460603    0.000000000
      5        6           0.001860922   -0.003950783    0.000000000
      6        6           0.005236669    0.004192695    0.000000000
      7        6          -0.006370501   -0.004379001   -0.000000000
      8        1          -0.000486001   -0.000177982   -0.000000000
      9        1           0.001286394    0.000378833    0.000000000
     10        1          -0.001373423   -0.000235571   -0.000000000
     11        1           0.001328599   -0.000446998    0.000000000
     12        1          -0.000041836   -0.001654172    0.000000000
 -------------------------------------------------------------------
 Cartesian Forces:  Max     0.009717568 RMS     0.003608912
 Leave Link  716 at Fri Aug 27 00:13:59 2021, MaxMem= 17179869184 cpu:         0.3
 (Enter /public3/home/sc51754/softwares/g09e01/l103.exe)

 GradGradGradGradGradGradGradGradGradGradGradGradGradGradGradGradGradGrad
 Berny optimization.
 FormGI is forming the generalized inverse of G from B-inverse, IUseBI=4.
 Internal  Forces:  Max     0.009763185 RMS     0.002258109
 Search for a local minimum.
 Step number   1 out of a maximum of   64
 All quantities printed in internal units (Hartrees-Bohrs-Radians)
 RMS Force = .22581D-02 SwitMx=.10000D-02 MixMth= 1
 Mixed Optimization -- RFO/linear search
 Second derivative matrix not updated -- first step.
 ITU=  0
     Eigenvalues ---    0.01577   0.01761   0.01972   0.02080   0.02183
     Eigenvalues ---    0.02246   0.02365   0.02483   0.02557   0.16000
     Eigenvalues ---    0.16000   0.16000   0.16000   0.16000   0.22000
     Eigenvalues ---    0.22000   0.23415   0.25000   0.35622   0.35864
     Eigenvalues ---    0.35940   0.36221   0.37867   0.40757   0.44267
     Eigenvalues ---    0.46319   0.50118   0.53776   0.54239   0.98595
 RFO step:  Lambda=-5.39369775D-04 EMin= 1.57720798D-02
 Linear search not attempted -- first point.
 Iteration  1 RMS(Cart)=  0.00619080 RMS(Int)=  0.00000984
 Iteration  2 RMS(Cart)=  0.00000989 RMS(Int)=  0.00000320
 Iteration  3 RMS(Cart)=  0.00000000 RMS(Int)=  0.00000320
 ITry= 1 IFail=0 DXMaxC= 1.82D-02 DCOld= 1.00D+10 DXMaxT= 3.00D-01 DXLimC= 3.00D+00 Rises=F
 ClnCor:  largest displacement from symmetrization is 4.56D-13 for atom    11.
 Variable       Old X    -DE/DX   Delta X   Delta X   Delta X     New X
                                 (Linear)    (Quad)   (Total)
    R1        2.29207   0.00976   0.00000   0.00990   0.00990   2.30197
    R2        2.65138  -0.00151   0.00000  -0.00364  -0.00364   2.64773
    R3        2.56109   0.00546   0.00000   0.00995   0.00994   2.57104
    R4        1.90473   0.00033   0.00000   0.00072   0.00072   1.90545
    R5        2.72731   0.00730   0.00000   0.01854   0.01854   2.74585
    R6        2.55600   0.00102   0.00000   0.00204   0.00205   2.55804
    R7        2.04176   0.00128   0.00000   0.00357   0.00357   2.04533
    R8        2.55244   0.00118   0.00000   0.00222   0.00222   2.55466
    R9        2.04295   0.00133   0.00000   0.00371   0.00371   2.04665
   R10        2.67947   0.00852   0.00000   0.02019   0.02019   2.69966
   R11        2.04676   0.00138   0.00000   0.00387   0.00387   2.05063
   R12        2.03737   0.00165   0.00000   0.00456   0.00456   2.04193
    A1        2.18960  -0.00068   0.00000  -0.00387  -0.00388   2.18571
    A2        1.99125   0.00070   0.00000   0.00417   0.00417   1.99543
    A3        2.10233  -0.00002   0.00000  -0.00029  -0.00029   2.10204
    A4        2.09504  -0.00078   0.00000  -0.00281  -0.00281   2.09224
    A5        2.21834  -0.00104   0.00000  -0.00385  -0.00385   2.21448
    A6        1.96981   0.00182   0.00000   0.00666   0.00666   1.97647
    A7        2.12410  -0.00124   0.00000  -0.00527  -0.00526   2.11884
    A8        2.02595   0.00103   0.00000   0.00520   0.00519   2.03114
    A9        2.13313   0.00021   0.00000   0.00007   0.00007   2.13320
   A10        2.10267   0.00102   0.00000   0.00457   0.00456   2.10723
   A11        2.03035  -0.00095   0.00000  -0.00506  -0.00505   2.02530
   A12        2.15017  -0.00006   0.00000   0.00049   0.00049   2.15066
   A13        2.12246  -0.00021   0.00000   0.00018   0.00019   2.12264
   A14        2.08387  -0.00012   0.00000  -0.00152  -0.00152   2.08235
   A15        2.07686   0.00033   0.00000   0.00134   0.00133   2.07819
   A16        2.05775  -0.00070   0.00000  -0.00227  -0.00227   2.05548
   A17        2.10204   0.00027   0.00000   0.00061   0.00061   2.10265
   A18        2.12340   0.00044   0.00000   0.00166   0.00166   2.12506
    D1        3.14159  -0.00000   0.00000  -0.00000   0.00000   3.14159
    D2       -0.00000   0.00000   0.00000  -0.00000   0.00000   0.00000
    D3        0.00000  -0.00000   0.00000   0.00000   0.00000   0.00000
    D4        3.14159   0.00000   0.00000  -0.00000   0.00000   3.14159
    D5        0.00000  -0.00000   0.00000   0.00000   0.00000   0.00000
    D6        3.14159   0.00000   0.00000   0.00000   0.00000   3.14159
    D7        3.14159  -0.00000   0.00000  -0.00000   0.00000   3.14159
    D8       -0.00000  -0.00000   0.00000  -0.00000   0.00000   0.00000
    D9        3.14159   0.00000   0.00000   0.00000   0.00000   3.14159
   D10        0.00000  -0.00000   0.00000  -0.00000  -0.00000   0.00000
   D11        0.00000   0.00000   0.00000   0.00000   0.00000   0.00000
   D12        3.14159   0.00000   0.00000   0.00000   0.00000   3.14159
   D13        0.00000  -0.00000   0.00000  -0.00000   0.00000   0.00000
   D14        3.14159  -0.00000   0.00000   0.00000   0.00000   3.14159
   D15        3.14159  -0.00000   0.00000  -0.00000   0.00000   3.14159
   D16       -0.00000   0.00000   0.00000   0.00000   0.00000   0.00000
   D17       -0.00000   0.00000   0.00000  -0.00000   0.00000   0.00000
   D18        3.14159  -0.00000   0.00000  -0.00000   0.00000   3.14159
   D19        3.14159  -0.00000   0.00000  -0.00000   0.00000   3.14159
   D20       -0.00000  -0.00000   0.00000  -0.00000   0.00000   0.00000
   D21        0.00000   0.00000   0.00000   0.00000  -0.00000   0.00000
   D22        3.14159   0.00000   0.00000   0.00000   0.00000   3.14159
   D23        3.14159  -0.00000   0.00000  -0.00000   0.00000   3.14159
   D24        0.00000  -0.00000   0.00000  -0.00000   0.00000   0.00000
         Item               Value     Threshold  Converged?
 Maximum Force            0.009763     0.000450     NO 
 RMS     Force            0.002258     0.000300     NO 
 Maximum Displacement     0.018185     0.001800     NO 
 RMS     Displacement     0.006189     0.001200     NO 
 Predicted change in Energy=-2.700130D-04
 Lowest energy point so far.  Saving SCF results.
 GradGradGradGradGradGradGradGradGradGradGradGradGradGradGradGradGradGrad

 Leave Link  103 at Fri Aug 27 00:14:00 2021, MaxMem= 17179869184 cpu:        28.6
 (Enter /public3/home/sc51754/softwares/g09e01/l202.exe)
                          Input orientation:                          
 ---------------------------------------------------------------------
 Center     Atomic      Atomic             Coordinates (Angstroms)
 Number     Number       Type             X           Y           Z
 ---------------------------------------------------------------------
      1          8           0       -0.135987    2.273289   -0.000000
      2          7           0       -1.136402    0.236973   -0.000000
      3          6           0       -0.004156    1.062296   -0.000000
      4          6           0        1.245666    0.321162    0.000000
      5          6           0       -1.116050   -1.123408   -0.000000
      6          6           0        1.262985   -1.032385    0.000000
      7          6           0        0.056135   -1.796848    0.000000
      8          1           0       -2.013296    0.734737   -0.000000
      9          1           0        2.153841    0.909957    0.000000
     10          1           0       -2.081920   -1.613381   -0.000000
     11          1           0        2.215936   -1.551452    0.000000
     12          1           0        0.067352   -2.877331    0.000000
 ---------------------------------------------------------------------
                    Distance matrix (angstroms):
                    1          2          3          4          5
     1  O    0.000000
     2  N    2.268791   0.000000
     3  C    1.218148   1.401120   0.000000
     4  C    2.391603   2.383555   1.453043   0.000000
     5  C    3.535262   1.360534   2.452266   2.768480   0.000000
     6  C    3.589513   2.714467   2.448128   1.353657   2.380776
     7  C    4.074669   2.357663   2.859779   2.429186   1.351865
     8  H    2.427227   1.008321   2.035666   3.285099   2.063432
     9  H    2.664955   3.358364   2.163368   1.082342   3.850554
    10  H    4.346592   2.077936   3.387676   3.849063   1.083042
    11  H    4.490009   3.799557   3.429356   2.109053   3.359368
    12  H    5.154633   3.338850   3.940276   3.408633   2.115819
                    6          7          8          9         10
     6  C    0.000000
     7  C    1.428597   0.000000
     8  H    3.722464   3.269781   0.000000
     9  H    2.136894   3.424495   4.170819   0.000000
    10  H    3.394989   2.145913   2.349121   4.930407   0.000000
    11  H    1.085148   2.173697   4.807605   2.462192   4.298303
    12  H    2.198491   1.080542   4.168469   4.324002   2.493380
                   11         12
    11  H    0.000000
    12  H    2.524751   0.000000
 Stoichiometry    C5H5NO
 Framework group  CS[SG(C5H5NO)]
 Deg. of freedom    21
 Full point group                 CS      NOp   2
 RotChk:  IX=0 Diff= 4.65D-03
 Largest Abelian subgroup         CS      NOp   2
 Largest concise Abelian subgroup C1      NOp   1
                         Standard orientation:                         
 ---------------------------------------------------------------------
 Center     Atomic      Atomic             Coordinates (Angstroms)
 Number     Number       Type             X           Y           Z
 ---------------------------------------------------------------------
      1          8           0       -0.127849    2.273070   -0.000000
      2          7           0       -1.134953    0.240054    0.000000
      3          6           0       -0.000000    1.061650   -0.000000
      4          6           0        1.247379    0.316412   -0.000000
      5          6           0       -1.119073   -1.120387    0.000000
      6          6           0        1.260249   -1.037184    0.000000
      7          6           0        0.050893   -1.797676    0.000000
      8          1           0       -2.010205    0.740698   -0.000000
      9          1           0        2.157485    0.902219   -0.000000
     10          1           0       -2.086548   -1.607182    0.000000
     11          1           0        2.211489   -1.559381    0.000000
     12          1           0        0.058558   -2.878190    0.000000
 ---------------------------------------------------------------------
 Rotational constants (GHZ):      5.6869570      2.8106335      1.8809981
 Leave Link  202 at Fri Aug 27 00:14:00 2021, MaxMem= 17179869184 cpu:         4.5
 (Enter /public3/home/sc51754/softwares/g09e01/l301.exe)
 Basis read from rwf:  (5D, 7F)
 No pseudopotential information found on rwf file.
 There are   223 symmetry adapted cartesian basis functions of A'  symmetry.
 There are    97 symmetry adapted cartesian basis functions of A"  symmetry.
 There are   190 symmetry adapted basis functions of A'  symmetry.
 There are    90 symmetry adapted basis functions of A"  symmetry.
   280 basis functions,   475 primitive gaussians,   320 cartesian basis functions
    25 alpha electrons       25 beta electrons
       nuclear repulsion energy       276.0271977085 Hartrees.
 IExCor= 4437 DFT=T Ex+Corr=wB97 ExCW=0 ScaHFX=  1.000000
 ScaDFX=  1.000000  1.000000  1.000000  1.000000 ScalE2=  1.000000  1.000000
 IRadAn=      0 IRanWt=     -1 IRanGd=            0 ICorTp=0 IEmpDi=  4
  HFx wShort=  0.000000 wLong=  0.400000 cFull=  0.000000 cShort=  0.000000 cLong=  1.000000
  DFx wShort=  0.000000 wLong=  0.400000 cFull=  0.000000 cShort=  0.000000 cLong=  1.000000
 NAtoms=   12 NActive=   12 NUniq=   12 SFac= 1.00D+00 NAtFMM=   60 NAOKFM=F Big=F
 Integral buffers will be    131072 words long.
 Raffenetti 2 integral format.
 Two-electron integral symmetry is turned on.
 No density basis found on file   724.
 Leave Link  301 at Fri Aug 27 00:14:00 2021, MaxMem= 17179869184 cpu:         1.3
 (Enter /public3/home/sc51754/softwares/g09e01/l302.exe)
 NPDir=0 NMtPBC=     1 NCelOv=     1 NCel=       1 NClECP=     1 NCelD=      1
         NCelK=      1 NCelE2=     1 NClLst=     1 CellRange=     0.0.
 One-electron integrals computed using PRISM.
 NBasis=   280 RedAO= T EigKep=  2.34D-04  NBF=   190    90
 NBsUse=   280 1.00D-06 EigRej= -1.00D+00 NBFU=   190    90
 Precomputing XC quadrature grid using
 IXCGrd= 4 IRadAn=           0 IRanWt=          -1 IRanGd=           0 AccXCQ= 0.00D+00.
 Generated NRdTot=       0 NPtTot=           0 NUsed=           0 NTot=          32
 NSgBfM=   320   320   320   320   320 MxSgAt=    12 MxSgA2=    12.
 Leave Link  302 at Fri Aug 27 00:14:01 2021, MaxMem= 17179869184 cpu:        38.6
 (Enter /public3/home/sc51754/softwares/g09e01/l303.exe)
 DipDrv:  MaxL=1.
 Leave Link  303 at Fri Aug 27 00:14:01 2021, MaxMem= 17179869184 cpu:         9.5
 (Enter /public3/home/sc51754/softwares/g09e01/l401.exe)
 Initial guess from the checkpoint file:  "PY_wB97_PC2_OPT_FREQ.chk"
 B after Tr=     0.000000    0.000000    0.000000
         Rot=    0.999999   -0.000000    0.000000    0.001332 Ang=   0.15 deg.
 Guess basis will be translated and rotated to current coordinates.
 JPrj=2 DoOrth=T DoCkMO=T.
 Initial guess orbital symmetries:
       Occupied  (A') (A') (A') (A') (A') (A') (A') (A') (A') (A')
                 (A') (A') (A') (A') (A') (A') (A') (A") (A') (A')
                 (A') (A") (A") (A') (A")
       Virtual   (A') (A') (A') (A') (A') (A') (A') (A') (A') (A')
                 (A') (A') (A') (A') (A') (A') (A') (A') (A') (A')
                 (A') (A') (A') (A') (A') (A') (A') (A') (A') (A')
                 (A') (A') (A') (A') (A') (A') (A') (A') (A') (A')
                 (A') (A') (A') (A') (A') (A') (A') (A') (A') (A')
                 (A') (A') (A') (A') (A') (A') (A') (A') (A') (A')
                 (A') (A') (A') (A') (A') (A') (A') (A') (A') (A')
                 (A') (A') (A') (A') (A') (A') (A') (A') (A') (A')
                 (A') (A') (A') (A') (A') (A') (A') (A') (A') (A')
                 (A') (A') (A') (A') (A') (A') (A') (A') (A') (A')
                 (A') (A') (A') (A') (A') (A') (A') (A') (A') (A')
                 (A') (A') (A') (A') (A') (A') (A') (A') (A') (A')
                 (A') (A') (A') (A') (A') (A') (A') (A') (A') (A')
                 (A') (A') (A') (A') (A') (A') (A') (A') (A') (A')
                 (A') (A') (A') (A') (A') (A') (A') (A') (A') (A')
                 (A') (A') (A') (A') (A') (A') (A') (A') (A') (A')
                 (A') (A') (A') (A') (A') (A') (A') (A') (A') (A")
                 (A") (A") (A") (A") (A") (A") (A") (A") (A") (A")
                 (A") (A") (A") (A") (A") (A") (A") (A") (A") (A")
                 (A") (A") (A") (A") (A") (A") (A") (A") (A") (A")
                 (A") (A") (A") (A") (A") (A") (A") (A") (A") (A")
                 (A") (A") (A") (A") (A") (A") (A") (A") (A") (A")
                 (A") (A") (A") (A") (A") (A") (A") (A") (A") (A")
                 (A") (A") (A") (A") (A") (A") (A") (A") (A") (A")
                 (A") (A") (A") (A") (A") (A") (A") (A") (A") (A")
                 (A") (A") (A") (A") (A")
 The electronic state of the initial guess is 1-A'.
 Leave Link  401 at Fri Aug 27 00:14:02 2021, MaxMem= 17179869184 cpu:        44.2
 (Enter /public3/home/sc51754/softwares/g09e01/l502.exe)
 Closed shell SCF:
 Using DIIS extrapolation, IDIIS=  1040.
 Integral symmetry usage will be decided dynamically.
 Keep R1 ints in memory in symmetry-blocked form, NReq=2335173138.
 IVT=      348658 IEndB=      348658 NGot= 17179869184 MDV= 16785904737
 LenX= 16785904737 LenY= 16785801896
 Requested convergence on RMS density matrix=1.00D-08 within 128 cycles.
 Requested convergence on MAX density matrix=1.00D-06.
 Requested convergence on             energy=1.00D-06.
 No special actions if energy rises.
 FoFCou: FMM=F IPFlag=           0 FMFlag=           0 FMFlg1=           0
         NFxFlg=           0 DoJE=F BraDBF=F KetDBF=F FulRan=T
         wScrn=  0.000000 ICntrl=     600 IOpCl=  0 I1Cent=           0 NGrid=           0
         NMat0=    1 NMatS0=  39340 NMatT0=    0 NMatD0=    1 NMtDS0=    0 NMtDT0=    0
 Petite list used in FoFCou.

 Cycle   1  Pass 1  IDiag  1:
 E= -323.584902877746    
 DIIS: error= 4.27D-04 at cycle   1 NSaved=   1.
 NSaved= 1 IEnMin= 1 EnMin= -323.584902877746     IErMin= 1 ErrMin= 4.27D-04
 ErrMax= 4.27D-04  0.00D+00 EMaxC= 1.00D-01 BMatC= 9.37D-05 BMatP= 9.37D-05
 IDIUse=3 WtCom= 9.96D-01 WtEn= 4.27D-03
 Coeff-Com:  0.100D+01
 Coeff-En:   0.100D+01
 Coeff:      0.100D+01
 Gap=     0.753 Goal=   None    Shift=    0.000
 RMSDP=3.21D-05 MaxDP=8.04D-04              OVMax= 2.82D-03

 Cycle   2  Pass 1  IDiag  1:
 E= -323.584996909435     Delta-E=       -0.000094031689 Rises=F Damp=F
 DIIS: error= 1.68D-04 at cycle   2 NSaved=   2.
 NSaved= 2 IEnMin= 2 EnMin= -323.584996909435     IErMin= 2 ErrMin= 1.68D-04
 ErrMax= 1.68D-04  0.00D+00 EMaxC= 1.00D-01 BMatC= 7.77D-06 BMatP= 9.37D-05
 IDIUse=3 WtCom= 9.98D-01 WtEn= 1.68D-03
 Coeff-Com:  0.599D-01 0.940D+00
 Coeff-En:   0.000D+00 0.100D+01
 Coeff:      0.598D-01 0.940D+00
 Gap=     0.360 Goal=   None    Shift=    0.000
 RMSDP=1.33D-05 MaxDP=6.43D-04 DE=-9.40D-05 OVMax= 1.12D-03

 Cycle   3  Pass 1  IDiag  1:
 E= -323.585005999450     Delta-E=       -0.000009090015 Rises=F Damp=F
 DIIS: error= 1.39D-04 at cycle   3 NSaved=   3.
 NSaved= 3 IEnMin= 3 EnMin= -323.585005999450     IErMin= 3 ErrMin= 1.39D-04
 ErrMax= 1.39D-04  0.00D+00 EMaxC= 1.00D-01 BMatC= 2.78D-06 BMatP= 7.77D-06
 IDIUse=3 WtCom= 9.99D-01 WtEn= 1.39D-03
 Coeff-Com: -0.458D-01 0.336D+00 0.709D+00
 Coeff-En:   0.000D+00 0.000D+00 0.100D+01
 Coeff:     -0.457D-01 0.336D+00 0.710D+00
 Gap=     0.360 Goal=   None    Shift=    0.000
 RMSDP=5.84D-06 MaxDP=2.55D-04 DE=-9.09D-06 OVMax= 1.12D-03

 Cycle   4  Pass 1  IDiag  1:
 E= -323.585009395333     Delta-E=       -0.000003395883 Rises=F Damp=F
 DIIS: error= 4.74D-05 at cycle   4 NSaved=   4.
 NSaved= 4 IEnMin= 4 EnMin= -323.585009395333     IErMin= 4 ErrMin= 4.74D-05
 ErrMax= 4.74D-05  0.00D+00 EMaxC= 1.00D-01 BMatC= 6.38D-07 BMatP= 2.78D-06
 IDIUse=1 WtCom= 1.00D+00 WtEn= 0.00D+00
 Coeff-Com: -0.222D-01 0.823D-03 0.314D+00 0.708D+00
 Coeff:     -0.222D-01 0.823D-03 0.314D+00 0.708D+00
 Gap=     0.360 Goal=   None    Shift=    0.000
 RMSDP=2.77D-06 MaxDP=1.06D-04 DE=-3.40D-06 OVMax= 3.96D-04

 Cycle   5  Pass 1  IDiag  1:
 E= -323.585010369825     Delta-E=       -0.000000974492 Rises=F Damp=F
 DIIS: error= 2.78D-05 at cycle   5 NSaved=   5.
 NSaved= 5 IEnMin= 5 EnMin= -323.585010369825     IErMin= 5 ErrMin= 2.78D-05
 ErrMax= 2.78D-05  0.00D+00 EMaxC= 1.00D-01 BMatC= 9.15D-08 BMatP= 6.38D-07
 IDIUse=1 WtCom= 1.00D+00 WtEn= 0.00D+00
 Coeff-Com:  0.574D-02-0.922D-01-0.500D-01 0.181D+00 0.955D+00
 Coeff:      0.574D-02-0.922D-01-0.500D-01 0.181D+00 0.955D+00
 Gap=     0.360 Goal=   None    Shift=    0.000
 RMSDP=2.18D-06 MaxDP=6.58D-05 DE=-9.74D-07 OVMax= 4.52D-04

 Cycle   6  Pass 1  IDiag  1:
 E= -323.585010734280     Delta-E=       -0.000000364455 Rises=F Damp=F
 DIIS: error= 1.49D-05 at cycle   6 NSaved=   6.
 NSaved= 6 IEnMin= 6 EnMin= -323.585010734280     IErMin= 6 ErrMin= 1.49D-05
 ErrMax= 1.49D-05  0.00D+00 EMaxC= 1.00D-01 BMatC= 1.87D-08 BMatP= 9.15D-08
 IDIUse=1 WtCom= 1.00D+00 WtEn= 0.00D+00
 Coeff-Com:  0.578D-02-0.249D-01-0.625D-01-0.133D+00 0.228D+00 0.987D+00
 Coeff:      0.578D-02-0.249D-01-0.625D-01-0.133D+00 0.228D+00 0.987D+00
 Gap=     0.360 Goal=   None    Shift=    0.000
 RMSDP=1.23D-06 MaxDP=4.04D-05 DE=-3.64D-07 OVMax= 2.80D-04

 Cycle   7  Pass 1  IDiag  1:
 E= -323.585010817032     Delta-E=       -0.000000082752 Rises=F Damp=F
 DIIS: error= 4.68D-06 at cycle   7 NSaved=   7.
 NSaved= 7 IEnMin= 7 EnMin= -323.585010817032     IErMin= 7 ErrMin= 4.68D-06
 ErrMax= 4.68D-06  0.00D+00 EMaxC= 1.00D-01 BMatC= 4.45D-09 BMatP= 1.87D-08
 IDIUse=1 WtCom= 1.00D+00 WtEn= 0.00D+00
 Coeff-Com:  0.968D-03 0.883D-02-0.108D-01-0.102D+00-0.952D-01 0.367D+00
 Coeff-Com:  0.831D+00
 Coeff:      0.968D-03 0.883D-02-0.108D-01-0.102D+00-0.952D-01 0.367D+00
 Coeff:      0.831D+00
 Gap=     0.360 Goal=   None    Shift=    0.000
 RMSDP=5.04D-07 MaxDP=1.59D-05 DE=-8.28D-08 OVMax= 9.85D-05

 Cycle   8  Pass 1  IDiag  1:
 E= -323.585010828467     Delta-E=       -0.000000011434 Rises=F Damp=F
 DIIS: error= 1.65D-06 at cycle   8 NSaved=   8.
 NSaved= 8 IEnMin= 8 EnMin= -323.585010828467     IErMin= 8 ErrMin= 1.65D-06
 ErrMax= 1.65D-06  0.00D+00 EMaxC= 1.00D-01 BMatC= 2.89D-10 BMatP= 4.45D-09
 IDIUse=1 WtCom= 1.00D+00 WtEn= 0.00D+00
 Coeff-Com: -0.714D-03 0.668D-02 0.932D-02-0.750D-02-0.568D-01-0.572D-01
 Coeff-Com:  0.194D+00 0.912D+00
 Coeff:     -0.714D-03 0.668D-02 0.932D-02-0.750D-02-0.568D-01-0.572D-01
 Coeff:      0.194D+00 0.912D+00
 Gap=     0.360 Goal=   None    Shift=    0.000
 RMSDP=1.61D-07 MaxDP=4.64D-06 DE=-1.14D-08 OVMax= 2.76D-05

 Cycle   9  Pass 1  IDiag  1:
 E= -323.585010829203     Delta-E=       -0.000000000737 Rises=F Damp=F
 DIIS: error= 4.97D-07 at cycle   9 NSaved=   9.
 NSaved= 9 IEnMin= 9 EnMin= -323.585010829203     IErMin= 9 ErrMin= 4.97D-07
 ErrMax= 4.97D-07  0.00D+00 EMaxC= 1.00D-01 BMatC= 2.06D-11 BMatP= 2.89D-10
 IDIUse=1 WtCom= 1.00D+00 WtEn= 0.00D+00
 Coeff-Com: -0.157D-03 0.626D-03 0.223D-02 0.266D-02-0.316D-02-0.217D-01
 Coeff-Com: -0.200D-01 0.132D+00 0.907D+00
 Coeff:     -0.157D-03 0.626D-03 0.223D-02 0.266D-02-0.316D-02-0.217D-01
 Coeff:     -0.200D-01 0.132D+00 0.907D+00
 Gap=     0.360 Goal=   None    Shift=    0.000
 RMSDP=3.85D-08 MaxDP=1.59D-06 DE=-7.37D-10 OVMax= 4.37D-06

 Cycle  10  Pass 1  IDiag  1:
 E= -323.585010829257     Delta-E=       -0.000000000054 Rises=F Damp=F
 DIIS: error= 1.41D-07 at cycle  10 NSaved=  10.
 NSaved=10 IEnMin=10 EnMin= -323.585010829257     IErMin=10 ErrMin= 1.41D-07
 ErrMax= 1.41D-07  0.00D+00 EMaxC= 1.00D-01 BMatC= 6.81D-12 BMatP= 2.06D-11
 IDIUse=1 WtCom= 1.00D+00 WtEn= 0.00D+00
 Coeff-Com:  0.800D-04-0.110D-02-0.971D-03 0.208D-02 0.101D-01 0.400D-02
 Coeff-Com: -0.505D-01-0.136D+00 0.342D+00 0.830D+00
 Coeff:      0.800D-04-0.110D-02-0.971D-03 0.208D-02 0.101D-01 0.400D-02
 Coeff:     -0.505D-01-0.136D+00 0.342D+00 0.830D+00
 Gap=     0.360 Goal=   None    Shift=    0.000
 RMSDP=2.21D-08 MaxDP=9.43D-07 DE=-5.41D-11 OVMax= 2.05D-06

 Cycle  11  Pass 1  IDiag  1:
[...]
     35  0.000000D+00 -0.283684D-03 -0.401608D-03  0.000000D+00  0.201471D-03
     36 -0.289504D-01  0.000000D+00  0.000000D+00  0.168464D-02  0.000000D+00
               26            27            28            29            30 
     26  0.147634D+00
     27  0.000000D+00  0.247711D-01
     28 -0.917998D-04  0.000000D+00  0.309080D+00
     29  0.971499D-04  0.000000D+00  0.125449D+00  0.126023D+00
     30  0.000000D+00 -0.117042D-02  0.000000D+00  0.000000D+00  0.253017D-01
     31  0.242806D-03  0.000000D+00 -0.941995D-03  0.768051D-03  0.000000D+00
     32  0.941436D-03  0.000000D+00 -0.785857D-03  0.536795D-03  0.000000D+00
     33  0.000000D+00 -0.649951D-02  0.000000D+00  0.000000D+00 -0.485200D-03
     34 -0.122732D-02  0.000000D+00  0.700957D-03 -0.483913D-03  0.000000D+00
     35 -0.514498D-03  0.000000D+00  0.354300D-03  0.491621D-03  0.000000D+00
     36  0.000000D+00  0.408836D-03  0.000000D+00  0.000000D+00 -0.554854D-02
               31            32            33            34            35 
     31  0.295827D+00
     32 -0.129360D+00  0.129192D+00
     33  0.000000D+00  0.000000D+00  0.274266D-01
     34  0.919722D-03  0.854960D-03  0.000000D+00  0.554857D-01
     35 -0.269417D-03  0.556731D-03  0.000000D+00 -0.479749D-02  0.376217D+00
     36  0.000000D+00  0.000000D+00 -0.189069D-02  0.000000D+00  0.000000D+00
               36 
     36  0.231928D-01
 FormGI is forming the generalized inverse of G from B-inverse, IUseBI=4.
 Leave Link  716 at Fri Aug 27 00:15:42 2021, MaxMem= 17179869184 cpu:        24.8
 (Enter /public3/home/sc51754/softwares/g09e01/l103.exe)

 GradGradGradGradGradGradGradGradGradGradGradGradGradGradGradGradGradGrad
 Berny optimization.
 Red2BG is reusing G-inverse.
 Internal  Forces:  Max     0.000225551 RMS     0.000051815
 Search for a local minimum.
 Step number   1 out of a maximum of    2
 All quantities printed in internal units (Hartrees-Bohrs-Radians)
 Second derivative matrix not updated -- analytic derivatives used.
 ITU=  0
     Eigenvalues ---    0.00788   0.01120   0.01550   0.01788   0.01998
     Eigenvalues ---    0.02287   0.02761   0.03360   0.04935   0.10306
     Eigenvalues ---    0.10757   0.11179   0.12117   0.12778   0.17108
     Eigenvalues ---    0.20062   0.20331   0.23604   0.31962   0.33121
     Eigenvalues ---    0.36700   0.37326   0.37357   0.37738   0.39239
     Eigenvalues ---    0.42719   0.47921   0.54902   0.57361   0.83055
 Angle between quadratic step and forces=  39.03 degrees.
 Linear search not attempted -- first point.
 Iteration  1 RMS(Cart)=  0.00034568 RMS(Int)=  0.00000011
 Iteration  2 RMS(Cart)=  0.00000011 RMS(Int)=  0.00000000
 ITry= 1 IFail=0 DXMaxC= 1.23D-03 DCOld= 1.00D+10 DXMaxT= 3.00D-01 DXLimC= 3.00D+00 Rises=F
 ClnCor:  largest displacement from symmetrization is 1.94D-12 for atom     8.
 Variable       Old X    -DE/DX   Delta X   Delta X   Delta X     New X
                                 (Linear)    (Quad)   (Total)
    R1        2.30461  -0.00023   0.00000  -0.00028  -0.00028   2.30433
    R2        2.63689  -0.00004   0.00000  -0.00013  -0.00013   2.63675
    R3        2.57743   0.00005   0.00000   0.00023   0.00023   2.57765
    R4        1.90486  -0.00000   0.00000  -0.00000  -0.00000   1.90485
    R5        2.75016  -0.00008   0.00000  -0.00010  -0.00010   2.75006
    R6        2.55378  -0.00002   0.00000  -0.00009  -0.00009   2.55370
    R7        2.04469  -0.00000   0.00000   0.00002   0.00002   2.04471
    R8        2.54940  -0.00004   0.00000  -0.00011  -0.00011   2.54929
    R9        2.04649  -0.00004   0.00000  -0.00014  -0.00014   2.04635
   R10        2.70551  -0.00015   0.00000  -0.00033  -0.00033   2.70517
   R11        2.05047  -0.00004   0.00000  -0.00013  -0.00013   2.05033
   R12        2.04144  -0.00000   0.00000   0.00002   0.00002   2.04146
    A1        2.18402  -0.00000   0.00000  -0.00005  -0.00005   2.18397
    A2        1.99864   0.00005   0.00000   0.00051   0.00051   1.99914
    A3        2.10053  -0.00005   0.00000  -0.00046  -0.00046   2.10007
    A4        2.09695   0.00008   0.00000   0.00042   0.00042   2.09737
    A5        2.20654  -0.00006   0.00000  -0.00039  -0.00039   2.20616
    A6        1.97969  -0.00002   0.00000  -0.00003  -0.00003   1.97966
    A7        2.11780   0.00005   0.00000   0.00026   0.00026   2.11806
    A8        2.02980  -0.00011   0.00000  -0.00095  -0.00095   2.02885
    A9        2.13558   0.00006   0.00000   0.00069   0.00069   2.13628
   A10        2.10794  -0.00006   0.00000  -0.00025  -0.00025   2.10769
   A11        2.02242   0.00001   0.00000  -0.00003  -0.00003   2.02239
   A12        2.15282   0.00004   0.00000   0.00028   0.00028   2.15310
   A13        2.12124  -0.00005   0.00000  -0.00037  -0.00037   2.12087
   A14        2.08535   0.00007   0.00000   0.00059   0.00059   2.08594
   A15        2.07659  -0.00002   0.00000  -0.00022  -0.00022   2.07638
   A16        2.05568   0.00008   0.00000   0.00044   0.00044   2.05612
   A17        2.10442  -0.00002   0.00000  -0.00009  -0.00009   2.10433
   A18        2.12309  -0.00005   0.00000  -0.00035  -0.00035   2.12274
    D1        3.14159   0.00000   0.00000  -0.00000   0.00000   3.14159
    D2       -0.00000   0.00000   0.00000   0.00000   0.00000   0.00000
    D3        0.00000   0.00000   0.00000   0.00000  -0.00000   0.00000
    D4        3.14159   0.00000   0.00000   0.00000   0.00000   3.14159
    D5        0.00000  -0.00000   0.00000   0.00000  -0.00000   0.00000
    D6        3.14159  -0.00000   0.00000   0.00000   0.00000   3.14159
    D7        3.14159  -0.00000   0.00000  -0.00000   0.00000   3.14159
    D8       -0.00000  -0.00000   0.00000  -0.00000   0.00000   0.00000
    D9        3.14159  -0.00000   0.00000   0.00000   0.00000   3.14159
   D10       -0.00000  -0.00000   0.00000  -0.00000   0.00000   0.00000
   D11        0.00000   0.00000   0.00000  -0.00000  -0.00000   0.00000
   D12        3.14159   0.00000   0.00000  -0.00000   0.00000   3.14159
   D13       -0.00000  -0.00000   0.00000  -0.00000   0.00000   0.00000
   D14        3.14159  -0.00000   0.00000  -0.00000   0.00000   3.14159
   D15        3.14159   0.00000   0.00000   0.00000   0.00000   3.14159
   D16        0.00000  -0.00000   0.00000   0.00000   0.00000   0.00000
   D17       -0.00000   0.00000   0.00000  -0.00000   0.00000   0.00000
   D18        3.14159   0.00000   0.00000  -0.00000   0.00000   3.14159
   D19        3.14159  -0.00000   0.00000  -0.00000   0.00000   3.14159
   D20       -0.00000  -0.00000   0.00000  -0.00000   0.00000   0.00000
   D21        0.00000  -0.00000   0.00000   0.00000   0.00000   0.00000
   D22        3.14159  -0.00000   0.00000   0.00000   0.00000   3.14159
   D23        3.14159   0.00000   0.00000   0.00000   0.00000   3.14159
   D24        0.00000   0.00000   0.00000   0.00000  -0.00000   0.00000
         Item               Value     Threshold  Converged?
 Maximum Force            0.000226     0.000450     YES
 RMS     Force            0.000052     0.000300     YES
 Maximum Displacement     0.001232     0.001800     YES
 RMS     Displacement     0.000346     0.001200     YES
 Predicted change in Energy=-2.801152D-07
 Optimization completed.
    -- Stationary point found.
                           ----------------------------
                           !   Optimized Parameters   !
                           ! (Angstroms and Degrees)  !
 --------------------------                            --------------------------
 ! Name  Definition              Value          Derivative Info.                !
 --------------------------------------------------------------------------------
 ! R1    R(1,3)                  1.2195         -DE/DX =   -0.0002              !
 ! R2    R(2,3)                  1.3954         -DE/DX =    0.0                 !
 ! R3    R(2,5)                  1.3639         -DE/DX =    0.0                 !
 ! R4    R(2,8)                  1.008          -DE/DX =    0.0                 !
 ! R5    R(3,4)                  1.4553         -DE/DX =   -0.0001              !
 ! R6    R(4,6)                  1.3514         -DE/DX =    0.0                 !
 ! R7    R(4,9)                  1.082          -DE/DX =    0.0                 !
 ! R8    R(5,7)                  1.3491         -DE/DX =    0.0                 !
 ! R9    R(5,10)                 1.083          -DE/DX =    0.0                 !
 ! R10   R(6,7)                  1.4317         -DE/DX =   -0.0002              !
 ! R11   R(6,11)                 1.0851         -DE/DX =    0.0                 !
 ! R12   R(7,12)                 1.0803         -DE/DX =    0.0                 !
 ! A1    A(3,2,5)              125.1349         -DE/DX =    0.0                 !
 ! A2    A(3,2,8)              114.5134         -DE/DX =    0.0                 !
 ! A3    A(5,2,8)              120.3517         -DE/DX =    0.0                 !
 ! A4    A(1,3,2)              120.1464         -DE/DX =    0.0001              !
 ! A5    A(1,3,4)              126.4257         -DE/DX =   -0.0001              !
 ! A6    A(2,3,4)              113.4279         -DE/DX =    0.0                 !
 ! A7    A(3,4,6)              121.341          -DE/DX =    0.0001              !
 ! A8    A(3,4,9)              116.2991         -DE/DX =   -0.0001              !
 ! A9    A(6,4,9)              122.3599         -DE/DX =    0.0001              !
 ! A10   A(2,5,7)              120.7763         -DE/DX =   -0.0001              !
 ! A11   A(2,5,10)             115.8763         -DE/DX =    0.0                 !
 ! A12   A(7,5,10)             123.3474         -DE/DX =    0.0                 !
 ! A13   A(4,6,7)              121.5383         -DE/DX =    0.0                 !
 ! A14   A(4,6,11)             119.4817         -DE/DX =    0.0001              !
 ! A15   A(7,6,11)             118.98           -DE/DX =    0.0                 !
 ! A16   A(5,7,6)              117.7817         -DE/DX =    0.0001              !
 ! A17   A(5,7,12)             120.5744         -DE/DX =    0.0                 !
 ! A18   A(6,7,12)             121.6439         -DE/DX =   -0.0001              !
 ! D1    D(5,2,3,1)            180.0            -DE/DX =    0.0                 !
 ! D2    D(5,2,3,4)              0.0            -DE/DX =    0.0                 !
 ! D3    D(8,2,3,1)              0.0            -DE/DX =    0.0                 !
 ! D4    D(8,2,3,4)            180.0            -DE/DX =    0.0                 !
 ! D5    D(3,2,5,7)              0.0            -DE/DX =    0.0                 !
 ! D6    D(3,2,5,10)           180.0            -DE/DX =    0.0                 !
 ! D7    D(8,2,5,7)            180.0            -DE/DX =    0.0                 !
 ! D8    D(8,2,5,10)             0.0            -DE/DX =    0.0                 !
 ! D9    D(1,3,4,6)            180.0            -DE/DX =    0.0                 !
 ! D10   D(1,3,4,9)              0.0            -DE/DX =    0.0                 !
 ! D11   D(2,3,4,6)              0.0            -DE/DX =    0.0                 !
 ! D12   D(2,3,4,9)            180.0            -DE/DX =    0.0                 !
 ! D13   D(3,4,6,7)              0.0            -DE/DX =    0.0                 !
 ! D14   D(3,4,6,11)           180.0            -DE/DX =    0.0                 !
 ! D15   D(9,4,6,7)            180.0            -DE/DX =    0.0                 !
 ! D16   D(9,4,6,11)             0.0            -DE/DX =    0.0                 !
 ! D17   D(2,5,7,6)              0.0            -DE/DX =    0.0                 !
 ! D18   D(2,5,7,12)           180.0            -DE/DX =    0.0                 !
 ! D19   D(10,5,7,6)           180.0            -DE/DX =    0.0                 !
 ! D20   D(10,5,7,12)            0.0            -DE/DX =    0.0                 !
 ! D21   D(4,6,7,5)              0.0            -DE/DX =    0.0                 !
 ! D22   D(4,6,7,12)           180.0            -DE/DX =    0.0                 !
 ! D23   D(11,6,7,5)           180.0            -DE/DX =    0.0                 !
 ! D24   D(11,6,7,12)            0.0            -DE/DX =    0.0                 !
 --------------------------------------------------------------------------------
 GradGradGradGradGradGradGradGradGradGradGradGradGradGradGradGradGradGrad

 Leave Link  103 at Fri Aug 27 00:15:43 2021, MaxMem= 17179869184 cpu:        68.5
 (Enter /public3/home/sc51754/softwares/g09e01/l9999.exe)
 1\1\GINC-S2515\Freq\RwB97\Gen\C5H5N1O1\SC51754\27-Aug-2021\0\\#P Geom=
 AllCheck Guess=TCheck SCRF=Check GenChk RwB97/ChkBas Freq\\PY_wB97_PC2
 _OPT_FREQ\\0,1\O,-0.1324875427,2.2728350564,0.\N,-1.1361023259,0.23902
 40252,0.\C,-0.0075772537,1.0597037555,0.\C,1.245764672,0.3200449612,0.
 \C,-1.1149095907,-1.1247266963,0.\C,1.2644936726,-1.0312297319,0.\C,0.
 0547707672,-1.7969413587,0.\H,-2.0137607152,0.7347994992,0.\H,2.151622
 3027,0.91178289,0.\H,-2.0818247759,-1.6124433697,0.\H,2.2163633569,-1.
 5520961881,0.\H,0.0677504328,-2.877144843,0.\\Version=EM64L-G09RevE.01
 \State=1-A'\HF=-323.5850508\RMSD=2.941e-09\RMSF=8.271e-05\ZeroPoint=0.
 0949537\Thermal=0.1001853\Dipole=-0.4602454,-1.6775673,0.\DipoleDeriv=
 -0.4627199,0.2491902,0.,0.0479539,-1.8565789,0.,0.,0.,-0.444374,-0.387
 1359,-0.5765016,0.,0.4095118,-0.8827577,0.,0.,0.,-0.2485608,0.4917625,
 -0.1552654,0.,-0.01779,2.3362847,0.,0.,0.,0.3064487,-0.0685933,0.53781
 17,0.,-0.0714438,-0.6639882,0.,0.,0.,-0.190319,0.3660031,-0.0369991,0.
 ,-0.6586983,0.4778175,0.,0.,0.,-0.0009977,0.4315932,0.2598667,0.,0.217
 8655,0.5159299,0.,0.,0.,-0.0663672,-0.6431577,-0.2131504,0.,0.1281107,
 -0.1594826,0.,0.,0.,-0.2308116,0.2444905,-0.0338366,0.,-0.0275784,0.14
 07547,0.,0.,0.,0.2837844,0.0092316,-0.0266997,0.,-0.0420977,0.0372408,
 0.,0.,0.,0.1527541,-0.005152,-0.0457778,0.,-0.0290937,0.0410248,0.,0.,
 0.,0.1427868,-0.040549,0.0615803,0.,0.0612526,0.0514129,0.,0.,0.,0.125
 8201,0.064227,-0.0202183,0.,-0.0179926,-0.037658,0.,0.,0.,0.1698363\Po
 lar=70.6444238,-0.3786114,87.9723787,0.,0.,37.6900231\PG=CS [SG(C5H5N1
 O1)]\NImag=0\\0.09980399,-0.06166582,0.79457549,0.,0.,0.03469920,0.012
 99881,-0.04516122,0.,0.78018528,-0.07162044,-0.07818105,0.,-0.10278542
 ,0.78371395,0.,0.,0.02043032,0.,0.,0.07546071,-0.11167988,0.07623337,0
 .,-0.23617375,0.00983780,0.,0.58650667,0.07086938,-0.66171252,0.,-0.03
 784808,-0.15110015,0.,-0.08734724,0.95602740,0.,0.,-0.07701696,0.,0.,-
 0.06271656,0.,0.,0.20842452,0.00345291,0.02849991,0.,-0.03857760,-0.01
 487900,0.,-0.22751960,0.05040277,0.,0.66120060,0.05326396,-0.05449228,
 0.,-0.00996421,0.05166564,0.,0.02561005,-0.12384954,0.,0.07375020,0.82
 302432,0.,0.,0.02321984,0.,0.,0.00733248,0.,0.,-0.08168040,0.,0.,0.119
 34536,-0.01053257,-0.00145995,0.,-0.14807852,-0.02595855,0.,0.03962486
 ,-0.02558155,0.,-0.01603476,0.02306940,0.,0.87174183,0.01642935,-0.001
 76773,0.,0.03005659,-0.33830147,0.,-0.08605076,-0.02754267,0.,0.022821
 23,-0.04094157,0.,-0.02612521,0.69578446,0.,0.,0.00541112,0.,0.,-0.046
 24193,0.,0.,-0.00346929,0.,0.,0.00009293,0.,0.,0.14535066,-0.01511641,
 0.01106810,0.,-0.00680846,-0.03914801,0.,0.04633645,0.02856274,0.,-0.1
 3900726,0.03302179,0.,-0.06031066,0.02311150,0.,0.68659619,-0.00748172
 ,0.01449416,0.,-0.00263264,-0.04348129,0.,0.05127789,-0.02784147,0.,-0
 .01768416,-0.47496544,0.,-0.02081793,0.05905704,0.,-0.05567590,0.78969
 774,0.,0.,0.00356833,0.,0.,-0.00616188,0.,0.,0.00049019,0.,0.,-0.05696
 046,0.,0.,0.00825567,0.,0.,0.14677430,0.01268392,-0.01065501,0.,0.0112
 9527,0.07494706,0.,-0.05906784,0.00278290,0.,0.03055956,-0.05835502,0.
 ,-0.38526088,0.11103607,0.,-0.23575313,-0.04526706,0.,0.70615571,-0.00
 280426,-0.00668102,0.,0.03464182,-0.04512290,0.,0.01181509,0.00798279,
 0.,-0.03141922,-0.02446479,0.,0.16315944,-0.20454024,0.,-0.09985222,-0
 .17049441,0.,-0.07635499,0.78782304,0.,0.,0.00000214,0.,0.,0.01321834,
 0.,0.,-0.00833735,0.,0.,0.00796932,0.,0.,-0.06707579,0.,0.,-0.06357215
 ,0.,0.,0.11926159,0.00481310,0.00119486,0.,-0.37127234,0.16216400,0.,-
 0.02305270,0.01854012,0.,-0.00408117,-0.00296519,0.,0.00732270,-0.0003
 2849,0.,-0.00150858,-0.00291907,0.,0.00475793,-0.00256115,0.,0.3828574
 9,0.00473236,-0.00263083,0.,0.16176264,-0.16081580,0.,-0.01883641,0.02
 162391,0.,-0.00271042,-0.00352215,0.,0.03229675,-0.01164745,0.,0.00007
 356,0.00075280,0.,-0.00377477,-0.00561329,0.,-0.17334256,0.16090461,0.
 ,0.,-0.00485768,0.,0.,-0.01597954,0.,0.,0.00348208,0.,0.,0.00438989,0.
 ,0.,-0.00562758,0.,0.,-0.00042312,0.,0.,0.00469258,0.,0.,0.01613581,0.
 00295695,0.00146090,0.,-0.00523205,0.00245362,0.,-0.01569039,-0.020360
 01,0.,-0.26983763,-0.13403677,0.,-0.00013409,0.00258402,0.,0.00631111,
 0.00369717,0.,0.00229268,0.00079254,0.,-0.00097373,-0.00093704,0.,0.27
 929806,-0.00197605,0.00044438,0.,0.00368419,-0.00116998,0.,0.01453724,
 0.01156423,0.,-0.13588676,-0.14290830,0.,0.00063229,-0.00107727,0.,-0.
 02721949,-0.01096424,0.,0.00174599,-0.00467713,0.,0.00077793,0.0006307
 1,0.,0.14478098,0.14763351,0.,0.,-0.00222831,0.,0.,0.00415318,0.,0.,0.
 00300218,0.,0.,-0.03492438,0.,0.,-0.00064760,0.,0.,0.00357833,0.,0.,0.
 01002778,0.,0.,-0.00047121,0.,0.,0.02477114,-0.00011848,-0.00010265,0.
 ,0.00555575,0.00285729,0.,0.00191101,0.00156166,0.,0.00048154,0.000695
 05,0.,-0.29972711,-0.11825808,0.,-0.00366944,0.00376398,0.,-0.01406804
 ,-0.01493779,0.,0.00080154,-0.00050514,0.,-0.00000611,-0.00009180,0.,0
 .30908036,-0.00169789,-0.00275542,0.,-0.03509041,-0.01837680,0.,0.0061
 3101,-0.00092817,0.,-0.00001162,-0.00000671,0.,-0.11158010,-0.11740605
 ,0.,0.00291016,-0.00155693,0.,0.01402326,0.01319542,0.,-0.00029480,0.0
 0068609,0.,-0.00012278,0.00009715,0.,0.12544904,0.12602301,0.,0.,-0.00
 021205,0.,0.,0.00301570,0.,0.,0.00497868,0.,0.,-0.00015594,0.,0.,-0.04
 015907,0.,0.,0.00867261,0.,0.,0.00808071,0.,0.,-0.00231813,0.,0.,-0.00
 117042,0.,0.,0.02530166,-0.00001296,0.00058123,0.,0.00118519,-0.000270
 99,0.,0.00092837,-0.00145496,0.,0.00402716,-0.00217623,0.,-0.00372631,
 -0.00409310,0.,-0.28308505,0.12105219,0.,-0.01599276,0.01494968,0.,0.0
 0004096,0.00003066,0.,0.00083076,0.00024281,0.,-0.00094200,0.00076805,
 0.,0.29582692,0.00182834,-0.00131439,0.,0.00035507,-0.00036868,0.,-0.0
 0265918,-0.00465815,0.,0.02974036,-0.00981665,0.,-0.00359916,-0.001420
 23,0.,0.11952870,-0.12581721,0.,-0.01540726,0.01213564,0.,0.00001802,0
 .00003302,0.,-0.00051409,0.00094144,0.,-0.00078586,0.00053680,0.,-0.12
 935991,0.12919169,0.,0.,-0.00253016,0.,0.,-0.00077284,0.,0.,0.01304657
 ,0.,0.,0.00787596,0.,0.,0.00413954,0.,0.,-0.04428582,0.,0.,0.00468325,
 0.,0.,-0.00070773,0.,0.,-0.00649951,0.,0.,-0.00048520,0.,0.,0.02742664
 ,0.00075060,0.00000630,0.,-0.00507758,0.00240263,0.,-0.00212320,-0.000
 12773,0.,-0.00466375,-0.00191303,0.,0.00511550,0.02881689,0.,0.0060152
 4,-0.02731276,0.,-0.05760243,0.00257108,0.,0.00029480,0.00121038,0.,0.
 00018444,-0.00122732,0.,0.00070096,-0.00048391,0.,0.00091972,0.0008549
 6,0.,0.05548569,0.00012278,0.00002121,0.,0.00298166,0.00153853,0.,-0.0
 0054884,0.00043435,0.,-0.00262328,0.00027748,0.,-0.00403543,-0.0101968
 2,0.,0.00361907,-0.00888074,0.,0.00527884,-0.35954312,0.,-0.00028368,-
 0.00040161,0.,0.00020147,-0.00051450,0.,0.00035430,0.00049162,0.,-0.00
 026942,0.00055673,0.,-0.00479749,0.37621686,0.,0.,-0.00048579,0.,0.,0.
 00826203,0.,0.,-0.00020364,0.,0.,0.00349539,0.,0.,-0.00002865,0.,0.,0.
 00006400,0.,0.,-0.02895041,0.,0.,0.00168464,0.,0.,0.00040884,0.,0.,-0.
 00554854,0.,0.,-0.00189069,0.,0.,0.02319283\\-0.00006312,0.00021946,0.
 ,-0.00010589,-0.00008699,0.,0.00004655,-0.00020529,0.,0.00009364,0.000
 06903,0.,0.00007011,0.00017565,0.,-0.00000952,0.00008325,0.,-0.0000918
 9,-0.00021249,0.,0.00003286,0.00005966,0.,0.00005763,-0.00008403,0.,-0
 .00004351,-0.00001589,0.,0.00005032,0.00000152,0.,-0.00003718,-0.00000
 387,0.\\\@


 ONLY A FOOL KNOWS EVERYTHING.

               -- THE CHEMIST ANALYST, SEPTEMBER 1946
 Job cpu time:       0 days  0 hours 51 minutes 43.1 seconds.
 File lengths (MBytes):  RWF=     80 Int=      0 D2E=      0 Chk=      7 Scr=      1
 Normal termination of Gaussian 09 at Fri Aug 27 00:15:43 2021.
