 Entering Gaussian System, Link 0=g09
 AtFile(1): pc-2.gbs
            -H     0
            S    4   1.00
                  0.754230D+02           0.240650D-02
                  0.113500D+02           0.184870D-01
                  0.259930D+01           0.897420D-01
                  0.735130D+00           0.281110D+00
            S    1   1.00
                  0.231670D+00           0.100000D+01
            S    1   1.00
                  0.741470D-01           0.100000D+01
            P    1   1.00
                  0.160000D+01           0.100000D+01
            P    1   1.00
                  0.450000D+00           0.100000D+01
            D    1   1.00
                  0.125000D+01           0.100000D+01
            ****
            -C     0
            S    7   1.00
                  0.785710D+04           0.568250D-03
                  0.117870D+04           0.439150D-02
                  0.268320D+03           0.225040D-01
                  0.759480D+02           0.866530D-01
                  0.245590D+02           0.244050D+00
                  0.862120D+01           0.441480D+00
                  0.312780D+01           0.353320D+00
            S    7   1.00
                  0.117870D+04          -0.594920D-06
                  0.268320D+03          -0.627480D-04
                  0.759480D+02          -0.757730D-03
                  0.245590D+02          -0.733080D-02
                  0.862120D+01          -0.389320D-01
                  0.312780D+01          -0.889080D-01
                  0.822020D+00           0.216890D+00
            S    1   1.00
                  0.330170D+00           0.100000D+01
            S    1   1.00
                  0.114630D+00           0.100000D+01
            P    4   1.00
                  0.337750D+02           0.602940D-02
                  0.767660D+01           0.432280D-01
                  0.223570D+01           0.163010D+00
                  0.764470D+00           0.365040D+00
            P    1   1.00
                  0.262320D+00           0.100000D+01
            P    1   1.00
                  0.846380D-01           0.100000D+01
            D    1   1.00
                  0.140000D+01           0.100000D+01
            D    1   1.00
                  0.450000D+00           0.100000D+01
            F    1   1.00
                  0.950000D+00           0.100000D+01
            ****
            -N     0
            S    7   1.00
                  0.111010D+05           0.545700D-03
                  0.166530D+04           0.421810D-02
                  0.379080D+03           0.216450D-01
                  0.107300D+03           0.837760D-01
                  0.347470D+02           0.238810D+00
                  0.122490D+02           0.439940D+00
                  0.447430D+01           0.363640D+00
            S    7   1.00
                  0.166530D+04          -0.150060D-05
                  0.379080D+03          -0.587530D-04
                  0.107300D+03          -0.774530D-03
                  0.347470D+02          -0.721610D-02
                  0.122490D+02          -0.393380D-01
                  0.447430D+01          -0.906110D-01
                  0.124040D+01           0.198820D+00
            S    1   1.00
                  0.487430D+00           0.100000D+01
            S    1   1.00
                  0.164840D+00           0.100000D+01
            P    4   1.00
                  0.479340D+02           0.617060D-02
                  0.109990D+02           0.442600D-01
                  0.324720D+01           0.168250D+00
                  0.111140D+01           0.368480D+00
            P    1   1.00
                  0.379880D+00           0.100000D+01
            P    1   1.00
                  0.120680D+00           0.100000D+01
            D    1   1.00
                  0.180000D+01           0.100000D+01
            D    1   1.00
                  0.550000D+00           0.100000D+01
            F    1   1.00
                  0.102000D+01           0.100000D+01
            ****
            -O     0
            S    7   1.00
                  0.147820D+05           0.535190D-03
                  0.221730D+04           0.413750D-02
                  0.504740D+03           0.212450D-01
                  0.142870D+03           0.824530D-01
                  0.463000D+02           0.236710D+00
                  0.163370D+02           0.440390D+00
                  0.598280D+01           0.364650D+00
            S    7   1.00
                  0.221730D+04          -0.192750D-05
                  0.504740D+03          -0.579640D-04
                  0.142870D+03          -0.794940D-03
                  0.463000D+02          -0.731250D-02
                  0.163370D+02          -0.405740D-01
                  0.598280D+01          -0.915940D-01
                  0.167180D+01           0.209400D+00
            S    1   1.00
                  0.646620D+00           0.100000D+01
            S    1   1.00
                  0.216690D+00           0.100000D+01
            P    4   1.00
                  0.604240D+02           0.689490D-02
                  0.139350D+02           0.490050D-01
                  0.415310D+01           0.182550D+00
                  0.141580D+01           0.376330D+00
            P    1   1.00
                  0.475490D+00           0.100000D+01
            P    1   1.00
                  0.145290D+00           0.100000D+01
            D    1   1.00
                  0.220000D+01           0.100000D+01
            D    1   1.00
                  0.650000D+00           0.100000D+01
            F    1   1.00
                  0.110000D+01           0.100000D+01
            ****
 Initial command:
 /public3/home/sc51754/softwares/g09e01/l1.exe "./Gau-18575.inp" -scrdir="./"
 Entering Link 1 = /public3/home/sc51754/softwares/g09e01/l1.exe PID=     18576.
  
 Copyright (c) 1988,1990,1992,1993,1995,1998,2003,2009,2015,
            Gaussian, Inc.  All Rights Reserved.
  
 This is part of the Gaussian(R) 09 program.  It is based on
 the Gaussian(R) 03 system (copyright 2003, Gaussian, Inc.),
 the Gaussian(R) 98 system (copyright 1998, Gaussian, Inc.),
 the Gaussian(R) 94 system (copyright 1995, Gaussian, Inc.),
 the Gaussian 92(TM) system (copyright 1992, Gaussian, Inc.),
 the Gaussian 90(TM) system (copyright 1990, Gaussian, Inc.),
 the Gaussian 88(TM) system (copyright 1988, Gaussian, Inc.),
 the Gaussian 86(TM) system (copyright 1986, Carnegie Mellon
 University), and the Gaussian 82(TM) system (copyright 1983,
 Carnegie Mellon University). Gaussian is a federally registered
 trademark of Gaussian, Inc.
  
 This software contains proprietary and confidential information,
 including trade secrets, belonging to Gaussian, Inc.
  
 This software is provided under written license and may be
 used, copied, transmitted, or stored only in accord with that
 written license.
  
 The following legend is applicable only to US Government
 contracts under FAR:
  
                    RESTRICTED RIGHTS LEGEND
  
 Use, reproduction and disclosure by the US Government is
 subject to restrictions as set forth in subparagraphs (a)
 and (c) of the Commercial Computer Software - Restricted
 Rights clause in FAR 52.227-19.
  
 Gaussian, Inc.
 340 Quinnipiac St., Bldg. 40, Wallingford CT 06492
  
  
 ---------------------------------------------------------------
 Warning -- This program may not be used in any manner that
 competes with the business of Gaussian, Inc. or will provide
 assistance to any competitor of Gaussian, Inc.  The licensee
 of this program is prohibited from giving any competitor of
 Gaussian, Inc. access to this program.  By using this program,
 the user acknowledges that Gaussian, Inc. is engaged in the
 business of creating and licensing software in the field of
 computational chemistry and represents and warrants to the
 licensee that it is not a competitor of Gaussian, Inc. and that
 it will not use this program in any manner prohibited above.
 ---------------------------------------------------------------
  

 Cite this work as:
 Gaussian 09, Revision E.01,
 M. J. Frisch, G. W. Trucks, H. B. Schlegel, G. E. Scuseria, 
 M. A. Robb, J. R. Cheeseman, G. Scalmani, V. Barone, B. Mennucci, 
 G. A. Petersson, H. Nakatsuji, M. Caricato, X. Li, H. P. Hratchian, 
 A. F. Izmaylov, J. Bloino, G. Zheng, J. L. Sonnenberg, M. Hada, 
 M. Ehara, K. Toyota, R. Fukuda, J. Hasegawa, M. Ishida, T. Nakajima, 
 Y. Honda, O. Kitao, H. Nakai, T. Vreven, J. A. Montgomery, Jr., 
 J. E. Peralta, F. Ogliaro, M. Bearpark, J. J. Heyd, E. Brothers, 
 K. N. Kudin, V. N. Staroverov, T. Keith, R. Kobayashi, J. Normand, 
 K. Raghavachari, A. Rendell, J. C. Burant, S. S. Iyengar, J. Tomasi, 
 M. Cossi, N. Rega, J. M. Millam, M. Klene, J. E. Knox, J. B. Cross, 
 V. Bakken, C. Adamo, J. Jaramillo, R. Gomperts, R. E. Stratmann, 
 O. Yazyev, A. J. Austin, R. Cammi, C. Pomelli, J. W. Ochterski, 
 R. L. Martin, K. Morokuma, V. G. Zakrzewski, G. A. Voth, 
 P. Salvador, J. J. Dannenberg, S. Dapprich, A. D. Daniels, 
 O. Farkas, J. B. Foresman, J. V. Ortiz, J. Cioslowski, 
 and D. J. Fox, Gaussian, Inc., Wallingford CT, 2013.
 
 ******************************************
 Gaussian 09:  EM64L-G09RevE.01 30-Nov-2015
                27-Aug-2021 
 ******************************************
 %nprocshared=64
 Will use up to   64 processors via shared memory.
 %mem=128GB
 %chk=PY_BP86_PC2_OPT_FREQ.chk
 --------------------
 #p opt freq BP86/gen
 --------------------
 1/14=-1,18=20,19=15,26=3,38=1/1,3;
 2/9=110,12=2,17=6,18=5,40=1/2;
 3/5=7,11=2,16=1,25=1,30=1,71=1,74=404/1,2,3;
 4//1;
 5/5=2,38=5/2;
 6/7=2,8=2,9=2,10=2,28=1/1;
 7//1,2,3,16;
 1/14=-1,18=20,19=15,26=3/3(2);
 2/9=110/2;
 99//99;
 2/9=110/2;
 3/5=7,6=1,11=2,16=1,25=1,30=1,71=1,74=404,82=7/1,2,3;
 4/5=5,16=3,69=1/1;
 5/5=2,38=5/2;
 7//1,2,3,16;
 1/14=-1,18=20,19=15,26=3/3(-5);
 2/9=110/2;
 6/7=2,8=2,9=2,10=2,19=2,28=1/1;
 99/9=1/99;
 Leave Link    1 at Fri Aug 27 00:00:17 2021, MaxMem= 17179869184 cpu:       319.6
 (Enter /public3/home/sc51754/softwares/g09e01/l101.exe)
 --------------------
 PY_BP86_PC2_OPT_FREQ
 --------------------
 Symbolic Z-matrix:
 Charge =  0 Multiplicity = 1
 O                    -0.1303    2.2679    0. 
 N                    -1.13214   0.23327   0. 
 C                     0.        1.06201   0. 
 C                     1.23795   0.32011   0. 
 C                    -1.11441  -1.12189   0. 
 C                     1.25607  -1.03234   0. 
 C                     0.05856  -1.79159   0. 
 H                    -2.00762   0.73274   0. 
 H                     2.14422   0.90837   0. 
 H                    -2.07697  -1.61403   0. 
 H                     2.20675  -1.5513    0. 
 H                     0.072    -2.86964   0. 
 
 NAtoms=     12 NQM=       12 NQMF=       0 NMMI=      0 NMMIF=      0
                NMic=       0 NMicF=      0.
                    Isotopes and Nuclear Properties:
 (Nuclear quadrupole moments (NQMom) in fm**2, nuclear magnetic moments (NMagM)
  in nuclear magnetons)

  Atom         1           2           3           4           5           6           7           8           9          10
 IAtWgt=          16          14          12          12          12          12          12           1           1           1
 AtmWgt=  15.9949146  14.0030740  12.0000000  12.0000000  12.0000000  12.0000000  12.0000000   1.0078250   1.0078250   1.0078250
 NucSpn=           0           2           0           0           0           0           0           1           1           1
 AtZEff=   0.0000000   0.0000000   0.0000000   0.0000000   0.0000000   0.0000000   0.0000000   0.0000000   0.0000000   0.0000000
 NQMom=    0.0000000   2.0440000   0.0000000   0.0000000   0.0000000   0.0000000   0.0000000   0.0000000   0.0000000   0.0000000
 NMagM=    0.0000000   0.4037610   0.0000000   0.0000000   0.0000000   0.0000000   0.0000000   2.7928460   2.7928460   2.7928460
 AtZNuc=   8.0000000   7.0000000   6.0000000   6.0000000   6.0000000   6.0000000   6.0000000   1.0000000   1.0000000   1.0000000

  Atom        11          12
 IAtWgt=           1           1
 AtmWgt=   1.0078250   1.0078250
 NucSpn=           1           1
 AtZEff=   0.0000000   0.0000000
 NQMom=    0.0000000   0.0000000
 NMagM=    2.7928460   2.7928460
 AtZNuc=   1.0000000   1.0000000
 Leave Link  101 at Fri Aug 27 00:00:17 2021, MaxMem= 17179869184 cpu:         6.3
 (Enter /public3/home/sc51754/softwares/g09e01/l103.exe)

 GradGradGradGradGradGradGradGradGradGradGradGradGradGradGradGradGradGrad
 Berny optimization.
 Initialization pass.
                           ----------------------------
                           !    Initial Parameters    !
                           ! (Angstroms and Degrees)  !
 --------------------------                            --------------------------
 ! Name  Definition              Value          Derivative Info.                !
 --------------------------------------------------------------------------------
 ! R1    R(1,3)                  1.2129         estimate D2E/DX2                !
 ! R2    R(2,3)                  1.403          estimate D2E/DX2                !
 ! R3    R(2,5)                  1.3553         estimate D2E/DX2                !
 ! R4    R(2,8)                  1.0079         estimate D2E/DX2                !
 ! R5    R(3,4)                  1.4432         estimate D2E/DX2                !
 ! R6    R(4,6)                  1.3526         estimate D2E/DX2                !
 ! R7    R(4,9)                  1.0805         estimate D2E/DX2                !
 ! R8    R(5,7)                  1.3507         estimate D2E/DX2                !
 ! R9    R(5,10)                 1.0811         estimate D2E/DX2                !
 ! R10   R(6,7)                  1.4179         estimate D2E/DX2                !
 ! R11   R(6,11)                 1.0831         estimate D2E/DX2                !
 ! R12   R(7,12)                 1.0781         estimate D2E/DX2                !
 ! A1    A(3,2,5)              125.4546         estimate D2E/DX2                !
 ! A2    A(3,2,8)              114.0905         estimate D2E/DX2                !
 ! A3    A(5,2,8)              120.4549         estimate D2E/DX2                !
 ! A4    A(1,3,2)              120.0371         estimate D2E/DX2                !
 ! A5    A(1,3,4)              127.1013         estimate D2E/DX2                !
 ! A6    A(2,3,4)              112.8616         estimate D2E/DX2                !
 ! A7    A(3,4,6)              121.7019         estimate D2E/DX2                !
 ! A8    A(3,4,9)              116.0785         estimate D2E/DX2                !
 ! A9    A(6,4,9)              122.2196         estimate D2E/DX2                !
 ! A10   A(2,5,7)              120.4739         estimate D2E/DX2                !
 ! A11   A(2,5,10)             116.3305         estimate D2E/DX2                !
 ! A12   A(7,5,10)             123.1956         estimate D2E/DX2                !
 ! A13   A(4,6,7)              121.6078         estimate D2E/DX2                !
 ! A14   A(4,6,11)             119.3971         estimate D2E/DX2                !
 ! A15   A(7,6,11)             118.9951         estimate D2E/DX2                !
 ! A16   A(5,7,6)              117.9002         estimate D2E/DX2                !
 ! A17   A(5,7,12)             120.4381         estimate D2E/DX2                !
 ! A18   A(6,7,12)             121.6617         estimate D2E/DX2                !
 ! D1    D(5,2,3,1)            180.0            estimate D2E/DX2                !
 ! D2    D(5,2,3,4)              0.0            estimate D2E/DX2                !
 ! D3    D(8,2,3,1)              0.0            estimate D2E/DX2                !
 ! D4    D(8,2,3,4)            180.0            estimate D2E/DX2                !
 ! D5    D(3,2,5,7)              0.0            estimate D2E/DX2                !
 ! D6    D(3,2,5,10)           180.0            estimate D2E/DX2                !
 ! D7    D(8,2,5,7)            180.0            estimate D2E/DX2                !
 ! D8    D(8,2,5,10)             0.0            estimate D2E/DX2                !
 ! D9    D(1,3,4,6)            180.0            estimate D2E/DX2                !
 ! D10   D(1,3,4,9)              0.0            estimate D2E/DX2                !
 ! D11   D(2,3,4,6)              0.0            estimate D2E/DX2                !
 ! D12   D(2,3,4,9)            180.0            estimate D2E/DX2                !
 ! D13   D(3,4,6,7)              0.0            estimate D2E/DX2                !
 ! D14   D(3,4,6,11)           180.0            estimate D2E/DX2                !
 ! D15   D(9,4,6,7)            180.0            estimate D2E/DX2                !
 ! D16   D(9,4,6,11)             0.0            estimate D2E/DX2                !
 ! D17   D(2,5,7,6)              0.0            estimate D2E/DX2                !
 ! D18   D(2,5,7,12)           180.0            estimate D2E/DX2                !
 ! D19   D(10,5,7,6)           180.0            estimate D2E/DX2                !
 ! D20   D(10,5,7,12)            0.0            estimate D2E/DX2                !
 ! D21   D(4,6,7,5)              0.0            estimate D2E/DX2                !
 ! D22   D(4,6,7,12)           180.0            estimate D2E/DX2                !
 ! D23   D(11,6,7,5)           180.0            estimate D2E/DX2                !
 ! D24   D(11,6,7,12)            0.0            estimate D2E/DX2                !
 --------------------------------------------------------------------------------
 Trust Radius=3.00D-01 FncErr=1.00D-07 GrdErr=1.00D-06
 Number of steps in this run=     64 maximum allowed number of steps=    100.
 GradGradGradGradGradGradGradGradGradGradGradGradGradGradGradGradGradGrad

 Leave Link  103 at Fri Aug 27 00:00:17 2021, MaxMem= 17179869184 cpu:         0.1
 (Enter /public3/home/sc51754/softwares/g09e01/l202.exe)
                          Input orientation:                          
 ---------------------------------------------------------------------
 Center     Atomic      Atomic             Coordinates (Angstroms)
 Number     Number       Type             X           Y           Z
 ---------------------------------------------------------------------
      1          8           0       -0.130304    2.267896    0.000000
      2          7           0       -1.132141    0.233271    0.000000
      3          6           0        0.000000    1.062005    0.000000
      4          6           0        1.237945    0.320111    0.000000
      5          6           0       -1.114407   -1.121885    0.000000
      6          6           0        1.256071   -1.032342    0.000000
      7          6           0        0.058564   -1.791590    0.000000
      8          1           0       -2.007624    0.732742    0.000000
      9          1           0        2.144218    0.908369    0.000000
     10          1           0       -2.076968   -1.614034    0.000000
     11          1           0        2.206750   -1.551299    0.000000
     12          1           0        0.071999   -2.869636    0.000000
 ---------------------------------------------------------------------
                    Distance matrix (angstroms):
                    1          2          3          4          5
     1  O    0.000000
     2  N    2.267901   0.000000
     3  C    1.212911   1.403048   0.000000
     4  C    2.380330   2.371676   1.443231   0.000000
     5  C    3.529741   1.355272   2.451791   2.759151   0.000000
     6  C    3.579610   2.702838   2.442131   1.352574   2.372169
     7  C    4.063877   2.349008   2.854196   2.418723   1.350691
     8  H    2.425083   1.007939   2.034445   3.271694   2.058514
     9  H    2.649861   3.345188   2.149715   1.080453   3.839345
    10  H    4.342681   2.074906   3.387474   3.837912   1.081080
    11  H    4.477507   3.785879   3.420395   2.107311   3.348803
    12  H    5.141514   3.328361   3.932300   3.396162   2.112390
                    6          7          8          9         10
     6  C    0.000000
     7  C    1.417914   0.000000
     8  H    3.710421   3.262114   0.000000
     9  H    2.134283   3.411705   4.155555   0.000000
    10  H    3.383418   2.142901   2.347800   4.917411   0.000000
    11  H    1.083101   2.161583   4.793516   2.460463   4.284177
    12  H    2.185790   1.078130   4.159562   4.308992   2.488894
                   11         12
    11  H    0.000000
    12  H    2.509019   0.000000
 Stoichiometry    C5H5NO
 Framework group  CS[SG(C5H5NO)]
 Deg. of freedom    21
 Full point group                 CS      NOp   2
 Largest Abelian subgroup         CS      NOp   2
 Largest concise Abelian subgroup C1      NOp   1
                         Standard orientation:                         
 ---------------------------------------------------------------------
 Center     Atomic      Atomic             Coordinates (Angstroms)
 Number     Number       Type             X           Y           Z
 ---------------------------------------------------------------------
      1          8           0       -0.130304    2.267896    0.000000
      2          7           0       -1.132141    0.233271    0.000000
      3          6           0       -0.000000    1.062005    0.000000
      4          6           0        1.237945    0.320111   -0.000000
      5          6           0       -1.114407   -1.121885    0.000000
      6          6           0        1.256071   -1.032342   -0.000000
      7          6           0        0.058564   -1.791590   -0.000000
      8          1           0       -2.007624    0.732742    0.000000
      9          1           0        2.144218    0.908369   -0.000000
     10          1           0       -2.076968   -1.614034    0.000000
     11          1           0        2.206750   -1.551299   -0.000000
     12          1           0        0.071999   -2.869636   -0.000000
 ---------------------------------------------------------------------
 Rotational constants (GHZ):      5.7341355      2.8228169      1.8916098
 Leave Link  202 at Fri Aug 27 00:00:18 2021, MaxMem= 17179869184 cpu:         5.4
 (Enter /public3/home/sc51754/softwares/g09e01/l301.exe)
 General basis read from cards:  (5D, 7F)
 Centers:       8      9     10     11     12
 S 4 1.00
     Exponent=  7.5423000000D+01 Coefficients=  2.4065000000D-03
     Exponent=  1.1350000000D+01 Coefficients=  1.8487000000D-02
     Exponent=  2.5993000000D+00 Coefficients=  8.9742000000D-02
     Exponent=  7.3513000000D-01 Coefficients=  2.8111000000D-01
 S 1 1.00
     Exponent=  2.3167000000D-01 Coefficients=  1.0000000000D+00
 S 1 1.00
     Exponent=  7.4147000000D-02 Coefficients=  1.0000000000D+00
 P 1 1.00
     Exponent=  1.6000000000D+00 Coefficients=  1.0000000000D+00
 P 1 1.00
     Exponent=  4.5000000000D-01 Coefficients=  1.0000000000D+00
 D 1 1.00
     Exponent=  1.2500000000D+00 Coefficients=  1.0000000000D+00
 ****
 Centers:       3      4      5      6      7
 S 7 1.00
     Exponent=  7.8571000000D+03 Coefficients=  5.6825000000D-04
     Exponent=  1.1787000000D+03 Coefficients=  4.3915000000D-03
     Exponent=  2.6832000000D+02 Coefficients=  2.2504000000D-02
     Exponent=  7.5948000000D+01 Coefficients=  8.6653000000D-02
     Exponent=  2.4559000000D+01 Coefficients=  2.4405000000D-01
     Exponent=  8.6212000000D+00 Coefficients=  4.4148000000D-01
     Exponent=  3.1278000000D+00 Coefficients=  3.5332000000D-01
 S 7 1.00
     Exponent=  1.1787000000D+03 Coefficients= -5.9492000000D-07
     Exponent=  2.6832000000D+02 Coefficients= -6.2748000000D-05
     Exponent=  7.5948000000D+01 Coefficients= -7.5773000000D-04
     Exponent=  2.4559000000D+01 Coefficients= -7.3308000000D-03
     Exponent=  8.6212000000D+00 Coefficients= -3.8932000000D-02
     Exponent=  3.1278000000D+00 Coefficients= -8.8908000000D-02
     Exponent=  8.2202000000D-01 Coefficients=  2.1689000000D-01
 S 1 1.00
     Exponent=  3.3017000000D-01 Coefficients=  1.0000000000D+00
 S 1 1.00
     Exponent=  1.1463000000D-01 Coefficients=  1.0000000000D+00
 P 4 1.00
     Exponent=  3.3775000000D+01 Coefficients=  6.0294000000D-03
     Exponent=  7.6766000000D+00 Coefficients=  4.3228000000D-02
     Exponent=  2.2357000000D+00 Coefficients=  1.6301000000D-01
     Exponent=  7.6447000000D-01 Coefficients=  3.6504000000D-01
 P 1 1.00
     Exponent=  2.6232000000D-01 Coefficients=  1.0000000000D+00
 P 1 1.00
     Exponent=  8.4638000000D-02 Coefficients=  1.0000000000D+00
 D 1 1.00
     Exponent=  1.4000000000D+00 Coefficients=  1.0000000000D+00
 D 1 1.00
     Exponent=  4.5000000000D-01 Coefficients=  1.0000000000D+00
 F 1 1.00
     Exponent=  9.5000000000D-01 Coefficients=  1.0000000000D+00
 ****
 Centers:       2
 S 7 1.00
     Exponent=  1.1101000000D+04 Coefficients=  5.4570000000D-04
     Exponent=  1.6653000000D+03 Coefficients=  4.2181000000D-03
     Exponent=  3.7908000000D+02 Coefficients=  2.1645000000D-02
     Exponent=  1.0730000000D+02 Coefficients=  8.3776000000D-02
     Exponent=  3.4747000000D+01 Coefficients=  2.3881000000D-01
     Exponent=  1.2249000000D+01 Coefficients=  4.3994000000D-01
     Exponent=  4.4743000000D+00 Coefficients=  3.6364000000D-01
 S 7 1.00
     Exponent=  1.6653000000D+03 Coefficients= -1.5006000000D-06
     Exponent=  3.7908000000D+02 Coefficients= -5.8753000000D-05
     Exponent=  1.0730000000D+02 Coefficients= -7.7453000000D-04
     Exponent=  3.4747000000D+01 Coefficients= -7.2161000000D-03
     Exponent=  1.2249000000D+01 Coefficients= -3.9338000000D-02
     Exponent=  4.4743000000D+00 Coefficients= -9.0611000000D-02
     Exponent=  1.2404000000D+00 Coefficients=  1.9882000000D-01
 S 1 1.00
     Exponent=  4.8743000000D-01 Coefficients=  1.0000000000D+00
 S 1 1.00
     Exponent=  1.6484000000D-01 Coefficients=  1.0000000000D+00
 P 4 1.00
     Exponent=  4.7934000000D+01 Coefficients=  6.1706000000D-03
     Exponent=  1.0999000000D+01 Coefficients=  4.4260000000D-02
     Exponent=  3.2472000000D+00 Coefficients=  1.6825000000D-01
     Exponent=  1.1114000000D+00 Coefficients=  3.6848000000D-01
 P 1 1.00
     Exponent=  3.7988000000D-01 Coefficients=  1.0000000000D+00
 P 1 1.00
     Exponent=  1.2068000000D-01 Coefficients=  1.0000000000D+00
 D 1 1.00
     Exponent=  1.8000000000D+00 Coefficients=  1.0000000000D+00
 D 1 1.00
     Exponent=  5.5000000000D-01 Coefficients=  1.0000000000D+00
 F 1 1.00
     Exponent=  1.0200000000D+00 Coefficients=  1.0000000000D+00
 ****
 Centers:       1
 S 7 1.00
     Exponent=  1.4782000000D+04 Coefficients=  5.3519000000D-04
     Exponent=  2.2173000000D+03 Coefficients=  4.1375000000D-03
     Exponent=  5.0474000000D+02 Coefficients=  2.1245000000D-02
     Exponent=  1.4287000000D+02 Coefficients=  8.2453000000D-02
     Exponent=  4.6300000000D+01 Coefficients=  2.3671000000D-01
     Exponent=  1.6337000000D+01 Coefficients=  4.4039000000D-01
     Exponent=  5.9828000000D+00 Coefficients=  3.6465000000D-01
 S 7 1.00
     Exponent=  2.2173000000D+03 Coefficients= -1.9275000000D-06
     Exponent=  5.0474000000D+02 Coefficients= -5.7964000000D-05
     Exponent=  1.4287000000D+02 Coefficients= -7.9494000000D-04
     Exponent=  4.6300000000D+01 Coefficients= -7.3125000000D-03
     Exponent=  1.6337000000D+01 Coefficients= -4.0574000000D-02
     Exponent=  5.9828000000D+00 Coefficients= -9.1594000000D-02
     Exponent=  1.6718000000D+00 Coefficients=  2.0940000000D-01
 S 1 1.00
     Exponent=  6.4662000000D-01 Coefficients=  1.0000000000D+00
 S 1 1.00
     Exponent=  2.1669000000D-01 Coefficients=  1.0000000000D+00
 P 4 1.00
     Exponent=  6.0424000000D+01 Coefficients=  6.8949000000D-03
     Exponent=  1.3935000000D+01 Coefficients=  4.9005000000D-02
     Exponent=  4.1531000000D+00 Coefficients=  1.8255000000D-01
     Exponent=  1.4158000000D+00 Coefficients=  3.7633000000D-01
 P 1 1.00
     Exponent=  4.7549000000D-01 Coefficients=  1.0000000000D+00
 P 1 1.00
     Exponent=  1.4529000000D-01 Coefficients=  1.0000000000D+00
 D 1 1.00
     Exponent=  2.2000000000D+00 Coefficients=  1.0000000000D+00
 D 1 1.00
     Exponent=  6.5000000000D-01 Coefficients=  1.0000000000D+00
 F 1 1.00
     Exponent=  1.1000000000D+00 Coefficients=  1.0000000000D+00
 ****
 Ernie: Thresh=  0.10000D-02 Tol=  0.10000D-05 Strict=F.
 Ernie:  7 primitive shells out of 220 were deleted.
 There are   223 symmetry adapted cartesian basis functions of A'  symmetry.
 There are    97 symmetry adapted cartesian basis functions of A"  symmetry.
 There are   190 symmetry adapted basis functions of A'  symmetry.
 There are    90 symmetry adapted basis functions of A"  symmetry.
   280 basis functions,   475 primitive gaussians,   320 cartesian basis functions
    25 alpha electrons       25 beta electrons
       nuclear repulsion energy       276.8386644497 Hartrees.
 IExCor=  404 DFT=T Ex=B Corr=P86 ExCW=0 ScaHFX=  0.000000
 ScaDFX=  1.000000  1.000000  1.000000  1.000000 ScalE2=  1.000000  1.000000
 IRadAn=      0 IRanWt=     -1 IRanGd=            0 ICorTp=0 IEmpDi=  4
 NAtoms=   12 NActive=   12 NUniq=   12 SFac= 1.00D+00 NAtFMM=   60 NAOKFM=F Big=F
 Integral buffers will be    131072 words long.
 Raffenetti 2 integral format.
 Two-electron integral symmetry is turned on.
 Leave Link  301 at Fri Aug 27 00:00:18 2021, MaxMem= 17179869184 cpu:         1.5
 (Enter /public3/home/sc51754/softwares/g09e01/l302.exe)
 NPDir=0 NMtPBC=     1 NCelOv=     1 NCel=       1 NClECP=     1 NCelD=      1
         NCelK=      1 NCelE2=     1 NClLst=     1 CellRange=     0.0.
 One-electron integrals computed using PRISM.
 NBasis=   280 RedAO= T EigKep=  2.29D-04  NBF=   190    90
 NBsUse=   280 1.00D-06 EigRej= -1.00D+00 NBFU=   190    90
 Precomputing XC quadrature grid using
 IXCGrd= 4 IRadAn=           0 IRanWt=          -1 IRanGd=           0 AccXCQ= 0.00D+00.
 Generated NRdTot=       0 NPtTot=           0 NUsed=           0 NTot=          32
 NSgBfM=   320   320   320   320   320 MxSgAt=    12 MxSgA2=    12.
 Leave Link  302 at Fri Aug 27 00:00:19 2021, MaxMem= 17179869184 cpu:        42.0
 (Enter /public3/home/sc51754/softwares/g09e01/l303.exe)
 DipDrv:  MaxL=1.
 Leave Link  303 at Fri Aug 27 00:00:19 2021, MaxMem= 17179869184 cpu:        11.6
 (Enter /public3/home/sc51754/softwares/g09e01/l401.exe)
 ExpMin= 7.41D-02 ExpMax= 1.48D+04 ExpMxC= 5.05D+02 IAcc=2 IRadAn=         4 AccDes= 0.00D+00
 Harris functional with IExCor=  404 and IRadAn=       4 diagonalized for initial guess.
 HarFok:  IExCor=  404 AccDes= 0.00D+00 IRadAn=         4 IDoV= 1 UseB2=F ITyADJ=14
 ICtDFT=  3500011 ScaDFX=  1.000000  1.000000  1.000000  1.000000
 FoFCou: FMM=F IPFlag=           0 FMFlag=      100000 FMFlg1=           0
         NFxFlg=           0 DoJE=T BraDBF=F KetDBF=T FulRan=T
         wScrn=  0.000000 ICntrl=     500 IOpCl=  0 I1Cent=   200000004 NGrid=           0
         NMat0=    1 NMatS0=      1 NMatT0=    0 NMatD0=    1 NMtDS0=    0 NMtDT0=    0
 Petite list used in FoFCou.
 Harris En= -323.781857199892    
 JPrj=0 DoOrth=F DoCkMO=F.
 Initial guess orbital symmetries:
       Occupied  (A') (A') (A') (A') (A') (A') (A') (A') (A') (A')
                 (A') (A') (A') (A') (A') (A') (A') (A') (A") (A')
                 (A') (A") (A") (A') (A")
       Virtual   (A") (A") (A') (A") (A') (A') (A') (A') (A') (A')
                 (A') (A') (A") (A') (A") (A') (A") (A') (A') (A')
                 (A') (A') (A") (A') (A") (A') (A') (A') (A') (A')
                 (A") (A') (A') (A') (A") (A') (A') (A') (A') (A')
                 (A') (A') (A") (A') (A') (A') (A") (A') (A") (A")
                 (A') (A") (A') (A') (A") (A') (A') (A') (A') (A")
                 (A') (A") (A') (A') (A") (A') (A") (A') (A") (A")
                 (A') (A') (A') (A") (A') (A") (A') (A") (A') (A')
                 (A") (A') (A") (A') (A") (A') (A') (A') (A") (A")
                 (A') (A') (A") (A') (A') (A') (A') (A") (A') (A')
                 (A') (A') (A") (A') (A') (A') (A") (A') (A') (A')
                 (A") (A') (A') (A') (A') (A') (A") (A') (A') (A')
                 (A") (A') (A") (A') (A') (A") (A") (A") (A') (A")
                 (A') (A') (A") (A') (A") (A') (A') (A") (A') (A')
                 (A') (A') (A') (A") (A") (A') (A') (A') (A') (A')
                 (A') (A") (A") (A") (A") (A') (A") (A") (A') (A")
                 (A') (A") (A') (A') (A") (A') (A') (A') (A') (A")
                 (A') (A") (A') (A") (A") (A') (A") (A') (A") (A")
                 (A') (A") (A') (A") (A") (A') (A') (A") (A') (A")
                 (A') (A") (A') (A") (A') (A") (A') (A') (A") (A')
                 (A') (A') (A") (A') (A") (A') (A") (A') (A') (A')
                 (A") (A') (A') (A") (A') (A") (A') (A") (A') (A')
                 (A") (A') (A") (A') (A") (A') (A') (A') (A") (A')
                 (A') (A') (A') (A") (A') (A") (A') (A') (A') (A')
                 (A') (A") (A') (A') (A') (A') (A') (A') (A') (A')
                 (A') (A') (A') (A') (A')
 The electronic state of the initial guess is 1-A'.
 Leave Link  401 at Fri Aug 27 00:00:20 2021, MaxMem= 17179869184 cpu:        46.1
 (Enter /public3/home/sc51754/softwares/g09e01/l502.exe)
 Closed shell SCF:
 Using DIIS extrapolation, IDIIS=  1040.
 Integral symmetry usage will be decided dynamically.
 Keep J ints in memory in symmetry-blocked form, NReq=1167802198.
 IVT=      348658 IEndB=      348658 NGot= 17179869184 MDV= 16785904737
 LenX= 16785904737 LenY= 16785801896
 Requested convergence on RMS density matrix=1.00D-08 within 128 cycles.
 Requested convergence on MAX density matrix=1.00D-06.
 Requested convergence on             energy=1.00D-06.
 No special actions if energy rises.
 FoFCou: FMM=F IPFlag=           0 FMFlag=           0 FMFlg1=           0
         NFxFlg=           0 DoJE=F BraDBF=F KetDBF=F FulRan=T
         wScrn=  0.000000 ICntrl=     600 IOpCl=  0 I1Cent=           0 NGrid=           0
         NMat0=    1 NMatS0=  39340 NMatT0=    0 NMatD0=    1 NMtDS0=    0 NMtDT0=    0
 Petite list used in FoFCou.
 Integral accuracy reduced to 1.0D-05 until final iterations.

 Cycle   1  Pass 0  IDiag  1:
 E= -323.467253913502    
 DIIS: error= 2.72D-02 at cycle   1 NSaved=   1.
 NSaved= 1 IEnMin= 1 EnMin= -323.467253913502     IErMin= 1 ErrMin= 2.72D-02
 ErrMax= 2.72D-02  0.00D+00 EMaxC= 1.00D-01 BMatC= 2.09D-01 BMatP= 2.09D-01
 IDIUse=3 WtCom= 7.28D-01 WtEn= 2.72D-01
 Coeff-Com:  0.100D+01
 Coeff-En:   0.100D+01
 Coeff:      0.100D+01
 Gap=     0.035 Goal=   None    Shift=    0.000
 GapD=    0.035 DampG=0.250 DampE=0.500 DampFc=0.2500 IDamp=-1.
 Damping current iteration by 2.50D-01
 RMSDP=5.76D-03 MaxDP=2.37D-01              OVMax= 5.19D-01

 Cycle   2  Pass 0  IDiag  1:
 E= -323.516428210017     Delta-E=       -0.049174296516 Rises=F Damp=T
 DIIS: error= 1.44D-02 at cycle   2 NSaved=   2.
 NSaved= 2 IEnMin= 2 EnMin= -323.516428210017     IErMin= 2 ErrMin= 1.44D-02
 ErrMax= 1.44D-02  0.00D+00 EMaxC= 1.00D-01 BMatC= 2.99D-02 BMatP= 2.09D-01
 IDIUse=3 WtCom= 8.56D-01 WtEn= 1.44D-01
 Coeff-Com: -0.160D+00 0.116D+01
 Coeff-En:   0.224D+00 0.776D+00
 Coeff:     -0.105D+00 0.110D+01
 Gap=     0.106 Goal=   None    Shift=    0.000
 RMSDP=1.47D-03 MaxDP=5.25D-02 DE=-4.92D-02 OVMax= 4.90D-01

 Cycle   3  Pass 0  IDiag  1:
 E= -323.563928663931     Delta-E=       -0.047500453914 Rises=F Damp=F
 DIIS: error= 2.07D-02 at cycle   3 NSaved=   3.
 NSaved= 3 IEnMin= 3 EnMin= -323.563928663931     IErMin= 2 ErrMin= 1.44D-02
 ErrMax= 2.07D-02  0.00D+00 EMaxC= 1.00D-01 BMatC= 9.73D-02 BMatP= 2.99D-02
 IDIUse=2 WtCom= 0.00D+00 WtEn= 1.00D+00
 EnCoef did     3 forward-backward iterations
 Coeff-En:   0.268D-02 0.315D+00 0.682D+00
 Coeff:      0.268D-02 0.315D+00 0.682D+00
 Gap=     0.054 Goal=   None    Shift=    0.000
 RMSDP=2.60D-03 MaxDP=1.16D-01 DE=-4.75D-02 OVMax= 4.79D-01

 Cycle   4  Pass 0  IDiag  1:
 E= -323.293983036585     Delta-E=        0.269945627346 Rises=F Damp=F
 DIIS: error= 4.70D-02 at cycle   4 NSaved=   4.
 NSaved= 4 IEnMin= 3 EnMin= -323.563928663931     IErMin= 2 ErrMin= 1.44D-02
 ErrMax= 4.70D-02  0.00D+00 EMaxC= 1.00D-01 BMatC= 4.04D-01 BMatP= 2.99D-02
 IDIUse=2 WtCom= 0.00D+00 WtEn= 1.00D+00
 EnCoef did     2 forward-backward iterations
 Coeff-En:   0.863D-02 0.000D+00 0.713D+00 0.278D+00
 Coeff:      0.863D-02 0.000D+00 0.713D+00 0.278D+00
 Gap=     0.110 Goal=   None    Shift=    0.000
 RMSDP=1.72D-03 MaxDP=7.62D-02 DE= 2.70D-01 OVMax= 2.83D-01

 Cycle   5  Pass 0  IDiag  1:
 E= -323.638305048800     Delta-E=       -0.344322012215 Rises=F Damp=F
 DIIS: error= 1.07D-02 at cycle   5 NSaved=   5.
 NSaved= 5 IEnMin= 5 EnMin= -323.638305048800     IErMin= 5 ErrMin= 1.07D-02
 ErrMax= 1.07D-02  0.00D+00 EMaxC= 1.00D-01 BMatC= 2.10D-02 BMatP= 2.99D-02
 IDIUse=3 WtCom= 8.93D-01 WtEn= 1.07D-01
 Coeff-Com: -0.157D+00 0.314D+00 0.322D+00-0.563D-02 0.527D+00
 Coeff-En:   0.000D+00 0.000D+00 0.227D+00 0.000D+00 0.773D+00
 Coeff:     -0.141D+00 0.280D+00 0.312D+00-0.503D-02 0.553D+00
 Gap=     0.125 Goal=   None    Shift=    0.000
 RMSDP=4.28D-04 MaxDP=1.97D-02 DE=-3.44D-01 OVMax= 7.04D-02

 Cycle   6  Pass 0  IDiag  1:
 E= -323.658002241049     Delta-E=       -0.019697192249 Rises=F Damp=F
 DIIS: error= 2.74D-03 at cycle   6 NSaved=   6.
 NSaved= 6 IEnMin= 6 EnMin= -323.658002241049     IErMin= 6 ErrMin= 2.74D-03
 ErrMax= 2.74D-03  0.00D+00 EMaxC= 1.00D-01 BMatC= 1.39D-03 BMatP= 2.10D-02
 IDIUse=3 WtCom= 9.73D-01 WtEn= 2.74D-02
 Coeff-Com: -0.128D+00 0.202D+00 0.148D+00-0.396D-01 0.394D+00 0.424D+00
 Coeff-En:   0.000D+00 0.000D+00 0.000D+00 0.000D+00 0.000D+00 0.100D+01
 Coeff:     -0.124D+00 0.196D+00 0.144D+00-0.385D-01 0.383D+00 0.440D+00
 Gap=     0.124 Goal=   None    Shift=    0.000
 RMSDP=1.10D-04 MaxDP=4.55D-03 DE=-1.97D-02 OVMax= 1.75D-02

 Cycle   7  Pass 0  IDiag  1:
 E= -323.659309067287     Delta-E=       -0.001306826238 Rises=F Damp=F
 DIIS: error= 6.58D-04 at cycle   7 NSaved=   7.
 NSaved= 7 IEnMin= 7 EnMin= -323.659309067287     IErMin= 7 ErrMin= 6.58D-04
 ErrMax= 6.58D-04  0.00D+00 EMaxC= 1.00D-01 BMatC= 1.26D-04 BMatP= 1.39D-03
 IDIUse=3 WtCom= 9.93D-01 WtEn= 6.58D-03
 Coeff-Com: -0.687D-01 0.983D-01 0.677D-01-0.204D-01 0.206D+00 0.289D+00
 Coeff-Com:  0.428D+00
 Coeff-En:   0.000D+00 0.000D+00 0.000D+00 0.000D+00 0.000D+00 0.118D-01
 Coeff-En:   0.988D+00
 Coeff:     -0.682D-01 0.976D-01 0.673D-01-0.203D-01 0.204D+00 0.287D+00
 Coeff:      0.432D+00
 Gap=     0.124 Goal=   None    Shift=    0.000
 RMSDP=3.85D-05 MaxDP=1.25D-03 DE=-1.31D-03 OVMax= 7.19D-03

 Cycle   8  Pass 0  IDiag  1:
 E= -323.659412809269     Delta-E=       -0.000103741982 Rises=F Damp=F
 DIIS: error= 2.39D-04 at cycle   8 NSaved=   8.
 NSaved= 8 IEnMin= 8 EnMin= -323.659412809269     IErMin= 8 ErrMin= 2.39D-04
 ErrMax= 2.39D-04  0.00D+00 EMaxC= 1.00D-01 BMatC= 1.68D-05 BMatP= 1.26D-04
 IDIUse=3 WtCom= 9.98D-01 WtEn= 2.39D-03
 Coeff-Com: -0.663D-02 0.471D-02-0.249D-02 0.101D-02 0.702D-02 0.501D-01
 Coeff-Com:  0.275D+00 0.672D+00
 Coeff-En:   0.000D+00 0.000D+00 0.000D+00 0.000D+00 0.000D+00 0.000D+00
 Coeff-En:   0.581D-01 0.942D+00
 Coeff:     -0.662D-02 0.470D-02-0.248D-02 0.100D-02 0.700D-02 0.500D-01
 Coeff:      0.274D+00 0.672D+00
 Gap=     0.124 Goal=   None    Shift=    0.000
 RMSDP=1.55D-05 MaxDP=7.09D-04 DE=-1.04D-04 OVMax= 3.28D-03

 Cycle   9  Pass 0  IDiag  1:
 E= -323.659428830183     Delta-E=       -0.000016020914 Rises=F Damp=F
 DIIS: error= 1.32D-04 at cycle   9 NSaved=   9.
 NSaved= 9 IEnMin= 9 EnMin= -323.659428830183     IErMin= 9 ErrMin= 1.32D-04
 ErrMax= 1.32D-04  0.00D+00 EMaxC= 1.00D-01 BMatC= 1.81D-06 BMatP= 1.68D-05
 IDIUse=3 WtCom= 9.99D-01 WtEn= 1.32D-03
 Coeff-Com: -0.204D-02 0.123D-02-0.348D-02 0.945D-03-0.321D-02 0.180D-01
 Coeff-Com:  0.135D+00 0.408D+00 0.446D+00
 Coeff-En:   0.000D+00 0.000D+00 0.000D+00 0.000D+00 0.000D+00 0.000D+00
 Coeff-En:   0.000D+00 0.735D-01 0.927D+00
 Coeff:     -0.204D-02 0.122D-02-0.348D-02 0.944D-03-0.321D-02 0.180D-01
 Coeff:      0.134D+00 0.408D+00 0.446D+00
 Gap=     0.124 Goal=   None    Shift=    0.000
 RMSDP=5.42D-06 MaxDP=2.51D-04 DE=-1.60D-05 OVMax= 1.02D-03

 Initial convergence to 1.0D-05 achieved.  Increase integral accuracy.
 Cycle  10  Pass 1  IDiag  1:
 E= -323.659404924435     Delta-E=        0.000023905748 Rises=F Damp=F
 DIIS: error= 5.56D-05 at cycle   1 NSaved=   1.
 NSaved= 1 IEnMin= 1 EnMin= -323.659404924435     IErMin= 1 ErrMin= 5.56D-05
 ErrMax= 5.56D-05  0.00D+00 EMaxC= 1.00D-01 BMatC= 4.96D-07 BMatP= 4.96D-07
 IDIUse=1 WtCom= 1.00D+00 WtEn= 0.00D+00
 Coeff-Com:  0.100D+01
 Coeff:      0.100D+01
 Gap=     0.124 Goal=   None    Shift=    0.000
 RMSDP=5.42D-06 MaxDP=2.51D-04 DE= 2.39D-05 OVMax= 1.01D-03

 Cycle  11  Pass 1  IDiag  1:
 E= -323.659403223449     Delta-E=        0.000001700986 Rises=F Damp=F
 DIIS: error= 1.60D-04 at cycle   2 NSaved=   2.
 NSaved= 2 IEnMin= 1 EnMin= -323.659404924435     IErMin= 1 ErrMin= 5.56D-05
 ErrMax= 1.60D-04  0.00D+00 EMaxC= 1.00D-01 BMatC= 2.01D-06 BMatP= 4.96D-07
 IDIUse=3 WtCom= 4.41D-01 WtEn= 5.59D-01
 Coeff-Com:  0.687D+00 0.313D+00
 Coeff-En:   0.766D+00 0.234D+00
 Coeff:      0.731D+00 0.269D+00
 Gap=     0.124 Goal=   None    Shift=    0.000
 RMSDP=4.07D-06 MaxDP=1.81D-04 DE= 1.70D-06 OVMax= 7.32D-04

 Cycle  12  Pass 1  IDiag  1:
 E= -323.659405517402     Delta-E=       -0.000002293953 Rises=F Damp=F
 DIIS: error= 9.14D-06 at cycle   3 NSaved=   3.
 NSaved= 3 IEnMin= 3 EnMin= -323.659405517402     IErMin= 3 ErrMin= 9.14D-06
 ErrMax= 9.14D-06  0.00D+00 EMaxC= 1.00D-01 BMatC= 1.87D-08 BMatP= 4.96D-07
 IDIUse=1 WtCom= 1.00D+00 WtEn= 0.00D+00
 Coeff-Com:  0.141D+00 0.440D-01 0.815D+00
 Coeff:      0.141D+00 0.440D-01 0.815D+00
 Gap=     0.124 Goal=   None    Shift=    0.000
 RMSDP=8.95D-07 MaxDP=3.46D-05 DE=-2.29D-06 OVMax= 1.08D-04

 Cycle  13  Pass 1  IDiag  1:
 E= -323.659405493160     Delta-E=        0.000000024242 Rises=F Damp=F
 DIIS: error= 1.60D-05 at cycle   4 NSaved=   4.
 NSaved= 4 IEnMin= 3 EnMin= -323.659405517402     IErMin= 3 ErrMin= 9.14D-06
 ErrMax= 1.60D-05  0.00D+00 EMaxC= 1.00D-01 BMatC= 4.88D-08 BMatP= 1.87D-08
 IDIUse=1 WtCom= 1.00D+00 WtEn= 0.00D+00
 Coeff-Com:  0.214D-01-0.493D-02 0.626D+00 0.358D+00
 Coeff:      0.214D-01-0.493D-02 0.626D+00 0.358D+00
 Gap=     0.124 Goal=   None    Shift=    0.000
 RMSDP=6.61D-07 MaxDP=3.66D-05 DE= 2.42D-08 OVMax= 1.06D-04

 Cycle  14  Pass 1  IDiag  1:
 E= -323.659405530646     Delta-E=       -0.000000037486 Rises=F Damp=F
 DIIS: error= 4.63D-06 at cycle   5 NSaved=   5.
 NSaved= 5 IEnMin= 5 EnMin= -323.659405530646     IErMin= 5 ErrMin= 4.63D-06
 ErrMax= 4.63D-06  0.00D+00 EMaxC= 1.00D-01 BMatC= 5.79D-09 BMatP= 1.87D-08
 IDIUse=1 WtCom= 1.00D+00 WtEn= 0.00D+00
 Coeff-Com: -0.373D-02-0.113D-01 0.362D+00 0.267D+00 0.386D+00
 Coeff:     -0.373D-02-0.113D-01 0.362D+00 0.267D+00 0.386D+00
 Gap=     0.124 Goal=   None    Shift=    0.000
 RMSDP=2.41D-07 MaxDP=1.17D-05 DE=-3.75D-08 OVMax= 3.37D-05

 Cycle  15  Pass 1  IDiag  1:
 E= -323.659405535175     Delta-E=       -0.000000004529 Rises=F Damp=F
 DIIS: error= 6.88D-07 at cycle   6 NSaved=   6.
 NSaved= 6 IEnMin= 6 EnMin= -323.659405535175     IErMin= 6 ErrMin= 6.88D-07
 ErrMax= 6.88D-07  0.00D+00 EMaxC= 1.00D-01 BMatC= 1.38D-10 BMatP= 5.79D-09
 IDIUse=1 WtCom= 1.00D+00 WtEn= 0.00D+00
 Coeff-Com: -0.303D-02-0.599D-02 0.149D+00 0.113D+00 0.210D+00 0.536D+00
 Coeff:     -0.303D-02-0.599D-02 0.149D+00 0.113D+00 0.210D+00 0.536D+00
 Gap=     0.124 Goal=   None    Shift=    0.000
 RMSDP=4.57D-08 MaxDP=2.04D-06 DE=-4.53D-09 OVMax= 6.68D-06

 Cycle  16  Pass 1  IDiag  1:
 E= -323.659405535305     Delta-E=       -0.000000000130 Rises=F Damp=F
 DIIS: error= 2.86D-07 at cycle   7 NSaved=   7.
 NSaved= 7 IEnMin= 7 EnMin= -323.659405535305     IErMin= 7 ErrMin= 2.86D-07
 ErrMax= 2.86D-07  0.00D+00 EMaxC= 1.00D-01 BMatC= 1.26D-11 BMatP= 1.38D-10
 IDIUse=1 WtCom= 1.00D+00 WtEn= 0.00D+00
 Coeff-Com: -0.169D-02-0.325D-02 0.757D-01 0.569D-01 0.109D+00 0.323D+00
 Coeff-Com:  0.441D+00
 Coeff:     -0.169D-02-0.325D-02 0.757D-01 0.569D-01 0.109D+00 0.323D+00
 Coeff:      0.441D+00
 Gap=     0.124 Goal=   None    Shift=    0.000
 RMSDP=1.41D-08 MaxDP=6.74D-07 DE=-1.30D-10 OVMax= 2.69D-06

 Cycle  17  Pass 1  IDiag  1:
 E= -323.659405535313     Delta-E=       -0.000000000007 Rises=F Damp=F
 DIIS: error= 1.42D-07 at cycle   8 NSaved=   8.
 NSaved= 8 IEnMin= 8 EnMin= -323.659405535313     IErMin= 8 ErrMin= 1.42D-07
 ErrMax= 1.42D-07  0.00D+00 EMaxC= 1.00D-01 BMatC= 3.11D-12 BMatP= 1.26D-11
 IDIUse=1 WtCom= 1.00D+00 WtEn= 0.00D+00
 Coeff-Com: -0.496D-03-0.975D-03 0.192D-01 0.141D-01 0.296D-01 0.117D+00
 Coeff-Com:  0.327D+00 0.495D+00
 Coeff:     -0.496D-03-0.975D-03 0.192D-01 0.141D-01 0.296D-01 0.117D+00
 Coeff:      0.327D+00 0.495D+00
 Gap=     0.124 Goal=   None    Shift=    0.000
 RMSDP=6.34D-09 MaxDP=2.53D-07 DE=-7.16D-12 OVMax= 1.38D-06

 SCF Done:  E(RB-P86) =  -323.659405535     A.U. after   17 cycles
            NFock= 17  Conv=0.63D-08     -V/T= 2.0031
 KE= 3.226728196480D+02 PE=-1.308983851596D+03 EE= 3.858129619625D+02
 Leave Link  502 at Fri Aug 27 00:00:28 2021, MaxMem= 17179869184 cpu:       253.0
 (Enter /public3/home/sc51754/softwares/g09e01/l601.exe)
 Copying SCF densities to generalized density rwf, IOpCl= 0 IROHF=0.

 **********************************************************************

            Population analysis using the SCF density.

 **********************************************************************

 Orbital symmetries:
       Occupied  (A') (A') (A') (A') (A') (A') (A') (A') (A') (A')
                 (A') (A') (A') (A') (A') (A') (A') (A") (A') (A')
                 (A') (A") (A") (A') (A")
       Virtual   (A") (A") (A') (A') (A') (A') (A') (A") (A') (A')
                 (A") (A') (A') (A') (A") (A") (A') (A') (A') (A')
                 (A") (A') (A') (A") (A') (A') (A') (A') (A') (A')
                 (A") (A') (A') (A') (A") (A') (A') (A') (A') (A')
                 (A') (A') (A") (A') (A') (A') (A") (A') (A") (A")
                 (A') (A") (A') (A') (A") (A') (A') (A') (A') (A")
                 (A') (A") (A') (A") (A') (A') (A") (A') (A') (A")
                 (A") (A') (A') (A") (A') (A") (A') (A") (A') (A')
                 (A") (A') (A') (A") (A") (A') (A') (A') (A") (A")
                 (A') (A') (A") (A') (A') (A') (A') (A") (A') (A')
                 (A') (A') (A') (A") (A') (A') (A") (A') (A') (A')
                 (A") (A') (A') (A') (A') (A') (A") (A') (A') (A")
                 (A') (A') (A') (A") (A') (A") (A") (A") (A") (A')
                 (A') (A") (A') (A') (A") (A') (A") (A') (A') (A')
                 (A') (A') (A") (A') (A') (A") (A') (A') (A') (A')
                 (A') (A") (A") (A") (A") (A") (A') (A") (A') (A")
                 (A') (A") (A') (A') (A") (A') (A') (A') (A') (A")
                 (A") (A') (A') (A") (A") (A') (A') (A") (A") (A")
                 (A') (A") (A') (A") (A") (A') (A") (A') (A') (A")
                 (A') (A") (A') (A") (A') (A") (A') (A') (A") (A')
                 (A') (A') (A") (A") (A') (A') (A") (A') (A') (A')
                 (A") (A') (A') (A") (A") (A') (A") (A') (A') (A')
                 (A") (A') (A") (A") (A') (A') (A') (A") (A') (A')
                 (A') (A') (A') (A") (A') (A') (A') (A") (A') (A')
                 (A') (A") (A') (A') (A') (A') (A') (A') (A') (A')
                 (A') (A') (A') (A') (A')
 The electronic state is 1-A'.
 Alpha  occ. eigenvalues --  -18.72718 -14.06248  -9.99232  -9.96367  -9.92633
 Alpha  occ. eigenvalues --   -9.91337  -9.90903  -0.96009  -0.88813  -0.75779
 Alpha  occ. eigenvalues --   -0.69946  -0.60275  -0.58831  -0.51987  -0.46560
 Alpha  occ. eigenvalues --   -0.44577  -0.42177  -0.40704  -0.38380  -0.35168
 Alpha  occ. eigenvalues --   -0.33970  -0.31891  -0.28820  -0.21745  -0.20655
 Alpha virt. eigenvalues --   -0.08299  -0.03199  -0.00775   0.02060   0.03480
 Alpha virt. eigenvalues --    0.05978   0.06945   0.07983   0.10296   0.12888
 Alpha virt. eigenvalues --    0.13386   0.13844   0.15401   0.17104   0.17333
 Alpha virt. eigenvalues --    0.19019   0.20487   0.21051   0.23766   0.24212
 Alpha virt. eigenvalues --    0.25087   0.25550   0.26702   0.26838   0.28353
 Alpha virt. eigenvalues --    0.28683   0.31070   0.31411   0.34759   0.37321
 Alpha virt. eigenvalues --    0.38014   0.39503   0.41636   0.43393   0.44595
 Alpha virt. eigenvalues --    0.45804   0.47344   0.48940   0.52990   0.55463
 Alpha virt. eigenvalues --    0.56896   0.58022   0.59302   0.60892   0.62903
 Alpha virt. eigenvalues --    0.66682   0.70415   0.71028   0.72626   0.74891
 Alpha virt. eigenvalues --    0.77128   0.78312   0.85069   0.86530   0.86608
 Alpha virt. eigenvalues --    0.89464   0.91055   0.93161   0.94413   1.00165
 Alpha virt. eigenvalues --    1.02859   1.04726   1.04777   1.07660   1.08621
 Alpha virt. eigenvalues --    1.09794   1.12383   1.12500   1.14670   1.17737
 Alpha virt. eigenvalues --    1.18379   1.19756   1.20066   1.21532   1.22176
 Alpha virt. eigenvalues --    1.27580   1.31139   1.33456   1.34949   1.37939
 Alpha virt. eigenvalues --    1.38181   1.41270   1.42978   1.43510   1.48077
 Alpha virt. eigenvalues --    1.50338   1.52762   1.55752   1.58444   1.59347
 Alpha virt. eigenvalues --    1.60034   1.62277   1.64025   1.65363   1.68389
 Alpha virt. eigenvalues --    1.72098   1.73683   1.78252   1.78579   1.82678
 Alpha virt. eigenvalues --    1.84586   1.89006   1.92548   1.93124   1.93698
 Alpha virt. eigenvalues --    1.99235   1.99399   2.06008   2.07643   2.13111
 Alpha virt. eigenvalues --    2.13845   2.16151   2.18630   2.20196   2.23070
 Alpha virt. eigenvalues --    2.27937   2.41553   2.53103   2.55523   2.77306
 Alpha virt. eigenvalues --    2.78217   2.81239   2.84451   2.85505   3.06422
 Alpha virt. eigenvalues --    3.08342   3.11737   3.12908   3.14965   3.15133
 Alpha virt. eigenvalues --    3.17988   3.22419   3.23342   3.25979   3.29212
 Alpha virt. eigenvalues --    3.32897   3.37800   3.40578   3.45182   3.47041
 Alpha virt. eigenvalues --    3.49882   3.52993   3.56660   3.57379   3.58735
 Alpha virt. eigenvalues --    3.59464   3.62102   3.68365   3.76072   3.78014
 Alpha virt. eigenvalues --    3.81639   3.83980   3.85922   3.86828   3.89585
 Alpha virt. eigenvalues --    3.90891   3.92604   3.94011   3.97164   3.98793
 Alpha virt. eigenvalues --    3.99982   4.03461   4.04930   4.05377   4.07808
 Alpha virt. eigenvalues --    4.10980   4.12072   4.13280   4.14639   4.14911
 Alpha virt. eigenvalues --    4.17109   4.17685   4.18163   4.20009   4.22561
 Alpha virt. eigenvalues --    4.22801   4.24173   4.24771   4.26260   4.30725
 Alpha virt. eigenvalues --    4.31764   4.35870   4.36673   4.38029   4.38952
 Alpha virt. eigenvalues --    4.40411   4.42255   4.42689   4.46940   4.48626
 Alpha virt. eigenvalues --    4.49199   4.50248   4.53129   4.54404   4.58991
 Alpha virt. eigenvalues --    4.63225   4.65434   4.68462   4.75022   4.75972
 Alpha virt. eigenvalues --    4.78240   4.82766   4.83024   4.87232   4.88346
 Alpha virt. eigenvalues --    4.93108   4.98681   5.02770   5.07450   5.08959
 Alpha virt. eigenvalues --    5.12557   5.15971   5.21892   5.21987   5.23951
 Alpha virt. eigenvalues --    5.25381   5.29590   5.30438   5.32385   5.36658
 Alpha virt. eigenvalues --    5.38052   5.44710   5.47682   5.48608   5.48758
 Alpha virt. eigenvalues --    5.54336   5.59399   5.62588   5.62670   5.68043
 Alpha virt. eigenvalues --    5.73135   5.81003   5.85521   5.87312   5.96163
 Alpha virt. eigenvalues --    5.99051   6.00616   6.03525   6.09703   6.17193
 Alpha virt. eigenvalues --    6.26574   6.39399   6.40827   6.47982   6.68550
 Alpha virt. eigenvalues --    6.84454   6.86147   7.14145   9.42964  12.13905
 Alpha virt. eigenvalues --   13.00514  14.48822  17.58712  18.03143  22.48004
          Condensed to atoms (all electrons):
               1          2          3          4          5          6
     1  O    8.005454  -0.122267   0.598276  -0.070680   0.007112   0.007359
     2  N   -0.122267   6.434121   0.339517  -0.046277   0.374711  -0.017011
     3  C    0.598276   0.339517   4.417209   0.406707  -0.038487  -0.031011
     4  C   -0.070680  -0.046277   0.406707   5.026921  -0.043749   0.509644
     5  C    0.007112   0.374711  -0.038487  -0.043749   4.657019  -0.078449
     6  C    0.007359  -0.017011  -0.031011   0.509644  -0.078449   4.792217
     7  C    0.000977  -0.061022  -0.022160  -0.064863   0.597272   0.444581
     8  H    0.017564   0.380400  -0.028548   0.016114  -0.027440  -0.004104
     9  H    0.006938   0.007385  -0.047927   0.443578  -0.000059  -0.039753
    10  H   -0.001298  -0.034643   0.001504  -0.004612   0.418464   0.009028
    11  H   -0.000645  -0.002188   0.006234  -0.034757   0.009463   0.420434
    12  H    0.000025   0.005735  -0.000253   0.007410  -0.037224  -0.034836
               7          8          9         10         11         12
     1  O    0.000977   0.017564   0.006938  -0.001298  -0.000645   0.000025
     2  N   -0.061022   0.380400   0.007385  -0.034643  -0.002188   0.005735
     3  C   -0.022160  -0.028548  -0.047927   0.001504   0.006234  -0.000253
     4  C   -0.064863   0.016114   0.443578  -0.004612  -0.034757   0.007410
     5  C    0.597272  -0.027440  -0.000059   0.418464   0.009463  -0.037224
     6  C    0.444581  -0.004104  -0.039753   0.009028   0.420434  -0.034836
     7  C    4.875785   0.008146   0.007702  -0.038308  -0.041505   0.439567
     8  H    0.008146   0.490021  -0.000643  -0.013807   0.000432  -0.000396
     9  H    0.007702  -0.000643   0.568327   0.000389  -0.010676  -0.000091
    10  H   -0.038308  -0.013807   0.000389   0.600013  -0.000762  -0.005395
    11  H   -0.041505   0.000432  -0.010676  -0.000762   0.598744  -0.007845
    12  H    0.439567  -0.000396  -0.000091  -0.005395  -0.007845   0.576215
 Mulliken charges:
               1
     1  O   -0.448814
     2  N   -0.258463
     3  C    0.398939
     4  C   -0.145438
     5  C    0.161369
     6  C    0.021901
     7  C   -0.146172
     8  H    0.162262
     9  H    0.064830
    10  H    0.069427
    11  H    0.063072
    12  H    0.057088
 Sum of Mulliken charges =  -0.00000
 Mulliken charges with hydrogens summed into heavy atoms:
               1
     1  O   -0.448814
     2  N   -0.096200
     3  C    0.398939
     4  C   -0.080608
     5  C    0.230796
     6  C    0.084972
     7  C   -0.089085
 Electronic spatial extent (au):  <R**2>=            625.7611
 Charge=             -0.0000 electrons
 Dipole moment (field-independent basis, Debye):
    X=             -1.2200    Y=             -3.9916    Z=             -0.0000  Tot=              4.1739
 Quadrupole moment (field-independent basis, Debye-Ang):
   XX=            -31.8542   YY=            -47.4920   ZZ=            -42.8932
   XY=              0.1643   XZ=              0.0000   YZ=             -0.0000
 Traceless Quadrupole moment (field-independent basis, Debye-Ang):
   XX=              8.8922   YY=             -6.7455   ZZ=             -2.1468
   XY=              0.1643   XZ=              0.0000   YZ=             -0.0000
 Octapole moment (field-independent basis, Debye-Ang**2):
  XXX=            -11.2546  YYY=            -28.9129  ZZZ=              0.0000  XYY=             -0.1441
  XXY=              1.4065  XXZ=              0.0000  XZZ=             -2.1139  YZZ=              5.3752
  YYZ=             -0.0000  XYZ=              0.0000
 Hexadecapole moment (field-independent basis, Debye-Ang**3):
 XXXX=           -239.7683 YYYY=           -537.5467 ZZZZ=            -46.6211 XXXY=              2.7012
 XXXZ=              0.0000 YYYX=              7.9041 YYYZ=             -0.0000 ZZZX=              0.0000
 ZZZY=             -0.0000 XXYY=           -117.7118 XXZZ=            -60.7447 YYZZ=            -95.7493
 XXYZ=             -0.0000 YYXZ=              0.0000 ZZXY=              1.2595
 N-N= 2.768386644497D+02 E-N=-1.308983844675D+03  KE= 3.226728196480D+02
 Symmetry A'   KE= 3.110968479092D+02
 Symmetry A"   KE= 1.157597173882D+01
 No NMR shielding tensors so no spin-rotation constants.
 Leave Link  601 at Fri Aug 27 00:00:29 2021, MaxMem= 17179869184 cpu:        46.4
 (Enter /public3/home/sc51754/softwares/g09e01/l701.exe)
 Compute integral first derivatives.
 ... and contract with generalized density number  0.
 Leave Link  701 at Fri Aug 27 00:00:30 2021, MaxMem= 17179869184 cpu:        94.0
 (Enter /public3/home/sc51754/softwares/g09e01/l702.exe)
 L702 exits ... SP integral derivatives will be done elsewhere.
 Leave Link  702 at Fri Aug 27 00:00:30 2021, MaxMem= 17179869184 cpu:         0.3
 (Enter /public3/home/sc51754/softwares/g09e01/l703.exe)
 Compute integral first derivatives, UseDBF=F ICtDFT=           0.
 Integral derivatives from FoFJK, PRISM(SPDF).
 Calling FoFJK, ICntrl=      2527 FMM=F ISym2X=1 I1Cent= 0 IOpClX= 0 NMat=1 NMatS=1 NMatT=0.
 FoFJK:  IHMeth= 1 ICntrl=    2527 DoSepK=F KAlg= 0 I1Cent=   0 FoldK=F
 IRaf=         0 NMat=   1 IRICut=       1 DoRegI=T DoRafI=F ISym2E= 1.
 FoFCou: FMM=F IPFlag=           0 FMFlag=      100000 FMFlg1=         800
         NFxFlg=           0 DoJE=F BraDBF=F KetDBF=F FulRan=T
         wScrn=  0.000000 ICntrl=    2527 IOpCl=  0 I1Cent=           0 NGrid=           0
         NMat0=    1 NMatS0=      1 NMatT0=    0 NMatD0=    1 NMtDS0=    0 NMtDT0=    0
 Petite list used in FoFCou.
 Leave Link  703 at Fri Aug 27 00:00:33 2021, MaxMem= 17179869184 cpu:       136.7
 (Enter /public3/home/sc51754/softwares/g09e01/l716.exe)
 Dipole        =-4.79990480D-01-1.57041975D+00-3.67674324D-32
 ***** Axes restored to original set *****
 -------------------------------------------------------------------
 Center     Atomic                   Forces (Hartrees/Bohr)
 Number     Number              X              Y              Z
 -------------------------------------------------------------------
      1        8          -0.003296014    0.031502775   -0.000000000
      2        7          -0.002902606   -0.002914901   -0.000000000
      3        6           0.006629470   -0.016636707    0.000000000
      4        6           0.001675478    0.009066510   -0.000000000
      5        6          -0.010687145    0.000428577   -0.000000000
      6        6           0.002920883   -0.010653884    0.000000000
      7        6           0.008629488   -0.006006549    0.000000000
      8        1          -0.008004800    0.004075119   -0.000000000
      9        1           0.005046358    0.003073379    0.000000000
     10        1          -0.005461509   -0.002450020   -0.000000000
     11        1           0.005308988   -0.003300902    0.000000000
     12        1           0.000141409   -0.006183397    0.000000000
 -------------------------------------------------------------------
 Cartesian Forces:  Max     0.031502775 RMS     0.007456713
 Leave Link  716 at Fri Aug 27 00:00:33 2021, MaxMem= 17179869184 cpu:         0.4
 (Enter /public3/home/sc51754/softwares/g09e01/l103.exe)

 GradGradGradGradGradGradGradGradGradGradGradGradGradGradGradGradGradGrad
 Berny optimization.
 FormGI is forming the generalized inverse of G from B-inverse, IUseBI=4.
 Internal  Forces:  Max     0.031674214 RMS     0.006593838
 Search for a local minimum.
 Step number   1 out of a maximum of   64
 All quantities printed in internal units (Hartrees-Bohrs-Radians)
 RMS Force = .65938D-02 SwitMx=.10000D-02 MixMth= 1
 Mixed Optimization -- RFO/linear search
 Second derivative matrix not updated -- first step.
 ITU=  0
     Eigenvalues ---    0.01577   0.01761   0.01972   0.02080   0.02183
     Eigenvalues ---    0.02246   0.02365   0.02483   0.02557   0.16000
     Eigenvalues ---    0.16000   0.16000   0.16000   0.16000   0.22000
     Eigenvalues ---    0.22000   0.23415   0.25000   0.35622   0.35864
     Eigenvalues ---    0.35940   0.36221   0.37867   0.40757   0.44267
     Eigenvalues ---    0.46319   0.50118   0.53776   0.54239   0.98595
 RFO step:  Lambda=-3.81744389D-03 EMin= 1.57720798D-02
 Linear search not attempted -- first point.
 Iteration  1 RMS(Cart)=  0.01807105 RMS(Int)=  0.00001388
 Iteration  2 RMS(Cart)=  0.00001462 RMS(Int)=  0.00000119
 Iteration  3 RMS(Cart)=  0.00000000 RMS(Int)=  0.00000119
 ITry= 1 IFail=0 DXMaxC= 6.23D-02 DCOld= 1.00D+10 DXMaxT= 3.00D-01 DXLimC= 3.00D+00 Rises=F
 ClnCor:  largest displacement from symmetrization is 1.20D-09 for atom    11.
 Variable       Old X    -DE/DX   Delta X   Delta X   Delta X     New X
                                 (Linear)    (Quad)   (Total)
    R1        2.29207   0.03167   0.00000   0.03200   0.03200   2.32407
    R2        2.65138   0.01466   0.00000   0.03196   0.03196   2.68334
    R3        2.56109   0.01029   0.00000   0.01906   0.01905   2.58015
    R4        1.90473   0.00897   0.00000   0.01921   0.01921   1.92394
    R5        2.72731   0.00993   0.00000   0.02465   0.02465   2.75196
    R6        2.55600   0.01788   0.00000   0.03250   0.03250   2.58850
    R7        2.04176   0.00591   0.00000   0.01626   0.01626   2.05802
    R8        2.55244   0.01764   0.00000   0.03225   0.03225   2.58468
    R9        2.04295   0.00598   0.00000   0.01649   0.01649   2.05944
   R10        2.67947   0.00785   0.00000   0.01847   0.01847   2.69794
   R11        2.04676   0.00624   0.00000   0.01734   0.01734   2.06410
   R12        2.03737   0.00618   0.00000   0.01690   0.01690   2.05427
    A1        2.18960   0.00063   0.00000   0.00244   0.00244   2.19204
    A2        1.99125   0.00009   0.00000   0.00122   0.00122   1.99248
    A3        2.10233  -0.00071   0.00000  -0.00366  -0.00366   2.09867
    A4        2.09504   0.00042   0.00000   0.00236   0.00236   2.09740
    A5        2.21834   0.00016   0.00000   0.00132   0.00131   2.21965
    A6        1.96981  -0.00058   0.00000  -0.00367  -0.00367   1.96614
    A7        2.12410   0.00097   0.00000   0.00316   0.00316   2.12726
    A8        2.02595  -0.00030   0.00000  -0.00048  -0.00048   2.02547
    A9        2.13313  -0.00066   0.00000  -0.00268  -0.00268   2.13045
   A10        2.10267  -0.00054   0.00000  -0.00138  -0.00138   2.10128
   A11        2.03035  -0.00005   0.00000  -0.00126  -0.00126   2.02910
   A12        2.15017   0.00059   0.00000   0.00264   0.00264   2.15281
   A13        2.12246  -0.00066   0.00000  -0.00272  -0.00272   2.11974
   A14        2.08387   0.00070   0.00000   0.00361   0.00361   2.08749
   A15        2.07686  -0.00004   0.00000  -0.00090  -0.00090   2.07596
   A16        2.05775   0.00018   0.00000   0.00217   0.00217   2.05992
   A17        2.10204  -0.00003   0.00000  -0.00073  -0.00073   2.10131
   A18        2.12340  -0.00015   0.00000  -0.00144  -0.00144   2.12196
    D1        3.14159  -0.00000   0.00000  -0.00000   0.00000   3.14159
    D2       -0.00000  -0.00000   0.00000  -0.00000   0.00000   0.00000
    D3        0.00000  -0.00000   0.00000  -0.00000   0.00000   0.00000
    D4        3.14159   0.00000   0.00000   0.00000   0.00000   3.14159
    D5        0.00000  -0.00000   0.00000   0.00000  -0.00000   0.00000
    D6        3.14159   0.00000   0.00000   0.00000   0.00000   3.14159
    D7        3.14159  -0.00000   0.00000  -0.00000   0.00000   3.14159
    D8       -0.00000  -0.00000   0.00000  -0.00000   0.00000   0.00000
    D9        3.14159   0.00000   0.00000   0.00000   0.00000   3.14159
   D10        0.00000  -0.00000   0.00000   0.00000  -0.00000   0.00000
   D11        0.00000   0.00000   0.00000   0.00000  -0.00000   0.00000
   D12        3.14159   0.00000   0.00000  -0.00000   0.00000   3.14159
   D13        0.00000  -0.00000   0.00000  -0.00000  -0.00000   0.00000
   D14        3.14159  -0.00000   0.00000   0.00000   0.00000   3.14159
   D15        3.14159  -0.00000   0.00000   0.00000   0.00000   3.14159
   D16       -0.00000   0.00000   0.00000   0.00000   0.00000   0.00000
   D17       -0.00000   0.00000   0.00000   0.00000   0.00000   0.00000
   D18        3.14159  -0.00000   0.00000   0.00000   0.00000   3.14159
   D19        3.14159  -0.00000   0.00000  -0.00000   0.00000   3.14159
   D20       -0.00000  -0.00000   0.00000  -0.00000   0.00000   0.00000
   D21        0.00000  -0.00000   0.00000   0.00000   0.00000   0.00000
   D22        3.14159   0.00000   0.00000   0.00000   0.00000   3.14159
   D23        3.14159  -0.00000   0.00000  -0.00000   0.00000   3.14159
   D24        0.00000  -0.00000   0.00000  -0.00000  -0.00000   0.00000
         Item               Value     Threshold  Converged?
 Maximum Force            0.031674     0.000450     NO 
 RMS     Force            0.006594     0.000300     NO 
 Maximum Displacement     0.062336     0.001800     NO 
 RMS     Displacement     0.018071     0.001200     NO 
 Predicted change in Energy=-1.922172D-03
 Lowest energy point so far.  Saving SCF results.
 GradGradGradGradGradGradGradGradGradGradGradGradGradGradGradGradGradGrad

 Leave Link  103 at Fri Aug 27 00:00:34 2021, MaxMem= 17179869184 cpu:        58.0
 (Enter /public3/home/sc51754/softwares/g09e01/l202.exe)
                          Input orientation:                          
 ---------------------------------------------------------------------
 Center     Atomic      Atomic             Coordinates (Angstroms)
 Number     Number       Type             X           Y           Z
 ---------------------------------------------------------------------
      1          8           0       -0.131400    2.300883   -0.000000
      2          7           0       -1.143804    0.237086   -0.000000
      3          6           0        0.000298    1.078109   -0.000000
      4          6           0        1.248188    0.327434    0.000000
      5          6           0       -1.126529   -1.128160   -0.000000
      6          6           0        1.268598   -1.042187    0.000000
      7          6           0        0.061905   -1.805197    0.000000
      8          1           0       -2.029742    0.738737   -0.000000
      9          1           0        2.162379    0.919294    0.000000
     10          1           0       -2.097698   -1.622643   -0.000000
     11          1           0        2.226220   -1.567566    0.000000
     12          1           0        0.075689   -2.892181    0.000000
 ---------------------------------------------------------------------
                    Distance matrix (angstroms):
                    1          2          3          4          5
     1  O    0.000000
     2  N    2.298742   0.000000
     3  C    1.229845   1.419960   0.000000
     4  C    2.407854   2.393697   1.456277   0.000000
     5  C    3.570520   1.365355   2.477370   2.785324   0.000000
     6  C    3.624377   2.730608   2.470676   1.369773   2.396669
     7  C    4.110628   2.371636   2.883965   2.440365   1.367755
     8  H    2.458455   1.018106   2.058212   3.303633   2.073908
     9  H    2.677725   3.375834   2.167907   1.089057   3.874143
    10  H    4.388665   2.090098   3.419890   3.872693   1.089809
    11  H    4.530261   3.822804   3.457503   2.132503   3.381420
    12  H    5.197191   3.358493   3.971006   3.426466   2.134736
                    6          7          8          9         10
     6  C    0.000000
     7  C    1.427688   0.000000
     8  H    3.748431   3.293416   0.000000
     9  H    2.155517   3.440182   4.196008   0.000000
    10  H    3.415973   2.167305   2.362357   4.960817   0.000000
    11  H    1.092274   2.177321   4.840686   2.487680   4.324268
    12  H    2.201252   1.087071   4.197190   4.345299   2.517009
                   11         12
    11  H    0.000000
    12  H    2.525745   0.000000
 Stoichiometry    C5H5NO
 Framework group  CS[SG(C5H5NO)]
 Deg. of freedom    21
 Full point group                 CS      NOp   2
 RotChk:  IX=0 Diff= 5.56D-04
 Largest Abelian subgroup         CS      NOp   2
 Largest concise Abelian subgroup C1      NOp   1
                         Standard orientation:                         
 ---------------------------------------------------------------------
 Center     Atomic      Atomic             Coordinates (Angstroms)
 Number     Number       Type             X           Y           Z
 ---------------------------------------------------------------------
      1          8           0       -0.132179    2.296385    0.000000
      2          7           0       -1.143771    0.232191    0.000000
      3          6           0       -0.000000    1.073663    0.000000
      4          6           0        1.248185    0.323479    0.000000
      5          6           0       -1.125959   -1.133049    0.000000
      6          6           0        1.269134   -1.046134    0.000000
      7          6           0        0.062741   -1.809619    0.000000
      8          1           0       -2.029906    0.733492    0.000000
      9          1           0        2.162144    0.915699    0.000000
     10          1           0       -2.096933   -1.627914    0.000000
     11          1           0        2.226962   -1.571136    0.000000
     12          1           0        0.076953   -2.896597    0.000000
 ---------------------------------------------------------------------
 Rotational constants (GHZ):      5.6244043      2.7593561      1.8511662
 Leave Link  202 at Fri Aug 27 00:00:34 2021, MaxMem= 17179869184 cpu:         1.9
 (Enter /public3/home/sc51754/softwares/g09e01/l301.exe)
 Basis read from rwf:  (5D, 7F)
 No pseudopotential information found on rwf file.
 There are   223 symmetry adapted cartesian basis functions of A'  symmetry.
 There are    97 symmetry adapted cartesian basis functions of A"  symmetry.
 There are   190 symmetry adapted basis functions of A'  symmetry.
 There are    90 symmetry adapted basis functions of A"  symmetry.
   280 basis functions,   475 primitive gaussians,   320 cartesian basis functions
    25 alpha electrons       25 beta electrons
       nuclear repulsion energy       273.9334050318 Hartrees.
 IExCor=  404 DFT=T Ex=B Corr=P86 ExCW=0 ScaHFX=  0.000000
 ScaDFX=  1.000000  1.000000  1.000000  1.000000 ScalE2=  1.000000  1.000000
 IRadAn=      0 IRanWt=     -1 IRanGd=            0 ICorTp=0 IEmpDi=  4
 NAtoms=   12 NActive=   12 NUniq=   12 SFac= 1.00D+00 NAtFMM=   60 NAOKFM=F Big=F
 Integral buffers will be    131072 words long.
 Raffenetti 2 integral format.
 Two-electron integral symmetry is turned on.
 No density basis found on file   724.
 Leave Link  301 at Fri Aug 27 00:00:34 2021, MaxMem= 17179869184 cpu:         1.3
 (Enter /public3/home/sc51754/softwares/g09e01/l302.exe)
 NPDir=0 NMtPBC=     1 NCelOv=     1 NCel=       1 NClECP=     1 NCelD=      1
         NCelK=      1 NCelE2=     1 NClLst=     1 CellRange=     0.0.
 One-electron integrals computed using PRISM.
 NBasis=   280 RedAO= T EigKep=  2.45D-04  NBF=   190    90
 NBsUse=   280 1.00D-06 EigRej= -1.00D+00 NBFU=   190    90
 Precomputing XC quadrature grid using
 IXCGrd= 4 IRadAn=           0 IRanWt=          -1 IRanGd=           0 AccXCQ= 0.00D+00.
 Generated NRdTot=       0 NPtTot=           0 NUsed=           0 NTot=          32
 NSgBfM=   320   320   320   320   320 MxSgAt=    12 MxSgA2=    12.
 Leave Link  302 at Fri Aug 27 00:00:35 2021, MaxMem= 17179869184 cpu:        36.7
 (Enter /public3/home/sc51754/softwares/g09e01/l303.exe)
 DipDrv:  MaxL=1.
 Leave Link  303 at Fri Aug 27 00:00:35 2021, MaxMem= 17179869184 cpu:        12.2
 (Enter /public3/home/sc51754/softwares/g09e01/l401.exe)
 Initial guess from the checkpoint file:  "PY_BP86_PC2_OPT_FREQ.chk"
 B after Tr=    -0.000000    0.000000    0.000000
         Rot=    1.000000    0.000000   -0.000000   -0.000199 Ang=  -0.02 deg.
 Guess basis will be translated and rotated to current coordinates.
 JPrj=2 DoOrth=T DoCkMO=T.
 Initial guess orbital symmetries:
       Occupied  (A') (A') (A') (A') (A') (A') (A') (A') (A') (A')
                 (A') (A') (A') (A') (A') (A') (A') (A") (A') (A')
                 (A') (A") (A") (A') (A")
       Virtual   (A') (A') (A') (A') (A') (A') (A') (A') (A') (A')
                 (A') (A') (A') (A') (A') (A') (A') (A') (A') (A')
                 (A') (A') (A') (A') (A') (A') (A') (A') (A') (A')
                 (A') (A') (A') (A') (A') (A') (A') (A') (A') (A')
                 (A') (A') (A') (A') (A') (A') (A') (A') (A') (A')
                 (A') (A') (A') (A') (A') (A') (A') (A') (A') (A')
                 (A') (A') (A') (A') (A') (A') (A') (A') (A') (A')
                 (A') (A') (A') (A') (A') (A') (A') (A') (A') (A')
                 (A') (A') (A') (A') (A') (A') (A') (A') (A') (A')
                 (A') (A') (A') (A') (A') (A') (A') (A') (A') (A')
                 (A') (A') (A') (A') (A') (A') (A') (A') (A') (A')
                 (A') (A') (A') (A') (A') (A') (A') (A') (A') (A')
                 (A') (A') (A') (A') (A') (A') (A') (A') (A') (A')
                 (A') (A') (A') (A') (A') (A') (A') (A') (A') (A')
                 (A') (A') (A') (A') (A') (A') (A') (A') (A') (A')
                 (A') (A') (A') (A') (A') (A') (A') (A') (A') (A')
                 (A') (A') (A') (A') (A') (A') (A') (A') (A') (A")
                 (A") (A") (A") (A") (A") (A") (A") (A") (A") (A")
                 (A") (A") (A") (A") (A") (A") (A") (A") (A") (A")
                 (A") (A") (A") (A") (A") (A") (A") (A") (A") (A")
                 (A") (A") (A") (A") (A") (A") (A") (A") (A") (A")
                 (A") (A") (A") (A") (A") (A") (A") (A") (A") (A")
                 (A") (A") (A") (A") (A") (A") (A") (A") (A") (A")
                 (A") (A") (A") (A") (A") (A") (A") (A") (A") (A")
                 (A") (A") (A") (A") (A") (A") (A") (A") (A") (A")
                 (A") (A") (A") (A") (A")
 The electronic state of the initial guess is 1-A'.
 Generating alternative initial guess.
 ExpMin= 7.41D-02 ExpMax= 1.48D+04 ExpMxC= 5.05D+02 IAcc=2 IRadAn=         4 AccDes= 0.00D+00
 Harris functional with IExCor=  404 and IRadAn=       4 diagonalized for initial guess.
 HarFok:  IExCor=  404 AccDes= 0.00D+00 IRadAn=         4 IDoV= 1 UseB2=F ITyADJ=14
 ICtDFT=  3500011 ScaDFX=  1.000000  1.000000  1.000000  1.000000
 FoFCou: FMM=F IPFlag=           0 FMFlag=      100000 FMFlg1=           0
         NFxFlg=           0 DoJE=T BraDBF=F KetDBF=T FulRan=T
         wScrn=  0.000000 ICntrl=     500 IOpCl=  0 I1Cent=   200000004 NGrid=           0
         NMat0=    1 NMatS0=      1 NMatT0=    0 NMatD0=    1 NMtDS0=    0 NMtDT0=    0
 Petite list used in FoFCou.
 Harris En= -323.772428562552    
 Leave Link  401 at Fri Aug 27 00:00:36 2021, MaxMem= 17179869184 cpu:        41.1
 (Enter /public3/home/sc51754/softwares/g09e01/l502.exe)
 Closed shell SCF:
 Using DIIS extrapolation, IDIIS=  1040.
 Integral symmetry usage will be decided dynamically.
 Keep J ints in memory in symmetry-blocked form, NReq=1167802198.
 IVT=      348658 IEndB=      348658 NGot= 17179869184 MDV= 16785904737
 LenX= 16785904737 LenY= 16785801896
 Requested convergence on RMS density matrix=1.00D-08 within 128 cycles.
 Requested convergence on MAX density matrix=1.00D-06.
 Requested convergence on             energy=1.00D-06.
 No special actions if energy rises.
 FoFCou: FMM=F IPFlag=           0 FMFlag=           0 FMFlg1=           0
         NFxFlg=           0 DoJE=F BraDBF=F KetDBF=F FulRan=T
         wScrn=  0.000000 ICntrl=     600 IOpCl=  0 I1Cent=           0 NGrid=           0
         NMat0=    1 NMatS0=  39340 NMatT0=    0 NMatD0=    1 NMtDS0=    0 NMtDT0=    0
 Petite list used in FoFCou.
 Integral accuracy reduced to 1.0D-05 until final iterations.

 Cycle   1  Pass 0  IDiag  1:
 E= -323.660854929696    
 DIIS: error= 1.17D-03 at cycle   1 NSaved=   1.
 NSaved= 1 IEnMin= 1 EnMin= -323.660854929696     IErMin= 1 ErrMin= 1.17D-03
 ErrMax= 1.17D-03  0.00D+00 EMaxC= 1.00D-01 BMatC= 5.42D-04 BMatP= 5.42D-04
 IDIUse=3 WtCom= 9.88D-01 WtEn= 1.17D-02
 Coeff-Com:  0.100D+01
 Coeff-En:   0.100D+01
 Coeff:      0.100D+01
 Gap=     0.503 Goal=   None    Shift=    0.000
 GapD=    0.503 DampG=2.000 DampE=1.000 DampFc=2.0000 IDamp=-1.
 RMSDP=8.74D-05 MaxDP=2.74D-03              OVMax= 7.34D-03

 Cycle   2  Pass 0  IDiag  1:
 E= -323.661206428348     Delta-E=       -0.000351498652 Rises=F Damp=F
 DIIS: error= 9.57D-04 at cycle   2 NSaved=   2.
 NSaved= 2 IEnMin= 2 EnMin= -323.661206428348     IErMin= 2 ErrMin= 9.57D-04
 ErrMax= 9.57D-04  0.00D+00 EMaxC= 1.00D-01 BMatC= 1.36D-04 BMatP= 5.42D-04
 IDIUse=3 WtCom= 9.90D-01 WtEn= 9.57D-03
 Coeff-Com:  0.286D+00 0.714D+00
 Coeff-En:   0.000D+00 0.100D+01
 Coeff:      0.284D+00 0.716D+00
 Gap=     0.119 Goal=   None    Shift=    0.000
 RMSDP=6.18D-05 MaxDP=2.45D-03 DE=-3.51D-04 OVMax= 8.38D-03

 Cycle   3  Pass 0  IDiag  1:
 E= -323.661183128369     Delta-E=        0.000023299979 Rises=F Damp=F
 DIIS: error= 8.71D-04 at cycle   3 NSaved=   3.
 NSaved= 3 IEnMin= 2 EnMin= -323.661206428348     IErMin= 3 ErrMin= 8.71D-04
 ErrMax= 8.71D-04  0.00D+00 EMaxC= 1.00D-01 BMatC= 1.62D-04 BMatP= 1.36D-04
 IDIUse=3 WtCom= 2.53D-01 WtEn= 7.47D-01
 Coeff-Com:  0.990D-01 0.510D+00 0.391D+00
 Coeff-En:   0.000D+00 0.535D+00 0.465D+00
 Coeff:      0.251D-01 0.528D+00 0.446D+00
 Gap=     0.120 Goal=   None    Shift=    0.000
 RMSDP=4.75D-05 MaxDP=2.42D-03 DE= 2.33D-05 OVMax= 8.59D-03

 Cycle   4  Pass 0  IDiag  1:
 E= -323.661282695101     Delta-E=       -0.000099566732 Rises=F Damp=F
 DIIS: error= 5.47D-04 at cycle   4 NSaved=   4.
 NSaved= 4 IEnMin= 4 EnMin= -323.661282695101     IErMin= 4 ErrMin= 5.47D-04
 ErrMax= 5.47D-04  0.00D+00 EMaxC= 1.00D-01 BMatC= 6.57D-05 BMatP= 1.36D-04
 IDIUse=3 WtCom= 9.95D-01 WtEn= 5.47D-03
 EnCoef did     6 forward-backward iterations
 Coeff-Com:  0.236D-01 0.312D+00 0.345D+00 0.319D+00
 Coeff-En:   0.000D+00 0.108D+00 0.289D+00 0.602D+00
 Coeff:      0.235D-01 0.311D+00 0.345D+00 0.320D+00
 Gap=     0.120 Goal=   None    Shift=    0.000
 RMSDP=2.51D-05 MaxDP=1.30D-03 DE=-9.96D-05 OVMax= 4.00D-03

 Cycle   5  Pass 0  IDiag  1:
 E= -323.661335264043     Delta-E=       -0.000052568942 Rises=F Damp=F
 DIIS: error= 5.62D-05 at cycle   5 NSaved=   5.
 NSaved= 5 IEnMin= 5 EnMin= -323.661335264043     IErMin= 5 ErrMin= 5.62D-05
 ErrMax= 5.62D-05  0.00D+00 EMaxC= 1.00D-01 BMatC= 8.03D-07 BMatP= 6.57D-05
 IDIUse=1 WtCom= 1.00D+00 WtEn= 0.00D+00
 Coeff-Com:  0.319D-02 0.103D+00 0.135D+00 0.165D+00 0.594D+00
 Coeff:      0.319D-02 0.103D+00 0.135D+00 0.165D+00 0.594D+00
 Gap=     0.120 Goal=   None    Shift=    0.000
 RMSDP=3.58D-06 MaxDP=1.21D-04 DE=-5.26D-05 OVMax= 6.07D-04

 Initial convergence to 1.0D-05 achieved.  Increase integral accuracy.
 Cycle   6  Pass 1  IDiag  1:
 E= -323.661314738364     Delta-E=        0.000020525679 Rises=F Damp=F
 DIIS: error= 4.13D-05 at cycle   1 NSaved=   1.
 NSaved= 1 IEnMin= 1 EnMin= -323.661314738364     IErMin= 1 ErrMin= 4.13D-05
 ErrMax= 4.13D-05  0.00D+00 EMaxC= 1.00D-01 BMatC= 3.13D-07 BMatP= 3.13D-07
 IDIUse=1 WtCom= 1.00D+00 WtEn= 0.00D+00
 Coeff-Com:  0.100D+01
 Coeff:      0.100D+01
 Gap=     0.120 Goal=   None    Shift=    0.000
 RMSDP=3.58D-06 MaxDP=1.21D-04 DE= 2.05D-05 OVMax= 7.83D-04

 Cycle   7  Pass 1  IDiag  1:
 E= -323.661314161991     Delta-E=        0.000000576373 Rises=F Damp=F
 DIIS: error= 1.14D-04 at cycle   2 NSaved=   2.
 NSaved= 2 IEnMin= 1 EnMin= -323.661314738364     IErMin= 1 ErrMin= 4.13D-05
 ErrMax= 1.14D-04  0.00D+00 EMaxC= 1.00D-01 BMatC= 9.53D-07 BMatP= 3.13D-07
 IDIUse=3 WtCom= 4.84D-01 WtEn= 5.16D-01
 Coeff-Com:  0.662D+00 0.338D+00
 Coeff-En:   0.697D+00 0.303D+00
 Coeff:      0.680D+00 0.320D+00
 Gap=     0.120 Goal=   None    Shift=    0.000
 RMSDP=3.50D-06 MaxDP=1.31D-04 DE= 5.76D-07 OVMax= 7.01D-04

 Cycle   8  Pass 1  IDiag  1:
 E= -323.661315078578     Delta-E=       -0.000000916587 Rises=F Damp=F
 DIIS: error= 2.20D-05 at cycle   3 NSaved=   3.
 NSaved= 3 IEnMin= 3 EnMin= -323.661315078578     IErMin= 3 ErrMin= 2.20D-05
 ErrMax= 2.20D-05  0.00D+00 EMaxC= 1.00D-01 BMatC= 6.84D-08 BMatP= 3.13D-07
 IDIUse=1 WtCom= 1.00D+00 WtEn= 0.00D+00
 Coeff-Com:  0.166D+00 0.200D+00 0.634D+00
 Coeff:      0.166D+00 0.200D+00 0.634D+00
 Gap=     0.120 Goal=   None    Shift=    0.000
 RMSDP=1.34D-06 MaxDP=5.87D-05 DE=-9.17D-07 OVMax= 2.63D-04

 Cycle   9  Pass 1  IDiag  1:
 E= -323.661315094044     Delta-E=       -0.000000015466 Rises=F Damp=F
 DIIS: error= 1.76D-05 at cycle   4 NSaved=   4.
[...]
     35  0.000000D+00 -0.366860D-03 -0.362360D-03  0.000000D+00  0.249035D-03
     36 -0.250070D-01  0.000000D+00  0.000000D+00  0.179057D-02  0.000000D+00
               26            27            28            29            30 
     26  0.135800D+00
     27  0.000000D+00  0.220787D-01
     28 -0.118544D-03  0.000000D+00  0.284436D+00
     29  0.927101D-04  0.000000D+00  0.115884D+00  0.116658D+00
     30  0.000000D+00 -0.123536D-02  0.000000D+00  0.000000D+00  0.217245D-01
     31  0.113001D-03  0.000000D+00 -0.993428D-03  0.766999D-03  0.000000D+00
     32  0.104495D-02  0.000000D+00 -0.821848D-03  0.540037D-03  0.000000D+00
     33  0.000000D+00 -0.534405D-02  0.000000D+00  0.000000D+00 -0.346811D-03
     34 -0.124693D-02  0.000000D+00  0.756860D-03 -0.406371D-03  0.000000D+00
     35 -0.532512D-03  0.000000D+00  0.219414D-03  0.523957D-03  0.000000D+00
     36  0.000000D+00  0.603010D-03  0.000000D+00  0.000000D+00 -0.432523D-02
               31            32            33            34            35 
     31  0.272836D+00
     32 -0.118808D+00  0.119683D+00
     33  0.000000D+00  0.000000D+00  0.243603D-01
     34  0.954128D-03  0.630736D-03  0.000000D+00  0.527711D-01
     35 -0.117345D-03  0.651735D-03  0.000000D+00 -0.457462D-02  0.349000D+00
     36  0.000000D+00  0.000000D+00 -0.212504D-02  0.000000D+00  0.000000D+00
               36 
     36  0.211534D-01
 FormGI is forming the generalized inverse of G from B-inverse, IUseBI=4.
 Leave Link  716 at Fri Aug 27 00:01:52 2021, MaxMem= 17179869184 cpu:        19.3
 (Enter /public3/home/sc51754/softwares/g09e01/l103.exe)

 GradGradGradGradGradGradGradGradGradGradGradGradGradGradGradGradGradGrad
 Berny optimization.
 Red2BG is reusing G-inverse.
 Internal  Forces:  Max     0.000237464 RMS     0.000052189
 Search for a local minimum.
 Step number   1 out of a maximum of    2
 All quantities printed in internal units (Hartrees-Bohrs-Radians)
 Second derivative matrix not updated -- analytic derivatives used.
 ITU=  0
     Eigenvalues ---    0.00723   0.01058   0.01463   0.01587   0.01818
     Eigenvalues ---    0.02064   0.02447   0.03043   0.04312   0.09690
     Eigenvalues ---    0.10259   0.10430   0.11455   0.11995   0.15947
     Eigenvalues ---    0.18074   0.19141   0.21875   0.28350   0.30040
     Eigenvalues ---    0.33781   0.34372   0.34703   0.35012   0.36122
     Eigenvalues ---    0.39755   0.43575   0.47512   0.50388   0.73414
 Angle between quadratic step and forces=  37.95 degrees.
 Linear search not attempted -- first point.
 Iteration  1 RMS(Cart)=  0.00029861 RMS(Int)=  0.00000012
 Iteration  2 RMS(Cart)=  0.00000012 RMS(Int)=  0.00000001
 ITry= 1 IFail=0 DXMaxC= 1.05D-03 DCOld= 1.00D+10 DXMaxT= 3.00D-01 DXLimC= 3.00D+00 Rises=F
 ClnCor:  largest displacement from symmetrization is 2.35D-11 for atom     8.
 Variable       Old X    -DE/DX   Delta X   Delta X   Delta X     New X
                                 (Linear)    (Quad)   (Total)
    R1        2.32931  -0.00024   0.00000  -0.00041  -0.00041   2.32890
    R2        2.68714   0.00012   0.00000   0.00077   0.00077   2.68791
    R3        2.57770  -0.00018   0.00000  -0.00070  -0.00070   2.57699
    R4        1.92451  -0.00002   0.00000  -0.00002  -0.00002   1.92449
    R5        2.74238   0.00000   0.00000  -0.00013  -0.00013   2.74225
    R6        2.59089   0.00007   0.00000   0.00028   0.00028   2.59117
    R7        2.05780  -0.00001   0.00000  -0.00003  -0.00003   2.05777
    R8        2.58644   0.00010   0.00000   0.00034   0.00034   2.58678
    R9        2.05891   0.00001   0.00000   0.00006   0.00006   2.05897
   R10        2.69211   0.00000   0.00000  -0.00014  -0.00014   2.69197
   R11        2.06354   0.00001   0.00000   0.00002   0.00002   2.06356
   R12        2.05443  -0.00002   0.00000  -0.00008  -0.00008   2.05436
    A1        2.19173   0.00002   0.00000   0.00017   0.00017   2.19190
    A2        1.99238  -0.00008   0.00000  -0.00085  -0.00085   1.99152
    A3        2.09907   0.00006   0.00000   0.00069   0.00069   2.09976
    A4        2.09080  -0.00002   0.00000  -0.00029  -0.00029   2.09052
    A5        2.22449   0.00004   0.00000   0.00054   0.00054   2.22503
    A6        1.96790  -0.00002   0.00000  -0.00026  -0.00026   1.96764
    A7        2.12588  -0.00001   0.00000   0.00001   0.00001   2.12589
    A8        2.02849   0.00007   0.00000   0.00069   0.00069   2.02918
    A9        2.12882  -0.00006   0.00000  -0.00071  -0.00071   2.12812
   A10        2.09876   0.00003   0.00000   0.00012   0.00012   2.09888
   A11        2.02996   0.00002   0.00000   0.00039   0.00039   2.03035
   A12        2.15447  -0.00005   0.00000  -0.00051  -0.00051   2.15396
   A13        2.12117  -0.00000   0.00000   0.00016   0.00016   2.12133
   A14        2.08515  -0.00003   0.00000  -0.00047  -0.00047   2.08468
   A15        2.07686   0.00004   0.00000   0.00031   0.00031   2.07717
   A16        2.06093  -0.00002   0.00000  -0.00019  -0.00019   2.06073
   A17        2.09861   0.00000   0.00000  -0.00006  -0.00006   2.09855
   A18        2.12364   0.00002   0.00000   0.00025   0.00025   2.12390
    D1        3.14159   0.00000   0.00000   0.00000   0.00000   3.14159
    D2       -0.00000  -0.00000   0.00000   0.00000   0.00000   0.00000
    D3       -0.00000   0.00000   0.00000  -0.00000   0.00000   0.00000
    D4        3.14159  -0.00000   0.00000  -0.00000   0.00000   3.14159
    D5       -0.00000  -0.00000   0.00000  -0.00000   0.00000   0.00000
    D6        3.14159   0.00000   0.00000  -0.00000   0.00000   3.14159
    D7        3.14159   0.00000   0.00000   0.00000   0.00000   3.14159
    D8        0.00000   0.00000   0.00000   0.00000  -0.00000   0.00000
    D9        3.14159  -0.00000   0.00000   0.00000   0.00000   3.14159
   D10       -0.00000  -0.00000   0.00000  -0.00000   0.00000   0.00000
   D11        0.00000   0.00000   0.00000   0.00000   0.00000   0.00000
   D12        3.14159   0.00000   0.00000  -0.00000   0.00000   3.14159
   D13        0.00000   0.00000   0.00000  -0.00000  -0.00000   0.00000
   D14        3.14159   0.00000   0.00000  -0.00000   0.00000   3.14159
   D15        3.14159  -0.00000   0.00000   0.00000   0.00000   3.14159
   D16        0.00000  -0.00000   0.00000   0.00000   0.00000   0.00000
   D17        0.00000   0.00000   0.00000   0.00000  -0.00000   0.00000
   D18        3.14159   0.00000   0.00000   0.00000   0.00000   3.14159
   D19        3.14159  -0.00000   0.00000  -0.00000   0.00000   3.14159
   D20       -0.00000  -0.00000   0.00000  -0.00000   0.00000   0.00000
   D21       -0.00000  -0.00000   0.00000   0.00000   0.00000   0.00000
   D22        3.14159  -0.00000   0.00000   0.00000   0.00000   3.14159
   D23        3.14159  -0.00000   0.00000   0.00000   0.00000   3.14159
   D24        0.00000  -0.00000   0.00000   0.00000  -0.00000   0.00000
         Item               Value     Threshold  Converged?
 Maximum Force            0.000237     0.000450     YES
 RMS     Force            0.000052     0.000300     YES
 Maximum Displacement     0.001053     0.001800     YES
 RMS     Displacement     0.000299     0.001200     YES
 Predicted change in Energy=-3.393015D-07
 Optimization completed.
    -- Stationary point found.
                           ----------------------------
                           !   Optimized Parameters   !
                           ! (Angstroms and Degrees)  !
 --------------------------                            --------------------------
 ! Name  Definition              Value          Derivative Info.                !
 --------------------------------------------------------------------------------
 ! R1    R(1,3)                  1.2326         -DE/DX =   -0.0002              !
 ! R2    R(2,3)                  1.422          -DE/DX =    0.0001              !
 ! R3    R(2,5)                  1.3641         -DE/DX =   -0.0002              !
 ! R4    R(2,8)                  1.0184         -DE/DX =    0.0                 !
 ! R5    R(3,4)                  1.4512         -DE/DX =    0.0                 !
 ! R6    R(4,6)                  1.371          -DE/DX =    0.0001              !
 ! R7    R(4,9)                  1.0889         -DE/DX =    0.0                 !
 ! R8    R(5,7)                  1.3687         -DE/DX =    0.0001              !
 ! R9    R(5,10)                 1.0895         -DE/DX =    0.0                 !
 ! R10   R(6,7)                  1.4246         -DE/DX =    0.0                 !
 ! R11   R(6,11)                 1.092          -DE/DX =    0.0                 !
 ! R12   R(7,12)                 1.0872         -DE/DX =    0.0                 !
 ! A1    A(3,2,5)              125.577          -DE/DX =    0.0                 !
 ! A2    A(3,2,8)              114.1549         -DE/DX =   -0.0001              !
 ! A3    A(5,2,8)              120.268          -DE/DX =    0.0001              !
 ! A4    A(1,3,2)              119.7941         -DE/DX =    0.0                 !
 ! A5    A(1,3,4)              127.4536         -DE/DX =    0.0                 !
 ! A6    A(2,3,4)              112.7522         -DE/DX =    0.0                 !
 ! A7    A(3,4,6)              121.8038         -DE/DX =    0.0                 !
 ! A8    A(3,4,9)              116.2236         -DE/DX =    0.0001              !
 ! A9    A(6,4,9)              121.9726         -DE/DX =   -0.0001              !
 ! A10   A(2,5,7)              120.2501         -DE/DX =    0.0                 !
 ! A11   A(2,5,10)             116.3079         -DE/DX =    0.0                 !
 ! A12   A(7,5,10)             123.442          -DE/DX =    0.0                 !
 ! A13   A(4,6,7)              121.5343         -DE/DX =    0.0                 !
 ! A14   A(4,6,11)             119.4704         -DE/DX =    0.0                 !
 ! A15   A(7,6,11)             118.9953         -DE/DX =    0.0                 !
 ! A16   A(5,7,6)              118.0825         -DE/DX =    0.0                 !
 ! A17   A(5,7,12)             120.2417         -DE/DX =    0.0                 !
 ! A18   A(6,7,12)             121.6758         -DE/DX =    0.0                 !
 ! D1    D(5,2,3,1)            180.0            -DE/DX =    0.0                 !
 ! D2    D(5,2,3,4)              0.0            -DE/DX =    0.0                 !
 ! D3    D(8,2,3,1)              0.0            -DE/DX =    0.0                 !
 ! D4    D(8,2,3,4)            180.0            -DE/DX =    0.0                 !
 ! D5    D(3,2,5,7)              0.0            -DE/DX =    0.0                 !
 ! D6    D(3,2,5,10)           180.0            -DE/DX =    0.0                 !
 ! D7    D(8,2,5,7)            180.0            -DE/DX =    0.0                 !
 ! D8    D(8,2,5,10)             0.0            -DE/DX =    0.0                 !
 ! D9    D(1,3,4,6)            180.0            -DE/DX =    0.0                 !
 ! D10   D(1,3,4,9)              0.0            -DE/DX =    0.0                 !
 ! D11   D(2,3,4,6)              0.0            -DE/DX =    0.0                 !
 ! D12   D(2,3,4,9)            180.0            -DE/DX =    0.0                 !
 ! D13   D(3,4,6,7)              0.0            -DE/DX =    0.0                 !
 ! D14   D(3,4,6,11)           180.0            -DE/DX =    0.0                 !
 ! D15   D(9,4,6,7)            180.0            -DE/DX =    0.0                 !
 ! D16   D(9,4,6,11)             0.0            -DE/DX =    0.0                 !
 ! D17   D(2,5,7,6)              0.0            -DE/DX =    0.0                 !
 ! D18   D(2,5,7,12)           180.0            -DE/DX =    0.0                 !
 ! D19   D(10,5,7,6)           180.0            -DE/DX =    0.0                 !
 ! D20   D(10,5,7,12)            0.0            -DE/DX =    0.0                 !
 ! D21   D(4,6,7,5)              0.0            -DE/DX =    0.0                 !
 ! D22   D(4,6,7,12)           180.0            -DE/DX =    0.0                 !
 ! D23   D(11,6,7,5)           180.0            -DE/DX =    0.0                 !
 ! D24   D(11,6,7,12)            0.0            -DE/DX =    0.0                 !
 --------------------------------------------------------------------------------
 GradGradGradGradGradGradGradGradGradGradGradGradGradGradGradGradGradGrad

 Leave Link  103 at Fri Aug 27 00:01:53 2021, MaxMem= 17179869184 cpu:        27.8
 (Enter /public3/home/sc51754/softwares/g09e01/l9999.exe)
 1\1\GINC-S2515\Freq\RBP86\Gen\C5H5N1O1\SC51754\27-Aug-2021\0\\#P Geom=
 AllCheck Guess=TCheck SCRF=Check GenChk RBP86/ChkBas Freq\\PY_BP86_PC2
 _OPT_FREQ\\0,1\O,-0.1344236218,2.3010658059,0.\N,-1.1429491015,0.23562
 06906,0.\C,0.0039465961,1.0762385004,0.\C,1.2477632514,0.328635717,0.\
 C,-1.1271762745,-1.1283456736,0.\C,1.2668003963,-1.0422706609,0.\C,0.0
 630347897,-1.8041389852,0.\H,-2.028400641,0.7387397792,0.\H,2.16341771
 74,0.9180149761,0.\H,-2.098209015,-1.6224807684,0.\H,2.2248538335,-1.5
 66243257,0.\H,0.0754450695,-2.8912281241,0.\\Version=EM64L-G09RevE.01\
 State=1-A'\HF=-323.6613501\RMSD=5.157e-09\RMSF=1.122e-04\ZeroPoint=0.0
 905759\Thermal=0.0960192\Dipole=-0.4778038,-1.6148683,0.\DipoleDeriv=-
 0.4102414,0.2386633,0.,0.0603401,-1.6540502,0.,0.,0.,-0.3959205,-0.303
 0133,-0.4922318,0.,0.34635,-0.7000279,0.,0.,0.,-0.1873108,0.4196505,-0
 .1388848,0.,-0.035732,2.0187781,0.,0.,0.,0.2146435,-0.0590845,0.476235
 7,0.,-0.016819,-0.5107542,0.,0.,0.,-0.1524273,0.3072378,-0.0270034,0.,
 -0.5573314,0.3755406,0.,0.,0.,-0.0294261,0.3421127,0.1866547,0.,0.1391
 357,0.4260016,0.,0.,0.,-0.0895728,-0.4916252,-0.1875901,0.,0.1016782,-
 0.1282493,0.,0.,0.,-0.1946837,0.207217,-0.0267313,0.,-0.0042209,0.1288
 544,0.,0.,0.,0.2652001,-0.0008079,-0.0356352,0.,-0.0499879,0.0282191,0
 .,0.,0.,0.1440191,-0.0231827,-0.0548167,0.,-0.0423258,0.0275643,0.,0.,
 0.,0.1418057,-0.0545142,0.0765081,0.,0.0743429,0.0369399,0.,0.,0.,0.12
 33047,0.0662513,-0.0151686,0.,-0.0154299,-0.0488164,0.,0.,0.,0.1603681
 \Polar=76.5551211,0.1672023,93.6865647,0.,0.,38.7203004\PG=CS [SG(C5H5
 N1O1)]\NImag=0\\0.09058770,-0.06123239,0.70076238,0.,0.,0.03005215,0.0
 1239419,-0.03570508,0.,0.68292364,-0.06268758,-0.06986786,0.,-0.116830
 58,0.70050978,0.,0.,0.01752610,0.,0.,0.06752485,-0.10312146,0.07105559
 ,0.,-0.17738361,0.02904038,0.,0.49770837,0.06834694,-0.57897626,0.,-0.
 01735601,-0.11755954,0.,-0.11038990,0.83529233,0.,0.,-0.06666060,0.,0.
 ,-0.05346458,0.,0.,0.17976466,0.00366604,0.02739418,0.,-0.04405791,-0.
 01388593,0.,-0.20202336,0.04985505,0.,0.61014235,0.04701315,-0.0494760
 5,0.,-0.00649528,0.04181157,0.,0.02676888,-0.11946783,0.,0.06633219,0.
 72155785,0.,0.,0.02032455,0.,0.,0.00359147,0.,0.,-0.07048349,0.,0.,0.1
 0608439,-0.00934668,-0.00316011,0.,-0.13675433,-0.02177995,0.,0.033289
 48,-0.01963595,0.,-0.01164069,0.01912216,0.,0.77332300,0.01329011,-0.0
 0281208,0.,0.02558081,-0.31402006,0.,-0.06956976,-0.02726504,0.,0.0158
 6582,-0.02770424,0.,-0.01105922,0.63505623,0.,0.,0.00462511,0.,0.,-0.0
 3978793,0.,0.,-0.00328480,0.,0.,0.00084026,0.,0.,0.12392299,-0.0121057
 4,0.00557053,0.,-0.00497829,-0.02864101,0.,0.03271496,0.03267611,0.,-0
 .11997230,0.02425147,0.,-0.05785959,0.01323353,0.,0.64340865,-0.005524
 67,0.00969311,0.,-0.00423961,-0.03265567,0.,0.04476747,-0.02226917,0.,
 -0.01273000,-0.39586513,0.,-0.01909893,0.04329348,0.,-0.04088296,0.692
 60118,0.,0.,0.00378467,0.,0.,-0.00430971,0.,0.,-0.00030976,0.,0.,-0.04
 967127,0.,0.,0.00668812,0.,0.,0.12875915,0.00986291,-0.00576314,0.,0.0
 0808331,0.06122043,0.,-0.04419306,-0.00382871,0.,0.01915825,-0.0487702
 6,0.,-0.32334439,0.09638631,0.,-0.22855681,-0.05048489,0.,0.63755160,-
 0.00264664,-0.00374802,0.,0.03669257,-0.04349364,0.,0.00840323,0.00397
 043,0.,-0.03116388,-0.02732399,0.,0.13298954,-0.17415034,0.,-0.0952458
 9,-0.15757350,0.,-0.05006938,0.71994379,0.,0.,-0.00019341,0.,0.,0.0106
 3040,0.,0.,-0.00678110,0.,0.,0.00620267,0.,0.,-0.05673306,0.,0.,-0.054
 88893,0.,0.,0.10387843,0.00496351,0.00036027,0.,-0.33556280,0.14812615
 ,0.,-0.02257297,0.01868719,0.,-0.00390541,-0.00382248,0.,0.00587394,-0
 .00122745,0.,-0.00101197,-0.00259629,0.,0.00449409,-0.00217581,0.,0.34
 744644,0.00470853,-0.00188642,0.,0.14531954,-0.14523398,0.,-0.01639987
 ,0.01956849,0.,-0.00298952,-0.00318749,0.,0.03093383,-0.01256105,0.,0.
 00000301,0.00051422,0.,-0.00388132,-0.00532567,0.,-0.15764555,0.147202
 75,0.,0.,-0.00420519,0.,0.,-0.01509814,0.,0.,0.00278095,0.,0.,0.004085
 55,0.,0.,-0.00543689,0.,0.,-0.00062229,0.,0.,0.00503314,0.,0.,0.015419
 72,0.00272816,0.00106429,0.,-0.00484705,0.00267184,0.,-0.01671317,-0.0
 1857148,0.,-0.24991446,-0.12288452,0.,-0.00013807,0.00230625,0.,0.0047
 6062,0.00263349,0.,0.00238775,0.00088380,0.,-0.00105566,-0.00096224,0.
 ,0.26175143,-0.00155530,0.00059220,0.,0.00360081,-0.00104898,0.,0.0130
 8432,0.01023293,0.,-0.12434208,-0.12955836,0.,0.00060535,-0.00098537,0
 .,-0.02611467,-0.01179517,0.,0.00194518,-0.00445679,0.,0.00090315,0.00
 061470,0.,0.13312572,0.13579970,0.,0.,-0.00206413,0.,0.,0.00463821,0.,
 0.,0.00243194,0.,0.,-0.03095204,0.,0.,-0.00068199,0.,0.,0.00221975,0.,
 0.,0.00876181,0.,0.,-0.00045588,0.,0.,0.02207874,-0.00017514,-0.000160
 72,0.,0.00420278,0.00142207,0.,0.00232930,0.00180866,0.,0.00053166,0.0
 0067723,0.,-0.27371376,-0.10843594,0.,-0.00325636,0.00419933,0.,-0.015
 17418,-0.01427148,0.,0.00106859,-0.00040213,0.,-0.00001222,-0.00011854
 ,0.,0.28443588,-0.00168594,-0.00286188,0.,-0.03354271,-0.01982962,0.,0
 .00697794,0.00002848,0.,-0.00022480,0.00012340,0.,-0.10283299,-0.10631
 831,0.,0.00249067,-0.00152338,0.,0.01298953,0.01191656,0.,-0.00028807,
 0.00064981,0.,-0.00012821,0.00009271,0.,0.11588395,0.11665825,0.,0.,-0
 .00031067,0.,0.,0.00234454,0.,0.,0.00500495,0.,0.,0.00013140,0.,0.,-0.
 03310595,0.,0.,0.00720541,0.,0.,0.00545034,0.,0.,-0.00253715,0.,0.,-0.
 00123536,0.,0.,0.02172452,-0.00017074,0.00057247,0.,0.00096933,-0.0006
 7236,0.,0.00178827,-0.00142938,0.,0.00245487,-0.00059285,0.,-0.0035417
 1,-0.00397704,0.,-0.25783743,0.11016496,0.,-0.01737830,0.01392142,0.,0
 .00002521,0.00005822,0.,0.00089384,0.00011300,0.,-0.00099343,0.0007670
 0,0.,0.27283596,0.00187342,-0.00137378,0.,0.00025943,-0.00014954,0.,-0
 .00336862,-0.00410272,0.,0.02855403,-0.01141500,0.,-0.00318151,-0.0013
 3901,0.,0.10997497,-0.11423667,0.,-0.01477027,0.01068984,0.,0.00004574
 ,0.00000699,0.,-0.00038797,0.00104495,0.,-0.00082185,0.00054004,0.,-0.
 11880810,0.11968317,0.,0.,-0.00236420,0.,0.,-0.00054417,0.,0.,0.011314
 49,0.,0.,0.00603480,0.,0.,0.00447447,0.,0.,-0.03835207,0.,0.,0.0036466
 8,0.,0.,-0.00075438,0.,0.,-0.00534405,0.,0.,-0.00034681,0.,0.,0.024360
 28,0.00071724,0.00000412,0.,-0.00498926,0.00201654,0.,-0.00182273,-0.0
 0016252,0.,-0.00443905,-0.00159969,0.,0.00385281,0.02760658,0.,0.00469
 426,-0.02620789,0.,-0.05289117,0.00268253,0.,0.00023702,0.00125752,0.,
 0.00015883,-0.00124693,0.,0.00075686,-0.00040637,0.,0.00095413,0.00063
 074,0.,0.05277109,0.00010038,-0.00004533,0.,0.00271611,0.00153752,0.,-
 0.00036964,0.00054791,0.,-0.00266505,0.00050527,0.,-0.00290221,-0.0111
 9421,0.,0.00268425,-0.01018331,0.,0.00502653,-0.33044866,0.,-0.0003668
 6,-0.00036236,0.,0.00024903,-0.00053251,0.,0.00021941,0.00052396,0.,-0
 .00011734,0.00065174,0.,-0.00457462,0.34900000,0.,0.,-0.00051439,0.,0.
 ,0.00694896,0.,0.,-0.00031263,0.,0.,0.00381172,0.,0.,-0.00152033,0.,0.
 ,-0.00050307,0.,0.,-0.02500697,0.,0.,0.00179057,0.,0.,0.00060301,0.,0.
 ,-0.00432523,0.,0.,-0.00212504,0.,0.,0.02115340\\0.00000934,0.00023968
 ,0.,0.00013884,0.00033788,0.,-0.00006341,-0.00033314,0.,0.00003073,-0.
 00012780,0.,0.00005842,-0.00029933,0.,0.00001198,0.00008534,0.,-0.0000
 8229,0.00010780,0.,-0.00004836,-0.00004746,0.,-0.00002332,0.00004909,0
 .,-0.00000858,0.00004119,0.,-0.00002600,-0.00003188,0.,0.00000263,-0.0
 0002136,0.\\\@


 CONFIDENCE IS WHAT YOU FEEL BEFORE YOU FULLY
 COMPREHEND THE SITUATION.
 Job cpu time:       0 days  0 hours 37 minutes  6.9 seconds.
 File lengths (MBytes):  RWF=     80 Int=      0 D2E=      0 Chk=      7 Scr=      1
 Normal termination of Gaussian 09 at Fri Aug 27 00:01:53 2021.
