 Entering Gaussian System, Link 0=g09
 AtFile(1): pc-2.gbs
            -H     0
            S    4   1.00
                  0.754230D+02           0.240650D-02
                  0.113500D+02           0.184870D-01
                  0.259930D+01           0.897420D-01
                  0.735130D+00           0.281110D+00
            S    1   1.00
                  0.231670D+00           0.100000D+01
            S    1   1.00
                  0.741470D-01           0.100000D+01
            P    1   1.00
                  0.160000D+01           0.100000D+01
            P    1   1.00
                  0.450000D+00           0.100000D+01
            D    1   1.00
                  0.125000D+01           0.100000D+01
            ****
            -C     0
            S    7   1.00
                  0.785710D+04           0.568250D-03
                  0.117870D+04           0.439150D-02
                  0.268320D+03           0.225040D-01
                  0.759480D+02           0.866530D-01
                  0.245590D+02           0.244050D+00
                  0.862120D+01           0.441480D+00
                  0.312780D+01           0.353320D+00
            S    7   1.00
                  0.117870D+04          -0.594920D-06
                  0.268320D+03          -0.627480D-04
                  0.759480D+02          -0.757730D-03
                  0.245590D+02          -0.733080D-02
                  0.862120D+01          -0.389320D-01
                  0.312780D+01          -0.889080D-01
                  0.822020D+00           0.216890D+00
            S    1   1.00
                  0.330170D+00           0.100000D+01
            S    1   1.00
                  0.114630D+00           0.100000D+01
            P    4   1.00
                  0.337750D+02           0.602940D-02
                  0.767660D+01           0.432280D-01
                  0.223570D+01           0.163010D+00
                  0.764470D+00           0.365040D+00
            P    1   1.00
                  0.262320D+00           0.100000D+01
            P    1   1.00
                  0.846380D-01           0.100000D+01
            D    1   1.00
                  0.140000D+01           0.100000D+01
            D    1   1.00
                  0.450000D+00           0.100000D+01
            F    1   1.00
                  0.950000D+00           0.100000D+01
            ****
            -N     0
            S    7   1.00
                  0.111010D+05           0.545700D-03
                  0.166530D+04           0.421810D-02
                  0.379080D+03           0.216450D-01
                  0.107300D+03           0.837760D-01
                  0.347470D+02           0.238810D+00
                  0.122490D+02           0.439940D+00
                  0.447430D+01           0.363640D+00
            S    7   1.00
                  0.166530D+04          -0.150060D-05
                  0.379080D+03          -0.587530D-04
                  0.107300D+03          -0.774530D-03
                  0.347470D+02          -0.721610D-02
                  0.122490D+02          -0.393380D-01
                  0.447430D+01          -0.906110D-01
                  0.124040D+01           0.198820D+00
            S    1   1.00
                  0.487430D+00           0.100000D+01
            S    1   1.00
                  0.164840D+00           0.100000D+01
            P    4   1.00
                  0.479340D+02           0.617060D-02
                  0.109990D+02           0.442600D-01
                  0.324720D+01           0.168250D+00
                  0.111140D+01           0.368480D+00
            P    1   1.00
                  0.379880D+00           0.100000D+01
            P    1   1.00
                  0.120680D+00           0.100000D+01
            D    1   1.00
                  0.180000D+01           0.100000D+01
            D    1   1.00
                  0.550000D+00           0.100000D+01
            F    1   1.00
                  0.102000D+01           0.100000D+01
            ****
            -O     0
            S    7   1.00
                  0.147820D+05           0.535190D-03
                  0.221730D+04           0.413750D-02
                  0.504740D+03           0.212450D-01
                  0.142870D+03           0.824530D-01
                  0.463000D+02           0.236710D+00
                  0.163370D+02           0.440390D+00
                  0.598280D+01           0.364650D+00
            S    7   1.00
                  0.221730D+04          -0.192750D-05
                  0.504740D+03          -0.579640D-04
                  0.142870D+03          -0.794940D-03
                  0.463000D+02          -0.731250D-02
                  0.163370D+02          -0.405740D-01
                  0.598280D+01          -0.915940D-01
                  0.167180D+01           0.209400D+00
            S    1   1.00
                  0.646620D+00           0.100000D+01
            S    1   1.00
                  0.216690D+00           0.100000D+01
            P    4   1.00
                  0.604240D+02           0.689490D-02
                  0.139350D+02           0.490050D-01
                  0.415310D+01           0.182550D+00
                  0.141580D+01           0.376330D+00
            P    1   1.00
                  0.475490D+00           0.100000D+01
            P    1   1.00
                  0.145290D+00           0.100000D+01
            D    1   1.00
                  0.220000D+01           0.100000D+01
            D    1   1.00
                  0.650000D+00           0.100000D+01
            F    1   1.00
                  0.110000D+01           0.100000D+01
            ****
 Initial command:
 /public3/home/sc51754/softwares/g09e01/l1.exe "./Gau-29139.inp" -scrdir="./"
 Entering Link 1 = /public3/home/sc51754/softwares/g09e01/l1.exe PID=     29143.
  
 Copyright (c) 1988,1990,1992,1993,1995,1998,2003,2009,2015,
            Gaussian, Inc.  All Rights Reserved.
  
 This is part of the Gaussian(R) 09 program.  It is based on
 the Gaussian(R) 03 system (copyright 2003, Gaussian, Inc.),
 the Gaussian(R) 98 system (copyright 1998, Gaussian, Inc.),
 the Gaussian(R) 94 system (copyright 1995, Gaussian, Inc.),
 the Gaussian 92(TM) system (copyright 1992, Gaussian, Inc.),
 the Gaussian 90(TM) system (copyright 1990, Gaussian, Inc.),
 the Gaussian 88(TM) system (copyright 1988, Gaussian, Inc.),
 the Gaussian 86(TM) system (copyright 1986, Carnegie Mellon
 University), and the Gaussian 82(TM) system (copyright 1983,
 Carnegie Mellon University). Gaussian is a federally registered
 trademark of Gaussian, Inc.
  
 This software contains proprietary and confidential information,
 including trade secrets, belonging to Gaussian, Inc.
  
 This software is provided under written license and may be
 used, copied, transmitted, or stored only in accord with that
 written license.
  
 The following legend is applicable only to US Government
 contracts under FAR:
  
                    RESTRICTED RIGHTS LEGEND
  
 Use, reproduction and disclosure by the US Government is
 subject to restrictions as set forth in subparagraphs (a)
 and (c) of the Commercial Computer Software - Restricted
 Rights clause in FAR 52.227-19.
  
 Gaussian, Inc.
 340 Quinnipiac St., Bldg. 40, Wallingford CT 06492
  
  
 ---------------------------------------------------------------
 Warning -- This program may not be used in any manner that
 competes with the business of Gaussian, Inc. or will provide
 assistance to any competitor of Gaussian, Inc.  The licensee
 of this program is prohibited from giving any competitor of
 Gaussian, Inc. access to this program.  By using this program,
 the user acknowledges that Gaussian, Inc. is engaged in the
 business of creating and licensing software in the field of
 computational chemistry and represents and warrants to the
 licensee that it is not a competitor of Gaussian, Inc. and that
 it will not use this program in any manner prohibited above.
 ---------------------------------------------------------------
  

 Cite this work as:
 Gaussian 09, Revision E.01,
 M. J. Frisch, G. W. Trucks, H. B. Schlegel, G. E. Scuseria, 
 M. A. Robb, J. R. Cheeseman, G. Scalmani, V. Barone, B. Mennucci, 
 G. A. Petersson, H. Nakatsuji, M. Caricato, X. Li, H. P. Hratchian, 
 A. F. Izmaylov, J. Bloino, G. Zheng, J. L. Sonnenberg, M. Hada, 
 M. Ehara, K. Toyota, R. Fukuda, J. Hasegawa, M. Ishida, T. Nakajima, 
 Y. Honda, O. Kitao, H. Nakai, T. Vreven, J. A. Montgomery, Jr., 
 J. E. Peralta, F. Ogliaro, M. Bearpark, J. J. Heyd, E. Brothers, 
 K. N. Kudin, V. N. Staroverov, T. Keith, R. Kobayashi, J. Normand, 
 K. Raghavachari, A. Rendell, J. C. Burant, S. S. Iyengar, J. Tomasi, 
 M. Cossi, N. Rega, J. M. Millam, M. Klene, J. E. Knox, J. B. Cross, 
 V. Bakken, C. Adamo, J. Jaramillo, R. Gomperts, R. E. Stratmann, 
 O. Yazyev, A. J. Austin, R. Cammi, C. Pomelli, J. W. Ochterski, 
 R. L. Martin, K. Morokuma, V. G. Zakrzewski, G. A. Voth, 
 P. Salvador, J. J. Dannenberg, S. Dapprich, A. D. Daniels, 
 O. Farkas, J. B. Foresman, J. V. Ortiz, J. Cioslowski, 
 and D. J. Fox, Gaussian, Inc., Wallingford CT, 2013.
 
 ******************************************
 Gaussian 09:  EM64L-G09RevE.01 30-Nov-2015
                28-Aug-2021 
 ******************************************
 %nprocshared=64
 Will use up to   64 processors via shared memory.
 %mem=128GB
 %chk=TST_GAS_BP86.chk
 -----------------------------------------------
 #p opt=(calcfc,qst3,MaxCycle=200) freq BP86/gen
 -----------------------------------------------
 1/5=1,6=200,10=4,14=-1,18=20,26=3,27=203,38=1/1,3;
 2/9=110,12=2,17=6,18=5,40=1/2;
 3/5=7,11=2,16=1,25=1,30=1,71=2,74=404,140=1/1,2,3;
 4//1;
 5/5=2,38=5/2;
 8/6=4,10=90,11=11/1;
 11/6=1,8=1,9=11,15=111,16=1/1,2,10;
 10/6=1,13=1/2;
 6/7=2,8=2,9=2,10=2,28=1/1;
 7/10=1,18=20,25=1/1,2,3,16;
 1/5=1,6=200,10=4,14=-1,18=20,26=3,27=203/3(2);
 2/9=110/2;
 99//99;
 2/9=110/2;
 3/5=7,6=1,11=2,16=1,25=1,30=1,71=1,74=404,82=7/1,2,3;
 4/5=5,16=3,69=1/1;
 5/5=2,38=5/2;
 7//1,2,3,16;
 1/5=1,6=200,14=-1,18=20,26=3,27=203/3(-5);
 2/9=110/2;
 6/7=2,8=2,9=2,10=2,19=2,28=1/1;
 99/9=1/99;
 Leave Link    1 at Sat Aug 28 00:50:25 2021, MaxMem= 17179869184 cpu:         6.1
 (Enter /public3/home/sc51754/softwares/g09e01/l101.exe)
 --------------------
 HY_BP86_PC2_OPT_FREQ
 --------------------
 Symbolic Z-matrix:
 Charge =  0 Multiplicity = 1
 O                    -0.00271   2.26604   0. 
 N                    -1.18613   0.29546   0. 
 C                     0.        0.90592   0. 
 C                     1.23276   0.23142   0. 
 C                    -1.19252  -1.05026   0. 
 C                     1.20067  -1.15787   0. 
 C                    -0.03361  -1.82269   0. 
 H                    -0.9458    2.52378   0. 
 H                     2.16515   0.79402   0. 
 H                    -2.17944  -1.51989   0. 
 H                     2.13365  -1.72325   0. 
 H                    -0.09283  -2.91035   0. 
 
 --------------------
 PY_BP86_PC2_OPT_FREQ
 --------------------
 Symbolic Z-matrix:
 Charge =  0 Multiplicity = 1
 O                    -0.14317   2.29622   0. 
 N                    -1.14359   0.22683   0. 
 C                     0.        1.07194   0. 
 C                     1.24674   0.32922   0. 
 C                    -1.12248  -1.13706   0. 
 C                     1.27115  -1.04161   0. 
 C                     0.07038  -1.80819   0. 
 H                    -2.03101   0.72648   0. 
 H                     2.16007   0.92218   0. 
 H                    -2.09156  -1.635     0. 
 H                     2.23125  -1.56182   0. 
 H                     0.08705  -2.89522   0. 
 
 ------------
 TST_GAS_BP86
 ------------
 Symbolic Z-matrix:
 Charge =  0 Multiplicity = 1
 O                     0.20491   2.59505   0. 
 N                    -0.97852   0.62447   0. 
 C                     0.20761   1.23494   0. 
 C                     1.44037   0.56043   0. 
 C                    -0.98491  -0.72125   0. 
 C                     1.40828  -0.82885   0. 
 C                     0.174    -1.49367   0. 
 H                    -1.15341   2.19476   0. 
 H                     2.37276   1.12303   0. 
 H                    -1.97183  -1.19087   0. 
 H                     2.34126  -1.39424   0. 
 H                     0.11478  -2.58134   0. 
 
 NAtoms=     12 NQM=       12 NQMF=       0 NMMI=      0 NMMIF=      0
                NMic=       0 NMicF=      0.
                    Isotopes and Nuclear Properties:
 (Nuclear quadrupole moments (NQMom) in fm**2, nuclear magnetic moments (NMagM)
  in nuclear magnetons)

  Atom         1           2           3           4           5           6           7           8           9          10
 IAtWgt=          16          14          12          12          12          12          12           1           1           1
 AtmWgt=  15.9949146  14.0030740  12.0000000  12.0000000  12.0000000  12.0000000  12.0000000   1.0078250   1.0078250   1.0078250
 NucSpn=           0           2           0           0           0           0           0           1           1           1
 AtZEff=   0.0000000   0.0000000   0.0000000   0.0000000   0.0000000   0.0000000   0.0000000   0.0000000   0.0000000   0.0000000
 NQMom=    0.0000000   2.0440000   0.0000000   0.0000000   0.0000000   0.0000000   0.0000000   0.0000000   0.0000000   0.0000000
 NMagM=    0.0000000   0.4037610   0.0000000   0.0000000   0.0000000   0.0000000   0.0000000   2.7928460   2.7928460   2.7928460
 AtZNuc=   8.0000000   7.0000000   6.0000000   6.0000000   6.0000000   6.0000000   6.0000000   1.0000000   1.0000000   1.0000000

  Atom        11          12
 IAtWgt=           1           1
 AtmWgt=   1.0078250   1.0078250
 NucSpn=           1           1
 AtZEff=   0.0000000   0.0000000
 NQMom=    0.0000000   0.0000000
 NMagM=    2.7928460   2.7928460
 AtZNuc=   1.0000000   1.0000000
 Leave Link  101 at Sat Aug 28 00:50:29 2021, MaxMem= 17179869184 cpu:        21.9
 (Enter /public3/home/sc51754/softwares/g09e01/l103.exe)

 GradGradGradGradGradGradGradGradGradGradGradGradGradGradGradGradGradGrad
 Berny optimization.
 Initialization pass.
                           ----------------------------
                           !    Initial Parameters    !
                           ! (Angstroms and Degrees)  !
 --------------------------                            --------------------------
 ! Name  Definition        TS        Reactant  Product Derivative Info.         !
 --------------------------------------------------------------------------------
 ! R1    R(1,3)             1.3601    1.3601    1.2326 calculate D2E/DX2 analyti!
 ! R2    R(1,8)             1.4161    0.9777    2.4552 calculate D2E/DX2 analyti!
 ! R3    R(2,3)             1.334     1.334     1.422  calculate D2E/DX2 analyti!
 ! R4    R(2,5)             1.3457    1.3457    1.3641 calculate D2E/DX2 analyti!
 ! R5    R(2,8)             1.58      2.2412    1.0184 calculate D2E/DX2 analyti!
 ! R6    R(3,4)             1.4052    1.4052    1.4512 calculate D2E/DX2 analyti!
 ! R7    R(4,6)             1.3897    1.3897    1.371  calculate D2E/DX2 analyti!
 ! R8    R(4,9)             1.089     1.089     1.0889 calculate D2E/DX2 analyti!
 ! R9    R(5,7)             1.3927    1.3927    1.3687 calculate D2E/DX2 analyti!
 ! R10   R(5,10)            1.093     1.093     1.0895 calculate D2E/DX2 analyti!
 ! R11   R(6,7)             1.4019    1.4019    1.4246 calculate D2E/DX2 analyti!
 ! R12   R(6,11)            1.0909    1.0909    1.092  calculate D2E/DX2 analyti!
 ! R13   R(7,12)            1.0893    1.0893    1.0872 calculate D2E/DX2 analyti!
 ! A1    A(3,1,8)          73.694   105.3992   56.9265 calculate D2E/DX2 analyti!
 ! A2    A(3,2,5)         117.5055  117.5055  125.577  calculate D2E/DX2 analyti!
 ! A3    A(3,2,8)          69.1216   56.6108  114.1549 calculate D2E/DX2 analyti!
 ! A4    A(5,2,8)         173.3729  174.1164  120.268  calculate D2E/DX2 analyti!
 ! A5    A(1,3,2)         117.1195  117.1195  119.7941 calculate D2E/DX2 analyti!
 ! A6    A(1,3,4)         118.7994  118.7994  127.4536 calculate D2E/DX2 analyti!
 ! A7    A(2,3,4)         124.0811  124.0811  112.7522 calculate D2E/DX2 analyti!
 ! A8    A(3,4,6)         117.3622  117.3622  121.8038 calculate D2E/DX2 analyti!
 ! A9    A(3,4,9)         120.2081  120.2081  116.2236 calculate D2E/DX2 analyti!
 ! A10   A(6,4,9)         122.4297  122.4297  121.9726 calculate D2E/DX2 analyti!
 ! A11   A(2,5,7)         123.4117  123.4117  120.2501 calculate D2E/DX2 analyti!
 ! A12   A(2,5,10)        115.7195  115.7195  116.3079 calculate D2E/DX2 analyti!
 ! A13   A(7,5,10)        120.8688  120.8688  123.4419 calculate D2E/DX2 analyti!
 ! A14   A(4,6,7)         119.6315  119.6315  121.5343 calculate D2E/DX2 analyti!
 ! A15   A(4,6,11)        119.8925  119.8925  119.4704 calculate D2E/DX2 analyti!
 ! A16   A(7,6,11)        120.476   120.476   118.9953 calculate D2E/DX2 analyti!
 ! A17   A(5,7,6)         118.008   118.008   118.0825 calculate D2E/DX2 analyti!
 ! A18   A(5,7,12)        120.5672  120.5672  120.2416 calculate D2E/DX2 analyti!
 ! A19   A(6,7,12)        121.4248  121.4248  121.6759 calculate D2E/DX2 analyti!
 ! D1    D(8,1,3,2)         0.0       0.0       0.0    calculate D2E/DX2 analyti!
 ! D2    D(8,1,3,4)       180.0     180.0     180.0    calculate D2E/DX2 analyti!
 ! D3    D(5,2,3,1)       180.0     180.0     180.0    calculate D2E/DX2 analyti!
 ! D4    D(5,2,3,4)         0.0       0.0       0.0    calculate D2E/DX2 analyti!
 ! D5    D(8,2,3,1)         0.0       0.0       0.0    calculate D2E/DX2 analyti!
 ! D6    D(8,2,3,4)       180.0     180.0     180.0    calculate D2E/DX2 analyti!
 ! D7    D(3,2,5,7)         0.0       0.0       0.0    calculate D2E/DX2 analyti!
 ! D8    D(3,2,5,10)      180.0     180.0     180.0    calculate D2E/DX2 analyti!
 ! D9    D(8,2,5,7)       180.0       0.0     180.0    calculate D2E/DX2 analyti!
 ! D10   D(8,2,5,10)        0.0     180.0       0.0    calculate D2E/DX2 analyti!
 ! D11   D(1,3,4,6)       180.0     180.0     180.0    calculate D2E/DX2 analyti!
 ! D12   D(1,3,4,9)         0.0       0.0       0.0    calculate D2E/DX2 analyti!
 ! D13   D(2,3,4,6)         0.0       0.0       0.0    calculate D2E/DX2 analyti!
 ! D14   D(2,3,4,9)       180.0     180.0     180.0    calculate D2E/DX2 analyti!
 ! D15   D(3,4,6,7)         0.0       0.0       0.0    calculate D2E/DX2 analyti!
 ! D16   D(3,4,6,11)      180.0     180.0     180.0    calculate D2E/DX2 analyti!
 ! D17   D(9,4,6,7)       180.0     180.0     180.0    calculate D2E/DX2 analyti!
 ! D18   D(9,4,6,11)        0.0       0.0       0.0    calculate D2E/DX2 analyti!
 ! D19   D(2,5,7,6)         0.0       0.0       0.0    calculate D2E/DX2 analyti!
 ! D20   D(2,5,7,12)      180.0     180.0     180.0    calculate D2E/DX2 analyti!
 ! D21   D(10,5,7,6)      180.0     180.0     180.0    calculate D2E/DX2 analyti!
 ! D22   D(10,5,7,12)       0.0       0.0       0.0    calculate D2E/DX2 analyti!
 ! D23   D(4,6,7,5)         0.0       0.0       0.0    calculate D2E/DX2 analyti!
 ! D24   D(4,6,7,12)      180.0     180.0     180.0    calculate D2E/DX2 analyti!
 ! D25   D(11,6,7,5)      180.0     180.0     180.0    calculate D2E/DX2 analyti!
 ! D26   D(11,6,7,12)       0.0       0.0       0.0    calculate D2E/DX2 analyti!
 --------------------------------------------------------------------------------
 Trust Radius=3.00D-01 FncErr=1.00D-07 GrdErr=1.00D-06
 Number of steps in this run=    100 maximum allowed number of steps=    100.
 Search for a saddle point of order  1.
 GradGradGradGradGradGradGradGradGradGradGradGradGradGradGradGradGradGrad

 Leave Link  103 at Sat Aug 28 00:50:29 2021, MaxMem= 17179869184 cpu:         1.4
 (Enter /public3/home/sc51754/softwares/g09e01/l202.exe)
                          Input orientation:                          
 ---------------------------------------------------------------------
 Center     Atomic      Atomic             Coordinates (Angstroms)
 Number     Number       Type             X           Y           Z
 ---------------------------------------------------------------------
      1          8           0        0.204905    2.595053    0.000000
      2          7           0       -0.978520    0.624474    0.000000
      3          6           0        0.207610    1.234938    0.000000
      4          6           0        1.440370    0.560429    0.000000
      5          6           0       -0.984910   -0.721246    0.000000
      6          6           0        1.408279   -0.828853    0.000000
      7          6           0        0.174003   -1.493671    0.000000
      8          1           0       -1.153410    2.194765    0.000000
      9          1           0        2.372764    1.123029    0.000000
     10          1           0       -1.971830   -1.190871    0.000000
     11          1           0        2.341264   -1.394239    0.000000
     12          1           0        0.114781   -2.581336    0.000000
 ---------------------------------------------------------------------
                    Distance matrix (angstroms):
                    1          2          3          4          5
     1  O    0.000000
     2  N    2.298625   0.000000
     3  C    1.360118   1.334005   0.000000
     4  C    2.380351   2.419738   1.405226   0.000000
     5  C    3.523280   1.345735   2.291017   2.743114   0.000000
     6  C    3.629220   2.794453   2.387643   1.389653   2.395607
     7  C    4.088841   2.411399   2.728816   2.413092   1.392738
     8  H    1.416069   1.580000   1.665426   3.065738   2.920875
     9  H    2.620394   3.388165   2.168044   1.088980   3.830839
    10  H    4.367081   2.069334   3.261059   3.835383   1.092959
    11  H    4.525316   3.885379   3.386008   2.152286   3.393575
    12  H    5.177173   3.387112   3.817403   3.409967   2.160846
                    6          7          8          9         10
     6  C    0.000000
     7  C    1.401934   0.000000
     8  H    3.962892   3.920024   0.000000
     9  H    2.177171   3.417846   3.685447   0.000000
    10  H    3.399440   2.167092   3.483151   4.922360   0.000000
    11  H    1.090927   2.169541   5.009361   2.517465   4.317886
    12  H    2.178149   1.089276   4.941604   4.338295   2.507457
                   11         12
    11  H    0.000000
    12  H    2.523178   0.000000
 Stoichiometry    C5H5NO
 Framework group  CS[SG(C5H5NO)]
 Deg. of freedom    21
 Full point group                 CS      NOp   2
 Largest Abelian subgroup         CS      NOp   2
 Largest concise Abelian subgroup C1      NOp   1
                         Standard orientation:                         
 ---------------------------------------------------------------------
 Center     Atomic      Atomic             Coordinates (Angstroms)
 Number     Number       Type             X           Y           Z
 ---------------------------------------------------------------------
      1          8           0       -0.014994    2.279157   -0.000000
      2          7           0       -1.180566    0.297966   -0.000000
      3          6           0       -0.000000    0.919122   -0.000000
      4          6           0        1.238804    0.255779    0.000000
      5          6           0       -1.174797   -1.047757   -0.000000
      6          6           0        1.219267   -1.133736    0.000000
      7          6           0       -0.008952   -1.809679    0.000000
      8          1           0       -1.369637    1.866613   -0.000000
      9          1           0        2.166077    0.826780    0.000000
     10          1           0       -2.157434   -1.526279   -0.000000
     11          1           0        2.157322   -1.690670    0.000000
     12          1           0       -0.058345   -2.897835    0.000000
 ---------------------------------------------------------------------
 Rotational constants (GHZ):      5.7335757      2.7904020      1.8769384
 Leave Link  202 at Sat Aug 28 00:50:30 2021, MaxMem= 17179869184 cpu:        13.2
 (Enter /public3/home/sc51754/softwares/g09e01/l301.exe)
 General basis read from cards:  (5D, 7F)
 Centers:       8      9     10     11     12
 S 4 1.00
     Exponent=  7.5423000000D+01 Coefficients=  2.4065000000D-03
     Exponent=  1.1350000000D+01 Coefficients=  1.8487000000D-02
     Exponent=  2.5993000000D+00 Coefficients=  8.9742000000D-02
     Exponent=  7.3513000000D-01 Coefficients=  2.8111000000D-01
 S 1 1.00
     Exponent=  2.3167000000D-01 Coefficients=  1.0000000000D+00
 S 1 1.00
     Exponent=  7.4147000000D-02 Coefficients=  1.0000000000D+00
 P 1 1.00
     Exponent=  1.6000000000D+00 Coefficients=  1.0000000000D+00
 P 1 1.00
     Exponent=  4.5000000000D-01 Coefficients=  1.0000000000D+00
 D 1 1.00
     Exponent=  1.2500000000D+00 Coefficients=  1.0000000000D+00
 ****
 Centers:       3      4      5      6      7
 S 7 1.00
     Exponent=  7.8571000000D+03 Coefficients=  5.6825000000D-04
     Exponent=  1.1787000000D+03 Coefficients=  4.3915000000D-03
     Exponent=  2.6832000000D+02 Coefficients=  2.2504000000D-02
     Exponent=  7.5948000000D+01 Coefficients=  8.6653000000D-02
     Exponent=  2.4559000000D+01 Coefficients=  2.4405000000D-01
     Exponent=  8.6212000000D+00 Coefficients=  4.4148000000D-01
     Exponent=  3.1278000000D+00 Coefficients=  3.5332000000D-01
 S 7 1.00
     Exponent=  1.1787000000D+03 Coefficients= -5.9492000000D-07
     Exponent=  2.6832000000D+02 Coefficients= -6.2748000000D-05
     Exponent=  7.5948000000D+01 Coefficients= -7.5773000000D-04
     Exponent=  2.4559000000D+01 Coefficients= -7.3308000000D-03
     Exponent=  8.6212000000D+00 Coefficients= -3.8932000000D-02
     Exponent=  3.1278000000D+00 Coefficients= -8.8908000000D-02
     Exponent=  8.2202000000D-01 Coefficients=  2.1689000000D-01
 S 1 1.00
     Exponent=  3.3017000000D-01 Coefficients=  1.0000000000D+00
 S 1 1.00
     Exponent=  1.1463000000D-01 Coefficients=  1.0000000000D+00
 P 4 1.00
     Exponent=  3.3775000000D+01 Coefficients=  6.0294000000D-03
     Exponent=  7.6766000000D+00 Coefficients=  4.3228000000D-02
     Exponent=  2.2357000000D+00 Coefficients=  1.6301000000D-01
     Exponent=  7.6447000000D-01 Coefficients=  3.6504000000D-01
 P 1 1.00
     Exponent=  2.6232000000D-01 Coefficients=  1.0000000000D+00
 P 1 1.00
     Exponent=  8.4638000000D-02 Coefficients=  1.0000000000D+00
 D 1 1.00
     Exponent=  1.4000000000D+00 Coefficients=  1.0000000000D+00
 D 1 1.00
     Exponent=  4.5000000000D-01 Coefficients=  1.0000000000D+00
 F 1 1.00
     Exponent=  9.5000000000D-01 Coefficients=  1.0000000000D+00
 ****
 Centers:       2
 S 7 1.00
     Exponent=  1.1101000000D+04 Coefficients=  5.4570000000D-04
     Exponent=  1.6653000000D+03 Coefficients=  4.2181000000D-03
     Exponent=  3.7908000000D+02 Coefficients=  2.1645000000D-02
     Exponent=  1.0730000000D+02 Coefficients=  8.3776000000D-02
     Exponent=  3.4747000000D+01 Coefficients=  2.3881000000D-01
     Exponent=  1.2249000000D+01 Coefficients=  4.3994000000D-01
     Exponent=  4.4743000000D+00 Coefficients=  3.6364000000D-01
 S 7 1.00
     Exponent=  1.6653000000D+03 Coefficients= -1.5006000000D-06
     Exponent=  3.7908000000D+02 Coefficients= -5.8753000000D-05
     Exponent=  1.0730000000D+02 Coefficients= -7.7453000000D-04
     Exponent=  3.4747000000D+01 Coefficients= -7.2161000000D-03
     Exponent=  1.2249000000D+01 Coefficients= -3.9338000000D-02
     Exponent=  4.4743000000D+00 Coefficients= -9.0611000000D-02
     Exponent=  1.2404000000D+00 Coefficients=  1.9882000000D-01
 S 1 1.00
     Exponent=  4.8743000000D-01 Coefficients=  1.0000000000D+00
 S 1 1.00
     Exponent=  1.6484000000D-01 Coefficients=  1.0000000000D+00
 P 4 1.00
     Exponent=  4.7934000000D+01 Coefficients=  6.1706000000D-03
     Exponent=  1.0999000000D+01 Coefficients=  4.4260000000D-02
     Exponent=  3.2472000000D+00 Coefficients=  1.6825000000D-01
     Exponent=  1.1114000000D+00 Coefficients=  3.6848000000D-01
 P 1 1.00
     Exponent=  3.7988000000D-01 Coefficients=  1.0000000000D+00
 P 1 1.00
     Exponent=  1.2068000000D-01 Coefficients=  1.0000000000D+00
 D 1 1.00
     Exponent=  1.8000000000D+00 Coefficients=  1.0000000000D+00
 D 1 1.00
     Exponent=  5.5000000000D-01 Coefficients=  1.0000000000D+00
 F 1 1.00
     Exponent=  1.0200000000D+00 Coefficients=  1.0000000000D+00
 ****
 Centers:       1
 S 7 1.00
     Exponent=  1.4782000000D+04 Coefficients=  5.3519000000D-04
     Exponent=  2.2173000000D+03 Coefficients=  4.1375000000D-03
     Exponent=  5.0474000000D+02 Coefficients=  2.1245000000D-02
     Exponent=  1.4287000000D+02 Coefficients=  8.2453000000D-02
     Exponent=  4.6300000000D+01 Coefficients=  2.3671000000D-01
     Exponent=  1.6337000000D+01 Coefficients=  4.4039000000D-01
     Exponent=  5.9828000000D+00 Coefficients=  3.6465000000D-01
 S 7 1.00
     Exponent=  2.2173000000D+03 Coefficients= -1.9275000000D-06
     Exponent=  5.0474000000D+02 Coefficients= -5.7964000000D-05
     Exponent=  1.4287000000D+02 Coefficients= -7.9494000000D-04
     Exponent=  4.6300000000D+01 Coefficients= -7.3125000000D-03
     Exponent=  1.6337000000D+01 Coefficients= -4.0574000000D-02
     Exponent=  5.9828000000D+00 Coefficients= -9.1594000000D-02
     Exponent=  1.6718000000D+00 Coefficients=  2.0940000000D-01
 S 1 1.00
     Exponent=  6.4662000000D-01 Coefficients=  1.0000000000D+00
 S 1 1.00
     Exponent=  2.1669000000D-01 Coefficients=  1.0000000000D+00
 P 4 1.00
     Exponent=  6.0424000000D+01 Coefficients=  6.8949000000D-03
     Exponent=  1.3935000000D+01 Coefficients=  4.9005000000D-02
     Exponent=  4.1531000000D+00 Coefficients=  1.8255000000D-01
     Exponent=  1.4158000000D+00 Coefficients=  3.7633000000D-01
 P 1 1.00
     Exponent=  4.7549000000D-01 Coefficients=  1.0000000000D+00
 P 1 1.00
     Exponent=  1.4529000000D-01 Coefficients=  1.0000000000D+00
 D 1 1.00
     Exponent=  2.2000000000D+00 Coefficients=  1.0000000000D+00
 D 1 1.00
     Exponent=  6.5000000000D-01 Coefficients=  1.0000000000D+00
 F 1 1.00
     Exponent=  1.1000000000D+00 Coefficients=  1.0000000000D+00
 ****
 Ernie: Thresh=  0.10000D-02 Tol=  0.10000D-05 Strict=F.
 Ernie:  7 primitive shells out of 220 were deleted.
 There are   223 symmetry adapted cartesian basis functions of A'  symmetry.
 There are    97 symmetry adapted cartesian basis functions of A"  symmetry.
 There are   190 symmetry adapted basis functions of A'  symmetry.
 There are    90 symmetry adapted basis functions of A"  symmetry.
   280 basis functions,   475 primitive gaussians,   320 cartesian basis functions
    25 alpha electrons       25 beta electrons
       nuclear repulsion energy       274.5523867962 Hartrees.
 IExCor=  404 DFT=T Ex=B Corr=P86 ExCW=0 ScaHFX=  0.000000
 ScaDFX=  1.000000  1.000000  1.000000  1.000000 ScalE2=  1.000000  1.000000
 IRadAn=      0 IRanWt=     -1 IRanGd=            0 ICorTp=0 IEmpDi=  4
 NAtoms=   12 NActive=   12 NUniq=   12 SFac= 1.00D+00 NAtFMM=   60 NAOKFM=F Big=F
 Integral buffers will be    131072 words long.
 Raffenetti 2 integral format.
 Two-electron integral symmetry is turned on.
 Leave Link  301 at Sat Aug 28 00:50:31 2021, MaxMem= 17179869184 cpu:         4.9
 (Enter /public3/home/sc51754/softwares/g09e01/l302.exe)
 NPDir=0 NMtPBC=     1 NCelOv=     1 NCel=       1 NClECP=     1 NCelD=      1
         NCelK=      1 NCelE2=     1 NClLst=     1 CellRange=     0.0.
 One-electron integrals computed using PRISM.
 NBasis=   280 RedAO= T EigKep=  2.32D-04  NBF=   190    90
 NBsUse=   280 1.00D-06 EigRej= -1.00D+00 NBFU=   190    90
 Precomputing XC quadrature grid using
 IXCGrd= 4 IRadAn=           0 IRanWt=          -1 IRanGd=           0 AccXCQ= 0.00D+00.
 Generated NRdTot=       0 NPtTot=           0 NUsed=           0 NTot=          32
 NSgBfM=   320   320   320   320   320 MxSgAt=    12 MxSgA2=    12.
 Leave Link  302 at Sat Aug 28 00:50:34 2021, MaxMem= 17179869184 cpu:        96.1
 (Enter /public3/home/sc51754/softwares/g09e01/l303.exe)
 DipDrv:  MaxL=1.
 Leave Link  303 at Sat Aug 28 00:50:35 2021, MaxMem= 17179869184 cpu:        41.4
 (Enter /public3/home/sc51754/softwares/g09e01/l401.exe)
 ExpMin= 7.41D-02 ExpMax= 1.48D+04 ExpMxC= 5.05D+02 IAcc=2 IRadAn=         4 AccDes= 0.00D+00
 Harris functional with IExCor=  404 and IRadAn=       4 diagonalized for initial guess.
 HarFok:  IExCor=  404 AccDes= 0.00D+00 IRadAn=         4 IDoV= 1 UseB2=F ITyADJ=14
 ICtDFT=  3500011 ScaDFX=  1.000000  1.000000  1.000000  1.000000
 FoFCou: FMM=F IPFlag=           0 FMFlag=      100000 FMFlg1=           0
         NFxFlg=           0 DoJE=T BraDBF=F KetDBF=T FulRan=T
         wScrn=  0.000000 ICntrl=     500 IOpCl=  0 I1Cent=   200000004 NGrid=           0
         NMat0=    1 NMatS0=      1 NMatT0=    0 NMatD0=    1 NMtDS0=    0 NMtDT0=    0
 Petite list used in FoFCou.
 Harris En= -323.684149100748    
 JPrj=0 DoOrth=F DoCkMO=F.
 Initial guess orbital symmetries:
       Occupied  (A') (A') (A') (A') (A') (A') (A') (A') (A') (A')
                 (A') (A') (A') (A') (A') (A') (A') (A') (A") (A')
                 (A") (A') (A') (A") (A")
       Virtual   (A") (A") (A') (A') (A") (A') (A') (A') (A') (A')
                 (A') (A') (A") (A') (A') (A") (A") (A') (A') (A')
                 (A') (A') (A') (A") (A") (A') (A') (A') (A') (A')
                 (A') (A') (A") (A") (A') (A') (A') (A') (A') (A')
                 (A') (A') (A') (A") (A') (A') (A") (A") (A') (A")
                 (A') (A') (A") (A') (A") (A') (A") (A') (A') (A')
                 (A') (A") (A') (A') (A") (A') (A') (A") (A') (A")
                 (A') (A") (A") (A') (A") (A') (A') (A") (A') (A")
                 (A') (A") (A') (A') (A") (A') (A") (A') (A') (A")
                 (A') (A") (A') (A') (A') (A') (A') (A") (A') (A')
                 (A') (A') (A") (A') (A') (A') (A") (A') (A') (A')
                 (A") (A') (A') (A') (A') (A') (A") (A') (A') (A')
                 (A') (A") (A') (A") (A') (A") (A') (A") (A") (A')
                 (A") (A") (A') (A') (A") (A') (A') (A') (A") (A')
                 (A') (A') (A') (A") (A') (A") (A") (A') (A') (A')
                 (A') (A') (A') (A") (A") (A") (A") (A') (A') (A")
                 (A') (A") (A") (A') (A') (A") (A') (A') (A') (A")
                 (A") (A') (A") (A') (A') (A") (A') (A") (A") (A")
                 (A') (A') (A") (A') (A") (A') (A") (A") (A') (A")
                 (A") (A') (A") (A') (A') (A') (A") (A") (A') (A")
                 (A') (A') (A") (A") (A') (A') (A') (A") (A') (A')
                 (A') (A") (A') (A") (A') (A') (A") (A') (A') (A")
                 (A') (A") (A') (A') (A") (A') (A') (A') (A") (A')
                 (A') (A') (A") (A') (A') (A') (A') (A') (A") (A')
                 (A') (A') (A") (A') (A') (A') (A') (A') (A') (A')
                 (A') (A') (A') (A') (A')
 The electronic state of the initial guess is 1-A'.
 Leave Link  401 at Sat Aug 28 00:50:37 2021, MaxMem= 17179869184 cpu:        62.0
 (Enter /public3/home/sc51754/softwares/g09e01/l502.exe)
 Closed shell SCF:
 Using DIIS extrapolation, IDIIS=  1040.
 Integral symmetry usage will be decided dynamically.
 Keep J ints in memory in symmetry-blocked form, NReq=1167802198.
 IVT=      348658 IEndB=      348658 NGot= 17179869184 MDV= 16785904737
 LenX= 16785904737 LenY= 16785801896
 Requested convergence on RMS density matrix=1.00D-08 within 128 cycles.
 Requested convergence on MAX density matrix=1.00D-06.
 Requested convergence on             energy=1.00D-06.
 No special actions if energy rises.
 FoFCou: FMM=F IPFlag=           0 FMFlag=           0 FMFlg1=           0
         NFxFlg=           0 DoJE=F BraDBF=F KetDBF=F FulRan=T
         wScrn=  0.000000 ICntrl=     600 IOpCl=  0 I1Cent=           0 NGrid=           0
         NMat0=    1 NMatS0=  39340 NMatT0=    0 NMatD0=    1 NMtDS0=    0 NMtDT0=    0
 Petite list used in FoFCou.
 Integral accuracy reduced to 1.0D-05 until final iterations.

 Cycle   1  Pass 0  IDiag  1:
 E= -323.440580466769    
 DIIS: error= 2.21D-02 at cycle   1 NSaved=   1.
 NSaved= 1 IEnMin= 1 EnMin= -323.440580466769     IErMin= 1 ErrMin= 2.21D-02
 ErrMax= 2.21D-02  0.00D+00 EMaxC= 1.00D-01 BMatC= 1.57D-01 BMatP= 1.57D-01
 IDIUse=3 WtCom= 7.79D-01 WtEn= 2.21D-01
 Coeff-Com:  0.100D+01
 Coeff-En:   0.100D+01
 Coeff:      0.100D+01
 Gap=     0.058 Goal=   None    Shift=    0.000
 GapD=    0.058 DampG=0.500 DampE=0.500 DampFc=0.2500 IDamp=-1.
 Damping current iteration by 2.50D-01
 RMSDP=3.32D-03 MaxDP=1.57D-01              OVMax= 2.87D-01

 Cycle   2  Pass 0  IDiag  1:
 E= -323.489027719312     Delta-E=       -0.048447252543 Rises=F Damp=T
 DIIS: error= 1.20D-02 at cycle   2 NSaved=   2.
 NSaved= 2 IEnMin= 2 EnMin= -323.489027719312     IErMin= 2 ErrMin= 1.20D-02
 ErrMax= 1.20D-02  0.00D+00 EMaxC= 1.00D-01 BMatC= 2.46D-02 BMatP= 1.57D-01
 IDIUse=3 WtCom= 8.80D-01 WtEn= 1.20D-01
 Coeff-Com: -0.240D+00 0.124D+01
 Coeff-En:   0.823D-01 0.918D+00
 Coeff:     -0.201D+00 0.120D+01
 Gap=     0.145 Goal=   None    Shift=    0.000
 RMSDP=1.23D-03 MaxDP=4.38D-02 DE=-4.84D-02 OVMax= 2.74D-01

 Cycle   3  Pass 0  IDiag  1:
 E= -323.491291773742     Delta-E=       -0.002264054430 Rises=F Damp=F
 DIIS: error= 2.14D-02 at cycle   3 NSaved=   3.
 NSaved= 3 IEnMin= 3 EnMin= -323.491291773742     IErMin= 2 ErrMin= 1.20D-02
 ErrMax= 2.14D-02  0.00D+00 EMaxC= 1.00D-01 BMatC= 1.12D-01 BMatP= 2.46D-02
 IDIUse=2 WtCom= 0.00D+00 WtEn= 1.00D+00
 Coeff-En:   0.000D+00 0.491D+00 0.509D+00
 Coeff:      0.000D+00 0.491D+00 0.509D+00
 Gap=     0.110 Goal=   None    Shift=    0.000
 RMSDP=2.07D-03 MaxDP=8.66D-02 DE=-2.26D-03 OVMax= 3.36D-01

 Cycle   4  Pass 0  IDiag  1:
 E= -323.292861036757     Delta-E=        0.198430736985 Rises=F Damp=F
 DIIS: error= 3.60D-02 at cycle   4 NSaved=   4.
 NSaved= 4 IEnMin= 3 EnMin= -323.491291773742     IErMin= 2 ErrMin= 1.20D-02
 ErrMax= 3.60D-02  0.00D+00 EMaxC= 1.00D-01 BMatC= 3.49D-01 BMatP= 2.46D-02
 IDIUse=2 WtCom= 0.00D+00 WtEn= 1.00D+00
 EnCoef did     2 forward-backward iterations
 Coeff-En:   0.498D-01 0.000D+00 0.633D+00 0.317D+00
 Coeff:      0.498D-01 0.000D+00 0.633D+00 0.317D+00
 Gap=     0.128 Goal=   None    Shift=    0.000
 RMSDP=1.21D-03 MaxDP=5.96D-02 DE= 1.98D-01 OVMax= 2.08D-01

 Cycle   5  Pass 0  IDiag  1:
 E= -323.579127942050     Delta-E=       -0.286266905293 Rises=F Damp=F
 DIIS: error= 8.55D-03 at cycle   5 NSaved=   5.
 NSaved= 5 IEnMin= 5 EnMin= -323.579127942050     IErMin= 5 ErrMin= 8.55D-03
 ErrMax= 8.55D-03  0.00D+00 EMaxC= 1.00D-01 BMatC= 1.62D-02 BMatP= 2.46D-02
 IDIUse=3 WtCom= 9.15D-01 WtEn= 8.55D-02
 Coeff-Com: -0.168D+00 0.383D+00 0.290D+00 0.246D-01 0.470D+00
 Coeff-En:   0.000D+00 0.000D+00 0.184D+00 0.000D+00 0.816D+00
 Coeff:     -0.153D+00 0.350D+00 0.281D+00 0.225D-01 0.500D+00
 Gap=     0.130 Goal=   None    Shift=    0.000
 RMSDP=4.17D-04 MaxDP=2.22D-02 DE=-2.86D-01 OVMax= 5.24D-02

 Cycle   6  Pass 0  IDiag  1:
 E= -323.591985163285     Delta-E=       -0.012857221235 Rises=F Damp=F
 DIIS: error= 4.23D-03 at cycle   6 NSaved=   6.
 NSaved= 6 IEnMin= 6 EnMin= -323.591985163285     IErMin= 6 ErrMin= 4.23D-03
 ErrMax= 4.23D-03  0.00D+00 EMaxC= 1.00D-01 BMatC= 2.91D-03 BMatP= 1.62D-02
 IDIUse=3 WtCom= 9.58D-01 WtEn= 4.23D-02
 Coeff-Com: -0.157D+00 0.243D+00 0.130D+00-0.432D-01 0.444D+00 0.383D+00
 Coeff-En:   0.000D+00 0.000D+00 0.000D+00 0.000D+00 0.117D+00 0.883D+00
 Coeff:     -0.151D+00 0.232D+00 0.125D+00-0.414D-01 0.430D+00 0.404D+00
 Gap=     0.133 Goal=   None    Shift=    0.000
 RMSDP=1.63D-04 MaxDP=5.81D-03 DE=-1.29D-02 OVMax= 2.67D-02

 Cycle   7  Pass 0  IDiag  1:
 E= -323.594989771093     Delta-E=       -0.003004607807 Rises=F Damp=F
 DIIS: error= 4.83D-04 at cycle   7 NSaved=   7.
 NSaved= 7 IEnMin= 7 EnMin= -323.594989771093     IErMin= 7 ErrMin= 4.83D-04
 ErrMax= 4.83D-04  0.00D+00 EMaxC= 1.00D-01 BMatC= 6.90D-05 BMatP= 2.91D-03
 IDIUse=3 WtCom= 9.95D-01 WtEn= 4.83D-03
 Coeff-Com: -0.569D-01 0.813D-01 0.447D-01-0.164D-01 0.175D+00 0.215D+00
 Coeff-Com:  0.558D+00
 Coeff-En:   0.000D+00 0.000D+00 0.000D+00 0.000D+00 0.000D+00 0.000D+00
 Coeff-En:   0.100D+01
 Coeff:     -0.566D-01 0.809D-01 0.445D-01-0.164D-01 0.174D+00 0.214D+00
 Coeff:      0.560D+00
 Gap=     0.133 Goal=   None    Shift=    0.000
 RMSDP=3.03D-05 MaxDP=1.34D-03 DE=-3.00D-03 OVMax= 6.10D-03

 Cycle   8  Pass 0  IDiag  1:
 E= -323.595051232408     Delta-E=       -0.000061461315 Rises=F Damp=F
 DIIS: error= 2.20D-04 at cycle   8 NSaved=   8.
 NSaved= 8 IEnMin= 8 EnMin= -323.595051232408     IErMin= 8 ErrMin= 2.20D-04
 ErrMax= 2.20D-04  0.00D+00 EMaxC= 1.00D-01 BMatC= 1.17D-05 BMatP= 6.90D-05
 IDIUse=3 WtCom= 9.98D-01 WtEn= 2.20D-03
 Coeff-Com: -0.376D-02 0.223D-02 0.229D-02-0.117D-02 0.196D-01 0.587D-01
 Coeff-Com:  0.391D+00 0.532D+00
 Coeff-En:   0.000D+00 0.000D+00 0.000D+00 0.000D+00 0.000D+00 0.000D+00
 Coeff-En:   0.148D+00 0.852D+00
 Coeff:     -0.375D-02 0.223D-02 0.228D-02-0.117D-02 0.195D-01 0.586D-01
 Coeff:      0.390D+00 0.532D+00
 Gap=     0.133 Goal=   None    Shift=    0.000
 RMSDP=9.62D-06 MaxDP=4.96D-04 DE=-6.15D-05 OVMax= 1.45D-03

 Initial convergence to 1.0D-05 achieved.  Increase integral accuracy.
 Cycle   9  Pass 1  IDiag  1:
 E= -323.595010048724     Delta-E=        0.000041183684 Rises=F Damp=F
 DIIS: error= 5.08D-05 at cycle   1 NSaved=   1.
 NSaved= 1 IEnMin= 1 EnMin= -323.595010048724     IErMin= 1 ErrMin= 5.08D-05
 ErrMax= 5.08D-05  0.00D+00 EMaxC= 1.00D-01 BMatC= 4.40D-07 BMatP= 4.40D-07
 IDIUse=1 WtCom= 1.00D+00 WtEn= 0.00D+00
 Coeff-Com:  0.100D+01
 Coeff:      0.100D+01
 Gap=     0.133 Goal=   None    Shift=    0.000
 RMSDP=9.62D-06 MaxDP=4.96D-04 DE= 4.12D-05 OVMax= 5.38D-04

 Cycle  10  Pass 1  IDiag  1:
 E= -323.595009244312     Delta-E=        0.000000804412 Rises=F Damp=F
 DIIS: error= 7.31D-05 at cycle   2 NSaved=   2.
 NSaved= 2 IEnMin= 1 EnMin= -323.595010048724     IErMin= 1 ErrMin= 5.08D-05
 ErrMax= 7.31D-05  0.00D+00 EMaxC= 1.00D-01 BMatC= 1.02D-06 BMatP= 4.40D-07
 IDIUse=1 WtCom= 1.00D+00 WtEn= 0.00D+00
 Coeff-Com:  0.625D+00 0.375D+00
 Coeff:      0.625D+00 0.375D+00
 Gap=     0.133 Goal=   None    Shift=    0.000
 RMSDP=3.26D-06 MaxDP=1.33D-04 DE= 8.04D-07 OVMax= 5.34D-04

 Cycle  11  Pass 1  IDiag  1:
 E= -323.595010347462     Delta-E=       -0.000001103150 Rises=F Damp=F
 DIIS: error= 2.63D-05 at cycle   3 NSaved=   3.
 NSaved= 3 IEnMin= 3 EnMin= -323.595010347462     IErMin= 3 ErrMin= 2.63D-05
 ErrMax= 2.63D-05  0.00D+00 EMaxC= 1.00D-01 BMatC= 1.08D-07 BMatP= 4.40D-07
 IDIUse=1 WtCom= 1.00D+00 WtEn= 0.00D+00
 Coeff-Com:  0.110D+00 0.241D+00 0.650D+00
 Coeff:      0.110D+00 0.241D+00 0.650D+00
 Gap=     0.133 Goal=   None    Shift=    0.000
 RMSDP=1.28D-06 MaxDP=4.88D-05 DE=-1.10D-06 OVMax= 2.73D-04

 Cycle  12  Pass 1  IDiag  1:
 E= -323.595010417512     Delta-E=       -0.000000070050 Rises=F Damp=F
 DIIS: error= 1.68D-05 at cycle   4 NSaved=   4.
 NSaved= 4 IEnMin= 4 EnMin= -323.595010417512     IErMin= 4 ErrMin= 1.68D-05
 ErrMax= 1.68D-05  0.00D+00 EMaxC= 1.00D-01 BMatC= 4.93D-08 BMatP= 1.08D-07
 IDIUse=1 WtCom= 1.00D+00 WtEn= 0.00D+00
 Coeff-Com:  0.217D-01 0.147D+00 0.491D+00 0.340D+00
 Coeff:      0.217D-01 0.147D+00 0.491D+00 0.340D+00
 Gap=     0.133 Goal=   None    Shift=    0.000
 RMSDP=7.22D-07 MaxDP=2.52D-05 DE=-7.00D-08 OVMax= 1.26D-04

 Cycle  13  Pass 1  IDiag  1:
 E= -323.595010448400     Delta-E=       -0.000000030888 Rises=F Damp=F
 DIIS: error= 5.67D-06 at cycle   5 NSaved=   5.
 NSaved= 5 IEnMin= 5 EnMin= -323.595010448400     IErMin= 5 ErrMin= 5.67D-06
 ErrMax= 5.67D-06  0.00D+00 EMaxC= 1.00D-01 BMatC= 8.59D-09 BMatP= 4.93D-08
 IDIUse=1 WtCom= 1.00D+00 WtEn= 0.00D+00
 Coeff-Com:  0.673D-03 0.810D-01 0.293D+00 0.279D+00 0.346D+00
 Coeff:      0.673D-03 0.810D-01 0.293D+00 0.279D+00 0.346D+00
 Gap=     0.133 Goal=   None    Shift=    0.000
 RMSDP=2.48D-07 MaxDP=1.23D-05 DE=-3.09D-08 OVMax= 3.30D-05

 Cycle  14  Pass 1  IDiag  1:
 E= -323.595010454750     Delta-E=       -0.000000006350 Rises=F Damp=F
 DIIS: error= 1.45D-06 at cycle   6 NSaved=   6.
 NSaved= 6 IEnMin= 6 EnMin= -323.595010454750     IErMin= 6 ErrMin= 1.45D-06
 ErrMax= 1.45D-06  0.00D+00 EMaxC= 1.00D-01 BMatC= 9.69D-10 BMatP= 8.59D-09
 IDIUse=1 WtCom= 1.00D+00 WtEn= 0.00D+00
 Coeff-Com: -0.295D-02 0.384D-01 0.142D+00 0.163D+00 0.267D+00 0.392D+00
 Coeff:     -0.295D-02 0.384D-01 0.142D+00 0.163D+00 0.267D+00 0.392D+00
 Gap=     0.133 Goal=   None    Shift=    0.000
 RMSDP=8.48D-08 MaxDP=3.28D-06 DE=-6.35D-09 OVMax= 1.22D-05

 Cycle  15  Pass 1  IDiag  1:
 E= -323.595010455678     Delta-E=       -0.000000000928 Rises=F Damp=F
 DIIS: error= 2.53D-07 at cycle   7 NSaved=   7.
 NSaved= 7 IEnMin= 7 EnMin= -323.595010455678     IErMin= 7 ErrMin= 2.53D-07
 ErrMax= 2.53D-07  0.00D+00 EMaxC= 1.00D-01 BMatC= 1.54D-11 BMatP= 9.69D-10
 IDIUse=1 WtCom= 1.00D+00 WtEn= 0.00D+00
 Coeff-Com: -0.167D-02 0.172D-01 0.636D-01 0.763D-01 0.128D+00 0.205D+00
 Coeff-Com:  0.511D+00
 Coeff:     -0.167D-02 0.172D-01 0.636D-01 0.763D-01 0.128D+00 0.205D+00
 Coeff:      0.511D+00
 Gap=     0.133 Goal=   None    Shift=    0.000
 RMSDP=1.66D-08 MaxDP=9.13D-07 DE=-9.28D-10 OVMax= 2.92D-06

 Cycle  16  Pass 1  IDiag  1:
 E= -323.595010455684     Delta-E=       -0.000000000006 Rises=F Damp=F
 DIIS: error= 1.81D-07 at cycle   8 NSaved=   8.
 NSaved= 8 IEnMin= 8 EnMin= -323.595010455684     IErMin= 8 ErrMin= 1.81D-07
 ErrMax= 1.81D-07  0.00D+00 EMaxC= 1.00D-01 BMatC= 6.90D-12 BMatP= 1.54D-11
 IDIUse=1 WtCom= 1.00D+00 WtEn= 0.00D+00
 Coeff-Com: -0.540D-03 0.526D-02 0.192D-01 0.244D-01 0.432D-01 0.749D-01
 Coeff-Com:  0.390D+00 0.443D+00
 Coeff:     -0.540D-03 0.526D-02 0.192D-01 0.244D-01 0.432D-01 0.749D-01
 Coeff:      0.390D+00 0.443D+00
 Gap=     0.133 Goal=   None    Shift=    0.000
 RMSDP=9.10D-09 MaxDP=3.89D-07 DE=-6.37D-12 OVMax= 1.61D-06

 SCF Done:  E(RB-P86) =  -323.595010456     A.U. after   16 cycles
            NFock= 16  Conv=0.91D-08     -V/T= 2.0046
 KE= 3.221021923358D+02 PE=-1.303868821236D+03 EE= 3.836192316481D+02
 Leave Link  502 at Sat Aug 28 00:50:49 2021, MaxMem= 17179869184 cpu:       423.0
 (Enter /public3/home/sc51754/softwares/g09e01/l801.exe)
 Range of M.O.s used for correlation:     1   280
 NBasis=   280 NAE=    25 NBE=    25 NFC=     0 NFV=     0
 NROrb=    280 NOA=    25 NOB=    25 NVA=   255 NVB=   255

 **** Warning!!: The largest alpha MO coefficient is  0.19845490D+02

 Leave Link  801 at Sat Aug 28 00:50:49 2021, MaxMem= 17179869184 cpu:         1.2
 (Enter /public3/home/sc51754/softwares/g09e01/l1101.exe)
 Using compressed storage, NAtomX=    12.
 Will process     13 centers per pass.
 Leave Link 1101 at Sat Aug 28 00:50:51 2021, MaxMem= 17179869184 cpu:        57.2
 (Enter /public3/home/sc51754/softwares/g09e01/l1102.exe)
 Symmetrizing basis deriv contribution to polar:
 IMax=3 JMax=2 DiffMx= 0.00D+00
 Leave Link 1102 at Sat Aug 28 00:50:52 2021, MaxMem= 17179869184 cpu:        12.8
 (Enter /public3/home/sc51754/softwares/g09e01/l1110.exe)
 Forming Gx(P) for the SCF density, NAtomX=    12.
 Integral derivatives from FoFJK, PRISM(SPDF).
 Do as many integral derivatives as possible in FoFJK.
 G2DrvN: MDV=   17179868984.
 G2DrvN: will do    13 centers at a time, making    1 passes.
 Calling FoFCou, ICntrl=  3507 FMM=F I1Cent=   0 AccDes= 0.00D+00.
 FoFJK:  IHMeth= 1 ICntrl=    3507 DoSepK=F KAlg= 0 I1Cent=   0 FoldK=F
 IRaf=         0 NMat=   1 IRICut=       1 DoRegI=T DoRafI=F ISym2E= 1.
 FoFCou: FMM=F IPFlag=           0 FMFlag=      100000 FMFlg1=           0
         NFxFlg=           0 DoJE=F BraDBF=F KetDBF=F FulRan=T
         wScrn=  0.000000 ICntrl=    3507 IOpCl=  0 I1Cent=           0 NGrid=           0
         NMat0=    1 NMatS0=      1 NMatT0=    0 NMatD0=    1 NMtDS0=    0 NMtDT0=    0
 Petite list used in FoFCou.
 End of G2Drv F.D. properties file   721 does not exist.
 End of G2Drv F.D. properties file   722 does not exist.
 End of G2Drv F.D. properties file   788 does not exist.
 Leave Link 1110 at Sat Aug 28 00:50:57 2021, MaxMem= 17179869184 cpu:       300.6
 (Enter /public3/home/sc51754/softwares/g09e01/l1002.exe)
 Minotr:  Closed shell wavefunction.
          IDoAtm=111111111111
          Direct CPHF calculation.
          Differentiating once with respect to nuclear coordinates.
          Using symmetry in CPHF.
          Requested convergence is 1.0D-08 RMS, and 1.0D-07 maximum.
          Secondary convergence is 1.0D-12 RMS, and 1.0D-12 maximum.
          NewPWx=T KeepS1=F KeepF1=F KeepIn=T MapXYZ=F SortEE=F KeepMc=T.
          MDV=   17179868780 using IRadAn=       2.
 Generate precomputed XC quadrature information.
 Keep J ints in memory in symmetry-blocked form, NReq=1167458725.
 FoFCou: FMM=F IPFlag=           0 FMFlag=           0 FMFlg1=           0
         NFxFlg=           0 DoJE=F BraDBF=F KetDBF=F FulRan=T
         wScrn=  0.000000 ICntrl=     600 IOpCl=  0 I1Cent=           0 NGrid=           0
         NMat0=    1 NMatS0=  39340 NMatT0=    0 NMatD0=    1 NMtDS0=    0 NMtDT0=    0
 Petite list used in FoFCou.
          Solving linear equations simultaneously, MaxMat=       0.
          There are    39 degrees of freedom in the 1st order CPHF.  IDoFFX=6 NUNeed=     0.
     33 vectors produced by pass  0 Test12= 1.63D-14 2.56D-09 XBig12= 1.84D-01 1.86D-01.
 AX will form    33 AO Fock derivatives at one time.
     33 vectors produced by pass  1 Test12= 1.63D-14 2.56D-09 XBig12= 7.18D-02 9.47D-02.
     33 vectors produced by pass  2 Test12= 1.63D-14 2.56D-09 XBig12= 5.99D-04 5.52D-03.
     33 vectors produced by pass  3 Test12= 1.63D-14 2.56D-09 XBig12= 3.72D-06 2.51D-04.
     33 vectors produced by pass  4 Test12= 1.63D-14 2.56D-09 XBig12= 8.49D-09 1.07D-05.
     22 vectors produced by pass  5 Test12= 1.63D-14 2.56D-09 XBig12= 4.59D-12 1.88D-07.
      3 vectors produced by pass  6 Test12= 1.63D-14 2.56D-09 XBig12= 3.09D-15 6.43D-09.
 InvSVY:  IOpt=1 It=  1 EMax= 1.33D-15
 Solved reduced A of dimension   190 with    33 vectors.
 End of Minotr F.D. properties file   721 does not exist.
 End of Minotr F.D. properties file   722 does not exist.
 End of Minotr F.D. properties file   788 does not exist.
 Leave Link 1002 at Sat Aug 28 00:51:10 2021, MaxMem= 17179869184 cpu:       771.8
 (Enter /public3/home/sc51754/softwares/g09e01/l601.exe)
 Copying SCF densities to generalized density rwf, IOpCl= 0 IROHF=0.

 **********************************************************************

            Population analysis using the SCF density.

 **********************************************************************

 Orbital symmetries:
       Occupied  (A') (A') (A') (A') (A') (A') (A') (A') (A') (A')
                 (A') (A') (A') (A') (A') (A') (A") (A') (A') (A')
                 (A") (A') (A") (A') (A")
       Virtual   (A") (A") (A') (A') (A') (A') (A') (A") (A') (A')
                 (A') (A") (A') (A') (A") (A') (A") (A') (A') (A')
                 (A") (A') (A') (A") (A') (A') (A') (A') (A') (A')
                 (A') (A") (A') (A") (A') (A') (A') (A') (A') (A')
                 (A') (A') (A') (A") (A') (A') (A") (A') (A") (A")
                 (A') (A') (A") (A') (A") (A") (A') (A') (A') (A')
                 (A') (A") (A') (A') (A") (A') (A') (A') (A") (A')
                 (A") (A") (A') (A") (A") (A') (A') (A") (A') (A')
                 (A") (A") (A') (A') (A") (A') (A") (A') (A') (A")
                 (A') (A") (A') (A') (A') (A') (A') (A") (A') (A')
                 (A') (A') (A") (A') (A') (A') (A") (A') (A') (A')
                 (A") (A') (A') (A') (A') (A') (A") (A') (A') (A')
                 (A') (A") (A') (A") (A') (A") (A') (A") (A") (A')
                 (A") (A") (A') (A") (A') (A') (A') (A') (A") (A')
                 (A') (A') (A") (A') (A') (A") (A') (A") (A') (A')
                 (A') (A') (A') (A") (A") (A") (A") (A') (A') (A")
                 (A') (A") (A") (A') (A') (A") (A') (A') (A") (A')
                 (A') (A") (A') (A") (A") (A') (A') (A") (A") (A")
                 (A') (A') (A") (A') (A") (A') (A") (A") (A') (A")
                 (A") (A') (A") (A') (A') (A') (A") (A") (A') (A")
                 (A') (A') (A") (A") (A') (A') (A') (A") (A') (A')
                 (A') (A") (A') (A") (A') (A") (A') (A') (A') (A")
                 (A") (A') (A') (A') (A") (A') (A') (A") (A') (A')
                 (A') (A') (A") (A') (A') (A') (A') (A') (A") (A')
                 (A') (A') (A") (A') (A') (A') (A') (A') (A') (A')
                 (A') (A') (A') (A') (A')
 The electronic state is 1-A'.
 Alpha  occ. eigenvalues --  -18.78752 -14.03874  -9.99861  -9.96164  -9.93457
 Alpha  occ. eigenvalues --   -9.92173  -9.91957  -0.95658  -0.87048  -0.75218
 Alpha  occ. eigenvalues --   -0.69381  -0.60707  -0.57010  -0.49109  -0.46774
 Alpha  occ. eigenvalues --   -0.42889  -0.40346  -0.39566  -0.38922  -0.34912
 Alpha  occ. eigenvalues --   -0.31183  -0.30839  -0.28335  -0.28170  -0.21641
 Alpha virt. eigenvalues --   -0.08380  -0.04989  -0.04656   0.00781   0.03087
 Alpha virt. eigenvalues --    0.04694   0.06708   0.07425   0.09543   0.12496
 Alpha virt. eigenvalues --    0.13622   0.13782   0.14554   0.15375   0.17713
 Alpha virt. eigenvalues --    0.17755   0.18795   0.21338   0.22169   0.24366
 Alpha virt. eigenvalues --    0.24855   0.25314   0.26282   0.26617   0.27382
 Alpha virt. eigenvalues --    0.28953   0.30285   0.32243   0.32904   0.35424
 Alpha virt. eigenvalues --    0.38391   0.39511   0.39597   0.40544   0.41820
 Alpha virt. eigenvalues --    0.45360   0.48201   0.48852   0.51630   0.54171
 Alpha virt. eigenvalues --    0.55266   0.57587   0.59514   0.59597   0.61176
 Alpha virt. eigenvalues --    0.63897   0.65171   0.69367   0.71084   0.74120
 Alpha virt. eigenvalues --    0.75871   0.84229   0.84610   0.85006   0.87978
 Alpha virt. eigenvalues --    0.88584   0.89853   0.91040   0.92501   0.94417
 Alpha virt. eigenvalues --    0.95287   1.02296   1.02900   1.04503   1.07434
 Alpha virt. eigenvalues --    1.09602   1.09848   1.11722   1.12884   1.15641
 Alpha virt. eigenvalues --    1.15834   1.18671   1.20221   1.20476   1.22676
 Alpha virt. eigenvalues --    1.28288   1.33439   1.34009   1.34060   1.42007
 Alpha virt. eigenvalues --    1.42348   1.43918   1.45140   1.47320   1.49302
 Alpha virt. eigenvalues --    1.50583   1.52645   1.54287   1.57710   1.59022
 Alpha virt. eigenvalues --    1.59130   1.60826   1.62802   1.65398   1.68740
 Alpha virt. eigenvalues --    1.69842   1.73354   1.76777   1.78138   1.79004
 Alpha virt. eigenvalues --    1.82313   1.84000   1.88478   1.90752   1.91756
 Alpha virt. eigenvalues --    1.99833   2.00898   2.03681   2.07556   2.10096
 Alpha virt. eigenvalues --    2.11886   2.13579   2.15458   2.17443   2.20000
 Alpha virt. eigenvalues --    2.23047   2.29178   2.30556   2.52171   2.55744
 Alpha virt. eigenvalues --    2.73754   2.76025   2.82832   2.85015   2.91969
 Alpha virt. eigenvalues --    3.03481   3.04644   3.08672   3.13181   3.16067
 Alpha virt. eigenvalues --    3.16334   3.19832   3.25066   3.26888   3.27286
 Alpha virt. eigenvalues --    3.29332   3.30708   3.37385   3.37463   3.45656
 Alpha virt. eigenvalues --    3.47575   3.48664   3.49683   3.50180   3.53316
 Alpha virt. eigenvalues --    3.56000   3.61946   3.62516   3.66567   3.73516
 Alpha virt. eigenvalues --    3.76466   3.79233   3.79685   3.80145   3.84343
 Alpha virt. eigenvalues --    3.86207   3.92354   3.94053   3.95812   3.96524
 Alpha virt. eigenvalues --    3.99727   3.99903   4.02403   4.03311   4.06283
 Alpha virt. eigenvalues --    4.07999   4.08101   4.09138   4.10151   4.11339
 Alpha virt. eigenvalues --    4.15894   4.16401   4.18077   4.18724   4.19119
 Alpha virt. eigenvalues --    4.20779   4.22525   4.24162   4.26878   4.30012
 Alpha virt. eigenvalues --    4.30205   4.30671   4.32820   4.32865   4.35672
 Alpha virt. eigenvalues --    4.36859   4.37473   4.39990   4.43982   4.44910
 Alpha virt. eigenvalues --    4.48047   4.51649   4.51652   4.56194   4.57355
 Alpha virt. eigenvalues --    4.59711   4.63542   4.65747   4.68129   4.72993
 Alpha virt. eigenvalues --    4.74501   4.80252   4.81090   4.82449   4.88381
 Alpha virt. eigenvalues --    4.91746   4.96479   4.96934   5.03649   5.06311
 Alpha virt. eigenvalues --    5.07586   5.11240   5.14603   5.15581   5.18949
 Alpha virt. eigenvalues --    5.22121   5.22419   5.23451   5.27999   5.28643
 Alpha virt. eigenvalues --    5.29483   5.29653   5.33683   5.39909   5.41103
 Alpha virt. eigenvalues --    5.45405   5.51806   5.52288   5.53694   5.60295
 Alpha virt. eigenvalues --    5.62377   5.67543   5.68167   5.73396   5.85468
 Alpha virt. eigenvalues --    5.91881   5.97701   5.99755   6.10878   6.16942
 Alpha virt. eigenvalues --    6.26113   6.30226   6.37345   6.38685   6.47656
 Alpha virt. eigenvalues --    6.69435   6.90062   7.01156   9.09013  11.64876
 Alpha virt. eigenvalues --   12.33261  14.45773  17.23588  18.17981  21.88480
          Condensed to atoms (all electrons):
               1          2          3          4          5          6
     1  O    8.081176  -0.129828   0.361710  -0.060419   0.002468   0.006787
     2  N   -0.129828   6.688961   0.359836  -0.005666   0.490077  -0.031514
     3  C    0.361710   0.359836   4.565108   0.480283  -0.079553  -0.052747
     4  C   -0.060419  -0.005666   0.480283   4.879889  -0.041675   0.512105
     5  C    0.002468   0.490077  -0.079553  -0.041675   4.657718  -0.067594
     6  C    0.006787  -0.031514  -0.052747   0.512105  -0.067594   4.770359
     7  C    0.000012  -0.033174  -0.045526  -0.057078   0.517015   0.474889
     8  H    0.195307   0.090755  -0.060157   0.021480   0.002200  -0.005952
     9  H    0.003601   0.007038  -0.042593   0.441101  -0.002356  -0.038154
    10  H   -0.000667  -0.035565   0.005198  -0.001883   0.433437   0.007561
    11  H   -0.000368  -0.001382   0.009412  -0.037981   0.008611   0.430685
    12  H    0.000061   0.006442  -0.000834   0.007893  -0.033849  -0.039272
               7          8          9         10         11         12
     1  O    0.000012   0.195307   0.003601  -0.000667  -0.000368   0.000061
     2  N   -0.033174   0.090755   0.007038  -0.035565  -0.001382   0.006442
     3  C   -0.045526  -0.060157  -0.042593   0.005198   0.009412  -0.000834
     4  C   -0.057078   0.021480   0.441101  -0.001883  -0.037981   0.007893
     5  C    0.517015   0.002200  -0.002356   0.433437   0.008611  -0.033849
     6  C    0.474889  -0.005952  -0.038154   0.007561   0.430685  -0.039272
     7  C    4.953380   0.004152   0.008895  -0.060002  -0.046231   0.433784
     8  H    0.004152   0.524905  -0.001073  -0.003391   0.000242  -0.000164
     9  H    0.008895  -0.001073   0.562161   0.000244  -0.008014  -0.000070
    10  H   -0.060002  -0.003391   0.000244   0.583678  -0.000264  -0.005172
    11  H   -0.046231   0.000242  -0.008014  -0.000264   0.586005  -0.007636
    12  H    0.433784  -0.000164  -0.000070  -0.005172  -0.007636   0.575702
 Mulliken charges:
               1
     1  O   -0.459840
     2  N   -0.405980
     3  C    0.499862
     4  C   -0.138050
     5  C    0.113501
     6  C    0.032848
     7  C   -0.150119
     8  H    0.231697
     9  H    0.069219
    10  H    0.076827
    11  H    0.066920
    12  H    0.063115
 Sum of Mulliken charges =  -0.00000
 Mulliken charges with hydrogens summed into heavy atoms:
               1
     1  O   -0.228143
     2  N   -0.405980
     3  C    0.499862
     4  C   -0.068830
     5  C    0.190328
     6  C    0.099768
     7  C   -0.087004
 APT charges:
               1
     1  O   -0.245600
     2  N   -0.415921
     3  C    0.191479
     4  C   -0.553252
     5  C   -0.389093
     6  C   -0.383512
     7  C   -0.521425
     8  H    0.280255
     9  H    0.452863
    10  H    0.507648
    11  H    0.516606
    12  H    0.559950
 Sum of APT charges =   0.00000
 APT charges with hydrogens summed into heavy atoms:
               1
     1  O    0.034656
     2  N   -0.415921
     3  C    0.191479
     4  C   -0.100389
     5  C    0.118555
     6  C    0.133095
     7  C    0.038525
 Electronic spatial extent (au):  <R**2>=            631.6019
 Charge=             -0.0000 electrons
 Dipole moment (field-independent basis, Debye):
    X=              0.1678    Y=             -2.9798    Z=              0.0000  Tot=              2.9846
 Quadrupole moment (field-independent basis, Debye-Ang):
   XX=            -36.0184   YY=            -43.0219   ZZ=            -43.3409
   XY=             -0.6667   XZ=             -0.0000   YZ=              0.0000
 Traceless Quadrupole moment (field-independent basis, Debye-Ang):
   XX=              4.7753   YY=             -2.2282   ZZ=             -2.5472
   XY=             -0.6667   XZ=             -0.0000   YZ=              0.0000
 Octapole moment (field-independent basis, Debye-Ang**2):
  XXX=              3.2429  YYY=            -19.3808  ZZZ=             -0.0000  XYY=             -4.2422
  XXY=              0.5280  XXZ=              0.0000  XZZ=             -1.2782  YZZ=              4.4709
  YYZ=              0.0000  XYZ=             -0.0000
 Hexadecapole moment (field-independent basis, Debye-Ang**3):
 XXXX=           -267.7186 YYYY=           -522.1693 ZZZZ=            -47.1011 XXXY=             10.2917
 XXXZ=             -0.0000 YYYX=             -3.1923 YYYZ=              0.0000 ZZZX=             -0.0000
 ZZZY=              0.0000 XXYY=           -113.8594 XXZZ=            -61.3018 YYZZ=            -99.0852
 XXYZ=              0.0000 YYXZ=             -0.0000 ZZXY=              2.2085
 N-N= 2.745523867962D+02 E-N=-1.303868806972D+03  KE= 3.221021923358D+02
 Symmetry A'   KE= 3.103701811330D+02
 Symmetry A"   KE= 1.173201120280D+01
  Exact polarizability:   0.000   0.000   0.000   0.000   0.000   0.000
 Approx polarizability: 167.585   8.828 208.339   0.000  -0.000  64.476
 No NMR shielding tensors so no spin-rotation constants.
 Leave Link  601 at Sat Aug 28 00:51:11 2021, MaxMem= 17179869184 cpu:        48.3
 (Enter /public3/home/sc51754/softwares/g09e01/l701.exe)
 Compute integral second derivatives.
 ... and contract with generalized density number  0.
 Leave Link  701 at Sat Aug 28 00:51:12 2021, MaxMem= 17179869184 cpu:        49.6
 (Enter /public3/home/sc51754/softwares/g09e01/l702.exe)
 L702 exits ... SP integral derivatives will be done elsewhere.
 Leave Link  702 at Sat Aug 28 00:51:12 2021, MaxMem= 17179869184 cpu:         0.9
 (Enter /public3/home/sc51754/softwares/g09e01/l703.exe)
 Compute integral second derivatives, UseDBF=F ICtDFT=           0.
 Integral derivatives from FoFJK, PRISM(SPDF).
 Calling FoFJK, ICntrl=    100547 FMM=F ISym2X=1 I1Cent= 0 IOpClX= 0 NMat=1 NMatS=1 NMatT=0.
 FoFJK:  IHMeth= 1 ICntrl=  100547 DoSepK=F KAlg= 0 I1Cent=   0 FoldK=F
 IRaf=         0 NMat=   1 IRICut=       1 DoRegI=T DoRafI=F ISym2E= 1.
 FoFCou: FMM=F IPFlag=           0 FMFlag=      100000 FMFlg1=         800
         NFxFlg=           0 DoJE=F BraDBF=F KetDBF=F FulRan=T
         wScrn=  0.000000 ICntrl=  100547 IOpCl=  0 I1Cent=           0 NGrid=           0
         NMat0=    1 NMatS0=      1 NMatT0=    0 NMatD0=    1 NMtDS0=    0 NMtDT0=    0
 Petite list used in FoFCou.
 Leave Link  703 at Sat Aug 28 00:51:21 2021, MaxMem= 17179869184 cpu:       540.3
 (Enter /public3/home/sc51754/softwares/g09e01/l716.exe)
 Dipole        = 6.60227211D-02-1.17235888D+00 8.60366790D-32
 Polarizability= 0.00000000D+00 0.00000000D+00 0.00000000D+00
                 0.00000000D+00 0.00000000D+00 0.00000000D+00
 ***** Axes restored to original set *****
 -------------------------------------------------------------------
 Center     Atomic                   Forces (Hartrees/Bohr)
 Number     Number              X              Y              Z
 -------------------------------------------------------------------
      1        8          -0.080727381   -0.052651319   -0.000000000
      2        7           0.007245042    0.013966375   -0.000000000
      3        6           0.046658797    0.034300470    0.000000000
      4        6           0.003206833   -0.015209385    0.000000000
      5        6          -0.013057664   -0.012502882   -0.000000000
      6        6           0.004947569    0.005299730   -0.000000000
      7        6          -0.005054859    0.003450870   -0.000000000
      8        1           0.038817410    0.022661677    0.000000000
      9        1          -0.001280932    0.000201414   -0.000000000
     10        1           0.000753565    0.000148143    0.000000000
     11        1          -0.000041373   -0.000618028    0.000000000
     12        1          -0.001467007    0.000952937   -0.000000000
 -------------------------------------------------------------------
 Cartesian Forces:  Max     0.080727381 RMS     0.020799776
 Force constants in Cartesian coordinates: 
                1             2             3             4             5 
      1  0.585470D-01
      2  0.831803D-02  0.381014D+00
      3  0.000000D+00  0.000000D+00  0.724444D-01
      4 -0.170364D-01 -0.234682D-01  0.000000D+00  0.474057D+00
      5 -0.881045D-01 -0.455312D-01  0.000000D+00  0.126208D+00  0.583451D+00
      6  0.000000D+00  0.000000D+00  0.156510D-01  0.000000D+00  0.000000D+00
      7 -0.837394D-01  0.575963D-02  0.000000D+00 -0.303433D+00 -0.677577D-01
      8 -0.176600D-01 -0.256063D+00  0.000000D+00 -0.100805D+00 -0.179965D+00
      9  0.000000D+00  0.000000D+00 -0.662559D-01  0.000000D+00  0.000000D+00
     10 -0.293133D-02  0.174816D-01  0.000000D+00 -0.532114D-01 -0.241092D-01
     11  0.505048D-01 -0.449042D-01  0.000000D+00  0.978059D-02  0.553337D-01
     12  0.000000D+00  0.000000D+00  0.123043D-01  0.000000D+00  0.000000D+00
     13  0.667239D-02 -0.204306D-02  0.000000D+00 -0.111737D+00 -0.324531D-02
     14  0.183938D-01 -0.160602D-02  0.000000D+00  0.229604D-02 -0.318477D+00
     15  0.000000D+00  0.000000D+00  0.668143D-02  0.000000D+00  0.000000D+00
     16 -0.133867D-01  0.505143D-02  0.000000D+00 -0.134274D-01 -0.362968D-01
     17 -0.887684D-02  0.897448D-02  0.000000D+00 -0.226561D-01 -0.445215D-01
     18  0.000000D+00  0.000000D+00  0.495390D-02  0.000000D+00  0.000000D+00
     19  0.109380D-01 -0.577042D-02  0.000000D+00  0.301154D-01  0.709676D-01
     20 -0.614930D-02 -0.507529D-02  0.000000D+00  0.226080D-01 -0.513244D-01
     21  0.000000D+00  0.000000D+00 -0.237629D-02  0.000000D+00  0.000000D+00
     22  0.373384D-01 -0.467891D-02  0.000000D+00 -0.222901D-02  0.190289D-01
     23  0.437838D-01 -0.360094D-01  0.000000D+00  0.106281D-01  0.242890D-01
     24  0.000000D+00  0.000000D+00 -0.408460D-01  0.000000D+00  0.000000D+00
     25  0.230447D-02 -0.431680D-03  0.000000D+00 -0.379097D-02  0.379191D-02
     26 -0.599612D-03  0.782688D-03  0.000000D+00  0.494236D-02 -0.849401D-03
     27  0.000000D+00  0.000000D+00 -0.183935D-02  0.000000D+00  0.000000D+00
     28 -0.575429D-03  0.496574D-04  0.000000D+00  0.396604D-02 -0.431896D-02
     29 -0.674055D-03 -0.123174D-02  0.000000D+00 -0.319513D-01 -0.217424D-01
     30  0.000000D+00  0.000000D+00  0.863484D-03  0.000000D+00  0.000000D+00
     31 -0.300184D-04  0.543866D-04  0.000000D+00  0.591495D-03 -0.665944D-03
     32  0.173753D-02 -0.654140D-03  0.000000D+00 -0.365160D-03 -0.380432D-03
     33  0.000000D+00  0.000000D+00 -0.777127D-03  0.000000D+00  0.000000D+00
     34  0.189912D-02 -0.322459D-03  0.000000D+00 -0.386455D-02  0.450223D-02
     35 -0.673591D-03  0.303670D-03  0.000000D+00  0.278320D-02 -0.282311D-03
     36  0.000000D+00  0.000000D+00 -0.803936D-03  0.000000D+00  0.000000D+00
                6             7             8             9            10 
      6  0.830900D-01
      7  0.000000D+00  0.705711D+00
      8  0.000000D+00 -0.323217D-01  0.601185D+00
      9 -0.658284D-01  0.000000D+00  0.000000D+00  0.170328D+00
     10  0.000000D+00 -0.259053D+00  0.866872D-01  0.000000D+00  0.679724D+00
     11  0.000000D+00  0.459119D-01 -0.130044D+00  0.000000D+00  0.454165D-01
     12  0.110830D-01  0.000000D+00  0.000000D+00 -0.703361D-01  0.000000D+00
     13  0.000000D+00  0.176141D-01 -0.328751D-01  0.000000D+00 -0.123890D-01
     14  0.000000D+00 -0.891091D-01 -0.353163D-01  0.000000D+00  0.274633D-01
     15 -0.494031D-01  0.000000D+00  0.000000D+00  0.111558D-02  0.000000D+00
     16  0.000000D+00  0.390604D-01  0.277523D-01  0.000000D+00 -0.122562D+00
     17  0.000000D+00  0.650181D-01 -0.354307D-01  0.000000D+00 -0.274673D-01
     18 -0.547482D-02  0.000000D+00  0.000000D+00  0.175657D-02  0.000000D+00
     19  0.000000D+00 -0.618428D-01  0.343165D-02  0.000000D+00  0.241676D-01
     20  0.000000D+00  0.129346D-01  0.542921D-03  0.000000D+00 -0.330130D-01
     21  0.167386D-01  0.000000D+00  0.000000D+00 -0.806757D-02  0.000000D+00
     22  0.000000D+00 -0.410372D-01  0.810823D-01  0.000000D+00  0.296455D-02
     23  0.000000D+00  0.477385D-01  0.331184D-01  0.000000D+00  0.393198D-02
     24 -0.143699D-01  0.000000D+00  0.000000D+00  0.168877D-01  0.000000D+00
     25  0.000000D+00 -0.159550D-01 -0.164907D-01  0.000000D+00 -0.256440D+00
     26  0.000000D+00  0.124128D-01  0.101168D-01  0.000000D+00 -0.121095D+00
     27  0.496629D-02  0.000000D+00  0.000000D+00  0.150412D-02  0.000000D+00
     28  0.000000D+00  0.303734D-02  0.117538D-02  0.000000D+00  0.296230D-03
     29  0.000000D+00  0.113731D-02 -0.351697D-02  0.000000D+00  0.206011D-04
     30 -0.178257D-02  0.000000D+00  0.000000D+00  0.883825D-02  0.000000D+00
     31  0.000000D+00  0.180085D-02 -0.105662D-02  0.000000D+00  0.383178D-02
     32  0.000000D+00 -0.174357D-02 -0.482702D-02  0.000000D+00  0.271084D-01
     33 -0.198925D-02  0.000000D+00  0.000000D+00  0.102136D-01  0.000000D+00
     34  0.000000D+00 -0.216285D-02  0.108052D-02  0.000000D+00 -0.439693D-02
     35  0.000000D+00  0.193679D-04  0.200841D-03  0.000000D+00 -0.242559D-02
     36  0.731918D-02  0.000000D+00  0.000000D+00 -0.155584D-03  0.000000D+00
               11            12            13            14            15 
     11  0.680326D+00
     12  0.000000D+00  0.110339D+00
     13  0.191774D-01  0.000000D+00  0.704005D+00
     14 -0.411061D-01  0.000000D+00  0.326613D-01  0.635182D+00
     15  0.000000D+00 -0.168989D-02  0.000000D+00  0.000000D+00  0.133398D+00
     16  0.190830D-01  0.000000D+00 -0.582964D-01  0.270114D-01  0.000000D+00
     17 -0.344905D+00  0.000000D+00 -0.145032D-01  0.560634D-01  0.000000D+00
     18  0.000000D+00 -0.532394D-01  0.000000D+00  0.000000D+00  0.638901D-02
     19 -0.614539D-01  0.000000D+00 -0.264458D+00  0.607011D-01  0.000000D+00
     20 -0.246171D-01  0.000000D+00  0.115713D+00 -0.169626D+00  0.000000D+00
     21  0.000000D+00  0.719169D-02  0.000000D+00  0.000000D+00 -0.597894D-01
     22 -0.591076D-02  0.000000D+00 -0.104829D-01 -0.652911D-02  0.000000D+00
     23 -0.150606D-01  0.000000D+00 -0.141032D-01 -0.165674D-01  0.000000D+00
     24  0.000000D+00  0.582168D-02  0.000000D+00  0.000000D+00 -0.348320D-02
     25 -0.119759D+00  0.000000D+00  0.796383D-04  0.204790D-02  0.000000D+00
     26 -0.124420D+00  0.000000D+00  0.328366D-03 -0.124239D-02  0.000000D+00
     27  0.000000D+00 -0.305020D-01  0.000000D+00  0.000000D+00 -0.360384D-03
     28  0.792994D-03  0.000000D+00 -0.272519D+00 -0.964419D-01  0.000000D+00
     29 -0.546171D-03  0.000000D+00 -0.935608D-01 -0.947168D-01  0.000000D+00
     30  0.000000D+00 -0.853557D-03  0.000000D+00  0.000000D+00 -0.376875D-01
     31 -0.165773D-02  0.000000D+00 -0.385413D-02 -0.373454D-02  0.000000D+00
     32 -0.108180D-01  0.000000D+00 -0.325440D-02 -0.810179D-03  0.000000D+00
     33  0.000000D+00  0.482386D-02  0.000000D+00  0.000000D+00  0.629527D-02
     34 -0.188551D-02  0.000000D+00  0.536618D-02  0.252399D-01  0.000000D+00
     35  0.762018D-03  0.000000D+00 -0.429478D-02 -0.117772D-01  0.000000D+00
     36  0.000000D+00  0.505766D-02  0.000000D+00  0.000000D+00 -0.146594D-02
               16            17            18            19            20 
     16  0.681611D+00
     17 -0.362704D-01  0.658775D+00
     18  0.000000D+00  0.000000D+00  0.130892D+00
     19 -0.269073D+00 -0.547378D-01  0.000000D+00  0.617022D+00
     20 -0.108166D+00 -0.159231D+00  0.000000D+00  0.585100D-02  0.713196D+00
     21  0.000000D+00  0.000000D+00 -0.557137D-01  0.000000D+00  0.000000D+00
     22  0.156366D-02  0.388029D-02  0.000000D+00 -0.214560D-02  0.122267D-02
     23  0.654642D-02  0.728542D-02  0.000000D+00 -0.791585D-02  0.467212D-02
     24  0.000000D+00  0.000000D+00 -0.247425D-03  0.000000D+00  0.000000D+00
     25  0.433371D-02  0.189729D-02  0.000000D+00  0.217096D-02  0.698007D-03
     26 -0.264251D-01 -0.100971D-01  0.000000D+00  0.167607D-02 -0.494612D-02
     27  0.000000D+00  0.000000D+00  0.155441D-02  0.000000D+00  0.000000D+00
     28 -0.298361D-02  0.396383D-02  0.000000D+00 -0.164066D-01 -0.127338D-01
     29  0.297956D-02 -0.157743D-02  0.000000D+00  0.147342D-01  0.107585D-01
     30  0.000000D+00  0.000000D+00  0.733064D-02  0.000000D+00  0.000000D+00
     31 -0.249674D+00  0.117226D+00  0.000000D+00 -0.167259D-01  0.158515D-01
     32  0.117009D+00 -0.126197D+00  0.000000D+00 -0.130447D-01  0.109563D-01
     33  0.000000D+00  0.000000D+00 -0.386579D-01  0.000000D+00  0.000000D+00
     34  0.283426D-02 -0.274741D-01  0.000000D+00 -0.537621D-01 -0.148163D-01
     35  0.172572D-02 -0.913857D-02  0.000000D+00 -0.144388D-01 -0.325306D+00
     36  0.000000D+00  0.000000D+00  0.456372D-03  0.000000D+00  0.000000D+00
               21            22            23            24            25 
     21  0.108554D+00
     22  0.000000D+00  0.160102D-01
     23  0.000000D+00 -0.884982D-01 -0.257338D-02
     24  0.260999D-02  0.000000D+00  0.000000D+00  0.358411D-01
     25  0.000000D+00 -0.134153D-02 -0.129508D-02  0.000000D+00  0.267870D+00
     26  0.000000D+00  0.858387D-04  0.714782D-03  0.000000D+00  0.129813D+00
     27  0.830558D-02  0.000000D+00  0.000000D+00 -0.358539D-03  0.000000D+00
     28  0.000000D+00  0.471790D-03  0.725981D-03  0.000000D+00 -0.428598D-04
     29  0.000000D+00 -0.234771D-03 -0.903599D-04  0.000000D+00 -0.162373D-03
     30  0.570820D-02  0.000000D+00  0.000000D+00 -0.141892D-02  0.000000D+00
     31  0.000000D+00 -0.386058D-04  0.481220D-05  0.000000D+00  0.692624D-03
     32  0.000000D+00  0.655027D-04 -0.658723D-03  0.000000D+00 -0.380190D-03
     33  0.392119D-02  0.000000D+00  0.000000D+00 -0.943217D-03  0.000000D+00
     34  0.000000D+00 -0.107374D-02 -0.154716D-02  0.000000D+00  0.118716D-03
     35  0.000000D+00  0.486325D-03  0.880097D-03  0.000000D+00  0.271070D-03
     36 -0.270827D-01  0.000000D+00  0.000000D+00  0.506674D-03  0.000000D+00
               26            27            28            29            30 
     26  0.129149D+00
     27  0.000000D+00  0.219518D-01
     28 -0.624148D-04  0.000000D+00  0.285015D+00
     29  0.112708D-03  0.000000D+00  0.107323D+00  0.111592D+00
     30  0.000000D+00 -0.149220D-02  0.000000D+00  0.000000D+00  0.243975D-01
     31  0.250439D-03  0.000000D+00 -0.940697D-03  0.867425D-03  0.000000D+00
     32  0.112442D-02  0.000000D+00 -0.752749D-03  0.447024D-03  0.000000D+00
     33  0.000000D+00 -0.428993D-02  0.000000D+00  0.000000D+00 -0.352540D-03
     34 -0.132716D-02  0.000000D+00  0.682238D-03 -0.478822D-03  0.000000D+00
     35 -0.445005D-03  0.000000D+00  0.278898D-03  0.511796D-03  0.000000D+00
     36  0.000000D+00  0.560128D-03  0.000000D+00  0.000000D+00 -0.355078D-02
               31            32            33            34            35 
     31  0.263376D+00
     32 -0.126969D+00  0.131161D+00
     33  0.000000D+00  0.000000D+00  0.246703D-01
     34  0.970750D-03  0.589500D-03  0.000000D+00  0.533889D-01
     35 -0.171189D-03  0.656473D-03  0.000000D+00  0.164393D-01  0.343634D+00
     36  0.000000D+00  0.000000D+00 -0.291431D-02  0.000000D+00  0.000000D+00
               36 
     36  0.220733D-01
 FormGI is forming the generalized inverse of G from B-inverse, IUseBI=4.
 Leave Link  716 at Sat Aug 28 00:51:21 2021, MaxMem= 17179869184 cpu:         7.4
 (Enter /public3/home/sc51754/softwares/g09e01/l103.exe)

 GradGradGradGradGradGradGradGradGradGradGradGradGradGradGradGradGradGrad
 Berny optimization.
 Red2BG is reusing G-inverse.
 Internal  Forces:  Max     0.050634152 RMS     0.010705929
 Search for a saddle point.
 Step number   1 out of a maximum of  100
 All quantities printed in internal units (Hartrees-Bohrs-Radians)
 Second derivative matrix not updated -- analytic derivatives used.
 ITU=  0
 LST/QST climbing along tangent vector
     Eigenvalues ---   -0.04861   0.00098   0.00473   0.01463   0.01620
     Eigenvalues ---    0.01925   0.02171   0.02593   0.02846   0.04042
     Eigenvalues ---    0.04806   0.09860   0.10205   0.11395   0.12308
     Eigenvalues ---    0.13981   0.18719   0.18906   0.22391   0.28634
     Eigenvalues ---    0.30003   0.33441   0.34093   0.34558   0.34680
     Eigenvalues ---    0.38958   0.40102   0.43988   0.46119   0.51028
     Eigenvalues --- 1000.000001000.000001000.000001000.000001000.00000
     Eigenvalues --- 1000.000001000.000001000.000001000.000001000.00000
     Eigenvalues --- 1000.000001000.000001000.000001000.000001000.00000
     Eigenvalues --- 1000.000001000.000001000.000001000.000001000.00000
     Eigenvalues --- 1000.000001000.000001000.000001000.000001000.00000
     Eigenvalues --- 1000.000001000.000001000.00000
 Eigenvectors required to have negative eigenvalues:
                          R2        R5        A4        D22       A3
   1                    0.63964  -0.52789  -0.20920   0.18631   0.17675
                          D8        D21       D10       A1        D9
   1                   -0.17073   0.16944  -0.15458  -0.15013   0.14051
 QST in optimization variable space.
                        Tangent   TS vect  // Eig F  Eigenval
   1         R1        -0.04430  -0.04430  -0.02891  -0.04861
   2         R2         0.63964   0.63964  -0.00091   0.00098
   3         R3         0.02562   0.02562   0.00682   0.00473
   4         R4         0.00797   0.00797  -0.00072   0.01463
   5         R5        -0.52789  -0.52789   0.00099   0.01620
   6         R6         0.01913   0.01913  -0.00011   0.01925
   7         R7        -0.00809  -0.00809   0.00066   0.02171
   8         R8        -0.00002  -0.00002   0.00020   0.02593
   9         R9        -0.00983  -0.00983   0.00055   0.02846
  10         R10       -0.00146  -0.00146   0.00067   0.04042
  11         R11        0.00981   0.00981  -0.01803   0.04806
  12         R12        0.00045   0.00045  -0.00274   0.09860
  13         R13       -0.00090  -0.00090   0.00526   0.10205
  14         A1        -0.15013  -0.15013  -0.00069   0.11395
  15         A2         0.03245   0.03245   0.00155   0.12308
  16         A3         0.17675   0.17675  -0.02147   0.13981
  17         A4        -0.20920  -0.20920   0.00610   0.18719
  18         A5         0.00609   0.00609   0.00431   0.18906
  19         A6         0.03701   0.03701  -0.01161   0.22391
  20         A7        -0.04310  -0.04310  -0.01841   0.28634
  21         A8         0.01617   0.01617  -0.00598   0.30003
  22         A9        -0.01500  -0.01500  -0.00018   0.33441
  23         A10       -0.00117  -0.00117  -0.00037   0.34093
  24         A11       -0.01250  -0.01250  -0.00141   0.34558
  25         A12        0.00236   0.00236  -0.00013   0.34680
  26         A13        0.01014   0.01014   0.00089   0.38958
  27         A14        0.00679   0.00679  -0.00137   0.40102
  28         A15       -0.00132  -0.00132  -0.00088   0.43988
  29         A16       -0.00547  -0.00547  -0.00119   0.46119
  30         A17        0.00020   0.00020   0.00260   0.51028
  31         A18       -0.00123  -0.00123   0.000001000.00000
  32         A19        0.00103   0.00103   0.000001000.00000
  33         D1         0.02206   0.02206  -0.000001000.00000
  34         D2         0.03391   0.03391  -0.000001000.00000
  35         D3        -0.01831  -0.01831   0.000001000.00000
  36         D4        -0.03085  -0.03085  -0.000001000.00000
  37         D5        -0.02031  -0.02031   0.000001000.00000
  38         D6        -0.03285  -0.03285   0.000001000.00000
[...]
    A2        2.15179  -0.00000   0.00000  -0.00001  -0.00001   2.15178
    A3        1.30922  -0.00000   0.00000  -0.00004  -0.00004   1.30918
    A4        2.82218   0.00000   0.00000   0.00005   0.00005   2.82223
    A5        1.84383   0.00000   0.00000   0.00001   0.00001   1.84384
    A6        2.34420   0.00000   0.00000   0.00001   0.00001   2.34421
    A7        2.09515  -0.00001   0.00000  -0.00002  -0.00002   2.09513
    A8        2.03707   0.00000   0.00000   0.00002   0.00002   2.03709
    A9        2.10821  -0.00000   0.00000  -0.00001  -0.00001   2.10820
   A10        2.13791  -0.00000   0.00000  -0.00001  -0.00001   2.13790
   A11        2.08077   0.00000   0.00000   0.00002   0.00002   2.08079
   A12        2.05171  -0.00000   0.00000  -0.00000  -0.00000   2.05171
   A13        2.15070  -0.00000   0.00000  -0.00001  -0.00001   2.15069
   A14        2.12988   0.00000   0.00000  -0.00000  -0.00000   2.12988
   A15        2.07736  -0.00000   0.00000  -0.00000  -0.00000   2.07736
   A16        2.07594  -0.00000   0.00000   0.00001   0.00001   2.07595
   A17        2.07171   0.00000   0.00000  -0.00000  -0.00000   2.07171
   A18        2.09800   0.00000   0.00000  -0.00000  -0.00000   2.09800
   A19        2.11347  -0.00000   0.00000   0.00000   0.00000   2.11348
    D1        0.00004  -0.00000   0.00000  -0.00004  -0.00004  -0.00000
    D2       -3.14149  -0.00000   0.00000  -0.00010  -0.00010  -3.14159
    D3       -3.14151   0.00000   0.00000  -0.00008  -0.00008  -3.14159
    D4        0.00003   0.00000   0.00000  -0.00003  -0.00003   0.00000
    D5       -0.00004   0.00000   0.00000   0.00004   0.00004   0.00000
    D6        3.14150   0.00000   0.00000   0.00010   0.00010   3.14159
    D7       -0.00001  -0.00000   0.00000   0.00001   0.00001  -0.00000
    D8        3.14149   0.00000   0.00000   0.00010   0.00010   3.14159
    D9       -3.14123  -0.00000   0.00000  -0.00036  -0.00036  -3.14159
   D10        0.00028   0.00000   0.00000  -0.00027  -0.00027   0.00000
   D11        3.14150  -0.00000   0.00000   0.00009   0.00009   3.14159
   D12       -0.00007  -0.00000   0.00000   0.00006   0.00006  -0.00000
   D13       -0.00002  -0.00000   0.00000   0.00002   0.00002  -0.00000
   D14       -3.14158  -0.00000   0.00000  -0.00001  -0.00001  -3.14159
   D15       -0.00000  -0.00000   0.00000   0.00000   0.00000   0.00000
   D16       -3.14157  -0.00000   0.00000  -0.00002  -0.00002  -3.14159
   D17        3.14156  -0.00000   0.00000   0.00003   0.00003   3.14159
   D18       -0.00000  -0.00000   0.00000   0.00000   0.00000  -0.00000
   D19       -0.00001   0.00000   0.00000   0.00001   0.00001  -0.00000
   D20       -3.14156   0.00000   0.00000  -0.00003  -0.00003   3.14159
   D21       -3.14151  -0.00000   0.00000  -0.00008  -0.00008  -3.14159
   D22        0.00012  -0.00000   0.00000  -0.00012  -0.00012  -0.00000
   D23        0.00002  -0.00000   0.00000  -0.00002  -0.00002  -0.00000
   D24        3.14157   0.00000   0.00000   0.00003   0.00003  -3.14159
   D25        3.14158  -0.00000   0.00000   0.00001   0.00001   3.14159
   D26       -0.00005   0.00000   0.00000   0.00005   0.00005   0.00000
         Item               Value     Threshold  Converged?
 Maximum Force            0.000027     0.000450     YES
 RMS     Force            0.000004     0.000300     YES
 Maximum Displacement     0.000116     0.001800     YES
 RMS     Displacement     0.000032     0.001200     YES
 Predicted change in Energy=-1.817865D-09
 Optimization completed.
    -- Stationary point found.
                           ----------------------------
                           !   Optimized Parameters   !
                           ! (Angstroms and Degrees)  !
 --------------------------                            --------------------------
 ! Name  Definition              Value          Derivative Info.                !
 --------------------------------------------------------------------------------
 ! R1    R(1,3)                  1.2965         -DE/DX =    0.0                 !
 ! R2    R(1,8)                  1.3837         -DE/DX =    0.0                 !
 ! R3    R(2,3)                  1.3706         -DE/DX =    0.0                 !
 ! R4    R(2,5)                  1.3422         -DE/DX =    0.0                 !
 ! R5    R(2,8)                  1.3017         -DE/DX =    0.0                 !
 ! R6    R(3,4)                  1.4126         -DE/DX =    0.0                 !
 ! R7    R(4,6)                  1.39           -DE/DX =    0.0                 !
 ! R8    R(4,9)                  1.0879         -DE/DX =    0.0                 !
 ! R9    R(5,7)                  1.3907         -DE/DX =    0.0                 !
 ! R10   R(5,10)                 1.0901         -DE/DX =    0.0                 !
 ! R11   R(6,7)                  1.4109         -DE/DX =    0.0                 !
 ! R12   R(6,11)                 1.0915         -DE/DX =    0.0                 !
 ! R13   R(7,12)                 1.0879         -DE/DX =    0.0                 !
 ! A1    A(3,1,8)               74.7254         -DE/DX =    0.0                 !
 ! A2    A(3,2,5)              123.2883         -DE/DX =    0.0                 !
 ! A3    A(3,2,8)               75.0129         -DE/DX =    0.0                 !
 ! A4    A(5,2,8)              161.6988         -DE/DX =    0.0                 !
 ! A5    A(1,3,2)              105.6439         -DE/DX =    0.0                 !
 ! A6    A(1,3,4)              134.3126         -DE/DX =    0.0                 !
 ! A7    A(2,3,4)              120.0435         -DE/DX =    0.0                 !
 ! A8    A(3,4,6)              116.7154         -DE/DX =    0.0                 !
 ! A9    A(3,4,9)              120.7913         -DE/DX =    0.0                 !
 ! A10   A(6,4,9)              122.4933         -DE/DX =    0.0                 !
 ! A11   A(2,5,7)              119.2196         -DE/DX =    0.0                 !
 ! A12   A(2,5,10)             117.5545         -DE/DX =    0.0                 !
 ! A13   A(7,5,10)             123.2259         -DE/DX =    0.0                 !
 ! A14   A(4,6,7)              122.0331         -DE/DX =    0.0                 !
 ! A15   A(4,6,11)             119.0241         -DE/DX =    0.0                 !
 ! A16   A(7,6,11)             118.9428         -DE/DX =    0.0                 !
 ! A17   A(5,7,6)              118.7001         -DE/DX =    0.0                 !
 ! A18   A(5,7,12)             120.2067         -DE/DX =    0.0                 !
 ! A19   A(6,7,12)             121.0932         -DE/DX =    0.0                 !
 ! D1    D(8,1,3,2)              0.0022         -DE/DX =    0.0                 !
 ! D2    D(8,1,3,4)           -179.994          -DE/DX =    0.0                 !
 ! D3    D(5,2,3,1)           -179.9954         -DE/DX =    0.0                 !
 ! D4    D(5,2,3,4)              0.0015         -DE/DX =    0.0                 !
 ! D5    D(8,2,3,1)             -0.0024         -DE/DX =    0.0                 !
 ! D6    D(8,2,3,4)            179.9945         -DE/DX =    0.0                 !
 ! D7    D(3,2,5,7)             -0.0007         -DE/DX =    0.0                 !
 ! D8    D(3,2,5,10)           179.9943         -DE/DX =    0.0                 !
 ! D9    D(8,2,5,7)           -179.9792         -DE/DX =    0.0                 !
 ! D10   D(8,2,5,10)             0.0158         -DE/DX =    0.0                 !
 ! D11   D(1,3,4,6)            179.9947         -DE/DX =    0.0                 !
 ! D12   D(1,3,4,9)             -0.0037         -DE/DX =    0.0                 !
 ! D13   D(2,3,4,6)             -0.001          -DE/DX =    0.0                 !
 ! D14   D(2,3,4,9)           -179.9995         -DE/DX =    0.0                 !
 ! D15   D(3,4,6,7)             -0.0001         -DE/DX =    0.0                 !
 ! D16   D(3,4,6,11)          -179.9987         -DE/DX =    0.0                 !
 ! D17   D(9,4,6,7)            179.9983         -DE/DX =    0.0                 !
 ! D18   D(9,4,6,11)            -0.0002         -DE/DX =    0.0                 !
 ! D19   D(2,5,7,6)             -0.0005         -DE/DX =    0.0                 !
 ! D20   D(2,5,7,12)           180.0018         -DE/DX =    0.0                 !
 ! D21   D(10,5,7,6)          -179.9952         -DE/DX =    0.0                 !
 ! D22   D(10,5,7,12)            0.0071         -DE/DX =    0.0                 !
 ! D23   D(4,6,7,5)              0.0009         -DE/DX =    0.0                 !
 ! D24   D(4,6,7,12)          -180.0015         -DE/DX =    0.0                 !
 ! D25   D(11,6,7,5)           179.9994         -DE/DX =    0.0                 !
 ! D26   D(11,6,7,12)           -0.0029         -DE/DX =    0.0                 !
 --------------------------------------------------------------------------------
 GradGradGradGradGradGradGradGradGradGradGradGradGradGradGradGradGradGrad

 Leave Link  103 at Sat Aug 28 00:56:06 2021, MaxMem= 17179869184 cpu:        35.7
 (Enter /public3/home/sc51754/softwares/g09e01/l9999.exe)
 1\1\GINC-P2305\Freq\RBP86\Gen\C5H5N1O1\SC51754\28-Aug-2021\0\\#P Geom=
 AllCheck Guess=TCheck SCRF=Check GenChk RBP86/ChkBas Freq\\HY_BP86_PC2
 _OPT_FREQ\\0,1\O,0.0217784878,2.5762313227,0.001369718\N,-0.8923224456
 ,0.6572545964,0.0005288977\C,0.3115495593,1.3124938246,0.0006037504\C,
 1.5173201096,0.5765424778,-0.0000221504\C,-1.0029994586,-0.680390754,-
 0.0000917519\C,1.4038426769,-0.8088224519,-0.000673236\C,0.1506329297,
 -1.4570473145,-0.0007099629\H,-1.1977728966,1.9226116438,0.001351107\H
 ,2.4795451343,1.0840933115,0.0000376756\H,-2.0077570809,-1.1032598334,
 0.0000014911\H,2.3118752201,-1.4145609297,-0.001147557\H,0.0796138641,
 -2.5426733933,-0.0012479816\\Version=EM64L-G09RevE.01\State=1-A\HF=-32
 3.6103172\RMSD=8.524e-09\RMSF=9.349e-06\ZeroPoint=0.0856744\Thermal=0.
 0908393\Dipole=-0.0138816,-1.3217899,-0.0006235\DipoleDeriv=-0.4522349
 ,-0.0102287,0.0000168,0.1766546,-1.5225502,-0.000646,0.0001213,-0.0006
 159,-0.3489148,-0.310899,-0.3792273,-0.0001753,0.1359276,-0.8914808,-0
 .0003804,0.000055,-0.0003139,-0.1842387,0.1699811,-0.3624504,-0.000179
 9,-0.2386872,1.5292471,0.0007656,-0.0001187,0.000818,0.1784054,-0.0108
 01,0.4634894,0.000209,-0.0708508,-0.5340723,-0.000175,-0.0000532,-0.00
 02958,-0.1580724,0.4417766,0.1229307,-0.0000405,-0.4417671,0.3887617,0
 .0002598,-0.0003538,0.0001234,0.0098118,0.3271301,0.1241152,-0.0000211
 ,0.1854304,0.4275607,0.0002029,0.0000001,0.0002112,-0.0793689,-0.52549
 27,-0.1420072,0.0000033,0.0662668,-0.1580915,0.0000005,0.000127,0.0000
 969,-0.1839,0.3534078,0.2094729,0.0000793,0.2120738,0.6929941,0.000208
 3,0.0001024,0.0002118,0.2082007,-0.0086131,-0.0374464,0.0000156,-0.041
 9904,0.0439328,-0.0000452,0.000006,-0.0000484,0.1514874,-0.0255794,-0.
 0610037,0.0000059,-0.0393019,0.0516152,-0.0000281,0.0000377,-0.0000063
 ,0.1265452,-0.0267762,0.0765497,0.0000689,0.0768292,0.0337261,-0.00005
 97,0.0000683,-0.0000553,0.1229776,0.0681006,-0.0041942,0.000018,-0.020
 585,-0.0616429,-0.0001028,0.000008,-0.0001258,0.1570666\Polar=77.52235
 87,-0.0477066,93.2300554,-0.0086953,0.027471,38.572101\PG=C01 [X(C5H5N
 1O1)]\NImag=1\\0.07932343,-0.01631097,0.56373531,-0.00001276,0.0002874
 6,0.04852270,-0.01166236,-0.04784743,-0.00001563,0.44470460,-0.1345392
 8,-0.11665703,-0.00005033,0.11373040,0.66357812,-0.00006148,-0.0000709
 1,0.03329405,-0.00002928,0.00026691,0.08234630,-0.09614969,0.05689603,
 0.00003808,-0.23397413,-0.02454519,0.00002438,0.65676531,0.03119833,-0
 .39227908,-0.00018542,-0.06653565,-0.16730273,-0.00003607,-0.11774706,
 0.68087256,0.00002418,-0.00019178,-0.06502001,-0.00000025,-0.00004609,
 -0.07125736,-0.00017221,0.00029774,0.17137768,-0.00418699,0.01688972,0
 .00001201,-0.04692414,-0.01716066,0.00000326,-0.24814806,0.07721140,0.
 00007760,0.67775959,0.05332320,-0.02312678,-0.00003046,0.01022499,0.05
 577019,0.00002468,0.04528330,-0.13792949,-0.00004661,0.05633047,0.6547
 4050,0.00003210,-0.00002408,0.01099148,0.00001569,0.00002987,0.0054493
 2,0.00006118,-0.00005136,-0.06601303,-0.00009136,0.00026068,0.10676890
 ,0.00982326,-0.00337473,-0.00000312,-0.13163268,-0.01941590,0.00001589
 ,0.02384478,-0.02269861,-0.00001662,-0.00847932,0.01780231,0.00001048,
 0.72653562,0.02040928,0.00024506,-0.00000838,-0.01657815,-0.32688490,-
 0.00013327,-0.08176737,-0.02307520,0.00000884,0.02230186,-0.04102210,-
 0.00002490,0.03315701,0.63238842,0.00000701,-0.00000266,0.00627733,0.0
 0001730,-0.00013108,-0.04546254,-0.00004728,-0.00000700,-0.00062100,0.
 00001239,-0.00002397,-0.00023690,-0.00013648,0.00022655,0.13136557,-0.
 01742412,0.00066588,0.00000551,-0.01490203,-0.03639534,-0.00001594,0.0
 3986163,0.02807126,0.00000547,-0.12002008,0.00427285,0.00001583,-0.055
 59860,0.02950010,0.00002798,0.65551427,-0.01523424,0.00559355,0.000004
 21,-0.01726675,-0.04291343,-0.00001479,0.06199180,-0.03746286,-0.00003
 254,-0.04200176,-0.34351415,-0.00013433,-0.01031783,0.05280078,0.00002
 393,-0.03676224,0.66086687,-0.00000293,-0.00000014,0.00504387,-0.00000
 638,-0.00001059,-0.00518631,0.00002229,-0.00002485,0.00040113,-0.00000
 645,-0.00014303,-0.05018368,0.00000808,0.00001620,0.00539228,-0.000127
 23,0.00026291,0.13226610,0.01695792,-0.00188134,-0.00000594,0.02819900
 ,0.07034729,0.00003038,-0.06085256,0.00512910,0.00001525,0.01949931,-0
 .06173456,-0.00003271,-0.27001006,0.06741833,0.00008116,-0.25434103,-0
 .04422154,0.00002140,0.60606371,-0.00662206,-0.00640542,-0.00000080,0.
 02754209,-0.05835751,-0.00004227,0.01018389,0.00014864,0.00000123,-0.0
 3206962,-0.02076257,-0.00000634,0.11944568,-0.17154598,-0.00008027,-0.
 09788774,-0.15235134,-0.00002486,-0.00882293,0.71355733,-0.00000724,-0
 .00000117,-0.00252455,0.00001044,-0.00005137,0.01593009,0.00001690,0.0
 0000371,-0.00765237,-0.00001842,-0.00000005,0.00693564,0.00010423,-0.0
 0006902,-0.05818120,-0.00000501,-0.00003661,-0.05656199,-0.00011338,0.
 00030290,0.10561935,0.01942765,-0.00541739,-0.00001680,-0.02848557,0.0
 4566951,0.00002791,-0.06760774,0.07962115,0.00006651,0.00139528,-0.009
 99088,-0.00000433,-0.00824861,-0.00690785,-0.00000270,0.00292654,0.004
 63862,0.00000157,-0.00297533,0.00090720,0.00000228,0.08562404,0.068765
 18,-0.02942029,-0.00001706,0.02338994,0.01060274,0.00001311,0.03468720
 ,0.07254498,0.00001866,0.00763336,-0.02054550,-0.00001623,-0.01890475,
 -0.01816390,0.00000173,0.00915053,0.01205403,0.00000462,-0.01291313,0.
 00576116,0.00000255,-0.10937925,-0.03365372,0.00002332,0.00000172,-0.0
 3325784,0.00001733,0.00000779,-0.02659514,0.00004297,0.00000856,0.0193
 1916,0.00000509,-0.00001229,0.00649635,-0.00001168,-0.00000434,-0.0060
 2422,0.00000417,0.00000559,-0.00059916,-0.00000468,0.00000147,0.004481
 81,-0.00007477,-0.00001000,0.03890243,0.00207798,0.00053175,-0.0000006
 0,-0.00296847,0.00348648,0.00000376,-0.01660224,-0.01551835,-0.0000044
 4,-0.27144664,-0.11204968,-0.00000705,-0.00025007,0.00211369,0.0000010
 6,0.00277888,0.00087110,0.00000008,0.00257076,0.00049819,0.00000121,-0
 .00162030,-0.00118517,-0.00000031,0.28472062,-0.00175014,0.00043941,0.
 00000164,0.00456717,-0.00110048,-0.00000454,0.01397085,0.01130230,0.00
 000238,-0.11265825,-0.11122881,-0.00001817,0.00041509,-0.00138706,-0.0
 0000058,-0.02709115,-0.00893526,0.00000058,0.00141592,-0.00458535,-0.0
 0000669,0.00070827,0.00071396,0.00000035,0.12155668,0.11388899,-0.0000
 0171,0.00000134,-0.00194864,0.00000454,-0.00000375,0.00573615,0.000009
 79,0.00000817,0.00125955,-0.00000737,-0.00001903,-0.02916112,0.0000002
 9,-0.00000124,-0.00038355,-0.00001363,-0.00000466,0.00082919,0.0000017
 8,-0.00000626,0.00823389,0.00000058,0.00000078,-0.00031454,0.00000762,
 0.00002155,0.02121849,-0.00065645,-0.00031883,0.00000011,0.00190693,-0
 .00459196,-0.00000311,0.00312540,0.00139880,0.00000258,0.00014941,0.00
 055699,0.00000011,-0.28753378,-0.09220962,0.00002773,-0.00244485,0.003
 81729,0.00000444,-0.01422159,-0.01181356,-0.00000016,0.00051838,0.0007
 4221,-0.00000038,-0.00005797,-0.00005296,-0.00000049,0.29942864,0.0000
 1642,-0.00200653,-0.00000143,-0.03464034,-0.01609036,0.00000162,0.0029
 9795,-0.00130564,-0.00000503,-0.00020257,-0.00066052,-0.00000009,-0.08
 862871,-0.09003017,0.00000030,0.00301085,-0.00186696,-0.00000479,0.014
 61958,0.01129578,-0.00000095,-0.00022848,-0.00069354,0.00000073,-0.000
 19494,0.00017060,0.00000089,0.10291537,0.10022607,-0.00000003,-0.00000
 073,0.00037156,-0.00001726,-0.00000659,-0.00060184,0.00000226,-0.00000
 643,0.00893937,-0.00000021,-0.00000029,-0.00054642,0.00003292,0.000001
 71,-0.03650587,0.00000371,-0.00000499,0.00725768,0.00000970,0.00000603
 ,0.00527120,-0.00000063,0.00000125,-0.00238037,-0.00000040,0.00000092,
 -0.00170105,-0.00002945,0.00000656,0.02370863,0.00010259,0.00008495,-0
 .00000018,0.00053041,-0.00120118,-0.00000085,0.00162908,-0.00151854,0.
 00000083,0.00474382,-0.00244103,-0.00000114,-0.00421085,-0.00308875,0.
 00000076,-0.23836327,0.12204832,0.00009930,-0.01706100,0.01642381,0.00
 001206,0.00000021,0.00002520,-0.00000021,0.00073941,0.00021776,-0.0000
 0092,-0.00089423,0.00088147,0.00000056,0.25181319,0.00184407,-0.000248
 88,-0.00000015,-0.00029829,-0.00012032,0.00000046,-0.00170900,-0.00533
 932,-0.00000694,0.02575498,-0.01258214,-0.00001344,-0.00314723,-0.0007
 0781,-0.00000234,0.12184184,-0.13576694,-0.00007157,-0.01242684,0.0105
 6246,0.00000576,-0.00011128,-0.00066394,0.00000013,-0.00030362,0.00113
 059,0.00000277,-0.00069665,0.00047070,0.00000060,-0.13124885,0.1426287
 2,0.00000032,0.00000068,-0.00098732,-0.00000024,0.00000029,-0.00081948
 ,0.00000115,-0.00000736,0.00974158,0.00001222,-0.00000793,0.00470120,0
 .00000059,-0.00000258,0.00583076,0.00009852,-0.00007146,-0.03835478,-0
 .00000110,-0.00000016,0.00385558,-0.00000015,0.00000046,-0.00102338,-0
 .00000113,0.00000270,-0.00441446,-0.00000031,0.00000031,-0.00038345,-0
 .00010928,0.00008318,0.02483281,0.00236679,0.00008237,-0.00000067,-0.0
 0479156,0.00461584,0.00000507,-0.00189179,0.00138817,0.00000109,-0.004
 34218,-0.00157795,0.00000119,0.00576032,0.02565145,0.00001107,0.002012
 66,-0.02756277,-0.00001417,-0.05382913,-0.01778495,-0.00000291,-0.0009
 5455,-0.00201133,-0.00000084,0.00005803,-0.00129924,-0.00000050,0.0006
 8011,-0.00054659,-0.00000115,0.00097064,0.00050086,-0.00000058,0.05396
 065,-0.00109980,0.00013068,0.00000073,0.00371201,-0.00052430,-0.000004
 93,-0.00024240,-0.00017415,0.00000014,-0.00202895,0.00086138,-0.000001
 61,-0.00433234,-0.01261713,-0.00000461,0.00162317,-0.00850429,-0.00000
 447,-0.01692989,-0.32731720,-0.00014904,0.00049039,0.00146404,0.000000
 29,0.00019387,-0.00040889,-0.00000056,0.00025294,0.00049059,0.00000194
 ,-0.00018315,0.00063689,0.00000188,0.01854414,0.34596239,-0.00000078,0
 .00000025,-0.00076264,0.00000373,-0.00000506,0.00716675,0.00000049,0.0
 0000032,-0.00047471,0.00000126,-0.00000169,0.00479825,-0.00000459,-0.0
 0000956,-0.00145067,0.00000062,0.00000275,-0.00030434,-0.00000186,-0.0
 0015067,-0.02540744,0.00000055,0.00000013,0.00099490,0.00000021,-0.000
 00014,0.00064610,-0.00000108,0.00000188,-0.00342942,-0.00000093,0.0000
 0155,-0.00297907,0.00000240,0.00016025,0.02120227\\-0.00000171,0.00002
 741,-0.00000105,0.00001248,0.00000357,-0.00000268,0.00000711,-0.000040
 87,-0.00000181,0.00000135,0.00000395,0.00000158,-0.00000314,0.00000307
 ,-0.00000623,-0.00000041,-0.00000191,-0.00000018,-0.00000815,0.0000002
 6,0.00000413,0.00000364,0.00000949,0.00000403,0.00000318,-0.00000575,0
 .,-0.00000340,0.00000619,0.00000343,-0.00000377,-0.00000574,0.00000042
 ,-0.00000717,0.00000031,-0.00000164\\\@


 IT WAS AN ACT OF DESPARATION. FOR SIX YEARS I HAD STRUGGLED WITH THE
 BLACKBODY THEORY. I KNEW THE PROBLEM WAS FUNDAMENTAL, AND I KNEW
 THE ANSWER. I HAD TO FIND A THEORETICAL EXPLANATION AT ANY COST,
 EXCEPT FOR THE INVIOLABLITY OF THE TWO LAWS OF THERMODYNAMICS.
   -- MAX PLANCK, 1931
 Job cpu time:       0 days  0 hours 39 minutes 31.7 seconds.
 File lengths (MBytes):  RWF=     81 Int=      0 D2E=      0 Chk=      7 Scr=      1
 Normal termination of Gaussian 09 at Sat Aug 28 00:56:06 2021.
