 Entering Gaussian System, Link 0=g09
 Initial command:
 /gpfs/share/home/1801110325/software/g09e01/l1.exe "./Gau-16715.inp" -scrdir="./"
 Entering Link 1 = /gpfs/share/home/1801110325/software/g09e01/l1.exe PID=     16717.
  
 Copyright (c) 1988,1990,1992,1993,1995,1998,2003,2009,2015,
            Gaussian, Inc.  All Rights Reserved.
  
 This is part of the Gaussian(R) 09 program.  It is based on
 the Gaussian(R) 03 system (copyright 2003, Gaussian, Inc.),
 the Gaussian(R) 98 system (copyright 1998, Gaussian, Inc.),
 the Gaussian(R) 94 system (copyright 1995, Gaussian, Inc.),
 the Gaussian 92(TM) system (copyright 1992, Gaussian, Inc.),
 the Gaussian 90(TM) system (copyright 1990, Gaussian, Inc.),
 the Gaussian 88(TM) system (copyright 1988, Gaussian, Inc.),
 the Gaussian 86(TM) system (copyright 1986, Carnegie Mellon
 University), and the Gaussian 82(TM) system (copyright 1983,
 Carnegie Mellon University). Gaussian is a federally registered
 trademark of Gaussian, Inc.
  
 This software contains proprietary and confidential information,
 including trade secrets, belonging to Gaussian, Inc.
  
 This software is provided under written license and may be
 used, copied, transmitted, or stored only in accord with that
 written license.
  
 The following legend is applicable only to US Government
 contracts under FAR:
  
                    RESTRICTED RIGHTS LEGEND
  
 Use, reproduction and disclosure by the US Government is
 subject to restrictions as set forth in subparagraphs (a)
 and (c) of the Commercial Computer Software - Restricted
 Rights clause in FAR 52.227-19.
  
 Gaussian, Inc.
 340 Quinnipiac St., Bldg. 40, Wallingford CT 06492
  
  
 ---------------------------------------------------------------
 Warning -- This program may not be used in any manner that
 competes with the business of Gaussian, Inc. or will provide
 assistance to any competitor of Gaussian, Inc.  The licensee
 of this program is prohibited from giving any competitor of
 Gaussian, Inc. access to this program.  By using this program,
 the user acknowledges that Gaussian, Inc. is engaged in the
 business of creating and licensing software in the field of
 computational chemistry and represents and warrants to the
 licensee that it is not a competitor of Gaussian, Inc. and that
 it will not use this program in any manner prohibited above.
 ---------------------------------------------------------------
  

 Cite this work as:
 Gaussian 09, Revision E.01,
 M. J. Frisch, G. W. Trucks, H. B. Schlegel, G. E. Scuseria, 
 M. A. Robb, J. R. Cheeseman, G. Scalmani, V. Barone, B. Mennucci, 
 G. A. Petersson, H. Nakatsuji, M. Caricato, X. Li, H. P. Hratchian, 
 A. F. Izmaylov, J. Bloino, G. Zheng, J. L. Sonnenberg, M. Hada, 
 M. Ehara, K. Toyota, R. Fukuda, J. Hasegawa, M. Ishida, T. Nakajima, 
 Y. Honda, O. Kitao, H. Nakai, T. Vreven, J. A. Montgomery, Jr., 
 J. E. Peralta, F. Ogliaro, M. Bearpark, J. J. Heyd, E. Brothers, 
 K. N. Kudin, V. N. Staroverov, T. Keith, R. Kobayashi, J. Normand, 
 K. Raghavachari, A. Rendell, J. C. Burant, S. S. Iyengar, J. Tomasi, 
 M. Cossi, N. Rega, J. M. Millam, M. Klene, J. E. Knox, J. B. Cross, 
 V. Bakken, C. Adamo, J. Jaramillo, R. Gomperts, R. E. Stratmann, 
 O. Yazyev, A. J. Austin, R. Cammi, C. Pomelli, J. W. Ochterski, 
 R. L. Martin, K. Morokuma, V. G. Zakrzewski, G. A. Voth, 
 P. Salvador, J. J. Dannenberg, S. Dapprich, A. D. Daniels, 
 O. Farkas, J. B. Foresman, J. V. Ortiz, J. Cioslowski, 
 and D. J. Fox, Gaussian, Inc., Wallingford CT, 2013.
 
 ******************************************
 Gaussian 09:  EM64L-G09RevE.01 30-Nov-2015
                 3-Sep-2021 
 ******************************************
 %nprocshared=6
 Will use up to    6 processors via shared memory.
 %mem=18GB
 %oldchk=PY_H2O_TPSSh_PC2_OPT_FREQ.chk
 %chk=PY_H2O_G3.chk
 Copying data from "PY_H2O_TPSSh_PC2_OPT_FREQ.chk" to current chk file "PY_H2O_G3.chk".
 ---------------------
 #p G3 geom=checkpoint
 ---------------------
 1/18=20,19=15,29=2,38=1/1,3;
 2/9=110,12=2,40=1/2;
 3/5=33,7=1,11=9,14=-4,16=1,25=1,30=1,71=1/1,2,3;
 4//1;
 5/5=2,38=5/2;
 6/7=2,8=2,9=2,10=2,28=1/1;
 7//1,2,3,16;
 1/18=20,19=15/3(2);
 2/9=110/2;
 99//99;
 2/9=110/2;
 3/5=33,7=1,11=9,14=-2,16=1,25=1,30=1,71=1/1,2,3;
 4/5=5,16=3,69=1/1;
 5/5=2,38=5/2;
 7//1,2,3,16;
 1/18=20,19=15/3(-5);
 2/9=110/2;
 6/7=2,8=2,9=2,10=2,19=2,28=1/1;
 99/9=1/99;
 Leave Link    1 at Fri Sep  3 00:21:36 2021, MaxMem=  2415919104 cpu:         3.3
 (Enter /gpfs/share/home/1801110325/software/g09e01/l101.exe)
 ---------
 PY_H2O_G3
 ---------
 Structure from the checkpoint file:  "PY_H2O_G3.chk"
 Charge =  0 Multiplicity = 1
 Redundant internal coordinates found in file.
 O,0,1.2773762117,1.394803351,-0.0028412727
 N,0,0.2639325241,-0.6538568467,0.0066983246
 C,0,0.2212123889,0.7424650598,0.0019293607
 C,0,-1.1079793704,1.2894778024,0.0017647011
 C,0,-0.8249323746,-1.460195578,0.0054901002
 C,0,-2.206676989,0.4785211371,0.0013101947
 C,0,-2.0814262924,-0.932583594,0.0023504542
 H,0,2.6574253156,0.2751699242,-0.0603012012
 H,0,-1.1907097662,2.3670343403,-0.0006004578
 H,0,-0.6246220043,-2.5227810037,0.0056643937
 H,0,-3.1959300296,0.9213575892,-0.0008536157
 H,0,-2.9457955088,-1.579128781,0.0001174325
 O,0,3.0621832468,-0.6252546139,-0.1007997505
 H,0,3.7441476348,-0.6428162579,0.5773321611
 H,0,1.2117480135,-1.0459465288,0.0146731752
 Recover connectivity data from disk.
 NAtoms=     15 NQM=       15 NQMF=       0 NMMI=      0 NMMIF=      0
                NMic=       0 NMicF=      0.
                    Isotopes and Nuclear Properties:
 (Nuclear quadrupole moments (NQMom) in fm**2, nuclear magnetic moments (NMagM)
  in nuclear magnetons)

  Atom         1           2           3           4           5           6           7           8           9          10
 IAtWgt=          16          14          12          12          12          12          12           1           1           1
 AtmWgt=  15.9949146  14.0030740  12.0000000  12.0000000  12.0000000  12.0000000  12.0000000   1.0078250   1.0078250   1.0078250
 NucSpn=           0           2           0           0           0           0           0           1           1           1
 AtZEff=  -5.6000000  -4.5500000  -3.6000000  -3.6000000  -3.6000000  -3.6000000  -3.6000000  -1.0000000  -1.0000000  -1.0000000
 NQMom=    0.0000000   2.0440000   0.0000000   0.0000000   0.0000000   0.0000000   0.0000000   0.0000000   0.0000000   0.0000000
 NMagM=    0.0000000   0.4037610   0.0000000   0.0000000   0.0000000   0.0000000   0.0000000   2.7928460   2.7928460   2.7928460
 AtZNuc=   8.0000000   7.0000000   6.0000000   6.0000000   6.0000000   6.0000000   6.0000000   1.0000000   1.0000000   1.0000000

  Atom        11          12          13          14          15
 IAtWgt=           1           1          16           1           1
 AtmWgt=   1.0078250   1.0078250  15.9949146   1.0078250   1.0078250
 NucSpn=           1           1           0           1           1
 AtZEff=  -1.0000000  -1.0000000  -5.6000000  -1.0000000  -1.0000000
 NQMom=    0.0000000   0.0000000   0.0000000   0.0000000   0.0000000
 NMagM=    2.7928460   2.7928460   0.0000000   2.7928460   2.7928460
 AtZNuc=   1.0000000   1.0000000   8.0000000   1.0000000   1.0000000
 Leave Link  101 at Fri Sep  3 00:21:37 2021, MaxMem=  2415919104 cpu:         2.5
 (Enter /gpfs/share/home/1801110325/software/g09e01/l103.exe)

 GradGradGradGradGradGradGradGradGradGradGradGradGradGradGradGradGradGrad
 Berny optimization.
 Initialization pass.
                           ----------------------------
                           !    Initial Parameters    !
                           ! (Angstroms and Degrees)  !
 --------------------------                            --------------------------
 ! Name  Definition              Value          Derivative Info.                !
 --------------------------------------------------------------------------------
 ! R1    R(1,3)                  1.2414         estimate D2E/DX2                !
 ! R2    R(1,8)                  1.778          estimate D2E/DX2                !
 ! R3    R(2,3)                  1.397          estimate D2E/DX2                !
 ! R4    R(2,5)                  1.3549         estimate D2E/DX2                !
 ! R5    R(2,15)                 1.0257         estimate D2E/DX2                !
 ! R6    R(3,4)                  1.4373         estimate D2E/DX2                !
 ! R7    R(4,6)                  1.3656         estimate D2E/DX2                !
 ! R8    R(4,9)                  1.0807         estimate D2E/DX2                !
 ! R9    R(5,7)                  1.3628         estimate D2E/DX2                !
 ! R10   R(5,10)                 1.0813         estimate D2E/DX2                !
 ! R11   R(6,7)                  1.4167         estimate D2E/DX2                !
 ! R12   R(6,11)                 1.0838         estimate D2E/DX2                !
 ! R13   R(7,12)                 1.0794         estimate D2E/DX2                !
 ! R14   R(8,13)                 0.988          estimate D2E/DX2                !
 ! R15   R(13,14)                0.9619         estimate D2E/DX2                !
 ! R16   R(13,15)                1.9012         estimate D2E/DX2                !
 ! A1    A(3,1,8)              109.243          estimate D2E/DX2                !
 ! A2    A(3,2,5)              124.7682         estimate D2E/DX2                !
 ! A3    A(3,2,15)             114.2269         estimate D2E/DX2                !
 ! A4    A(5,2,15)             121.0045         estimate D2E/DX2                !
 ! A5    A(1,3,2)              119.9495         estimate D2E/DX2                !
 ! A6    A(1,3,4)              125.9291         estimate D2E/DX2                !
 ! A7    A(2,3,4)              114.1213         estimate D2E/DX2                !
 ! A8    A(3,4,6)              121.1997         estimate D2E/DX2                !
 ! A9    A(3,4,9)              116.7593         estimate D2E/DX2                !
 ! A10   A(6,4,9)              122.0408         estimate D2E/DX2                !
 ! A11   A(2,5,7)              120.701          estimate D2E/DX2                !
 ! A12   A(2,5,10)             115.8454         estimate D2E/DX2                !
 ! A13   A(7,5,10)             123.4535         estimate D2E/DX2                !
 ! A14   A(4,6,7)              121.359          estimate D2E/DX2                !
 ! A15   A(4,6,11)             119.4531         estimate D2E/DX2                !
 ! A16   A(7,6,11)             119.1879         estimate D2E/DX2                !
 ! A17   A(5,7,6)              117.8503         estimate D2E/DX2                !
 ! A18   A(5,7,12)             120.4259         estimate D2E/DX2                !
 ! A19   A(6,7,12)             121.7239         estimate D2E/DX2                !
 ! A20   A(1,8,13)             153.271          estimate D2E/DX2                !
 ! A21   A(8,13,14)            106.1515         estimate D2E/DX2                !
 ! A22   A(8,13,15)             78.489          estimate D2E/DX2                !
 ! A23   A(14,13,15)           130.0309         estimate D2E/DX2                !
 ! A24   A(2,15,13)            144.5196         estimate D2E/DX2                !
 ! D1    D(8,1,3,2)              1.9835         estimate D2E/DX2                !
 ! D2    D(8,1,3,4)           -177.9477         estimate D2E/DX2                !
 ! D3    D(3,1,8,13)             1.1323         estimate D2E/DX2                !
 ! D4    D(5,2,3,1)           -179.6606         estimate D2E/DX2                !
 ! D5    D(5,2,3,4)              0.2784         estimate D2E/DX2                !
 ! D6    D(15,2,3,1)             0.5419         estimate D2E/DX2                !
 ! D7    D(15,2,3,4)          -179.5191         estimate D2E/DX2                !
 ! D8    D(3,2,5,7)             -0.1504         estimate D2E/DX2                !
 ! D9    D(3,2,5,10)           179.7614         estimate D2E/DX2                !
 ! D10   D(15,2,5,7)           179.6342         estimate D2E/DX2                !
 ! D11   D(15,2,5,10)           -0.454          estimate D2E/DX2                !
 ! D12   D(3,2,15,13)           -6.6216         estimate D2E/DX2                !
 ! D13   D(5,2,15,13)          173.5725         estimate D2E/DX2                !
 ! D14   D(1,3,4,6)            179.705          estimate D2E/DX2                !
 ! D15   D(1,3,4,9)             -0.1396         estimate D2E/DX2                !
 ! D16   D(2,3,4,6)             -0.2297         estimate D2E/DX2                !
 ! D17   D(2,3,4,9)            179.9258         estimate D2E/DX2                !
 ! D18   D(3,4,6,7)              0.0648         estimate D2E/DX2                !
 ! D19   D(3,4,6,11)          -179.8755         estimate D2E/DX2                !
 ! D20   D(9,4,6,7)            179.901          estimate D2E/DX2                !
 ! D21   D(9,4,6,11)            -0.0393         estimate D2E/DX2                !
 ! D22   D(2,5,7,6)             -0.0411         estimate D2E/DX2                !
 ! D23   D(2,5,7,12)           179.9211         estimate D2E/DX2                !
 ! D24   D(10,5,7,6)          -179.946          estimate D2E/DX2                !
 ! D25   D(10,5,7,12)            0.0162         estimate D2E/DX2                !
 ! D26   D(4,6,7,5)              0.0791         estimate D2E/DX2                !
 ! D27   D(4,6,7,12)          -179.8826         estimate D2E/DX2                !
 ! D28   D(11,6,7,5)          -179.9805         estimate D2E/DX2                !
 ! D29   D(11,6,7,12)            0.0578         estimate D2E/DX2                !
 ! D30   D(1,8,13,14)         -132.2624         estimate D2E/DX2                !
 ! D31   D(1,8,13,15)           -3.6245         estimate D2E/DX2                !
 ! D32   D(8,13,15,2)            7.3608         estimate D2E/DX2                !
 ! D33   D(14,13,15,2)         108.8794         estimate D2E/DX2                !
 --------------------------------------------------------------------------------
 Trust Radius=3.00D-01 FncErr=1.00D-07 GrdErr=1.00D-07
 Number of steps in this run=     83 maximum allowed number of steps=    100.
 GradGradGradGradGradGradGradGradGradGradGradGradGradGradGradGradGradGrad

 Leave Link  103 at Fri Sep  3 00:21:37 2021, MaxMem=  2415919104 cpu:         0.4
 (Enter /gpfs/share/home/1801110325/software/g09e01/l202.exe)
                          Input orientation:                          
 ---------------------------------------------------------------------
 Center     Atomic      Atomic             Coordinates (Angstroms)
 Number     Number       Type             X           Y           Z
 ---------------------------------------------------------------------
      1          8           0        1.277376    1.394803   -0.002841
      2          7           0        0.263933   -0.653857    0.006698
      3          6           0        0.221212    0.742465    0.001929
      4          6           0       -1.107979    1.289478    0.001765
      5          6           0       -0.824932   -1.460196    0.005490
      6          6           0       -2.206677    0.478521    0.001310
      7          6           0       -2.081426   -0.932584    0.002350
      8          1           0        2.657425    0.275170   -0.060301
      9          1           0       -1.190710    2.367034   -0.000600
     10          1           0       -0.624622   -2.522781    0.005664
     11          1           0       -3.195930    0.921358   -0.000854
     12          1           0       -2.945796   -1.579129    0.000117
     13          8           0        3.062183   -0.625255   -0.100800
     14          1           0        3.744148   -0.642816    0.577332
     15          1           0        1.211748   -1.045947    0.014673
 ---------------------------------------------------------------------
                    Distance matrix (angstroms):
                    1          2          3          4          5
     1  O    0.000000
     2  N    2.285644   0.000000
     3  C    1.241390   1.396983   0.000000
     4  C    2.387684   2.378806   1.437350   0.000000
     5  C    3.545531   1.354921   2.438472   2.764206   0.000000
     6  C    3.602529   2.717760   2.442194   1.365572   2.380726
     7  C    4.086357   2.361867   2.847443   2.425934   1.362777
     8  H    1.778037   2.568343   2.481405   3.900121   3.891354
     9  H    2.652675   3.352882   2.152384   1.080730   3.844674
    10  H    4.354898   2.069398   3.373023   3.842781   1.081301
    11  H    4.498291   3.801579   3.421823   2.120155   3.360575
    12  H    5.165216   3.340438   3.926798   3.406828   2.124202
    13  O    2.697363   2.800461   3.154731   4.589878   3.977196
    14  H    3.251685   3.526704   3.828990   5.254348   4.676709
    15  H    2.441695   1.025745   2.044441   3.291733   2.078402
                    6          7          8          9         10
     6  C    0.000000
     7  C    1.416653   0.000000
     8  H    4.868741   4.890737   0.000000
     9  H    2.144452   3.417728   4.380366   0.000000
    10  H    3.392747   2.156622   4.313318   4.922478   0.000000
    11  H    1.083850   2.163152   5.889216   2.472021   4.298111
    12  H    2.186372   1.079426   5.902386   4.318857   2.505665
    13  O    5.384202   5.153815   0.988045   5.201051   4.147828
    14  H    6.082887   5.861048   1.558923   5.809133   4.790326
    15  H    3.742968   3.295148   1.959835   4.173784   2.356560
                   11         12         13         14         15
    11  H    0.000000
    12  H    2.512966   0.000000
    13  O    6.447168   6.084067   0.000000
    14  H    7.137620   6.779764   0.961897   0.000000
    15  H    4.826816   4.191618   1.901164   2.625290   0.000000
 Stoichiometry    C5H7NO2
 Framework group  C1[X(C5H7NO2)]
 Deg. of freedom    39
 Full point group                 C1      NOp   1
 RotChk:  IX=0 Diff= 4.18D-16
 Largest Abelian subgroup         C1      NOp   1
 Largest concise Abelian subgroup C1      NOp   1
                         Standard orientation:                         
 ---------------------------------------------------------------------
 Center     Atomic      Atomic             Coordinates (Angstroms)
 Number     Number       Type             X           Y           Z
 ---------------------------------------------------------------------
      1          8           0        1.275878    1.391818    0.003752
      2          7           0        0.259181   -0.655242    0.010124
      3          6           0        0.218677    0.741147    0.005481
      4          6           0       -1.109644    1.290257    0.001729
      5          6           0       -0.830948   -1.459860    0.005756
      6          6           0       -2.209614    0.481036   -0.001913
      7          6           0       -2.086594   -0.930265   -0.000773
      8          1           0        2.654313    0.270017   -0.050079
      9          1           0       -1.190667    2.367943   -0.000677
     10          1           0       -0.632316   -2.522761    0.006300
     11          1           0       -3.198158    0.925434   -0.006741
     12          1           0       -2.951973   -1.575445   -0.005515
     13          8           0        3.057760   -0.631038   -0.089614
     14          1           0        3.737814   -0.649792    0.590402
     15          1           0        1.206350   -1.048828    0.020656
 ---------------------------------------------------------------------
 Rotational constants (GHZ):      4.0075120      1.4232964      1.0523302
 Leave Link  202 at Fri Sep  3 00:21:37 2021, MaxMem=  2415919104 cpu:         1.0
 (Enter /gpfs/share/home/1801110325/software/g09e01/l301.exe)
 Standard basis: GTBas1 (6D, 7F)
 Ernie: Thresh=  0.10000D-02 Tol=  0.10000D-05 Strict=F.
 There are   134 symmetry adapted cartesian basis functions of A   symmetry.
 There are   134 symmetry adapted basis functions of A   symmetry.
   134 basis functions,   252 primitive gaussians,   134 cartesian basis functions
    30 alpha electrons       30 beta electrons
       nuclear repulsion energy       357.6677778147 Hartrees.
 IExCor=    0 DFT=F Ex=HF Corr=None ExCW=0 ScaHFX=  1.000000
 ScaDFX=  1.000000  1.000000  1.000000  1.000000 ScalE2=  1.000000  1.000000
 IRadAn=      0 IRanWt=     -1 IRanGd=            0 ICorTp=0 IEmpDi=  4
 NAtoms=   15 NActive=   15 NUniq=   15 SFac= 1.00D+00 NAtFMM=   60 NAOKFM=F Big=F
 Integral buffers will be    131072 words long.
 Raffenetti 1 integral format.
 Two-electron integral symmetry is turned on.
 Leave Link  301 at Fri Sep  3 00:21:38 2021, MaxMem=  2415919104 cpu:         2.8
 (Enter /gpfs/share/home/1801110325/software/g09e01/l302.exe)
 NPDir=0 NMtPBC=     1 NCelOv=     1 NCel=       1 NClECP=     1 NCelD=      1
         NCelK=      1 NCelE2=     1 NClLst=     1 CellRange=     0.0.
 One-electron integrals computed using PRISM.
 NBasis=   134 RedAO= T EigKep=  7.26D-04  NBF=   134
 NBsUse=   134 1.00D-06 EigRej= -1.00D+00 NBFU=   134
 Leave Link  302 at Fri Sep  3 00:21:38 2021, MaxMem=  2415919104 cpu:         1.2
 (Enter /gpfs/share/home/1801110325/software/g09e01/l303.exe)
 DipDrv:  MaxL=1.
 Leave Link  303 at Fri Sep  3 00:21:38 2021, MaxMem=  2415919104 cpu:         0.3
 (Enter /gpfs/share/home/1801110325/software/g09e01/l401.exe)
 ExpMin= 1.61D-01 ExpMax= 5.48D+03 ExpMxC= 8.25D+02 IAcc=1 IRadAn=         1 AccDes= 0.00D+00
 Harris functional with IExCor=  205 and IRadAn=       1 diagonalized for initial guess.
 HarFok:  IExCor=  205 AccDes= 0.00D+00 IRadAn=         1 IDoV= 1 UseB2=F ITyADJ=14
 ICtDFT=  3500011 ScaDFX=  1.000000  1.000000  1.000000  1.000000
 FoFCou: FMM=F IPFlag=           0 FMFlag=      100000 FMFlg1=           0
         NFxFlg=           0 DoJE=T BraDBF=F KetDBF=T FulRan=T
         wScrn=  0.000000 ICntrl=     500 IOpCl=  0 I1Cent=   200000004 NGrid=           0
         NMat0=    1 NMatS0=      1 NMatT0=    0 NMatD0=    1 NMtDS0=    0 NMtDT0=    0
 Petite list used in FoFCou.
 Harris En= -398.033760352072    
 JPrj=0 DoOrth=F DoCkMO=F.
 Leave Link  401 at Fri Sep  3 00:21:38 2021, MaxMem=  2415919104 cpu:         1.9
 (Enter /gpfs/share/home/1801110325/software/g09e01/l502.exe)
 Closed shell SCF:
 Using DIIS extrapolation, IDIIS=  1040.
 Integral symmetry usage will be decided dynamically.
 Keep R1 ints in memory in canonical form, NReq=42214891.
 IVT=       74236 IEndB=       74236 NGot=  2415919104 MDV=  2374934334
 LenX=  2374934334 LenY=  2374915937
 Requested convergence on RMS density matrix=1.00D-08 within 128 cycles.
 Requested convergence on MAX density matrix=1.00D-06.
 Requested convergence on             energy=1.00D-06.
 No special actions if energy rises.
 FoFCou: FMM=F IPFlag=           0 FMFlag=           0 FMFlg1=           0
         NFxFlg=           0 DoJE=F BraDBF=F KetDBF=F FulRan=T
         wScrn=  0.000000 ICntrl=     600 IOpCl=  0 I1Cent=           0 NGrid=           0
         NMat0=    1 NMatS0=   9045 NMatT0=    0 NMatD0=    1 NMtDS0=    0 NMtDT0=    0
 Symmetry not used in FoFCou.

 Cycle   1  Pass 1  IDiag  1:
 E= -397.258687748515    
 DIIS: error= 5.43D-02 at cycle   1 NSaved=   1.
 NSaved= 1 IEnMin= 1 EnMin= -397.258687748515     IErMin= 1 ErrMin= 5.43D-02
 ErrMax= 5.43D-02  0.00D+00 EMaxC= 1.00D-01 BMatC= 5.72D-01 BMatP= 5.72D-01
 IDIUse=3 WtCom= 4.57D-01 WtEn= 5.43D-01
 Coeff-Com:  0.100D+01
 Coeff-En:   0.100D+01
 Coeff:      0.100D+01
 Gap=     0.403 Goal=   None    Shift=    0.000
 GapD=    0.403 DampG=2.000 DampE=0.500 DampFc=1.0000 IDamp=-1.
 RMSDP=5.93D-03 MaxDP=1.13D-01              OVMax= 1.41D-01

 Cycle   2  Pass 1  IDiag  1:
 E= -397.527661986769     Delta-E=       -0.268974238255 Rises=F Damp=F
 DIIS: error= 3.07D-02 at cycle   2 NSaved=   2.
 NSaved= 2 IEnMin= 2 EnMin= -397.527661986769     IErMin= 2 ErrMin= 3.07D-02
 ErrMax= 3.07D-02  0.00D+00 EMaxC= 1.00D-01 BMatC= 8.29D-02 BMatP= 5.72D-01
 IDIUse=3 WtCom= 6.93D-01 WtEn= 3.07D-01
 Coeff-Com:  0.210D+00 0.790D+00
 Coeff-En:   0.000D+00 0.100D+01
 Coeff:      0.145D+00 0.855D+00
 Gap=     0.420 Goal=   None    Shift=    0.000
 RMSDP=2.22D-03 MaxDP=5.10D-02 DE=-2.69D-01 OVMax= 5.39D-02

 Cycle   3  Pass 1  IDiag  1:
 E= -397.581209153049     Delta-E=       -0.053547166280 Rises=F Damp=F
 DIIS: error= 1.04D-02 at cycle   3 NSaved=   3.
 NSaved= 3 IEnMin= 3 EnMin= -397.581209153049     IErMin= 3 ErrMin= 1.04D-02
 ErrMax= 1.04D-02  0.00D+00 EMaxC= 1.00D-01 BMatC= 1.15D-02 BMatP= 8.29D-02
 IDIUse=3 WtCom= 8.96D-01 WtEn= 1.04D-01
 Coeff-Com: -0.206D-01 0.245D+00 0.776D+00
 Coeff-En:   0.000D+00 0.000D+00 0.100D+01
 Coeff:     -0.185D-01 0.219D+00 0.799D+00
 Gap=     0.408 Goal=   None    Shift=    0.000
 RMSDP=6.55D-04 MaxDP=1.78D-02 DE=-5.35D-02 OVMax= 2.71D-02

 Cycle   4  Pass 1  IDiag  1:
 E= -397.590062163690     Delta-E=       -0.008853010640 Rises=F Damp=F
 DIIS: error= 1.78D-03 at cycle   4 NSaved=   4.
 NSaved= 4 IEnMin= 4 EnMin= -397.590062163690     IErMin= 4 ErrMin= 1.78D-03
 ErrMax= 1.78D-03  0.00D+00 EMaxC= 1.00D-01 BMatC= 6.09D-04 BMatP= 1.15D-02
 IDIUse=3 WtCom= 9.82D-01 WtEn= 1.78D-02
 Coeff-Com: -0.110D-01 0.486D-01 0.269D+00 0.694D+00
 Coeff-En:   0.000D+00 0.000D+00 0.000D+00 0.100D+01
 Coeff:     -0.108D-01 0.477D-01 0.264D+00 0.699D+00
 Gap=     0.409 Goal=   None    Shift=    0.000
 RMSDP=1.81D-04 MaxDP=3.65D-03 DE=-8.85D-03 OVMax= 5.98D-03

 Cycle   5  Pass 1  IDiag  1:
 E= -397.590682320424     Delta-E=       -0.000620156735 Rises=F Damp=F
 DIIS: error= 8.50D-04 at cycle   5 NSaved=   5.
 NSaved= 5 IEnMin= 5 EnMin= -397.590682320424     IErMin= 5 ErrMin= 8.50D-04
 ErrMax= 8.50D-04  0.00D+00 EMaxC= 1.00D-01 BMatC= 3.97D-05 BMatP= 6.09D-04
 IDIUse=3 WtCom= 9.92D-01 WtEn= 8.50D-03
 Coeff-Com:  0.209D-02-0.254D-01-0.855D-01-0.417D-01 0.115D+01
 Coeff-En:   0.000D+00 0.000D+00 0.000D+00 0.000D+00 0.100D+01
 Coeff:      0.208D-02-0.251D-01-0.847D-01-0.414D-01 0.115D+01
 Gap=     0.410 Goal=   None    Shift=    0.000
 RMSDP=1.12D-04 MaxDP=2.63D-03 DE=-6.20D-04 OVMax= 7.29D-03

 Cycle   6  Pass 1  IDiag  1:
 E= -397.590836023043     Delta-E=       -0.000153702618 Rises=F Damp=F
 DIIS: error= 3.42D-04 at cycle   6 NSaved=   6.
 NSaved= 6 IEnMin= 6 EnMin= -397.590836023043     IErMin= 6 ErrMin= 3.42D-04
 ErrMax= 3.42D-04  0.00D+00 EMaxC= 1.00D-01 BMatC= 1.16D-05 BMatP= 3.97D-05
 IDIUse=3 WtCom= 9.97D-01 WtEn= 3.42D-03
 Coeff-Com:  0.195D-02-0.113D-01-0.536D-01-0.141D+00 0.210D+00 0.995D+00
 Coeff-En:   0.000D+00 0.000D+00 0.000D+00 0.000D+00 0.000D+00 0.100D+01
 Coeff:      0.194D-02-0.113D-01-0.534D-01-0.141D+00 0.209D+00 0.995D+00
 Gap=     0.410 Goal=   None    Shift=    0.000
 RMSDP=6.03D-05 MaxDP=1.27D-03 DE=-1.54D-04 OVMax= 3.88D-03

 Cycle   7  Pass 1  IDiag  1:
 E= -397.590876226995     Delta-E=       -0.000040203952 Rises=F Damp=F
 DIIS: error= 1.57D-04 at cycle   7 NSaved=   7.
 NSaved= 7 IEnMin= 7 EnMin= -397.590876226995     IErMin= 7 ErrMin= 1.57D-04
 ErrMax= 1.57D-04  0.00D+00 EMaxC= 1.00D-01 BMatC= 1.84D-06 BMatP= 1.16D-05
 IDIUse=3 WtCom= 9.98D-01 WtEn= 1.57D-03
 Coeff-Com: -0.505D-03 0.608D-02 0.217D-01-0.469D-02-0.233D+00-0.861D-01
 Coeff-Com:  0.130D+01
 Coeff-En:   0.000D+00 0.000D+00 0.000D+00 0.000D+00 0.000D+00 0.000D+00
 Coeff-En:   0.100D+01
 Coeff:     -0.505D-03 0.607D-02 0.216D-01-0.468D-02-0.233D+00-0.860D-01
 Coeff:      0.130D+01
 Gap=     0.411 Goal=   None    Shift=    0.000
 RMSDP=3.72D-05 MaxDP=8.49D-04 DE=-4.02D-05 OVMax= 2.79D-03

 Cycle   8  Pass 1  IDiag  1:
 E= -397.590885731311     Delta-E=       -0.000009504316 Rises=F Damp=F
 DIIS: error= 3.08D-05 at cycle   8 NSaved=   8.
 NSaved= 8 IEnMin= 8 EnMin= -397.590885731311     IErMin= 8 ErrMin= 3.08D-05
 ErrMax= 3.08D-05  0.00D+00 EMaxC= 1.00D-01 BMatC= 1.85D-07 BMatP= 1.84D-06
 IDIUse=1 WtCom= 1.00D+00 WtEn= 0.00D+00
 Coeff-Com: -0.264D-03 0.181D-02 0.831D-02 0.156D-01-0.163D-01-0.148D+00
 Coeff-Com:  0.506D-01 0.109D+01
 Coeff:     -0.264D-03 0.181D-02 0.831D-02 0.156D-01-0.163D-01-0.148D+00
 Coeff:      0.506D-01 0.109D+01
 Gap=     0.411 Goal=   None    Shift=    0.000
 RMSDP=9.27D-06 MaxDP=2.40D-04 DE=-9.50D-06 OVMax= 6.03D-04

 Cycle   9  Pass 1  IDiag  1:
 E= -397.590886325143     Delta-E=       -0.000000593832 Rises=F Damp=F
 DIIS: error= 1.63D-05 at cycle   9 NSaved=   9.
 NSaved= 9 IEnMin= 9 EnMin= -397.590886325143     IErMin= 9 ErrMin= 1.63D-05
 ErrMax= 1.63D-05  0.00D+00 EMaxC= 1.00D-01 BMatC= 2.31D-08 BMatP= 1.85D-07
 IDIUse=1 WtCom= 1.00D+00 WtEn= 0.00D+00
 Coeff-Com: -0.104D-04-0.177D-03-0.277D-03 0.214D-02 0.178D-01-0.269D-01
 Coeff-Com: -0.933D-01 0.177D+00 0.924D+00
 Coeff:     -0.104D-04-0.177D-03-0.277D-03 0.214D-02 0.178D-01-0.269D-01
 Coeff:     -0.933D-01 0.177D+00 0.924D+00
 Gap=     0.411 Goal=   None    Shift=    0.000
 RMSDP=2.53D-06 MaxDP=6.49D-05 DE=-5.94D-07 OVMax= 1.88D-04

 Cycle  10  Pass 1  IDiag  1:
 E= -397.590886385967     Delta-E=       -0.000000060824 Rises=F Damp=F
 DIIS: error= 5.65D-06 at cycle  10 NSaved=  10.
 NSaved=10 IEnMin=10 EnMin= -397.590886385967     IErMin=10 ErrMin= 5.65D-06
 ErrMax= 5.65D-06  0.00D+00 EMaxC= 1.00D-01 BMatC= 4.58D-09 BMatP= 2.31D-08
 IDIUse=1 WtCom= 1.00D+00 WtEn= 0.00D+00
 Coeff-Com:  0.528D-04-0.381D-03-0.162D-02-0.359D-02 0.390D-02 0.284D-01
 Coeff-Com:  0.444D-02-0.261D+00-0.682D-03 0.123D+01
 Coeff:      0.528D-04-0.381D-03-0.162D-02-0.359D-02 0.390D-02 0.284D-01
 Coeff:      0.444D-02-0.261D+00-0.682D-03 0.123D+01
 Gap=     0.411 Goal=   None    Shift=    0.000
 RMSDP=1.41D-06 MaxDP=2.93D-05 DE=-6.08D-08 OVMax= 7.83D-05

 Cycle  11  Pass 1  IDiag  1:
 E= -397.590886399553     Delta-E=       -0.000000013586 Rises=F Damp=F
 DIIS: error= 1.59D-06 at cycle  11 NSaved=  11.
 NSaved=11 IEnMin=11 EnMin= -397.590886399553     IErMin=11 ErrMin= 1.59D-06
 ErrMax= 1.59D-06  0.00D+00 EMaxC= 1.00D-01 BMatC= 3.62D-10 BMatP= 4.58D-09
 IDIUse=1 WtCom= 1.00D+00 WtEn= 0.00D+00
 Coeff-Com: -0.130D-05 0.372D-04 0.153D-03-0.103D-03-0.205D-02 0.904D-03
 Coeff-Com:  0.126D-01-0.124D-01-0.676D-01-0.782D-01 0.115D+01
 Coeff:     -0.130D-05 0.372D-04 0.153D-03-0.103D-03-0.205D-02 0.904D-03
 Coeff:      0.126D-01-0.124D-01-0.676D-01-0.782D-01 0.115D+01
 Gap=     0.411 Goal=   None    Shift=    0.000
 RMSDP=3.41D-07 MaxDP=8.30D-06 DE=-1.36D-08 OVMax= 1.84D-05

 Cycle  12  Pass 1  IDiag  1:
 E= -397.590886400760     Delta-E=       -0.000000001207 Rises=F Damp=F
 DIIS: error= 7.23D-07 at cycle  12 NSaved=  12.
 NSaved=12 IEnMin=12 EnMin= -397.590886400760     IErMin=12 ErrMin= 7.23D-07
 ErrMax= 7.23D-07  0.00D+00 EMaxC= 1.00D-01 BMatC= 5.02D-11 BMatP= 3.62D-10
 IDIUse=1 WtCom= 1.00D+00 WtEn= 0.00D+00
 Coeff-Com: -0.693D-05 0.519D-04 0.229D-03 0.452D-03-0.875D-03-0.376D-02
 Coeff-Com:  0.755D-03 0.308D-01-0.311D-03-0.169D+00 0.453D-01 0.110D+01
 Coeff:     -0.693D-05 0.519D-04 0.229D-03 0.452D-03-0.875D-03-0.376D-02
 Coeff:      0.755D-03 0.308D-01-0.311D-03-0.169D+00 0.453D-01 0.110D+01
 Gap=     0.411 Goal=   None    Shift=    0.000
 RMSDP=1.74D-07 MaxDP=2.96D-06 DE=-1.21D-09 OVMax= 1.20D-05

 Cycle  13  Pass 1  IDiag  1:
 E= -397.590886400980     Delta-E=       -0.000000000221 Rises=F Damp=F
 DIIS: error= 3.01D-07 at cycle  13 NSaved=  13.
 NSaved=13 IEnMin=13 EnMin= -397.590886400980     IErMin=13 ErrMin= 3.01D-07
 ErrMax= 3.01D-07  0.00D+00 EMaxC= 1.00D-01 BMatC= 8.63D-12 BMatP= 5.02D-11
 IDIUse=1 WtCom= 1.00D+00 WtEn= 0.00D+00
 Coeff-Com:  0.167D-05-0.165D-04-0.690D-04-0.744D-04 0.446D-03 0.818D-03
 Coeff-Com: -0.191D-02-0.551D-02 0.989D-02 0.534D-01-0.220D+00-0.105D+00
 Coeff-Com:  0.127D+01
 Coeff:      0.167D-05-0.165D-04-0.690D-04-0.744D-04 0.446D-03 0.818D-03
 Coeff:     -0.191D-02-0.551D-02 0.989D-02 0.534D-01-0.220D+00-0.105D+00
 Coeff:      0.127D+01
 Gap=     0.411 Goal=   None    Shift=    0.000
 RMSDP=6.71D-08 MaxDP=1.48D-06 DE=-2.21D-10 OVMax= 4.46D-06

 Cycle  14  Pass 1  IDiag  1:
 E= -397.590886401017     Delta-E=       -0.000000000036 Rises=F Damp=F
 DIIS: error= 1.12D-07 at cycle  14 NSaved=  14.
 NSaved=14 IEnMin=14 EnMin= -397.590886401017     IErMin=14 ErrMin= 1.12D-07
 ErrMax= 1.12D-07  0.00D+00 EMaxC= 1.00D-01 BMatC= 1.06D-12 BMatP= 8.63D-12
 IDIUse=1 WtCom= 1.00D+00 WtEn= 0.00D+00
 Coeff-Com:  0.979D-06-0.764D-05-0.329D-04-0.619D-04 0.102D-03 0.581D-03
 Coeff-Com: -0.111D-03-0.450D-02-0.704D-03 0.266D-01-0.220D-01-0.127D+00
 Coeff-Com: -0.163D-01 0.114D+01
 Coeff:      0.979D-06-0.764D-05-0.329D-04-0.619D-04 0.102D-03 0.581D-03
 Coeff:     -0.111D-03-0.450D-02-0.704D-03 0.266D-01-0.220D-01-0.127D+00
 Coeff:     -0.163D-01 0.114D+01
 Gap=     0.411 Goal=   None    Shift=    0.000
 RMSDP=2.41D-08 MaxDP=4.89D-07 DE=-3.65D-11 OVMax= 1.77D-06

 Cycle  15  Pass 1  IDiag  1:
 E= -397.590886401018     Delta-E=       -0.000000000001 Rises=F Damp=F
 DIIS: error= 3.62D-08 at cycle  15 NSaved=  15.
 NSaved=15 IEnMin=15 EnMin= -397.590886401018     IErMin=15 ErrMin= 3.62D-08
 ErrMax= 3.62D-08  0.00D+00 EMaxC= 1.00D-01 BMatC= 1.41D-13 BMatP= 1.06D-12
 IDIUse=1 WtCom= 1.00D+00 WtEn= 0.00D+00
 Coeff-Com: -0.187D-06 0.191D-05 0.819D-05 0.758D-05-0.711D-04-0.665D-04
 Coeff-Com:  0.289D-03 0.420D-03-0.198D-02-0.449D-02 0.304D-01 0.166D-01
 Coeff-Com: -0.202D+00 0.102D+00 0.106D+01
 Coeff:     -0.187D-06 0.191D-05 0.819D-05 0.758D-05-0.711D-04-0.665D-04
 Coeff:      0.289D-03 0.420D-03-0.198D-02-0.449D-02 0.304D-01 0.166D-01
 Coeff:     -0.202D+00 0.102D+00 0.106D+01
 Gap=     0.411 Goal=   None    Shift=    0.000
 RMSDP=7.26D-09 MaxDP=1.31D-07 DE=-9.09D-13 OVMax= 5.22D-07

 SCF Done:  E(RHF) =  -397.590886401     A.U. after   15 cycles
            NFock= 15  Conv=0.73D-08     -V/T= 2.0025
 KE= 3.966074439406D+02 PE=-1.648263521786D+03 EE= 4.963974136295D+02
 Leave Link  502 at Fri Sep  3 00:21:40 2021, MaxMem=  2415919104 cpu:         6.7
 (Enter /gpfs/share/home/1801110325/software/g09e01/l601.exe)
 Copying SCF densities to generalized density rwf, IOpCl= 0 IROHF=0.

 **********************************************************************

            Population analysis using the SCF density.

 **********************************************************************

 Orbital symmetries:
       Occupied  (A) (A) (A) (A) (A) (A) (A) (A) (A) (A) (A) (A)
                 (A) (A) (A) (A) (A) (A) (A) (A) (A) (A) (A) (A)
                 (A) (A) (A) (A) (A) (A)
       Virtual   (A) (A) (A) (A) (A) (A) (A) (A) (A) (A) (A) (A)
                 (A) (A) (A) (A) (A) (A) (A) (A) (A) (A) (A) (A)
                 (A) (A) (A) (A) (A) (A) (A) (A) (A) (A) (A) (A)
                 (A) (A) (A) (A) (A) (A) (A) (A) (A) (A) (A) (A)
                 (A) (A) (A) (A) (A) (A) (A) (A) (A) (A) (A) (A)
                 (A) (A) (A) (A) (A) (A) (A) (A) (A) (A) (A) (A)
                 (A) (A) (A) (A) (A) (A) (A) (A) (A) (A) (A) (A)
                 (A) (A) (A) (A) (A) (A) (A) (A) (A) (A) (A) (A)
                 (A) (A) (A) (A) (A) (A) (A) (A)
 The electronic state is 1-A.
 Alpha  occ. eigenvalues --  -20.54506 -20.52009 -15.62389 -11.35875 -11.31265
 Alpha  occ. eigenvalues --  -11.27457 -11.24195 -11.23775  -1.37713  -1.32093
 Alpha  occ. eigenvalues --   -1.27382  -1.10745  -1.03072  -0.88780  -0.86092
 Alpha  occ. eigenvalues --   -0.75616  -0.71008  -0.69068  -0.66479  -0.64094
 Alpha  occ. eigenvalues --   -0.61399  -0.60273  -0.56170  -0.55560  -0.53317
 Alpha  occ. eigenvalues --   -0.48736  -0.48338  -0.42481  -0.41990  -0.31186
 Alpha virt. eigenvalues --    0.09882   0.16604   0.22094   0.24355   0.27296
 Alpha virt. eigenvalues --    0.30079   0.31992   0.34374   0.34676   0.39169
 Alpha virt. eigenvalues --    0.42423   0.45834   0.46701   0.50927   0.53434
 Alpha virt. eigenvalues --    0.63524   0.68586   0.72296   0.73252   0.75552
 Alpha virt. eigenvalues --    0.79598   0.79972   0.81418   0.82136   0.84188
 Alpha virt. eigenvalues --    0.86394   0.88824   0.92225   0.92501   1.03539
 Alpha virt. eigenvalues --    1.04386   1.06902   1.07009   1.08534   1.10253
 Alpha virt. eigenvalues --    1.12557   1.14255   1.15369   1.16443   1.19125
 Alpha virt. eigenvalues --    1.22383   1.24218   1.27663   1.31083   1.33309
 Alpha virt. eigenvalues --    1.36096   1.41188   1.43863   1.45908   1.47190
 Alpha virt. eigenvalues --    1.55461   1.58768   1.62090   1.63963   1.69445
 Alpha virt. eigenvalues --    1.72677   1.72840   1.74544   1.75965   1.76676
 Alpha virt. eigenvalues --    1.90810   1.96993   2.02553   2.03976   2.07518
 Alpha virt. eigenvalues --    2.11248   2.13509   2.13897   2.20022   2.23119
 Alpha virt. eigenvalues --    2.25267   2.29335   2.30247   2.41014   2.42278
 Alpha virt. eigenvalues --    2.44177   2.46680   2.52419   2.56340   2.60574
 Alpha virt. eigenvalues --    2.64256   2.67918   2.71137   2.88940   2.90703
 Alpha virt. eigenvalues --    2.96410   2.99345   3.00075   3.01836   3.05329
 Alpha virt. eigenvalues --    3.09857   3.12224   3.20373   3.38968   3.52961
 Alpha virt. eigenvalues --    3.77833   4.14005   4.42997   4.48385   4.53443
 Alpha virt. eigenvalues --    4.63669   4.68887   4.88675   5.11111
          Condensed to atoms (all electrons):
               1          2          3          4          5          6
     1  O    8.326185  -0.090183   0.515025  -0.058844   0.002741   0.002835
     2  N   -0.090183   7.331481   0.274712  -0.081685   0.295786  -0.020202
     3  C    0.515025   0.274712   3.994699   0.500405  -0.028586  -0.044813
     4  C   -0.058844  -0.081685   0.500405   5.141413  -0.019817   0.556169
     5  C    0.002741   0.295786  -0.028586  -0.019817   4.664425  -0.057524
     6  C    0.002835  -0.020202  -0.044813   0.556169  -0.057524   4.873587
     7  C    0.000105  -0.044998  -0.011698  -0.047221   0.629181   0.462710
     8  H    0.046025   0.000979  -0.003461   0.000655   0.000116  -0.000034
     9  H    0.001273   0.004021  -0.023417   0.378833  -0.000110  -0.029084
    10  H   -0.000064  -0.037857   0.000759  -0.000223   0.390665   0.002750
    11  H   -0.000040  -0.000275   0.001623  -0.025449   0.003067   0.381187
    12  H    0.000001   0.002541   0.000188   0.002080  -0.027333  -0.025058
    13  O   -0.026080  -0.024780   0.003844   0.000039   0.000082  -0.000002
    14  H    0.000891   0.000874  -0.000124   0.000000  -0.000006  -0.000000
    15  H    0.000550   0.265441  -0.008283   0.003492  -0.016490  -0.000390
               7          8          9         10         11         12
     1  O    0.000105   0.046025   0.001273  -0.000064  -0.000040   0.000001
     2  N   -0.044998   0.000979   0.004021  -0.037857  -0.000275   0.002541
     3  C   -0.011698  -0.003461  -0.023417   0.000759   0.001623   0.000188
     4  C   -0.047221   0.000655   0.378833  -0.000223  -0.025449   0.002080
     5  C    0.629181   0.000116  -0.000110   0.390665   0.003067  -0.027333
     6  C    0.462710  -0.000034  -0.029084   0.002750   0.381187  -0.025058
     7  C    5.008424   0.000000   0.002336  -0.026148  -0.030974   0.385431
     8  H    0.000000   0.239351  -0.000011  -0.000004   0.000000  -0.000000
     9  H    0.002336  -0.000011   0.438056   0.000010  -0.002214  -0.000082
    10  H   -0.026148  -0.000004   0.000010   0.432916  -0.000089  -0.000826
    11  H   -0.030974   0.000000  -0.002214  -0.000089   0.449727  -0.001359
    12  H    0.385431  -0.000000  -0.000082  -0.000826  -0.001359   0.446480
    13  O   -0.000005   0.222902   0.000002  -0.000001  -0.000000   0.000000
    14  H    0.000000  -0.008442  -0.000000  -0.000001   0.000000  -0.000000
    15  H    0.001805  -0.006013  -0.000053  -0.001753   0.000006  -0.000052
              13         14         15
     1  O   -0.026080   0.000891   0.000550
     2  N   -0.024780   0.000874   0.265441
     3  C    0.003844  -0.000124  -0.008283
     4  C    0.000039   0.000000   0.003492
     5  C    0.000082  -0.000006  -0.016490
     6  C   -0.000002  -0.000000  -0.000390
     7  C   -0.000005   0.000000   0.001805
     8  H    0.222902  -0.008442  -0.006013
     9  H    0.000002  -0.000000  -0.000053
    10  H   -0.000001  -0.000001  -0.001753
    11  H   -0.000000   0.000000   0.000006
    12  H    0.000000  -0.000000  -0.000052
    13  O    8.466134   0.259288   0.048043
    14  H    0.259288   0.315020  -0.001493
    15  H    0.048043  -0.001493   0.236470
 Mulliken charges:
               1
     1  O   -0.720420
     2  N   -0.875855
     3  C    0.829127
     4  C   -0.349846
     5  C    0.163805
     6  C   -0.102132
     7  C   -0.328947
     8  H    0.507936
     9  H    0.230441
    10  H    0.239866
    11  H    0.224789
    12  H    0.217991
    13  O   -0.949466
    14  H    0.433993
    15  H    0.478719
 Sum of Mulliken charges =  -0.00000
 Mulliken charges with hydrogens summed into heavy atoms:
               1
     1  O   -0.720420
     2  N   -0.397136
     3  C    0.829127
     4  C   -0.119405
     5  C    0.403671
     6  C    0.122656
     7  C   -0.110957
    13  O   -0.007536
 Electronic spatial extent (au):  <R**2>=           1066.2492
 Charge=             -0.0000 electrons
 Dipole moment (field-independent basis, Debye):
    X=             -2.8693    Y=             -2.4342    Z=              1.3643  Tot=              4.0025
 Quadrupole moment (field-independent basis, Debye-Ang):
   XX=            -40.8890   YY=            -45.0845   ZZ=            -49.2753
   XY=             -2.2301   XZ=              5.4472   YZ=             -1.0677
 Traceless Quadrupole moment (field-independent basis, Debye-Ang):
   XX=              4.1940   YY=             -0.0016   ZZ=             -4.1924
   XY=             -2.2301   XZ=              5.4472   YZ=             -1.0677
 Octapole moment (field-independent basis, Debye-Ang**2):
  XXX=             20.7910  YYY=            -13.9771  ZZZ=              1.0038  XYY=             -6.5924
  XXY=              1.3531  XXZ=             20.6075  XZZ=             13.0764  YZZ=              0.4536
  YYZ=              0.8103  XYZ=             -3.8632
 Hexadecapole moment (field-independent basis, Debye-Ang**3):
 XXXX=           -732.8576 YYYY=           -337.2945 ZZZZ=            -47.9687 XXXY=             -4.3981
 XXXZ=             80.2010 YYYX=            -12.9192 YYYZ=             -1.0591 ZZZX=              4.2798
 ZZZY=             -0.7623 XXYY=           -212.1078 XXZZ=           -164.1270 YYZZ=            -74.5978
 XXYZ=            -14.2805 YYXZ=              3.3178 ZZXY=             -2.7846
 N-N= 3.576677778147D+02 E-N=-1.648263523081D+03  KE= 3.966074439406D+02
 No NMR shielding tensors so no spin-rotation constants.
 Leave Link  601 at Fri Sep  3 00:21:40 2021, MaxMem=  2415919104 cpu:         0.6
 (Enter /gpfs/share/home/1801110325/software/g09e01/l701.exe)
 Compute integral first derivatives.
 ... and contract with generalized density number  0.
 Leave Link  701 at Fri Sep  3 00:21:41 2021, MaxMem=  2415919104 cpu:         1.0
 (Enter /gpfs/share/home/1801110325/software/g09e01/l702.exe)
 L702 exits ... SP integral derivatives will be done elsewhere.
 Leave Link  702 at Fri Sep  3 00:21:41 2021, MaxMem=  2415919104 cpu:         0.1
 (Enter /gpfs/share/home/1801110325/software/g09e01/l703.exe)
 Compute integral first derivatives, UseDBF=F ICtDFT=           0.
 Integral derivatives from FoFJK, PRISM(SPDF).
 Calling FoFJK, ICntrl=      2127 FMM=F ISym2X=0 I1Cent= 0 IOpClX= 0 NMat=1 NMatS=1 NMatT=0.
 FoFJK:  IHMeth= 1 ICntrl=    2127 DoSepK=F KAlg= 0 I1Cent=   0 FoldK=F
 IRaf=         0 NMat=   1 IRICut=       1 DoRegI=T DoRafI=F ISym2E= 0.
 FoFCou: FMM=F IPFlag=           0 FMFlag=      100000 FMFlg1=         800
         NFxFlg=           0 DoJE=F BraDBF=F KetDBF=F FulRan=T
         wScrn=  0.000000 ICntrl=    2127 IOpCl=  0 I1Cent=           0 NGrid=           0
         NMat0=    1 NMatS0=      1 NMatT0=    0 NMatD0=    1 NMtDS0=    0 NMtDT0=    0
 Symmetry not used in FoFCou.
 Leave Link  703 at Fri Sep  3 00:21:41 2021, MaxMem=  2415919104 cpu:         3.9
 (Enter /gpfs/share/home/1801110325/software/g09e01/l716.exe)
 Dipole        =-1.12888834D+00-9.57687052D-01 5.36750914D-01
 ***** Axes restored to original set *****
 -------------------------------------------------------------------
 Center     Atomic                   Forces (Hartrees/Bohr)
 Number     Number              X              Y              Z
 -------------------------------------------------------------------
      1        8          -0.034039660   -0.016484942    0.001205430
      2        7           0.013159210    0.010084566    0.000979305
      3        6           0.026772879   -0.004167440   -0.000464525
      4        6          -0.013497484    0.001651580   -0.000113074
      5        6          -0.010772032    0.006790828   -0.000209363
      6        6           0.009658196    0.015355266   -0.000032463
      7        6           0.009577761   -0.018019093    0.000078467
      8        1           0.013080108   -0.021176247   -0.002737565
      9        1           0.000504651   -0.006282093    0.000011733
     10        1          -0.001363143    0.006568150    0.000032695
     11        1           0.006005674   -0.002181301    0.000031417
     12        1           0.004401532    0.003520944    0.000007853
     13        8           0.004907664    0.019368457    0.012993620
     14        1          -0.011389670    0.000298793   -0.011021828
     15        1          -0.017005686    0.004672532   -0.000761701
 -------------------------------------------------------------------
 Cartesian Forces:  Max     0.034039660 RMS     0.011005050
 Leave Link  716 at Fri Sep  3 00:21:41 2021, MaxMem=  2415919104 cpu:         0.1
 (Enter /gpfs/share/home/1801110325/software/g09e01/l103.exe)

 GradGradGradGradGradGradGradGradGradGradGradGradGradGradGradGradGradGrad
 Berny optimization.
 FormGI is forming the generalized inverse of G from B-inverse, IUseBI=4.
 Internal  Forces:  Max     0.033869709 RMS     0.006796838
 Search for a local minimum.
 Step number   1 out of a maximum of   83
 All quantities printed in internal units (Hartrees-Bohrs-Radians)
 RMS Force = .67968D-02 SwitMx=.10000D-02 MixMth= 1
 Mixed Optimization -- RFO/linear search
 Second derivative matrix not updated -- first step.
 ITU=  0
     Eigenvalues ---    0.00605   0.00851   0.01670   0.02015   0.02035
     Eigenvalues ---    0.02130   0.02178   0.02289   0.02370   0.02415
     Eigenvalues ---    0.02486   0.05556   0.06829   0.07369   0.09614
     Eigenvalues ---    0.16000   0.16000   0.16000   0.16000   0.19090
     Eigenvalues ---    0.20565   0.21971   0.22000   0.22256   0.23654
     Eigenvalues ---    0.35533   0.35838   0.35906   0.36064   0.38382
     Eigenvalues ---    0.40128   0.41873   0.43943   0.48638   0.48852
     Eigenvalues ---    0.51530   0.53267   0.55067   0.83119
 RFO step:  Lambda=-6.35392821D-03 EMin= 6.04943418D-03
 Linear search not attempted -- first point.
 Iteration  1 RMS(Cart)=  0.01543590 RMS(Int)=  0.00010426
 Iteration  2 RMS(Cart)=  0.00008018 RMS(Int)=  0.00003976
 Iteration  3 RMS(Cart)=  0.00000002 RMS(Int)=  0.00003976
 ITry= 1 IFail=0 DXMaxC= 5.49D-02 DCOld= 1.00D+10 DXMaxT= 3.00D-01 DXLimC= 3.00D+00 Rises=F
 Variable       Old X    -DE/DX   Delta X   Delta X   Delta X     New X
                                 (Linear)    (Quad)   (Total)
    R1        2.34589  -0.03387   0.00000  -0.04031  -0.04033   2.30556
    R2        3.36000   0.00462   0.00000   0.05706   0.05707   3.41707
    R3        2.63992  -0.01811   0.00000  -0.04034  -0.04036   2.59955
    R4        2.56043  -0.00453   0.00000  -0.00885  -0.00885   2.55158
    R5        1.93838  -0.01591   0.00000  -0.03403  -0.03403   1.90434
    R6        2.71620  -0.00023   0.00000  -0.00054  -0.00055   2.71565
    R7        2.58056  -0.01670   0.00000  -0.03125  -0.03126   2.54930
    R8        2.04228  -0.00630   0.00000  -0.01725  -0.01725   2.02504
    R9        2.57528  -0.01745   0.00000  -0.03293  -0.03293   2.54234
   R10        2.04336  -0.00671   0.00000  -0.01839  -0.01839   2.02497
   R11        2.67709   0.00488   0.00000   0.01187   0.01187   2.68896
   R12        2.04818  -0.00637   0.00000  -0.01762  -0.01762   2.03056
   R13        2.03982  -0.00563   0.00000  -0.01535  -0.01535   2.02447
   R14        1.86713  -0.02170   0.00000  -0.04309  -0.04307   1.82406
   R15        1.81772  -0.01585   0.00000  -0.02846  -0.02846   1.78927
   R16        3.59268   0.00139   0.00000   0.04616   0.04617   3.63885
    A1        1.90665   0.00509   0.00000   0.01010   0.01003   1.91668
    A2        2.17762  -0.00060   0.00000  -0.00602  -0.00601   2.17161
    A3        1.99364   0.00135   0.00000   0.01016   0.01011   2.00374
    A4        2.11193  -0.00075   0.00000  -0.00412  -0.00410   2.10783
    A5        2.09351   0.00168   0.00000  -0.00020  -0.00026   2.09325
    A6        2.19788  -0.00415   0.00000  -0.01162  -0.01158   2.18630
    A7        1.99179   0.00247   0.00000   0.01181   0.01184   2.00363
    A8        2.11533  -0.00276   0.00000  -0.01121  -0.01122   2.10411
    A9        2.03783   0.00136   0.00000   0.00547   0.00547   2.04331
   A10        2.13001   0.00140   0.00000   0.00574   0.00575   2.13576
   A11        2.10663   0.00261   0.00000   0.00984   0.00983   2.11646
   A12        2.02188  -0.00118   0.00000  -0.00416  -0.00416   2.01772
   A13        2.15467  -0.00143   0.00000  -0.00567  -0.00567   2.14900
   A14        2.11811   0.00060   0.00000   0.00491   0.00489   2.12300
   A15        2.08485  -0.00077   0.00000  -0.00530  -0.00529   2.07956
   A16        2.08022   0.00018   0.00000   0.00040   0.00040   2.08063
   A17        2.05688  -0.00232   0.00000  -0.00933  -0.00935   2.04753
   A18        2.10183   0.00135   0.00000   0.00579   0.00580   2.10762
   A19        2.12448   0.00097   0.00000   0.00354   0.00355   2.12803
   A20        2.67508  -0.00284   0.00000  -0.00972  -0.00971   2.66537
   A21        1.85269   0.00128   0.00000   0.00044   0.00049   1.85318
   A22        1.36989  -0.00364   0.00000  -0.01052  -0.01045   1.35944
   A23        2.26947   0.00021   0.00000   0.00028   0.00018   2.26965
   A24        2.52234  -0.00168   0.00000   0.00104   0.00103   2.52337
    D1        0.03462   0.00047   0.00000   0.00551   0.00552   0.04014
    D2       -3.10577   0.00035   0.00000   0.00353   0.00355  -3.10222
    D3        0.01976  -0.00010   0.00000  -0.02180  -0.02193  -0.00217
    D4       -3.13567  -0.00004   0.00000   0.00018   0.00016  -3.13551
    D5        0.00486   0.00005   0.00000   0.00192   0.00192   0.00677
    D6        0.00946  -0.00007   0.00000  -0.00410  -0.00410   0.00536
    D7       -3.13320   0.00003   0.00000  -0.00235  -0.00234  -3.13554
    D8       -0.00262  -0.00004   0.00000  -0.00235  -0.00234  -0.00497
    D9        3.13743  -0.00001   0.00000  -0.00129  -0.00127   3.13616
   D10        3.13521  -0.00001   0.00000   0.00223   0.00219   3.13739
   D11       -0.00792   0.00002   0.00000   0.00329   0.00325  -0.00467
   D12       -0.11557  -0.00011   0.00000   0.00722   0.00716  -0.10841
   D13        3.02941  -0.00013   0.00000   0.00313   0.00308   3.03249
   D14        3.13644   0.00007   0.00000   0.00130   0.00128   3.13772
   D15       -0.00244   0.00006   0.00000   0.00099   0.00098  -0.00146
   D16       -0.00401  -0.00004   0.00000  -0.00058  -0.00059  -0.00460
   D17        3.14030  -0.00004   0.00000  -0.00089  -0.00089   3.13940
   D18        0.00113   0.00001   0.00000  -0.00031  -0.00031   0.00082
   D19       -3.13942  -0.00001   0.00000  -0.00045  -0.00044  -3.13987
   D20        3.13987   0.00001   0.00000   0.00001   0.00001   3.13987
   D21       -0.00069  -0.00000   0.00000  -0.00013  -0.00013  -0.00082
   D22       -0.00072   0.00001   0.00000   0.00130   0.00130   0.00058
   D23        3.14022   0.00002   0.00000   0.00085   0.00085   3.14106
   D24       -3.14065  -0.00002   0.00000   0.00015   0.00014  -3.14051
   D25        0.00028  -0.00002   0.00000  -0.00030  -0.00031  -0.00002
   D26        0.00138  -0.00000   0.00000  -0.00005  -0.00005   0.00133
   D27       -3.13954  -0.00001   0.00000   0.00041   0.00041  -3.13914
   D28       -3.14125   0.00001   0.00000   0.00008   0.00009  -3.14117
   D29        0.00101   0.00001   0.00000   0.00054   0.00054   0.00155
   D30       -2.30841   0.00059   0.00000   0.02196   0.02187  -2.28654
   D31       -0.06326   0.00002   0.00000   0.02005   0.01992  -0.04334
   D32        0.12847   0.00021   0.00000  -0.01147  -0.01163   0.11684
   D33        1.90030  -0.00110   0.00000  -0.01948  -0.01952   1.88078
         Item               Value     Threshold  Converged?
 Maximum Force            0.033870     0.000450     NO 
 RMS     Force            0.006797     0.000300     NO 
 Maximum Displacement     0.054889     0.001800     NO 
 RMS     Displacement     0.015455     0.001200     NO 
 Predicted change in Energy=-3.237573D-03
 Lowest energy point so far.  Saving SCF results.
 GradGradGradGradGradGradGradGradGradGradGradGradGradGradGradGradGradGrad

 Leave Link  103 at Fri Sep  3 00:21:42 2021, MaxMem=  2415919104 cpu:         0.6
 (Enter /gpfs/share/home/1801110325/software/g09e01/l202.exe)
                          Input orientation:                          
 ---------------------------------------------------------------------
 Center     Atomic      Atomic             Coordinates (Angstroms)
 Number     Number       Type             X           Y           Z
 ---------------------------------------------------------------------
      1          8           0        1.248330    1.374704    0.000108
      2          7           0        0.260655   -0.645268    0.008709
      3          6           0        0.212842    0.729514    0.003060
      4          6           0       -1.111855    1.286579    0.002042
      5          6           0       -0.825900   -1.446848    0.005543
      6          6           0       -2.194383    0.481585    0.001086
      7          6           0       -2.070461   -0.935943    0.002043
      8          1           0        2.667507    0.255978   -0.063956
      9          1           0       -1.191550    2.355213   -0.000220
     10          1           0       -0.624922   -2.499402    0.005568
     11          1           0       -3.174363    0.922311   -0.001286
     12          1           0       -2.926896   -1.579527   -0.000941
     13          8           0        3.066759   -0.622178   -0.097902
     14          1           0        3.734650   -0.634465    0.573123
     15          1           0        1.189541   -1.035989    0.014957
 ---------------------------------------------------------------------
                    Distance matrix (angstroms):
                    1          2          3          4          5
     1  O    0.000000
     2  N    2.248525   0.000000
     3  C    1.220047   1.375624   0.000000
     4  C    2.361831   2.369781   1.437061   0.000000
     5  C    3.501945   1.350238   2.411544   2.748346   0.000000
     6  C    3.556676   2.701309   2.419960   1.349031   2.364661
     7  C    4.043943   2.349179   2.826167   2.420440   1.345351
     8  H    1.808236   2.571082   2.500822   3.917917   3.886945
     9  H    2.629527   3.333446   2.148307   1.071604   3.819607
    10  H    4.303232   2.054768   3.335829   3.817168   1.071570
    11  H    4.445771   3.775812   3.392691   2.094431   3.335902
    12  H    5.114684   3.321659   3.897389   3.392484   2.105191
    13  O    2.702559   2.808223   3.159447   4.595014   3.980399
    14  H    3.247598   3.519562   3.819495   5.244536   4.666983
    15  H    2.411456   1.007735   2.017692   3.269696   2.056914
                    6          7          8          9         10
     6  C    0.000000
     7  C    1.422935   0.000000
     8  H    4.867557   4.886039   0.000000
     9  H    2.125125   3.406493   4.393538   0.000000
    10  H    3.368904   2.129320   4.293838   4.887575   0.000000
    11  H    1.074526   2.161416   5.880083   2.446376   4.267063
    12  H    2.187409   1.071302   5.888158   4.300418   2.478972
    13  O    5.376589   5.147764   0.965252   5.196883   4.142847
    14  H    6.060217   5.840919   1.528905   5.790884   4.775560
    15  H    3.708661   3.261562   1.964635   4.143679   2.331081
                   11         12         13         14         15
    11  H    0.000000
    12  H    2.514047   0.000000
    13  O    6.430116   6.070405   0.000000
    14  H    7.105488   6.752695   0.946839   0.000000
    15  H    4.783185   4.152197   1.925598   2.636352   0.000000
 Stoichiometry    C5H7NO2
 Framework group  C1[X(C5H7NO2)]
 Deg. of freedom    39
 Full point group                 C1      NOp   1
 RotChk:  IX=0 Diff= 6.45D-03
 Largest Abelian subgroup         C1      NOp   1
 Largest concise Abelian subgroup C1      NOp   1
                         Standard orientation:                         
 ---------------------------------------------------------------------
 Center     Atomic      Atomic             Coordinates (Angstroms)
 Number     Number       Type             X           Y           Z
 ---------------------------------------------------------------------
      1          8           0        1.242905    1.378773    0.004720
      2          7           0        0.261189   -0.644110    0.011291
      3          6           0        0.209325    0.730524    0.005305
      4          6           0       -1.117007    1.283669    0.001035
      5          6           0       -0.822980   -1.448900    0.005661
      6          6           0       -2.197145    0.475477   -0.002374
      7          6           0       -2.069035   -0.941678   -0.000892
      8          1           0        2.665533    0.264239   -0.055776
      9          1           0       -1.199856    2.352062   -0.001590
     10          1           0       -0.618891   -2.500855    0.006336
     11          1           0       -3.178415    0.913303   -0.007156
     12          1           0       -2.923553   -1.587792   -0.005816
     13          8           0        3.067459   -0.612738   -0.088627
     14          1           0        3.733780   -0.622946    0.583992
     15          1           0        1.191209   -1.032081    0.019818
 ---------------------------------------------------------------------
 Rotational constants (GHZ):      4.0712254      1.4322356      1.0615527
 Leave Link  202 at Fri Sep  3 00:21:42 2021, MaxMem=  2415919104 cpu:         0.0
 (Enter /gpfs/share/home/1801110325/software/g09e01/l301.exe)
 Standard basis: GTBas1 (6D, 7F)
 Ernie: Thresh=  0.10000D-02 Tol=  0.10000D-05 Strict=F.
 There are   134 symmetry adapted cartesian basis functions of A   symmetry.
 There are   134 symmetry adapted basis functions of A   symmetry.
   134 basis functions,   252 primitive gaussians,   134 cartesian basis functions
    30 alpha electrons       30 beta electrons
       nuclear repulsion energy       360.1674369033 Hartrees.
 IExCor=    0 DFT=F Ex=HF Corr=None ExCW=0 ScaHFX=  1.000000
 ScaDFX=  1.000000  1.000000  1.000000  1.000000 ScalE2=  1.000000  1.000000
 IRadAn=      0 IRanWt=     -1 IRanGd=            0 ICorTp=0 IEmpDi=  4
 NAtoms=   15 NActive=   15 NUniq=   15 SFac= 1.00D+00 NAtFMM=   60 NAOKFM=F Big=F
 Integral buffers will be    131072 words long.
 Raffenetti 1 integral format.
 Two-electron integral symmetry is turned on.
 Leave Link  301 at Fri Sep  3 00:21:42 2021, MaxMem=  2415919104 cpu:         0.2
 (Enter /gpfs/share/home/1801110325/software/g09e01/l302.exe)
 NPDir=0 NMtPBC=     1 NCelOv=     1 NCel=       1 NClECP=     1 NCelD=      1
         NCelK=      1 NCelE2=     1 NClLst=     1 CellRange=     0.0.
 One-electron integrals computed using PRISM.
 NBasis=   134 RedAO= T EigKep=  6.97D-04  NBF=   134
 NBsUse=   134 1.00D-06 EigRej= -1.00D+00 NBFU=   134
 Leave Link  302 at Fri Sep  3 00:21:42 2021, MaxMem=  2415919104 cpu:         0.7
 (Enter /gpfs/share/home/1801110325/software/g09e01/l303.exe)
 DipDrv:  MaxL=1.
 Leave Link  303 at Fri Sep  3 00:21:42 2021, MaxMem=  2415919104 cpu:         0.1
 (Enter /gpfs/share/home/1801110325/software/g09e01/l401.exe)
 Initial guess from the checkpoint file:  "PY_H2O_G3.chk"
 B after Tr=    -0.000000   -0.000000   -0.000000
         Rot=    0.999996    0.000059    0.000059   -0.002657 Ang=   0.30 deg.
 Guess basis will be translated and rotated to current coordinates.
 JPrj=2 DoOrth=T DoCkMO=T.
 Generating alternative initial guess.
 ExpMin= 1.61D-01 ExpMax= 5.48D+03 ExpMxC= 8.25D+02 IAcc=1 IRadAn=         1 AccDes= 0.00D+00
 Harris functional with IExCor=  205 and IRadAn=       1 diagonalized for initial guess.
 HarFok:  IExCor=  205 AccDes= 0.00D+00 IRadAn=         1 IDoV= 1 UseB2=F ITyADJ=14
 ICtDFT=  3500011 ScaDFX=  1.000000  1.000000  1.000000  1.000000
 FoFCou: FMM=F IPFlag=           0 FMFlag=      100000 FMFlg1=           0
         NFxFlg=           0 DoJE=T BraDBF=F KetDBF=T FulRan=T
         wScrn=  0.000000 ICntrl=     500 IOpCl=  0 I1Cent=   200000004 NGrid=           0
         NMat0=    1 NMatS0=      1 NMatT0=    0 NMatD0=    1 NMtDS0=    0 NMtDT0=    0
 Petite list used in FoFCou.
 Harris En= -398.039753709857    
 Leave Link  401 at Fri Sep  3 00:21:42 2021, MaxMem=  2415919104 cpu:         1.5
 (Enter /gpfs/share/home/1801110325/software/g09e01/l502.exe)
 Closed shell SCF:
 Using DIIS extrapolation, IDIIS=  1040.
 Integral symmetry usage will be decided dynamically.
 Keep R1 ints in memory in canonical form, NReq=42214891.
 IVT=       74236 IEndB=       74236 NGot=  2415919104 MDV=  2374934334
 LenX=  2374934334 LenY=  2374915937
 Requested convergence on RMS density matrix=1.00D-08 within 128 cycles.
 Requested convergence on MAX density matrix=1.00D-06.
 Requested convergence on             energy=1.00D-06.
 No special actions if energy rises.
 FoFCou: FMM=F IPFlag=           0 FMFlag=           0 FMFlg1=           0
         NFxFlg=           0 DoJE=F BraDBF=F KetDBF=F FulRan=T
         wScrn=  0.000000 ICntrl=     600 IOpCl=  0 I1Cent=           0 NGrid=           0
         NMat0=    1 NMatS0=   9045 NMatT0=    0 NMatD0=    1 NMtDS0=    0 NMtDT0=    0
 Symmetry not used in FoFCou.

 Cycle   1  Pass 1  IDiag  1:
 E= -397.593120766023    
 DIIS: error= 1.89D-03 at cycle   1 NSaved=   1.
 NSaved= 1 IEnMin= 1 EnMin= -397.593120766023     IErMin= 1 ErrMin= 1.89D-03
 ErrMax= 1.89D-03  0.00D+00 EMaxC= 1.00D-01 BMatC= 9.44D-04 BMatP= 9.44D-04
 IDIUse=3 WtCom= 9.81D-01 WtEn= 1.89D-02
 Coeff-Com:  0.100D+01
 Coeff-En:   0.100D+01
 Coeff:      0.100D+01
 Gap=     1.932 Goal=   None    Shift=    0.000
 GapD=    1.932 DampG=2.000 DampE=1.000 DampFc=2.0000 IDamp=-1.
 RMSDP=3.17D-04 MaxDP=5.17D-03              OVMax= 1.01D-02

 Cycle   2  Pass 1  IDiag  1:
 E= -397.594232106341     Delta-E=       -0.001111340318 Rises=F Damp=F
 DIIS: error= 1.02D-03 at cycle   2 NSaved=   2.
 NSaved= 2 IEnMin= 2 EnMin= -397.594232106341     IErMin= 2 ErrMin= 1.02D-03
 ErrMax= 1.02D-03  0.00D+00 EMaxC= 1.00D-01 BMatC= 1.08D-04 BMatP= 9.44D-04
 IDIUse=3 WtCom= 9.90D-01 WtEn= 1.02D-02
 Coeff-Com:  0.903D-01 0.910D+00
 Coeff-En:   0.000D+00 0.100D+01
 Coeff:      0.893D-01 0.911D+00
 Gap=     0.418 Goal=   None    Shift=    0.000
 RMSDP=9.29D-05 MaxDP=1.74D-03 DE=-1.11D-03 OVMax= 3.33D-03

 Cycle   3  Pass 1  IDiag  1:
 E= -397.594352741896     Delta-E=       -0.000120635555 Rises=F Damp=F
 DIIS: error= 3.82D-04 at cycle   3 NSaved=   3.
 NSaved= 3 IEnMin= 3 EnMin= -397.594352741896     IErMin= 3 ErrMin= 3.82D-04
 ErrMax= 3.82D-04  0.00D+00 EMaxC= 1.00D-01 BMatC= 1.75D-05 BMatP= 1.08D-04
 IDIUse=3 WtCom= 9.96D-01 WtEn= 3.82D-03
 Coeff-Com: -0.711D-01 0.173D+00 0.898D+00
 Coeff-En:   0.000D+00 0.000D+00 0.100D+01
 Coeff:     -0.708D-01 0.172D+00 0.899D+00
 Gap=     0.418 Goal=   None    Shift=    0.000
 RMSDP=4.66D-05 MaxDP=9.76D-04 DE=-1.21D-04 OVMax= 3.31D-03

 Cycle   4  Pass 1  IDiag  1:
 E= -397.594386237254     Delta-E=       -0.000033495358 Rises=F Damp=F
 DIIS: error= 1.50D-04 at cycle   4 NSaved=   4.
 NSaved= 4 IEnMin= 4 EnMin= -397.594386237254     IErMin= 4 ErrMin= 1.50D-04
 ErrMax= 1.50D-04  0.00D+00 EMaxC= 1.00D-01 BMatC= 3.07D-06 BMatP= 1.75D-05
 IDIUse=3 WtCom= 9.99D-01 WtEn= 1.50D-03
 Coeff-Com: -0.141D-01-0.609D-01 0.152D+00 0.923D+00
 Coeff-En:   0.000D+00 0.000D+00 0.000D+00 0.100D+01
 Coeff:     -0.141D-01-0.608D-01 0.152D+00 0.923D+00
 Gap=     0.418 Goal=   None    Shift=    0.000
 RMSDP=2.34D-05 MaxDP=4.05D-04 DE=-3.35D-05 OVMax= 1.60D-03

 Cycle   5  Pass 1  IDiag  1:
 E= -397.594394346339     Delta-E=       -0.000008109085 Rises=F Damp=F
 DIIS: error= 9.79D-05 at cycle   5 NSaved=   5.
 NSaved= 5 IEnMin= 5 EnMin= -397.594394346339     IErMin= 5 ErrMin= 9.79D-05
 ErrMax= 9.79D-05  0.00D+00 EMaxC= 1.00D-01 BMatC= 5.89D-07 BMatP= 3.07D-06
 IDIUse=1 WtCom= 1.00D+00 WtEn= 0.00D+00
 Coeff-Com:  0.144D-01-0.452D-01-0.147D+00-0.595D-01 0.124D+01
 Coeff:      0.144D-01-0.452D-01-0.147D+00-0.595D-01 0.124D+01
 Gap=     0.418 Goal=   None    Shift=    0.000
 RMSDP=1.91D-05 MaxDP=4.14D-04 DE=-8.11D-06 OVMax= 1.57D-03

 Cycle   6  Pass 1  IDiag  1:
 E= -397.594397630133     Delta-E=       -0.000003283794 Rises=F Damp=F
 DIIS: error= 3.64D-05 at cycle   6 NSaved=   6.
 NSaved= 6 IEnMin= 6 EnMin= -397.594397630133     IErMin= 6 ErrMin= 3.64D-05
 ErrMax= 3.64D-05  0.00D+00 EMaxC= 1.00D-01 BMatC= 1.56D-07 BMatP= 5.89D-07
 IDIUse=1 WtCom= 1.00D+00 WtEn= 0.00D+00
 Coeff-Com:  0.451D-02 0.859D-02-0.353D-01-0.274D+00 0.191D+00 0.111D+01
 Coeff:      0.451D-02 0.859D-02-0.353D-01-0.274D+00 0.191D+00 0.111D+01
 Gap=     0.418 Goal=   None    Shift=    0.000
 RMSDP=1.03D-05 MaxDP=1.64D-04 DE=-3.28D-06 OVMax= 7.79D-04

 Cycle   7  Pass 1  IDiag  1:
 E= -397.594398239199     Delta-E=       -0.000000609066 Rises=F Damp=F
 DIIS: error= 9.45D-06 at cycle   7 NSaved=   7.
 NSaved= 7 IEnMin= 7 EnMin= -397.594398239199     IErMin= 7 ErrMin= 9.45D-06
 ErrMax= 9.45D-06  0.00D+00 EMaxC= 1.00D-01 BMatC= 1.19D-08 BMatP= 1.56D-07
 IDIUse=1 WtCom= 1.00D+00 WtEn= 0.00D+00
 Coeff-Com: -0.145D-02 0.598D-02 0.189D-01-0.212D-01-0.126D+00 0.609D-01
 Coeff-Com:  0.106D+01
 Coeff:     -0.145D-02 0.598D-02 0.189D-01-0.212D-01-0.126D+00 0.609D-01
 Coeff:      0.106D+01
 Gap=     0.418 Goal=   None    Shift=    0.000
 RMSDP=2.77D-06 MaxDP=4.19D-05 DE=-6.09D-07 OVMax= 1.86D-04

 Cycle   8  Pass 1  IDiag  1:
 E= -397.594398280273     Delta-E=       -0.000000041074 Rises=F Damp=F
 DIIS: error= 2.90D-06 at cycle   8 NSaved=   8.
 NSaved= 8 IEnMin= 8 EnMin= -397.594398280273     IErMin= 8 ErrMin= 2.90D-06
 ErrMax= 2.90D-06  0.00D+00 EMaxC= 1.00D-01 BMatC= 1.19D-09 BMatP= 1.19D-08
 IDIUse=1 WtCom= 1.00D+00 WtEn= 0.00D+00
 Coeff-Com: -0.635D-03-0.562D-03 0.649D-02 0.317D-01-0.279D-01-0.138D+00
 Coeff-Com:  0.701D-01 0.106D+01
 Coeff:     -0.635D-03-0.562D-03 0.649D-02 0.317D-01-0.279D-01-0.138D+00
 Coeff:      0.701D-01 0.106D+01
 Gap=     0.418 Goal=   None    Shift=    0.000
 RMSDP=7.82D-07 MaxDP=1.24D-05 DE=-4.11D-08 OVMax= 4.68D-05

 Cycle   9  Pass 1  IDiag  1:
 E= -397.594398284037     Delta-E=       -0.000000003763 Rises=F Damp=F
 DIIS: error= 9.59D-07 at cycle   9 NSaved=   9.
 NSaved= 9 IEnMin= 9 EnMin= -397.594398284037     IErMin= 9 ErrMin= 9.59D-07
 ErrMax= 9.59D-07  0.00D+00 EMaxC= 1.00D-01 BMatC= 1.50D-10 BMatP= 1.19D-09
 IDIUse=1 WtCom= 1.00D+00 WtEn= 0.00D+00
 Coeff-Com:  0.201D-03-0.516D-03-0.239D-02-0.176D-02 0.117D-01 0.143D-01
 Coeff-Com: -0.114D+00-0.107D+00 0.120D+01
 Coeff:      0.201D-03-0.516D-03-0.239D-02-0.176D-02 0.117D-01 0.143D-01
 Coeff:     -0.114D+00-0.107D+00 0.120D+01
 Gap=     0.418 Goal=   None    Shift=    0.000
 RMSDP=2.52D-07 MaxDP=4.34D-06 DE=-3.76D-09 OVMax= 1.38D-05

 Cycle  10  Pass 1  IDiag  1:
 E= -397.594398284479     Delta-E=       -0.000000000443 Rises=F Damp=F
 DIIS: error= 5.44D-07 at cycle  10 NSaved=  10.
 NSaved=10 IEnMin=10 EnMin= -397.594398284479     IErMin=10 ErrMin= 5.44D-07
 ErrMax= 5.44D-07  0.00D+00 EMaxC= 1.00D-01 BMatC= 2.19D-11 BMatP= 1.50D-10
 IDIUse=1 WtCom= 1.00D+00 WtEn= 0.00D+00
 Coeff-Com:  0.121D-03-0.560D-04-0.131D-02-0.411D-02 0.569D-02 0.226D-01
 Coeff-Com: -0.355D-01-0.138D+00 0.238D+00 0.912D+00
 Coeff:      0.121D-03-0.560D-04-0.131D-02-0.411D-02 0.569D-02 0.226D-01
 Coeff:     -0.355D-01-0.138D+00 0.238D+00 0.912D+00
 Gap=     0.418 Goal=   None    Shift=    0.000
 RMSDP=6.76D-08 MaxDP=1.64D-06 DE=-4.43D-10 OVMax= 5.08D-06

 Cycle  11  Pass 1  IDiag  1:
 E= -397.594398284541     Delta-E=       -0.000000000062 Rises=F Damp=F
 DIIS: error= 2.21D-07 at cycle  11 NSaved=  11.
 NSaved=11 IEnMin=11 EnMin= -397.594398284541     IErMin=11 ErrMin= 2.21D-07
 ErrMax= 2.21D-07  0.00D+00 EMaxC= 1.00D-01 BMatC= 4.26D-12 BMatP= 2.19D-11
 IDIUse=1 WtCom= 1.00D+00 WtEn= 0.00D+00
 Coeff-Com: -0.572D-04 0.925D-04 0.658D-03 0.126D-02-0.354D-02-0.597D-02
 Coeff-Com:  0.233D-01 0.516D-01-0.282D+00-0.911D-01 0.131D+01
 Coeff:     -0.572D-04 0.925D-04 0.658D-03 0.126D-02-0.354D-02-0.597D-02
 Coeff:      0.233D-01 0.516D-01-0.282D+00-0.911D-01 0.131D+01
 Gap=     0.418 Goal=   None    Shift=    0.000
 RMSDP=4.61D-08 MaxDP=9.54D-07 DE=-6.21D-11 OVMax= 2.80D-06

 Cycle  12  Pass 1  IDiag  1:
 E= -397.594398284559     Delta-E=       -0.000000000018 Rises=F Damp=F
 DIIS: error= 5.61D-08 at cycle  12 NSaved=  12.
 NSaved=12 IEnMin=12 EnMin= -397.594398284559     IErMin=12 ErrMin= 5.61D-08
 ErrMax= 5.61D-08  0.00D+00 EMaxC= 1.00D-01 BMatC= 4.13D-13 BMatP= 4.26D-12
 IDIUse=1 WtCom= 1.00D+00 WtEn= 0.00D+00
 Coeff-Com: -0.120D-04 0.627D-06 0.114D-03 0.460D-03-0.537D-03-0.239D-02
 Coeff-Com:  0.237D-02 0.142D-01-0.135D-01-0.935D-01-0.168D+00 0.126D+01
 Coeff:     -0.120D-04 0.627D-06 0.114D-03 0.460D-03-0.537D-03-0.239D-02
 Coeff:      0.237D-02 0.142D-01-0.135D-01-0.935D-01-0.168D+00 0.126D+01
 Gap=     0.418 Goal=   None    Shift=    0.000
 RMSDP=1.67D-08 MaxDP=3.22D-07 DE=-1.80D-11 OVMax= 1.12D-06

 Cycle  13  Pass 1  IDiag  1:
 E= -397.594398284566     Delta-E=       -0.000000000006 Rises=F Damp=F
 DIIS: error= 2.30D-08 at cycle  13 NSaved=  13.
 NSaved=13 IEnMin=13 EnMin= -397.594398284566     IErMin=13 ErrMin= 2.30D-08
 ErrMax= 2.30D-08  0.00D+00 EMaxC= 1.00D-01 BMatC= 4.10D-14 BMatP= 4.13D-13
 IDIUse=1 WtCom= 1.00D+00 WtEn= 0.00D+00
 Coeff-Com:  0.497D-05-0.111D-04-0.598D-04-0.537D-04 0.336D-03 0.297D-03
 Coeff-Com: -0.215D-02-0.313D-02 0.300D-01-0.288D-04-0.175D+00 0.228D+00
 Coeff-Com:  0.922D+00
 Coeff:      0.497D-05-0.111D-04-0.598D-04-0.537D-04 0.336D-03 0.297D-03
 Coeff:     -0.215D-02-0.313D-02 0.300D-01-0.288D-04-0.175D+00 0.228D+00
 Coeff:      0.922D+00
 Gap=     0.418 Goal=   None    Shift=    0.000
 RMSDP=3.64D-09 MaxDP=1.05D-07 DE=-6.25D-12 OVMax= 1.61D-07

 SCF Done:  E(RHF) =  -397.594398285     A.U. after   13 cycles
            NFock= 13  Conv=0.36D-08     -V/T= 2.0015
 KE= 3.970157113119D+02 PE=-1.653576736328D+03 EE= 4.987991898284D+02
 Leave Link  502 at Fri Sep  3 00:21:44 2021, MaxMem=  2415919104 cpu:         4.6
 (Enter /gpfs/share/home/1801110325/software/g09e01/l701.exe)
 Compute integral first derivatives.
 ... and contract with generalized density number  0.
 Leave Link  701 at Fri Sep  3 00:21:44 2021, MaxMem=  2415919104 cpu:         0.7
 (Enter /gpfs/share/home/1801110325/software/g09e01/l702.exe)
 L702 exits ... SP integral derivatives will be done elsewhere.
 Leave Link  702 at Fri Sep  3 00:21:44 2021, MaxMem=  2415919104 cpu:         0.1
 (Enter /gpfs/share/home/1801110325/software/g09e01/l703.exe)
 Compute integral first derivatives, UseDBF=F ICtDFT=           0.
 Integral derivatives from FoFJK, PRISM(SPDF).
 Calling FoFJK, ICntrl=      2127 FMM=F ISym2X=0 I1Cent= 0 IOpClX= 0 NMat=1 NMatS=1 NMatT=0.
 FoFJK:  IHMeth= 1 ICntrl=    2127 DoSepK=F KAlg= 0 I1Cent=   0 FoldK=F
 IRaf=         0 NMat=   1 IRICut=       1 DoRegI=T DoRafI=F ISym2E= 0.
 FoFCou: FMM=F IPFlag=           0 FMFlag=      100000 FMFlg1=         800
         NFxFlg=           0 DoJE=F BraDBF=F KetDBF=F FulRan=T
         wScrn=  0.000000 ICntrl=    2127 IOpCl=  0 I1Cent=           0 NGrid=           0
         NMat0=    1 NMatS0=      1 NMatT0=    0 NMatD0=    1 NMtDS0=    0 NMtDT0=    0
 Symmetry not used in FoFCou.
 Leave Link  703 at Fri Sep  3 00:21:45 2021, MaxMem=  2415919104 cpu:         4.0
 (Enter /gpfs/share/home/1801110325/software/g09e01/l716.exe)
 Dipole        =-1.05761010D+00-9.09208112D-01 5.28946841D-01
 ***** Axes restored to original set *****
 -------------------------------------------------------------------
 Center     Atomic                   Forces (Hartrees/Bohr)
 Number     Number              X              Y              Z
 -------------------------------------------------------------------
      1        8          -0.005624236    0.002265995    0.000866800
      2        7           0.003258488    0.003560678    0.000623246
      3        6           0.009895918   -0.002080476   -0.000083923
      4        6          -0.006863387    0.000432908   -0.000120972
      5        6          -0.005102062   -0.002242122   -0.000052517
      6        6           0.000232644    0.006179665   -0.000013729
      7        6           0.001895447   -0.005768945    0.000006544
      8        1           0.004981784   -0.003593391   -0.002176425
      9        1           0.000432072    0.000596468   -0.000005996
     10        1           0.000233565   -0.001101106    0.000017605
     11        1          -0.001142613   -0.000067834    0.000008300
     12        1          -0.000684488    0.000249119   -0.000011134
     13        8           0.001540415    0.002596694    0.001128328
     14        1           0.000446441   -0.000507706    0.000353831
     15        1          -0.003499989   -0.000519945   -0.000539958
 -------------------------------------------------------------------
 Cartesian Forces:  Max     0.009895918 RMS     0.002932021
 Leave Link  716 at Fri Sep  3 00:21:45 2021, MaxMem=  2415919104 cpu:         0.1
 (Enter /gpfs/share/home/1801110325/software/g09e01/l103.exe)

 GradGradGradGradGradGradGradGradGradGradGradGradGradGradGradGradGradGrad
 Berny optimization.
 Using GEDIIS/GDIIS optimizer.
 FormGI is forming the generalized inverse of G from B-inverse, IUseBI=4.
 Internal  Forces:  Max     0.006701503 RMS     0.001466917
 Search for a local minimum.
 Step number   2 out of a maximum of   83
 All quantities printed in internal units (Hartrees-Bohrs-Radians)
 RMS Force = .14669D-02 SwitMx=.10000D-02 MixMth= 1
 Mixed Optimization -- RFO/linear search
 Update second derivatives using D2CorX and points    1    2
 DE= -3.51D-03 DEPred=-3.24D-03 R= 1.08D+00
 TightC=F SS=  1.41D+00  RLast= 1.39D-01 DXNew= 5.0454D-01 4.1588D-01
 Trust test= 1.08D+00 RLast= 1.39D-01 DXMaxT set to 4.16D-01
 ITU=  1  0
 Use linear search instead of GDIIS.
     Eigenvalues ---    0.00602   0.00846   0.01668   0.02015   0.02034
     Eigenvalues ---    0.02127   0.02178   0.02290   0.02369   0.02414
     Eigenvalues ---    0.02484   0.05022   0.06731   0.07227   0.09644
     Eigenvalues ---    0.15985   0.16000   0.16000   0.16013   0.19067
     Eigenvalues ---    0.20497   0.21985   0.22129   0.22365   0.23780
     Eigenvalues ---    0.35594   0.35808   0.35936   0.36011   0.37385
     Eigenvalues ---    0.39205   0.42357   0.43993   0.47249   0.49551
     Eigenvalues ---    0.51285   0.54362   0.59693   0.83936
 RFO step:  Lambda=-9.01383853D-04 EMin= 6.02397652D-03
 Quartic linear search produced a step of  0.08574.
 Iteration  1 RMS(Cart)=  0.01396261 RMS(Int)=  0.00016423
 Iteration  2 RMS(Cart)=  0.00007162 RMS(Int)=  0.00005413
 Iteration  3 RMS(Cart)=  0.00000003 RMS(Int)=  0.00005413
 ITry= 1 IFail=0 DXMaxC= 6.40D-02 DCOld= 1.00D+10 DXMaxT= 4.16D-01 DXLimC= 3.00D+00 Rises=F
 Variable       Old X    -DE/DX   Delta X   Delta X   Delta X     New X
                                 (Linear)    (Quad)   (Total)
    R1        2.30556  -0.00176  -0.00346  -0.00385  -0.00732   2.29823
    R2        3.41707   0.00443   0.00489   0.07063   0.07553   3.49260
    R3        2.59955  -0.00046  -0.00346  -0.00159  -0.00508   2.59447
    R4        2.55158   0.00576  -0.00076   0.01131   0.01055   2.56213
    R5        1.90434  -0.00036  -0.00292  -0.00206  -0.00498   1.89936
    R6        2.71565   0.00670  -0.00005   0.01821   0.01816   2.73381
    R7        2.54930  -0.00045  -0.00268  -0.00259  -0.00527   2.54403
    R8        2.02504   0.00056  -0.00148   0.00093  -0.00055   2.02449
    R9        2.54234  -0.00042  -0.00282  -0.00248  -0.00530   2.53705
   R10        2.02497   0.00113  -0.00158   0.00258   0.00100   2.02597
   R11        2.68896   0.00533   0.00102   0.01366   0.01468   2.70364
   R12        2.03056   0.00101  -0.00151   0.00230   0.00079   2.03135
   R13        2.02447   0.00040  -0.00132   0.00051  -0.00081   2.02366
   R14        1.82406  -0.00162  -0.00369  -0.00640  -0.01007   1.81399
   R15        1.78927   0.00057  -0.00244  -0.00021  -0.00265   1.78661
   R16        3.63885   0.00341   0.00396   0.06909   0.07306   3.71192
    A1        1.91668  -0.00006   0.00086   0.00237   0.00312   1.91980
    A2        2.17161   0.00057  -0.00051   0.00222   0.00172   2.17333
    A3        2.00374  -0.00063   0.00087   0.00063   0.00142   2.00516
    A4        2.10783   0.00006  -0.00035  -0.00285  -0.00315   2.10468
    A5        2.09325   0.00150  -0.00002   0.00938   0.00928   2.10254
    A6        2.18630  -0.00045  -0.00099  -0.00478  -0.00571   2.18059
    A7        2.00363  -0.00105   0.00102  -0.00461  -0.00357   2.00006
    A8        2.10411   0.00072  -0.00096   0.00336   0.00238   2.10649
    A9        2.04331  -0.00084   0.00047  -0.00493  -0.00445   2.03886
   A10        2.13576   0.00012   0.00049   0.00157   0.00207   2.13783
   A11        2.11646  -0.00003   0.00084   0.00102   0.00185   2.11831
   A12        2.01772  -0.00001  -0.00036  -0.00064  -0.00099   2.01673
   A13        2.14900   0.00004  -0.00049  -0.00038  -0.00086   2.14814
   A14        2.12300  -0.00043   0.00042  -0.00242  -0.00201   2.12100
   A15        2.07956   0.00076  -0.00045   0.00474   0.00429   2.08384
   A16        2.08063  -0.00032   0.00003  -0.00232  -0.00228   2.07835
   A17        2.04753   0.00022  -0.00080   0.00044  -0.00037   2.04716
   A18        2.10762   0.00051   0.00050   0.00398   0.00448   2.11211
   A19        2.12803  -0.00073   0.00030  -0.00442  -0.00412   2.12392
   A20        2.66537  -0.00120  -0.00083  -0.00949  -0.01034   2.65503
   A21        1.85318   0.00032   0.00004   0.00665   0.00678   1.85997
   A22        1.35944   0.00042  -0.00090  -0.00309  -0.00393   1.35551
   A23        2.26965   0.00009   0.00002   0.00132   0.00123   2.27089
   A24        2.52337  -0.00002   0.00009   0.00137   0.00141   2.52478
    D1        0.04014   0.00000   0.00047   0.00307   0.00357   0.04371
    D2       -3.10222   0.00008   0.00030   0.00446   0.00480  -3.09742
    D3       -0.00217  -0.00031  -0.00188  -0.02909  -0.03110  -0.03327
    D4       -3.13551   0.00007   0.00001   0.00144   0.00144  -3.13406
    D5        0.00677   0.00000   0.00016   0.00019   0.00034   0.00711
    D6        0.00536  -0.00004  -0.00035  -0.00250  -0.00282   0.00254
    D7       -3.13554  -0.00011  -0.00020  -0.00375  -0.00393  -3.13947
    D8       -0.00497  -0.00003  -0.00020  -0.00081  -0.00100  -0.00597
    D9        3.13616  -0.00003  -0.00011  -0.00088  -0.00098   3.13518
   D10        3.13739   0.00008   0.00019   0.00334   0.00350   3.14089
   D11       -0.00467   0.00009   0.00028   0.00327   0.00352  -0.00115
   D12       -0.10841   0.00027   0.00061   0.01119   0.01168  -0.09672
   D13        3.03249   0.00016   0.00026   0.00741   0.00760   3.04009
   D14        3.13772  -0.00005   0.00011  -0.00085  -0.00073   3.13699
   D15       -0.00146  -0.00005   0.00008  -0.00097  -0.00088  -0.00233
   D16       -0.00460   0.00002  -0.00005   0.00049   0.00044  -0.00417
   D17        3.13940   0.00002  -0.00008   0.00037   0.00029   3.13970
   D18        0.00082  -0.00002  -0.00003  -0.00058  -0.00060   0.00022
   D19       -3.13987  -0.00001  -0.00004  -0.00035  -0.00039  -3.14025
   D20        3.13987  -0.00003   0.00000  -0.00046  -0.00046   3.13941
   D21       -0.00082  -0.00001  -0.00001  -0.00023  -0.00024  -0.00106
   D22        0.00058   0.00002   0.00011   0.00068   0.00078   0.00136
   D23        3.14106   0.00001   0.00007   0.00005   0.00011   3.14118
[...]
     9  H    0.064337  -0.000455   0.461644  -0.001287  -0.007762   0.002878
    10  H   -0.060131  -0.000329  -0.001287   0.467569   0.002278  -0.011807
    11  H   -0.031786  -0.000089  -0.007762   0.002278   0.457430  -0.003558
    12  H    0.440618  -0.000124   0.002878  -0.011807  -0.003558   0.467167
    13  O   -0.000511   0.242562   0.000468   0.000804   0.000039   0.000218
    14  H    0.000054  -0.008466  -0.000040   0.000000  -0.000002  -0.000026
    15  H   -0.015964  -0.009312   0.000448  -0.005531   0.000568   0.001235
              13         14         15
     1  O   -0.053013   0.002948   0.010901
     2  N    0.026168   0.003032   0.390638
     3  C    0.018962  -0.003508  -0.055667
     4  C    0.035183  -0.004418  -0.004236
     5  C   -0.047306   0.002597  -0.046329
     6  C   -0.002469  -0.000054  -0.009657
     7  C   -0.000511   0.000054  -0.015964
     8  H    0.242562  -0.008466  -0.009312
     9  H    0.000468  -0.000040   0.000448
    10  H    0.000804   0.000000  -0.005531
    11  H    0.000039  -0.000002   0.000568
    12  H    0.000218  -0.000026   0.001235
    13  O    8.111625   0.257611  -0.011958
    14  H    0.257611   0.479378  -0.003747
    15  H   -0.011958  -0.003747   0.370015
 Mulliken charges:
               1
     1  O   -0.593400
     2  N   -0.358595
     3  C   -0.001706
     4  C    0.117369
     5  C    0.158898
     6  C    0.011523
     7  C   -0.447696
     8  H    0.312223
     9  H    0.188144
    10  H    0.172080
    11  H    0.196951
    12  H    0.159360
    13  O   -0.578382
    14  H    0.274639
    15  H    0.388594
 Sum of Mulliken charges =  -0.00000
 Mulliken charges with hydrogens summed into heavy atoms:
               1
     1  O   -0.593400
     2  N    0.029998
     3  C   -0.001706
     4  C    0.305512
     5  C    0.330978
     6  C    0.208474
     7  C   -0.288336
    13  O    0.008479
 Electronic spatial extent (au):  <R**2>=           1078.6611
 Charge=             -0.0000 electrons
 Dipole moment (field-independent basis, Debye):
    X=             -3.1881    Y=             -2.6073    Z=              1.3478  Tot=              4.3334
 Quadrupole moment (field-independent basis, Debye-Ang):
   XX=            -44.2876   YY=            -46.4414   ZZ=            -49.7085
   XY=             -2.6623   XZ=              5.4452   YZ=             -1.1319
 Traceless Quadrupole moment (field-independent basis, Debye-Ang):
   XX=              2.5249   YY=              0.3711   ZZ=             -2.8960
   XY=             -2.6623   XZ=              5.4452   YZ=             -1.1319
 Octapole moment (field-independent basis, Debye-Ang**2):
  XXX=              1.8419  YYY=            -15.0805  ZZZ=              1.3711  XYY=             -7.2060
  XXY=              3.1508  XXZ=             21.2081  XZZ=             15.5705  YZZ=             -0.0455
  YYZ=              0.9178  XYZ=             -4.6717
 Hexadecapole moment (field-independent basis, Debye-Ang**3):
 XXXX=           -848.5417 YYYY=           -356.1698 ZZZZ=            -55.4453 XXXY=              4.7639
 XXXZ=             80.1987 YYYX=            -16.4296 YYYZ=             -0.5737 ZZZX=              6.5061
 ZZZY=             -1.4139 XXYY=           -221.9564 XXZZ=           -164.4293 YYZZ=            -79.7389
 XXYZ=            -16.6999 YYXZ=              4.0073 ZZXY=             -5.3948
 N-N= 3.560378187315D+02 E-N=-1.645498963849D+03  KE= 3.971396957700D+02
 Leave Link  601 at Fri Sep  3 01:29:07 2021, MaxMem=  2415919104 cpu:         0.4
 (Enter /gpfs/share/home/1801110325/software/g09e01/l9999.exe)
 1\1\GINC-A5U23N11\SP\RMP2-Full\GTlarge\C5H7N1O2\1801110325\03-Sep-2021
 \0\\#P Geom=AllCheck Guess=TCheck SCRF=Check MP2=Full/GTLarge\\PY_H2O_
 G3\\0,1\O,0,1.2746978997,1.435141152,-0.0421393164\N,0,0.274521688,-0.
 6346819266,-0.0205134345\C,0,0.2249569286,0.7577896387,-0.0200847762\C
 ,0,-1.1133060686,1.2911515669,0.0078003348\C,0,-0.8094025457,-1.458322
 8741,-0.0066260842\C,0,-2.2119873594,0.4733093184,0.0246640019\C,0,-2.
 072613802,-0.9376590335,0.016993503\H,0,2.73289073,0.2581463018,-0.164
 9349857\H,0,-1.2031800262,2.3720812975,0.0110513516\H,0,-0.5964076669,
 -2.5222940004,-0.0160463973\H,0,-3.2062785,0.9133333933,0.0432490446\H
 ,0,-2.9337039912,-1.5948786752,0.0275231658\O,0,3.100527571,-0.6556882
 246,-0.1101991942\H,0,3.5688169906,-0.6724454803,0.7389158302\H,0,1.23
 04211521,-1.0187164539,-0.0377190432\\Version=EM64L-G09RevE.01\State=1
 -A\HF=-397.7393601\MP2=-399.5658365\RMSD=5.889e-09\PG=C01 [X(C5H7N1O2)
 ]\\@


 YOU CANNOT THROW TO THE GROUND THE LETTERS OF
 THE GREEK ALPHABET AND PICK UP THE ILIAD.
        - RUFUS CHOATE, 1799-1859
 Diagonal vibrational polarizability:
        0.0000000       0.0000000       0.0000000

 Temperature=              298.150000 Pressure=                      1.000000
 E(ZPE)=                     0.114480 E(Thermal)=                    0.122980
 E(QCISD(T))=             -398.834875 E(Empiric)=                   -0.140492
 DE(Plus)=                  -0.033481 DE(2DF)=                      -0.310901
 E(Delta-G3)=               -0.488931 E(G3-Empiric)=                -0.140492
 G3(0 K)=                 -399.694200 G3 Energy=                  -399.685700
 G3 Enthalpy=             -399.684756 G3 Free Energy=             -399.727575
 1\1\GINC-A5U23N11\Mixed\G3\G3\C5H7N1O2\1801110325\03-Sep-2021\0\\#P Ge
 om=AllCheck Guess=TCheck SCRF=Check MP2=Full/GTLarge\\PY_H2O_G3\\0,1\O
 ,0,1.2746978997,1.435141152,-0.0421393164\N,0,0.274521688,-0.634681926
 6,-0.0205134345\C,0,0.2249569286,0.7577896387,-0.0200847762\C,0,-1.113
 3060686,1.2911515669,0.0078003348\C,0,-0.8094025457,-1.4583228741,-0.0
 066260842\C,0,-2.2119873594,0.4733093184,0.0246640019\C,0,-2.072613802
 ,-0.9376590335,0.016993503\H,0,2.73289073,0.2581463018,-0.1649349857\H
 ,0,-1.2031800262,2.3720812975,0.0110513516\H,0,-0.5964076669,-2.522294
 0004,-0.0160463973\H,0,-3.2062785,0.9133333933,0.0432490446\H,0,-2.933
 7039912,-1.5948786752,0.0275231658\O,0,3.100527571,-0.6556882246,-0.11
 01991942\H,0,3.5688169906,-0.6724454803,0.7389158302\H,0,1.2304211521,
 -1.0187164539,-0.0377190432\\Version=EM64L-G09RevE.01\State=1-A\MP2/G3
 Bas1=-398.7503439\QCISD(T)/G3Bas1=-398.834875\MP4/GTBas1=-398.8384316\
 MP2/GTBas2=-398.782586\MP4/GTBas2=-398.8719127\MP2/GTBas3=-399.0446635
 \MP4/GTBas3=-399.1493328\MP2/GTLarge=-399.5658365\G3=-399.6941998\Freq
 Coord=2.2982706698,2.6399922669,-0.0358440866,0.4602943251,-1.19760257
 17,-0.014426432,0.368333788,1.3980083546,-0.0148912686,-2.1675772096,2
 .4410806136,0.0125853945,-1.6015453061,-2.7315750935,-0.0061159266,-4.
 2036197117,0.9194292943,0.0264293557,-3.950454894,-1.7778464379,0.0159
 335803,5.344277782,0.4429154195,-0.2793665589,-2.314028309,4.462590741
 4,0.0167873545,-1.2070163576,-4.7201566482,-0.0182529435,-6.066348881,
 1.7332313052,0.0439705735,-5.5713209855,-2.9924618131,0.0225997733,6.0
 332743235,-1.2253498297,-0.1654285246,7.0853265491,-1.2162724516,1.283
 3465351,2.2039219287,-1.9435943915,-0.0332953359\PG=C01 [X(C5H7N1O2)]\
 NImag=0\\0.64934341,0.34403298,0.35395569,-0.00672251,-0.00368968,0.04
 494215,0.02121535,-0.07785811,0.00011844,0.98785914,-0.05218886,-0.087
 96637,0.00062217,-0.02771127,0.79683492,0.00055657,0.00096269,0.023043
 41,-0.00825728,0.00183660,0.09856078,-0.57496489,-0.27803612,0.0055311
 9,-0.21672350,0.01495456,0.00071636,1.01921369,-0.26700141,-0.28350719
 ,0.00256044,0.06557379,-0.27022788,-0.00102055,0.17925327,0.76344819,0
 .00531594,0.00261178,-0.09131467,0.00142831,0.00007496,-0.07618301,-0.
 00831167,-0.00145149,0.24634450,-0.08645647,-0.00534646,0.00126081,0.0
 3793807,0.04923340,0.00019615,-0.21889647,0.04937952,0.00123778,0.7758
 0488,-0.03797950,0.02406293,0.00053234,0.04417441,-0.01637303,-0.00052
 480,0.08110034,-0.18077981,-0.00092006,0.10851004,0.89023334,0.0011949
 7,0.00031134,0.02461134,-0.00025435,-0.00019329,0.00959549,0.00144896,
 -0.00102561,-0.09277496,-0.00567924,0.00039452,0.13886879,-0.01842765,
 0.01802807,0.00017343,-0.30014538,-0.05327892,0.00206432,0.07059982,-0
 .09075835,-0.00082365,-0.06810870,-0.00756945,0.00045467,0.87712549,-0
 .00104914,0.00218474,0.00002467,-0.11909497,-0.24121191,0.00036577,-0.
 02099728,-0.05159419,-0.00003904,-0.00902375,-0.00295428,0.00000807,-0
 .11259767,0.86940254,0.00012934,-0.00015485,0.00726461,0.00126765,-0.0
 0067138,-0.05603737,-0.00050387,0.00079961,-0.00545841,0.00045496,0.00
 012757,0.00002769,-0.00573455,0.00370909,0.17381827,0.00483632,0.00731
 169,0.00005763,-0.01089757,-0.00727742,-0.00007919,-0.04816624,-0.0178
 4254,0.00039074,-0.40088349,-0.20147227,0.00241203,0.01971925,0.044218
 45,0.00011612,0.90172474,0.03344006,-0.00143920,-0.00036635,-0.0480401
 8,-0.04991202,0.00002945,-0.04945454,0.06797579,0.00060075,-0.14238903
 ,-0.29454316,0.00087981,0.09671065,-0.01276936,-0.00078541,0.04558502,
 0.74205456,0.00007028,-0.00010798,0.00501477,-0.00007514,-0.00012627,-
 0.00602839,0.00030661,0.00043007,-0.00142177,0.00245002,0.00118367,-0.
 06881668,0.00022995,-0.00037418,0.00792041,-0.00601441,0.00113378,0.17
 823844,0.01084351,-0.00782445,-0.00010974,-0.08565988,-0.04290625,0.00
 043011,-0.03331767,0.04808614,0.00032622,0.05170713,-0.02750542,-0.000
 33861,-0.45056722,0.16188073,0.00351245,-0.14921721,-0.02398297,0.0004
 4988,0.92716979,-0.02114845,-0.00300418,0.00020305,0.00687897,0.052203
 56,0.00036964,0.03891358,-0.02808722,-0.00046796,-0.05924415,-0.034713
 13,0.00034297,0.09895156,-0.21661928,-0.00142685,0.04066105,-0.2992490
 2,-0.00102693,0.02358978,0.72763215,-0.00012148,0.00009935,-0.00031994
 ,0.00072010,0.00058766,0.01374425,0.00031987,-0.00054544,-0.00708345,-
 0.00047112,0.00005071,0.00937498,0.00317918,-0.00180344,-0.07542804,0.
 00065744,-0.00060657,-0.07430172,-0.00577685,0.00205143,0.13581266,0.0
 1002151,-0.00011394,-0.00133832,0.00074902,0.00526652,-0.00036171,-0.0
 1582621,-0.00799442,0.00054547,0.00367668,0.00133479,0.00007399,-0.000
 83230,-0.00154495,-0.00003741,-0.00050237,-0.00197990,0.00001650,0.000
 31521,0.00134834,0.00001529,0.11286349,-0.00804149,-0.01045196,0.00068
 981,0.00190739,-0.00264261,0.00003051,0.00803102,0.01171821,0.00006818
 ,-0.00385009,-0.00158580,-0.00004364,-0.00193715,-0.00153873,0.0000000
 9,0.00057335,0.00287111,-0.00001398,0.00150964,-0.00181225,-0.00001529
 ,-0.18153484,0.48828299,-0.00002870,0.00023634,-0.00663371,-0.00074067
 ,-0.00035747,-0.00159453,0.00033938,-0.00006040,0.00161194,-0.00000482
 ,-0.00007077,0.00051512,0.00030629,0.00036370,-0.00005632,-0.00005156,
 -0.00009288,0.00007401,-0.00022977,0.00005496,0.00003224,0.04154656,-0
 .03048658,0.05584461,0.00214377,-0.00344861,-0.00007372,-0.00727095,0.
 00455449,0.00011349,0.00580922,0.03504481,0.00003305,-0.07233875,0.025
 20850,0.00035847,-0.00282915,-0.00131925,0.00001560,0.00914594,-0.0316
 5851,-0.00008456,-0.00422476,-0.00258276,0.00012284,0.00001188,0.00016
 059,-0.00002269,0.06725292,0.00087435,0.00289343,-0.00000371,0.0028990
 0,-0.00032557,-0.00004135,-0.00574778,-0.01054477,0.00007484,0.0284053
 5,-0.38797636,-0.00080736,0.00068228,0.00099492,0.00000176,0.00379261,
 -0.01352548,-0.00004933,-0.00374288,0.00107925,0.00002064,-0.00003896,
 -0.00005204,0.00001182,-0.02671622,0.40761837,-0.00002014,0.00002728,-
 0.00229557,0.00010515,-0.00011301,0.00471980,-0.00012055,-0.00029606,0
 .00269772,0.00041779,-0.00065295,-0.04060380,0.00006978,0.00003160,-0.
 00054934,-0.00006134,0.00017267,0.00462648,0.00009857,0.00000659,0.011
 17674,-0.00000874,0.00000116,0.00002831,-0.00038656,0.00080326,0.02901
 182,-0.00072485,-0.00276366,0.00002728,0.00855387,-0.04072760,-0.00016
 026,-0.00538361,0.00213467,0.00004308,0.00032862,-0.00046591,-0.000002
 78,-0.08913574,0.07092186,0.00056546,-0.00690196,0.00106826,0.00014023
 ,0.00472690,0.03233594,0.00018230,0.00024416,-0.00017462,0.00000424,0.
 00021506,-0.00000548,-0.00001200,0.08590737,-0.00081575,-0.00220887,0.
 00002435,0.00324864,-0.02156557,-0.00014280,-0.00335569,0.00456018,-0.
 00003559,0.00014165,0.00057938,0.00000285,0.06228364,-0.37491549,-0.00
 187651,0.00226290,0.00060702,-0.00006943,-0.00060099,-0.00472334,-0.00
 008049,0.00030435,-0.00014046,-0.00001872,0.00005950,-0.00005758,0.000
 00551,-0.06355246,0.39701174,-0.00001706,0.00001014,-0.00020528,0.0000
 1131,0.00024582,0.00363873,0.00011913,-0.00000988,0.00582451,-0.000029
 87,0.00000254,-0.00030094,0.00050919,-0.00208848,-0.05052992,0.0001349
 8,-0.00000577,0.01065322,0.00007737,-0.00031032,0.00988396,-0.00000571
 ,-0.00000335,0.00002747,-0.00001420,0.00000117,-0.00124141,-0.00066090
 ,0.00212343,0.03183711,-0.00255683,0.00037030,0.00001900,0.00016578,-0
 .00013961,-0.00001490,-0.00040598,-0.00486805,0.00010968,-0.02079777,0
 .01500350,0.00028688,0.00145168,0.00006169,0.00002562,-0.33037998,0.11
 236011,0.00257621,0.00296455,-0.00104906,0.00002046,0.00025076,-0.0001
 0667,-0.00002727,0.00124591,-0.00041901,-0.00007382,0.00002712,-0.0000
 9552,-0.00000592,0.34752530,-0.00117734,0.00088787,0.00003181,-0.00097
 550,0.00091208,0.00000381,-0.00330853,-0.00423744,-0.00001407,-0.02136
 021,0.01602078,0.00018706,-0.00037234,-0.00821717,-0.00003966,0.113967
 78,-0.12447415,-0.00113834,0.03372838,-0.00517045,-0.00029666,0.000044
 27,-0.00006564,-0.00000237,0.00048260,0.00097708,0.00001523,0.00179892
 ,-0.00040299,-0.00000985,-0.12192137,0.12235599,-0.00002277,-0.0000089
 9,-0.00282668,-0.00001906,-0.00000620,-0.00098758,0.00014176,0.0000112
 1,0.01504071,0.00023766,-0.00006736,0.01062211,0.00002761,-0.00005205,
 0.00445890,0.00254566,-0.00112958,-0.05544177,0.00012621,-0.00002310,0
 .00672472,-0.00002119,0.00000950,-0.00007746,-0.00007945,0.00001053,-0
 .00768036,-0.00000117,0.00000195,-0.00065319,-0.00291687,0.00124772,0.
 03354641,-0.00006245,-0.00054458,0.00000029,-0.00450607,0.00478469,0.0
 0013309,0.00004360,0.00158576,-0.00000859,0.00029340,0.00182954,0.0000
 2769,-0.01928324,-0.02437347,0.00002540,0.01037729,0.00587094,-0.00005
 166,-0.27531264,-0.15203439,0.00112716,0.00015033,0.00007067,-0.000030
 40,0.00035245,0.00027987,-0.00000050,0.00079591,0.00041987,-0.00005175
 ,0.00056848,-0.00089120,-0.00001967,0.28721175,-0.00060918,0.00050210,
 0.00000986,0.00386213,-0.00062201,-0.00007854,0.00172633,-0.00143869,-
 0.00001587,0.00293846,-0.00612013,-0.00005604,0.01373821,0.01494330,-0
 .00003610,-0.03067499,-0.01280781,0.00015873,-0.15459960,-0.18570757,0
 .00050444,0.00004406,-0.00010254,0.00000715,-0.00146588,-0.00067160,0.
 00001407,-0.00064442,0.00077801,0.00003556,0.00071658,0.00125852,0.000
 00828,0.16439357,0.18923165,-0.00000919,-0.00000118,-0.00041422,0.0001
 1208,-0.00007728,0.01000637,-0.00000416,-0.00002580,-0.00062079,0.0000
 2975,-0.00004165,0.00373899,0.00021775,0.00025357,-0.00020547,-0.00016
 853,-0.00004959,0.00013047,0.00107484,0.00042393,-0.03401556,0.0000041
 4,-0.00000106,0.00003273,-0.00000479,-0.00000478,0.00057380,-0.0000598
 7,0.00003678,-0.00645879,-0.00001714,0.00001770,-0.00208847,-0.0011945
 3,-0.00053478,0.02741899,-0.00754646,0.00870438,-0.00015619,-0.0101453
 2,-0.00413861,-0.00077599,0.00301109,-0.00106534,0.00037849,-0.0006359
 3,0.00011803,0.00003633,0.00285914,0.00506490,-0.00005172,0.00006027,-
 0.00063731,-0.00001557,-0.00238541,0.00000077,0.00003725,-0.09913572,0
 .19570083,-0.02378984,-0.00019861,0.00018519,0.00001195,0.00000604,-0.
 00026520,0.00000898,-0.00024072,0.00001703,0.00000138,-0.00039098,0.00
 009758,0.00001929,0.32095639,0.01546742,-0.00000185,0.00050642,-0.0012
 9294,0.00465354,-0.00082514,-0.00962031,-0.00925708,0.00011367,0.00326
 802,0.00143345,-0.00010493,0.00132987,0.00017065,0.00002319,-0.0005133
 7,-0.00236167,0.00000467,-0.00095092,0.00167125,-0.00000744,0.15859341
 ,-0.48780644,-0.01712082,-0.00017458,0.00005566,0.00000060,0.00030412,
 0.00024049,0.00002488,0.00010594,0.00006712,0.00000928,0.00000265,0.00
 007204,0.00001397,-0.19079604,0.55164397,-0.00067939,0.00005731,0.0055
 7903,-0.00049823,-0.00014187,0.00444341,0.00028654,0.00045104,-0.00182
 453,-0.00013751,-0.00003630,-0.00033972,-0.00045548,-0.00016749,0.0000
 7123,0.00003673,0.00017897,-0.00000057,0.00019289,-0.00017079,-0.00001
 606,-0.04081798,0.03600141,-0.04967522,0.00001445,-0.00001268,-0.00004
 175,-0.00003061,-0.00002525,-0.00009095,0.00001482,-0.00000632,0.00003
 891,0.00000935,-0.00000250,-0.00008694,0.31265341,0.00587455,0.4442127
 2,0.00073301,0.00037352,0.00115433,-0.00016031,-0.00007114,0.00111215,
 -0.00102339,-0.00028955,-0.00055172,0.00024535,0.00005924,-0.00007820,
 -0.00058351,-0.00012953,-0.00000073,-0.00005308,-0.00003459,0.00000608
 ,0.00015998,-0.00007857,-0.00000242,-0.01054462,-0.00589660,-0.0187256
 4,0.00000938,-0.00000971,-0.00001006,-0.00002742,-0.00002582,-0.000031
 06,0.00003462,-0.00000749,0.00000651,0.00001306,0.00001061,-0.00001915
 ,-0.20880155,0.02277031,-0.27104970,0.22029027,0.00012562,-0.00128784,
 -0.00120697,-0.00086559,-0.00040459,0.00058167,0.00061259,0.00027315,-
 0.00001447,-0.00026459,-0.00001589,0.00009453,0.00005105,0.00045793,-0
 .00003416,0.00009139,0.00018242,-0.00000082,-0.00007080,-0.00021192,0.
 00002332,0.03156673,0.00551143,0.04703736,-0.00000602,0.00000330,0.000
 00294,-0.00004561,-0.00005805,-0.00003546,-0.00001372,-0.00000248,-0.0
 0001224,-0.00003692,0.00000214,-0.00000994,-0.01525019,-0.05721391,-0.
 04267162,-0.01717735,0.05245241,0.00061067,-0.00028441,-0.00049994,0.0
 0104898,0.00024771,-0.00052470,-0.00031090,-0.00004099,0.00031043,0.00
 005531,0.00001050,-0.00000564,0.00000839,-0.00021202,0.00002867,0.0000
 0444,-0.00001665,-0.00000043,0.00008479,0.00004966,-0.00002146,-0.0004
 5135,-0.00638899,-0.00277790,0.00001265,-0.00000481,0.00001523,0.00000
 144,0.00002781,0.00002853,0.00000801,0.00000147,0.00000352,0.00002058,
 -0.00000462,0.00001291,-0.29008150,0.00940630,-0.39568036,0.29032815,-
 0.00234765,0.39836683,-0.00839729,-0.00288504,0.00005808,-0.42097225,0
 .14964599,0.00432708,0.01603055,0.00876171,-0.00011313,-0.00187655,-0.
 00234583,0.00005919,-0.02184250,0.00798240,0.00021568,0.00113808,0.003
 14197,-0.00000443,0.00279773,-0.00654261,-0.00001003,-0.00144182,-0.00
 641202,0.00145487,0.00067569,-0.00043861,-0.00000952,0.00136852,-0.000
 00910,-0.00004450,0.00014708,-0.00002500,-0.00000661,-0.00025089,0.000
 46655,0.00001951,0.00258778,0.00150642,0.00046071,-0.00029180,0.001283
 41,-0.00133967,0.43032767,-0.00392933,0.00538070,0.00006179,0.14729423
 ,-0.16335254,-0.00154695,0.04592855,-0.00830124,-0.00058562,-0.0003981
 4,-0.00726829,0.00000970,-0.02526148,0.02166635,0.00036362,-0.00068364
 ,-0.00260904,-0.00000366,-0.00661040,-0.00328783,0.00001778,-0.0052954
 4,-0.00218526,0.00049868,0.00186134,-0.00046861,-0.00001889,-0.0001840
 2,0.00029553,0.00001957,-0.00000511,0.00009088,0.00000104,-0.00135700,
 0.00068260,0.00000011,0.00226400,-0.00336722,0.00067152,0.00050667,0.0
 0031191,-0.00044331,-0.15413025,0.16241207,-0.00025654,-0.00006912,-0.
 00594530,0.00503272,-0.00192814,-0.02639666,0.00004134,0.00022385,0.00
 485180,-0.00001767,0.00001204,0.00548724,-0.00022690,-0.00001979,-0.00
 532492,0.00001926,0.00005736,-0.00064647,0.00008161,-0.00007628,0.0044
 3669,0.00084046,0.00015222,0.00264870,-0.00000457,0.,-0.00043768,-0.00
 003643,0.00002611,-0.00241305,-0.00000478,0.00000246,-0.00067976,0.000
 01354,-0.00000964,0.00197599,0.00172373,0.00208078,-0.00658920,-0.0021
 3854,-0.00140649,0.00074430,-0.00506722,0.00095462,0.02828833\\-0.0000
 0849,0.00000042,-0.00000646,-0.00002287,-0.00004589,-0.00000091,0.0000
 1169,0.00001077,-0.00000061,-0.00000509,0.00000298,0.00000062,0.000001
 03,0.00000232,-0.00000457,0.00000275,0.00000488,-0.00000482,0.00000103
 ,-0.00000769,0.00000330,-0.00000844,-0.00002000,0.00001855,-0.00000139
 ,0.00000013,0.00000075,-0.00000036,-0.00000045,0.00000012,-0.00000143,
 -0.00000100,0.00000143,-0.00000172,0.00000158,0.00000071,0.00002116,-0
 .00000635,-0.00001620,-0.00000163,-0.00000283,-0.00000118,0.00001376,0
 .00006114,0.00000927\\\@
 Job cpu time:       0 days  0 hours 26 minutes 38.7 seconds.
 File lengths (MBytes):  RWF=  13296 Int=      0 D2E=      0 Chk=     32 Scr=     32
 Normal termination of Gaussian 09 at Fri Sep  3 01:29:07 2021.
