 Entering Gaussian System, Link 0=g09
 AtFile(1): pc-2.gbs
            -H     0
            S    4   1.00
                  0.754230D+02           0.240650D-02
                  0.113500D+02           0.184870D-01
                  0.259930D+01           0.897420D-01
                  0.735130D+00           0.281110D+00
            S    1   1.00
                  0.231670D+00           0.100000D+01
            S    1   1.00
                  0.741470D-01           0.100000D+01
            P    1   1.00
                  0.160000D+01           0.100000D+01
            P    1   1.00
                  0.450000D+00           0.100000D+01
            D    1   1.00
                  0.125000D+01           0.100000D+01
            ****
            -C     0
            S    7   1.00
                  0.785710D+04           0.568250D-03
                  0.117870D+04           0.439150D-02
                  0.268320D+03           0.225040D-01
                  0.759480D+02           0.866530D-01
                  0.245590D+02           0.244050D+00
                  0.862120D+01           0.441480D+00
                  0.312780D+01           0.353320D+00
            S    7   1.00
                  0.117870D+04          -0.594920D-06
                  0.268320D+03          -0.627480D-04
                  0.759480D+02          -0.757730D-03
                  0.245590D+02          -0.733080D-02
                  0.862120D+01          -0.389320D-01
                  0.312780D+01          -0.889080D-01
                  0.822020D+00           0.216890D+00
            S    1   1.00
                  0.330170D+00           0.100000D+01
            S    1   1.00
                  0.114630D+00           0.100000D+01
            P    4   1.00
                  0.337750D+02           0.602940D-02
                  0.767660D+01           0.432280D-01
                  0.223570D+01           0.163010D+00
                  0.764470D+00           0.365040D+00
            P    1   1.00
                  0.262320D+00           0.100000D+01
            P    1   1.00
                  0.846380D-01           0.100000D+01
            D    1   1.00
                  0.140000D+01           0.100000D+01
            D    1   1.00
                  0.450000D+00           0.100000D+01
            F    1   1.00
                  0.950000D+00           0.100000D+01
            ****
            -N     0
            S    7   1.00
                  0.111010D+05           0.545700D-03
                  0.166530D+04           0.421810D-02
                  0.379080D+03           0.216450D-01
                  0.107300D+03           0.837760D-01
                  0.347470D+02           0.238810D+00
                  0.122490D+02           0.439940D+00
                  0.447430D+01           0.363640D+00
            S    7   1.00
                  0.166530D+04          -0.150060D-05
                  0.379080D+03          -0.587530D-04
                  0.107300D+03          -0.774530D-03
                  0.347470D+02          -0.721610D-02
                  0.122490D+02          -0.393380D-01
                  0.447430D+01          -0.906110D-01
                  0.124040D+01           0.198820D+00
            S    1   1.00
                  0.487430D+00           0.100000D+01
            S    1   1.00
                  0.164840D+00           0.100000D+01
            P    4   1.00
                  0.479340D+02           0.617060D-02
                  0.109990D+02           0.442600D-01
                  0.324720D+01           0.168250D+00
                  0.111140D+01           0.368480D+00
            P    1   1.00
                  0.379880D+00           0.100000D+01
            P    1   1.00
                  0.120680D+00           0.100000D+01
            D    1   1.00
                  0.180000D+01           0.100000D+01
            D    1   1.00
                  0.550000D+00           0.100000D+01
            F    1   1.00
                  0.102000D+01           0.100000D+01
            ****
            -O     0
            S    7   1.00
                  0.147820D+05           0.535190D-03
                  0.221730D+04           0.413750D-02
                  0.504740D+03           0.212450D-01
                  0.142870D+03           0.824530D-01
                  0.463000D+02           0.236710D+00
                  0.163370D+02           0.440390D+00
                  0.598280D+01           0.364650D+00
            S    7   1.00
                  0.221730D+04          -0.192750D-05
                  0.504740D+03          -0.579640D-04
                  0.142870D+03          -0.794940D-03
                  0.463000D+02          -0.731250D-02
                  0.163370D+02          -0.405740D-01
                  0.598280D+01          -0.915940D-01
                  0.167180D+01           0.209400D+00
            S    1   1.00
                  0.646620D+00           0.100000D+01
            S    1   1.00
                  0.216690D+00           0.100000D+01
            P    4   1.00
                  0.604240D+02           0.689490D-02
                  0.139350D+02           0.490050D-01
                  0.415310D+01           0.182550D+00
                  0.141580D+01           0.376330D+00
            P    1   1.00
                  0.475490D+00           0.100000D+01
            P    1   1.00
                  0.145290D+00           0.100000D+01
            D    1   1.00
                  0.220000D+01           0.100000D+01
            D    1   1.00
                  0.650000D+00           0.100000D+01
            F    1   1.00
                  0.110000D+01           0.100000D+01
            ****
 Initial command:
 /public3/home/sc51754/softwares/g09e01/l1.exe "./Gau-30779.inp" -scrdir="./"
 Entering Link 1 = /public3/home/sc51754/softwares/g09e01/l1.exe PID=     30780.
  
 Copyright (c) 1988,1990,1992,1993,1995,1998,2003,2009,2015,
            Gaussian, Inc.  All Rights Reserved.
  
 This is part of the Gaussian(R) 09 program.  It is based on
 the Gaussian(R) 03 system (copyright 2003, Gaussian, Inc.),
 the Gaussian(R) 98 system (copyright 1998, Gaussian, Inc.),
 the Gaussian(R) 94 system (copyright 1995, Gaussian, Inc.),
 the Gaussian 92(TM) system (copyright 1992, Gaussian, Inc.),
 the Gaussian 90(TM) system (copyright 1990, Gaussian, Inc.),
 the Gaussian 88(TM) system (copyright 1988, Gaussian, Inc.),
 the Gaussian 86(TM) system (copyright 1986, Carnegie Mellon
 University), and the Gaussian 82(TM) system (copyright 1983,
 Carnegie Mellon University). Gaussian is a federally registered
 trademark of Gaussian, Inc.
  
 This software contains proprietary and confidential information,
 including trade secrets, belonging to Gaussian, Inc.
  
 This software is provided under written license and may be
 used, copied, transmitted, or stored only in accord with that
 written license.
  
 The following legend is applicable only to US Government
 contracts under FAR:
  
                    RESTRICTED RIGHTS LEGEND
  
 Use, reproduction and disclosure by the US Government is
 subject to restrictions as set forth in subparagraphs (a)
 and (c) of the Commercial Computer Software - Restricted
 Rights clause in FAR 52.227-19.
  
 Gaussian, Inc.
 340 Quinnipiac St., Bldg. 40, Wallingford CT 06492
  
  
 ---------------------------------------------------------------
 Warning -- This program may not be used in any manner that
 competes with the business of Gaussian, Inc. or will provide
 assistance to any competitor of Gaussian, Inc.  The licensee
 of this program is prohibited from giving any competitor of
 Gaussian, Inc. access to this program.  By using this program,
 the user acknowledges that Gaussian, Inc. is engaged in the
 business of creating and licensing software in the field of
 computational chemistry and represents and warrants to the
 licensee that it is not a competitor of Gaussian, Inc. and that
 it will not use this program in any manner prohibited above.
 ---------------------------------------------------------------
  

 Cite this work as:
 Gaussian 09, Revision E.01,
 M. J. Frisch, G. W. Trucks, H. B. Schlegel, G. E. Scuseria, 
 M. A. Robb, J. R. Cheeseman, G. Scalmani, V. Barone, B. Mennucci, 
 G. A. Petersson, H. Nakatsuji, M. Caricato, X. Li, H. P. Hratchian, 
 A. F. Izmaylov, J. Bloino, G. Zheng, J. L. Sonnenberg, M. Hada, 
 M. Ehara, K. Toyota, R. Fukuda, J. Hasegawa, M. Ishida, T. Nakajima, 
 Y. Honda, O. Kitao, H. Nakai, T. Vreven, J. A. Montgomery, Jr., 
 J. E. Peralta, F. Ogliaro, M. Bearpark, J. J. Heyd, E. Brothers, 
 K. N. Kudin, V. N. Staroverov, T. Keith, R. Kobayashi, J. Normand, 
 K. Raghavachari, A. Rendell, J. C. Burant, S. S. Iyengar, J. Tomasi, 
 M. Cossi, N. Rega, J. M. Millam, M. Klene, J. E. Knox, J. B. Cross, 
 V. Bakken, C. Adamo, J. Jaramillo, R. Gomperts, R. E. Stratmann, 
 O. Yazyev, A. J. Austin, R. Cammi, C. Pomelli, J. W. Ochterski, 
 R. L. Martin, K. Morokuma, V. G. Zakrzewski, G. A. Voth, 
 P. Salvador, J. J. Dannenberg, S. Dapprich, A. D. Daniels, 
 O. Farkas, J. B. Foresman, J. V. Ortiz, J. Cioslowski, 
 and D. J. Fox, Gaussian, Inc., Wallingford CT, 2013.
 
 ******************************************
 Gaussian 09:  EM64L-G09RevE.01 30-Nov-2015
                27-Aug-2021 
 ******************************************
 %nprocshared=64
 Will use up to   64 processors via shared memory.
 %mem=128GB
 %chk=H2O_M06_PC2_OPT_FREQ.chk
 -------------------
 #p opt freq M06/gen
 -------------------
 1/14=-1,18=20,19=15,26=3,38=1/1,3;
 2/9=110,12=2,17=6,18=5,40=1/2;
 3/5=7,11=2,16=1,25=1,30=1,71=1,74=-54/1,2,3;
 4//1;
 5/5=2,38=5/2;
 6/7=2,8=2,9=2,10=2,28=1/1;
 7//1,2,3,16;
 1/14=-1,18=20,19=15,26=3/3(2);
 2/9=110/2;
 99//99;
 2/9=110/2;
 3/5=7,6=1,11=2,16=1,25=1,30=1,71=1,74=-54,82=7/1,2,3;
 4/5=5,16=3,69=1/1;
 5/5=2,38=5/2;
 7//1,2,3,16;
 1/14=-1,18=20,19=15,26=3/3(-5);
 2/9=110/2;
 6/7=2,8=2,9=2,10=2,19=2,28=1/1;
 99/9=1/99;
 Leave Link    1 at Fri Aug 27 00:03:44 2021, MaxMem= 17179869184 cpu:         6.0
 (Enter /public3/home/sc51754/softwares/g09e01/l101.exe)
 --------------------
 H2O_M06_PC2_OPT_FREQ
 --------------------
 Symbolic Z-matrix:
 Charge =  0 Multiplicity = 1
 O                     0.03922   0.79557   0. 
 H                     0.99922   0.79581   0. 
 H                    -0.28101   1.70059   0. 
 
 NAtoms=      3 NQM=        3 NQMF=       0 NMMI=      0 NMMIF=      0
                NMic=       0 NMicF=      0.
                    Isotopes and Nuclear Properties:
 (Nuclear quadrupole moments (NQMom) in fm**2, nuclear magnetic moments (NMagM)
  in nuclear magnetons)

  Atom         1           2           3
 IAtWgt=          16           1           1
 AtmWgt=  15.9949146   1.0078250   1.0078250
 NucSpn=           0           1           1
 AtZEff=   0.0000000   0.0000000   0.0000000
 NQMom=    0.0000000   0.0000000   0.0000000
 NMagM=    0.0000000   2.7928460   2.7928460
 AtZNuc=   8.0000000   1.0000000   1.0000000
 Leave Link  101 at Fri Aug 27 00:03:44 2021, MaxMem= 17179869184 cpu:         5.7
 (Enter /public3/home/sc51754/softwares/g09e01/l103.exe)

 GradGradGradGradGradGradGradGradGradGradGradGradGradGradGradGradGradGrad
 Berny optimization.
 Initialization pass.
                           ----------------------------
                           !    Initial Parameters    !
                           ! (Angstroms and Degrees)  !
 --------------------------                            --------------------------
 ! Name  Definition              Value          Derivative Info.                !
 --------------------------------------------------------------------------------
 ! R1    R(1,2)                  0.96           estimate D2E/DX2                !
 ! R2    R(1,3)                  0.96           estimate D2E/DX2                !
 ! A1    A(2,1,3)              109.4712         estimate D2E/DX2                !
 --------------------------------------------------------------------------------
 Trust Radius=3.00D-01 FncErr=1.00D-07 GrdErr=1.00D-06
 Number of steps in this run=     20 maximum allowed number of steps=    100.
 GradGradGradGradGradGradGradGradGradGradGradGradGradGradGradGradGradGrad

 Leave Link  103 at Fri Aug 27 00:03:44 2021, MaxMem= 17179869184 cpu:         0.1
 (Enter /public3/home/sc51754/softwares/g09e01/l202.exe)
                          Input orientation:                          
 ---------------------------------------------------------------------
 Center     Atomic      Atomic             Coordinates (Angstroms)
 Number     Number       Type             X           Y           Z
 ---------------------------------------------------------------------
      1          8           0        0.039217    0.795571    0.000000
      2          1           0        0.999217    0.795812    0.000000
      3          1           0       -0.281010    1.700587    0.000000
 ---------------------------------------------------------------------
                    Distance matrix (angstroms):
                    1          2          3
     1  O    0.000000
     2  H    0.960000   0.000000
     3  H    0.960000   1.567673   0.000000
 Stoichiometry    H2O
 Framework group  C2V[C2(O),SGV(H2)]
 Deg. of freedom     2
 Full point group                 C2V     NOp   4
 Largest Abelian subgroup         C2V     NOp   4
 Largest concise Abelian subgroup C2      NOp   2
                         Standard orientation:                         
 ---------------------------------------------------------------------
 Center     Atomic      Atomic             Coordinates (Angstroms)
 Number     Number       Type             X           Y           Z
 ---------------------------------------------------------------------
      1          8           0        0.000000   -0.000000    0.110851
      2          1           0       -0.000000   -0.783837   -0.443405
      3          1           0        0.000000    0.783837   -0.443405
 ---------------------------------------------------------------------
 Rotational constants (GHZ):    919.0227056    408.0852078    282.5991526
 Leave Link  202 at Fri Aug 27 00:03:45 2021, MaxMem= 17179869184 cpu:         9.0
 (Enter /public3/home/sc51754/softwares/g09e01/l301.exe)
 General basis read from cards:  (5D, 7F)
 Centers:       2      3
 S 4 1.00
     Exponent=  7.5423000000D+01 Coefficients=  2.4065000000D-03
     Exponent=  1.1350000000D+01 Coefficients=  1.8487000000D-02
     Exponent=  2.5993000000D+00 Coefficients=  8.9742000000D-02
     Exponent=  7.3513000000D-01 Coefficients=  2.8111000000D-01
 S 1 1.00
     Exponent=  2.3167000000D-01 Coefficients=  1.0000000000D+00
 S 1 1.00
     Exponent=  7.4147000000D-02 Coefficients=  1.0000000000D+00
 P 1 1.00
     Exponent=  1.6000000000D+00 Coefficients=  1.0000000000D+00
 P 1 1.00
     Exponent=  4.5000000000D-01 Coefficients=  1.0000000000D+00
 D 1 1.00
     Exponent=  1.2500000000D+00 Coefficients=  1.0000000000D+00
 ****
 Centers:       1
 S 7 1.00
     Exponent=  1.4782000000D+04 Coefficients=  5.3519000000D-04
     Exponent=  2.2173000000D+03 Coefficients=  4.1375000000D-03
     Exponent=  5.0474000000D+02 Coefficients=  2.1245000000D-02
     Exponent=  1.4287000000D+02 Coefficients=  8.2453000000D-02
     Exponent=  4.6300000000D+01 Coefficients=  2.3671000000D-01
     Exponent=  1.6337000000D+01 Coefficients=  4.4039000000D-01
     Exponent=  5.9828000000D+00 Coefficients=  3.6465000000D-01
 S 7 1.00
     Exponent=  2.2173000000D+03 Coefficients= -1.9275000000D-06
     Exponent=  5.0474000000D+02 Coefficients= -5.7964000000D-05
     Exponent=  1.4287000000D+02 Coefficients= -7.9494000000D-04
     Exponent=  4.6300000000D+01 Coefficients= -7.3125000000D-03
     Exponent=  1.6337000000D+01 Coefficients= -4.0574000000D-02
     Exponent=  5.9828000000D+00 Coefficients= -9.1594000000D-02
     Exponent=  1.6718000000D+00 Coefficients=  2.0940000000D-01
 S 1 1.00
     Exponent=  6.4662000000D-01 Coefficients=  1.0000000000D+00
 S 1 1.00
     Exponent=  2.1669000000D-01 Coefficients=  1.0000000000D+00
 P 4 1.00
     Exponent=  6.0424000000D+01 Coefficients=  6.8949000000D-03
     Exponent=  1.3935000000D+01 Coefficients=  4.9005000000D-02
     Exponent=  4.1531000000D+00 Coefficients=  1.8255000000D-01
     Exponent=  1.4158000000D+00 Coefficients=  3.7633000000D-01
 P 1 1.00
     Exponent=  4.7549000000D-01 Coefficients=  1.0000000000D+00
 P 1 1.00
     Exponent=  1.4529000000D-01 Coefficients=  1.0000000000D+00
 D 1 1.00
     Exponent=  2.2000000000D+00 Coefficients=  1.0000000000D+00
 D 1 1.00
     Exponent=  6.5000000000D-01 Coefficients=  1.0000000000D+00
 F 1 1.00
     Exponent=  1.1000000000D+00 Coefficients=  1.0000000000D+00
 ****
 Ernie: Thresh=  0.10000D-02 Tol=  0.10000D-05 Strict=F.
 Ernie:  1 primitive shells out of 43 were deleted.
 There are    27 symmetry adapted cartesian basis functions of A1  symmetry.
 There are     7 symmetry adapted cartesian basis functions of A2  symmetry.
 There are    12 symmetry adapted cartesian basis functions of B1  symmetry.
 There are    19 symmetry adapted cartesian basis functions of B2  symmetry.
 There are    23 symmetry adapted basis functions of A1  symmetry.
 There are     7 symmetry adapted basis functions of A2  symmetry.
 There are    11 symmetry adapted basis functions of B1  symmetry.
 There are    17 symmetry adapted basis functions of B2  symmetry.
    58 basis functions,    91 primitive gaussians,    65 cartesian basis functions
     5 alpha electrons        5 beta electrons
       nuclear repulsion energy         9.1571759018 Hartrees.
 IExCor= 4235 DFT=T Ex+Corr=M06 ExCW=0 ScaHFX=  0.270000
 ScaDFX=  1.000000  1.000000  1.000000  1.000000 ScalE2=  1.000000  1.000000
 IRadAn=      0 IRanWt=     -1 IRanGd=            0 ICorTp=0 IEmpDi=  4
 NAtoms=    3 NActive=    3 NUniq=    2 SFac= 2.25D+00 NAtFMM=   60 NAOKFM=F Big=F
 Integral buffers will be    131072 words long.
 Raffenetti 2 integral format.
 Two-electron integral symmetry is turned on.
 Leave Link  301 at Fri Aug 27 00:03:45 2021, MaxMem= 17179869184 cpu:         1.3
 (Enter /public3/home/sc51754/softwares/g09e01/l302.exe)
 NPDir=0 NMtPBC=     1 NCelOv=     1 NCel=       1 NClECP=     1 NCelD=      1
         NCelK=      1 NCelE2=     1 NClLst=     1 CellRange=     0.0.
 One-electron integrals computed using PRISM.
 One-electron integral symmetry used in STVInt
 NBasis=    58 RedAO= T EigKep=  5.81D-03  NBF=    23     7    11    17
 NBsUse=    58 1.00D-06 EigRej= -1.00D+00 NBFU=    23     7    11    17
 Precomputing XC quadrature grid using
 IXCGrd= 4 IRadAn=           0 IRanWt=          -1 IRanGd=           0 AccXCQ= 0.00D+00.
 Generated NRdTot=       0 NPtTot=           0 NUsed=           0 NTot=          32
 NSgBfM=    65    65    65    65    65 MxSgAt=     3 MxSgA2=     3.
 Leave Link  302 at Fri Aug 27 00:03:46 2021, MaxMem= 17179869184 cpu:        36.6
 (Enter /public3/home/sc51754/softwares/g09e01/l303.exe)
 DipDrv:  MaxL=1.
 Leave Link  303 at Fri Aug 27 00:03:46 2021, MaxMem= 17179869184 cpu:         8.9
 (Enter /public3/home/sc51754/softwares/g09e01/l401.exe)
 ExpMin= 7.41D-02 ExpMax= 1.48D+04 ExpMxC= 5.05D+02 IAcc=2 IRadAn=         4 AccDes= 0.00D+00
 Harris functional with IExCor= 1009 and IRadAn=       4 diagonalized for initial guess.
 HarFok:  IExCor= 1009 AccDes= 0.00D+00 IRadAn=         4 IDoV= 1 UseB2=F ITyADJ=14
 ICtDFT=  3500011 ScaDFX=  1.000000  1.000000  1.000000  1.000000
 FoFCou: FMM=F IPFlag=           0 FMFlag=      100000 FMFlg1=           0
         NFxFlg=           0 DoJE=T BraDBF=F KetDBF=T FulRan=T
         wScrn=  0.000000 ICntrl=     500 IOpCl=  0 I1Cent=   200000004 NGrid=           0
         NMat0=    1 NMatS0=      1 NMatT0=    0 NMatD0=    1 NMtDS0=    0 NMtDT0=    0
 Petite list used in FoFCou.
 Harris En= -76.4282148740560    
 JPrj=0 DoOrth=F DoCkMO=F.
 Initial guess orbital symmetries:
       Occupied  (A1) (A1) (B2) (A1) (B1)
       Virtual   (A1) (B2) (B2) (A1) (A1) (B1) (B2) (A1) (A2) (A1)
                 (B1) (B2) (B2) (A1) (A1) (B2) (B1) (A1) (A2) (B2)
                 (A1) (B1) (A1) (B2) (B1) (A1) (A2) (B2) (B1) (B2)
                 (A2) (A1) (A1) (B2) (B1) (A2) (A1) (B2) (B2) (A1)
                 (B1) (A1) (B1) (B2) (A2) (B1) (A1) (A1) (A2) (A1)
                 (B2) (B2) (A1)
 The electronic state of the initial guess is 1-A1.
 Leave Link  401 at Fri Aug 27 00:03:47 2021, MaxMem= 17179869184 cpu:        38.8
 (Enter /public3/home/sc51754/softwares/g09e01/l502.exe)
 Closed shell SCF:
 Using DIIS extrapolation, IDIIS=  1040.
 Integral symmetry usage will be decided dynamically.
 Keep R1 ints in memory in symmetry-blocked form, NReq=3467901.
 IVT=       35997 IEndB=       35997 NGot= 17179869184 MDV= 17179451308
 LenX= 17179451308 LenY= 17179446642
 Requested convergence on RMS density matrix=1.00D-08 within 128 cycles.
 Requested convergence on MAX density matrix=1.00D-06.
 Requested convergence on             energy=1.00D-06.
 No special actions if energy rises.
 FoFCou: FMM=F IPFlag=           0 FMFlag=           0 FMFlg1=           0
         NFxFlg=           0 DoJE=F BraDBF=F KetDBF=F FulRan=T
         wScrn=  0.000000 ICntrl=     600 IOpCl=  0 I1Cent=           0 NGrid=           0
         NMat0=    1 NMatS0=   1711 NMatT0=    0 NMatD0=    1 NMtDS0=    0 NMtDT0=    0
 Petite list used in FoFCou.
 Integral accuracy reduced to 1.0D-05 until final iterations.

 Cycle   1  Pass 0  IDiag  1:
 E= -76.3589945821984    
 DIIS: error= 6.18D-02 at cycle   1 NSaved=   1.
 NSaved= 1 IEnMin= 1 EnMin= -76.3589945821984     IErMin= 1 ErrMin= 6.18D-02
 ErrMax= 6.18D-02  0.00D+00 EMaxC= 1.00D-01 BMatC= 1.00D-01 BMatP= 1.00D-01
 IDIUse=3 WtCom= 3.82D-01 WtEn= 6.18D-01
 Coeff-Com:  0.100D+01
 Coeff-En:   0.100D+01
 Coeff:      0.100D+01
 Gap=     0.197 Goal=   None    Shift=    0.000
 GapD=    0.197 DampG=1.000 DampE=0.500 DampFc=0.5000 IDamp=-1.
 Damping current iteration by 5.00D-01
 RMSDP=6.20D-03 MaxDP=9.82D-02              OVMax= 1.84D-01

 Cycle   2  Pass 0  IDiag  1:
 E= -76.3797395178275     Delta-E=       -0.020744935629 Rises=F Damp=T
 DIIS: error= 1.79D-02 at cycle   2 NSaved=   2.
 NSaved= 2 IEnMin= 2 EnMin= -76.3797395178275     IErMin= 2 ErrMin= 1.79D-02
 ErrMax= 1.79D-02  0.00D+00 EMaxC= 1.00D-01 BMatC= 6.74D-03 BMatP= 1.00D-01
 IDIUse=3 WtCom= 8.21D-01 WtEn= 1.79D-01
 Coeff-Com:  0.196D+00 0.804D+00
 Coeff-En:   0.336D+00 0.664D+00
 Coeff:      0.221D+00 0.779D+00
 Gap=     0.332 Goal=   None    Shift=    0.000
 RMSDP=9.04D-04 MaxDP=1.85D-02 DE=-2.07D-02 OVMax= 1.09D-01

 Cycle   3  Pass 0  IDiag  1:
 E= -76.4277927492129     Delta-E=       -0.048053231385 Rises=F Damp=F
 DIIS: error= 1.63D-03 at cycle   3 NSaved=   3.
 NSaved= 3 IEnMin= 3 EnMin= -76.4277927492129     IErMin= 3 ErrMin= 1.63D-03
 ErrMax= 1.63D-03  0.00D+00 EMaxC= 1.00D-01 BMatC= 8.74D-05 BMatP= 6.74D-03
 IDIUse=3 WtCom= 9.84D-01 WtEn= 1.63D-02
 Coeff-Com:  0.298D-01 0.204D-01 0.950D+00
 Coeff-En:   0.000D+00 0.000D+00 0.100D+01
 Coeff:      0.293D-01 0.201D-01 0.951D+00
 Gap=     0.339 Goal=   None    Shift=    0.000
 RMSDP=7.39D-05 MaxDP=1.06D-03 DE=-4.81D-02 OVMax= 2.08D-03

 Cycle   4  Pass 0  IDiag  1:
 E= -76.4278468467254     Delta-E=       -0.000054097513 Rises=F Damp=F
 DIIS: error= 3.07D-04 at cycle   4 NSaved=   4.
 NSaved= 4 IEnMin= 4 EnMin= -76.4278468467254     IErMin= 4 ErrMin= 3.07D-04
 ErrMax= 3.07D-04  0.00D+00 EMaxC= 1.00D-01 BMatC= 2.22D-06 BMatP= 8.74D-05
 IDIUse=3 WtCom= 9.97D-01 WtEn= 3.07D-03
 Coeff-Com:  0.221D-02-0.174D-01 0.200D+00 0.815D+00
 Coeff-En:   0.000D+00 0.000D+00 0.000D+00 0.100D+01
 Coeff:      0.220D-02-0.173D-01 0.199D+00 0.816D+00
 Gap=     0.339 Goal=   None    Shift=    0.000
 RMSDP=1.76D-05 MaxDP=3.14D-04 DE=-5.41D-05 OVMax= 3.14D-04

 Cycle   5  Pass 0  IDiag  1:
 E= -76.4278481320718     Delta-E=       -0.000001285346 Rises=F Damp=F
 DIIS: error= 6.60D-05 at cycle   5 NSaved=   5.
 NSaved= 5 IEnMin= 5 EnMin= -76.4278481320718     IErMin= 5 ErrMin= 6.60D-05
 ErrMax= 6.60D-05  0.00D+00 EMaxC= 1.00D-01 BMatC= 9.88D-08 BMatP= 2.22D-06
 IDIUse=1 WtCom= 1.00D+00 WtEn= 0.00D+00
 Coeff-Com:  0.572D-03-0.229D-02 0.685D-02 0.480D-01 0.947D+00
 Coeff:      0.572D-03-0.229D-02 0.685D-02 0.480D-01 0.947D+00
 Gap=     0.339 Goal=   None    Shift=    0.000
 RMSDP=2.74D-06 MaxDP=4.91D-05 DE=-1.29D-06 OVMax= 7.64D-05

 Initial convergence to 1.0D-05 achieved.  Increase integral accuracy.
 Cycle   6  Pass 1  IDiag  1:
 E= -76.4277498949790     Delta-E=        0.000098237093 Rises=F Damp=F
 DIIS: error= 8.46D-04 at cycle   1 NSaved=   1.
 NSaved= 1 IEnMin= 1 EnMin= -76.4277498949790     IErMin= 1 ErrMin= 8.46D-04
 ErrMax= 8.46D-04  0.00D+00 EMaxC= 1.00D-01 BMatC= 1.61D-05 BMatP= 1.61D-05
 IDIUse=3 WtCom= 9.92D-01 WtEn= 8.46D-03
 Coeff-Com:  0.100D+01
 Coeff-En:   0.100D+01
 Coeff:      0.100D+01
 Gap=     0.339 Goal=   None    Shift=    0.000
 RMSDP=2.74D-06 MaxDP=4.91D-05 DE= 9.82D-05 OVMax= 6.19D-04

 Cycle   7  Pass 1  IDiag  1:
 E= -76.4277566095180     Delta-E=       -0.000006714539 Rises=F Damp=F
 DIIS: error= 3.57D-05 at cycle   2 NSaved=   2.
 NSaved= 2 IEnMin= 2 EnMin= -76.4277566095180     IErMin= 2 ErrMin= 3.57D-05
 ErrMax= 3.57D-05  0.00D+00 EMaxC= 1.00D-01 BMatC= 6.60D-08 BMatP= 1.61D-05
 IDIUse=1 WtCom= 1.00D+00 WtEn= 0.00D+00
 Coeff-Com: -0.208D-01 0.102D+01
 Coeff:     -0.208D-01 0.102D+01
 Gap=     0.340 Goal=   None    Shift=    0.000
 RMSDP=3.50D-06 MaxDP=5.72D-05 DE=-6.71D-06 OVMax= 1.05D-04

 Cycle   8  Pass 1  IDiag  1:
 E= -76.4277566466631     Delta-E=       -0.000000037145 Rises=F Damp=F
 DIIS: error= 1.97D-05 at cycle   3 NSaved=   3.
 NSaved= 3 IEnMin= 3 EnMin= -76.4277566466631     IErMin= 3 ErrMin= 1.97D-05
 ErrMax= 1.97D-05  0.00D+00 EMaxC= 1.00D-01 BMatC= 1.42D-08 BMatP= 6.60D-08
 IDIUse=1 WtCom= 1.00D+00 WtEn= 0.00D+00
 Coeff-Com: -0.941D-02 0.287D+00 0.723D+00
 Coeff:     -0.941D-02 0.287D+00 0.723D+00
 Gap=     0.339 Goal=   None    Shift=    0.000
 RMSDP=1.54D-06 MaxDP=2.68D-05 DE=-3.71D-08 OVMax= 4.79D-05

 Cycle   9  Pass 1  IDiag  1:
 E= -76.4277566520371     Delta-E=       -0.000000005374 Rises=F Damp=F
 DIIS: error= 1.63D-05 at cycle   4 NSaved=   4.
 NSaved= 4 IEnMin= 4 EnMin= -76.4277566520371     IErMin= 4 ErrMin= 1.63D-05
 ErrMax= 1.63D-05  0.00D+00 EMaxC= 1.00D-01 BMatC= 6.30D-09 BMatP= 1.42D-08
 IDIUse=1 WtCom= 1.00D+00 WtEn= 0.00D+00
 Coeff-Com: -0.393D-02 0.628D-01 0.405D+00 0.536D+00
 Coeff:     -0.393D-02 0.628D-01 0.405D+00 0.536D+00
 Gap=     0.339 Goal=   None    Shift=    0.000
 RMSDP=6.42D-07 MaxDP=1.39D-05 DE=-5.37D-09 OVMax= 1.89D-05

 Cycle  10  Pass 1  IDiag  1:
 E= -76.4277566561037     Delta-E=       -0.000000004067 Rises=F Damp=F
 DIIS: error= 1.69D-06 at cycle   5 NSaved=   5.
 NSaved= 5 IEnMin= 5 EnMin= -76.4277566561037     IErMin= 5 ErrMin= 1.69D-06
 ErrMax= 1.69D-06  0.00D+00 EMaxC= 1.00D-01 BMatC= 8.61D-11 BMatP= 6.30D-09
 IDIUse=1 WtCom= 1.00D+00 WtEn= 0.00D+00
 Coeff-Com: -0.449D-03-0.295D-02 0.585D-01 0.151D+00 0.794D+00
 Coeff:     -0.449D-03-0.295D-02 0.585D-01 0.151D+00 0.794D+00
 Gap=     0.339 Goal=   None    Shift=    0.000
 RMSDP=7.32D-08 MaxDP=1.26D-06 DE=-4.07D-09 OVMax= 2.74D-06

 Cycle  11  Pass 1  IDiag  1:
 E= -76.4277566561625     Delta-E=       -0.000000000059 Rises=F Damp=F
 DIIS: error= 1.16D-07 at cycle   6 NSaved=   6.
 NSaved= 6 IEnMin= 6 EnMin= -76.4277566561625     IErMin= 6 ErrMin= 1.16D-07
 ErrMax= 1.16D-07  0.00D+00 EMaxC= 1.00D-01 BMatC= 2.64D-13 BMatP= 8.61D-11
 IDIUse=1 WtCom= 1.00D+00 WtEn= 0.00D+00
 Coeff-Com:  0.355D-04 0.710D-04-0.757D-02-0.166D-01-0.299D-01 0.105D+01
 Coeff:      0.355D-04 0.710D-04-0.757D-02-0.166D-01-0.299D-01 0.105D+01
 Gap=     0.339 Goal=   None    Shift=    0.000
 RMSDP=9.89D-09 MaxDP=1.36D-07 DE=-5.88D-11 OVMax= 3.10D-07

 SCF Done:  E(RM06) =  -76.4277566562     A.U. after   11 cycles
            NFock= 11  Conv=0.99D-08     -V/T= 2.0023
 KE= 7.625050683370D+01 PE=-1.993810340702D+02 EE= 3.754559467853D+01
 Leave Link  502 at Fri Aug 27 00:03:47 2021, MaxMem= 17179869184 cpu:        36.5
 (Enter /public3/home/sc51754/softwares/g09e01/l601.exe)
 Copying SCF densities to generalized density rwf, IOpCl= 0 IROHF=0.

 **********************************************************************

            Population analysis using the SCF density.

 **********************************************************************

 Orbital symmetries:
       Occupied  (A1) (A1) (B2) (A1) (B1)
       Virtual   (A1) (B2) (A1) (B2) (A1) (B1) (B2) (A1) (A2) (A1)
                 (B1) (B2) (B2) (A1) (A1) (B2) (B1) (A2) (A1) (B2)
                 (A1) (B1) (A1) (B2) (B1) (A2) (A1) (B2) (B2) (B1)
                 (A1) (A2) (A1) (B2) (B1) (A2) (A1) (B2) (B2) (A1)
                 (B1) (A1) (B1) (B2) (A1) (A2) (B1) (A2) (A1) (B2)
                 (A1) (B2) (A1)
 The electronic state is 1-A1.
 Alpha  occ. eigenvalues --  -19.20179  -1.03390  -0.55181  -0.39609  -0.32952
 Alpha virt. eigenvalues --    0.00996   0.03859   0.27571   0.28049   0.33861
 Alpha virt. eigenvalues --    0.35774   0.44131   0.67815   0.74660   0.77972
 Alpha virt. eigenvalues --    0.87504   1.01990   1.13953   1.19103   1.40658
 Alpha virt. eigenvalues --    1.42829   1.75075   1.84481   1.85222   2.10360
 Alpha virt. eigenvalues --    2.10509   2.32253   2.87966   3.36668   3.39973
 Alpha virt. eigenvalues --    3.53309   3.53607   3.70599   3.78373   3.78640
 Alpha virt. eigenvalues --    4.01177   4.01715   4.24554   4.39154   4.43888
 Alpha virt. eigenvalues --    4.46898   4.61663   4.76473   4.81386   4.88690
 Alpha virt. eigenvalues --    4.94394   5.60222   5.89647   6.04357   6.09906
 Alpha virt. eigenvalues --    6.14055   6.27326   6.33587   6.38918   6.87801
 Alpha virt. eigenvalues --    6.92009   7.32516  15.17979
          Condensed to atoms (all electrons):
               1          2          3
     1  O    7.737908   0.354219   0.354219
     2  H    0.354219   0.444347  -0.021739
     3  H    0.354219  -0.021739   0.444347
 Mulliken charges:
               1
     1  O   -0.446347
     2  H    0.223173
     3  H    0.223173
 Sum of Mulliken charges =   0.00000
 Mulliken charges with hydrogens summed into heavy atoms:
               1
     1  O    0.000000
 Electronic spatial extent (au):  <R**2>=             19.5660
 Charge=              0.0000 electrons
 Dipole moment (field-independent basis, Debye):
    X=              0.0000    Y=             -0.0000    Z=             -1.9152  Tot=              1.9152
 Quadrupole moment (field-independent basis, Debye-Ang):
   XX=             -7.5308   YY=             -4.1081   ZZ=             -6.4150
   XY=              0.0000   XZ=             -0.0000   YZ=              0.0000
 Traceless Quadrupole moment (field-independent basis, Debye-Ang):
   XX=             -1.5128   YY=              1.9099   ZZ=             -0.3970
   XY=              0.0000   XZ=             -0.0000   YZ=              0.0000
 Octapole moment (field-independent basis, Debye-Ang**2):
  XXX=             -0.0000  YYY=             -0.0000  ZZZ=             -1.1644  XYY=              0.0000
  XXY=              0.0000  XXZ=             -0.3176  XZZ=             -0.0000  YZZ=             -0.0000
  YYZ=             -1.3365  XYZ=             -0.0000
 Hexadecapole moment (field-independent basis, Debye-Ang**3):
 XXXX=             -6.6528 YYYY=             -5.9601 ZZZZ=             -7.2081 XXXY=             -0.0000
 XXXZ=              0.0000 YYYX=             -0.0000 YYYZ=              0.0000 ZZZX=              0.0000
 ZZZY=              0.0000 XXYY=             -2.4524 XXZZ=             -2.3518 YYZZ=             -1.9454
 XXYZ=             -0.0000 YYXZ=             -0.0000 ZZXY=             -0.0000
 N-N= 9.157175901845D+00 E-N=-1.993810357087D+02  KE= 7.625050683370D+01
 Symmetry A1   KE= 6.801660620766D+01
 Symmetry A2   KE=-2.650913505983D-20
 Symmetry B1   KE= 4.556459284676D+00
 Symmetry B2   KE= 3.677441341361D+00
 No NMR shielding tensors so no spin-rotation constants.
 Leave Link  601 at Fri Aug 27 00:03:49 2021, MaxMem= 17179869184 cpu:        73.2
 (Enter /public3/home/sc51754/softwares/g09e01/l701.exe)
 Compute integral first derivatives.
 ... and contract with generalized density number  0.
 Leave Link  701 at Fri Aug 27 00:03:50 2021, MaxMem= 17179869184 cpu:        57.9
 (Enter /public3/home/sc51754/softwares/g09e01/l702.exe)
 L702 exits ... SP integral derivatives will be done elsewhere.
 Leave Link  702 at Fri Aug 27 00:03:50 2021, MaxMem= 17179869184 cpu:         0.4
 (Enter /public3/home/sc51754/softwares/g09e01/l703.exe)
 Compute integral first derivatives, UseDBF=F ICtDFT=           0.
 Integral derivatives from FoFJK, PRISM(SPDF).
 Calling FoFJK, ICntrl=      2127 FMM=F ISym2X=1 I1Cent= 0 IOpClX= 0 NMat=1 NMatS=1 NMatT=0.
 FoFJK:  IHMeth= 1 ICntrl=    2127 DoSepK=F KAlg= 0 I1Cent=   0 FoldK=F
 IRaf=         0 NMat=   1 IRICut=       1 DoRegI=T DoRafI=F ISym2E= 1.
 FoFCou: FMM=F IPFlag=           0 FMFlag=      100000 FMFlg1=         800
         NFxFlg=           0 DoJE=F BraDBF=F KetDBF=F FulRan=T
         wScrn=  0.000000 ICntrl=    2127 IOpCl=  0 I1Cent=           0 NGrid=           0
         NMat0=    1 NMatS0=      1 NMatT0=    0 NMatD0=    1 NMtDS0=    0 NMtDT0=    0
 Petite list used in FoFCou.
 Leave Link  703 at Fri Aug 27 00:03:51 2021, MaxMem= 17179869184 cpu:        34.4
 (Enter /public3/home/sc51754/softwares/g09e01/l716.exe)
 Dipole        = 3.92183544D-17-2.22044605D-16-7.53511822D-01
 ***** Axes restored to original set *****
 -------------------------------------------------------------------
 Center     Atomic                   Forces (Hartrees/Bohr)
 Number     Number              X              Y              Z
 -------------------------------------------------------------------
      1        8          -0.001642358   -0.002323883    0.000000000
      2        1          -0.006843473    0.006578782   -0.000000000
      3        1           0.008485831   -0.004254899   -0.000000000
 -------------------------------------------------------------------
 Cartesian Forces:  Max     0.008485831 RMS     0.004574382
 Leave Link  716 at Fri Aug 27 00:03:51 2021, MaxMem= 17179869184 cpu:         0.6
 (Enter /public3/home/sc51754/softwares/g09e01/l103.exe)

 GradGradGradGradGradGradGradGradGradGradGradGradGradGradGradGradGradGrad
 Berny optimization.
 FormGI is forming the generalized inverse of G from B-inverse, IUseBI=4.
 Internal  Forces:  Max     0.011937929 RMS     0.008871963
 Search for a local minimum.
 Step number   1 out of a maximum of   20
 All quantities printed in internal units (Hartrees-Bohrs-Radians)
 RMS Force = .88720D-02 SwitMx=.10000D-02 MixMth= 1
 Mixed Optimization -- RFO/linear search
 Second derivative matrix not updated -- first step.
 The second derivative matrix:
                          R1        R2        A1
           R1           0.55473
           R2           0.00000   0.55473
           A1           0.00000   0.00000   0.16000
 ITU=  0
     Eigenvalues ---    0.16000   0.55473   0.55473
 RFO step:  Lambda=-1.05333569D-03 EMin= 1.60000000D-01
 Linear search not attempted -- first point.
 Iteration  1 RMS(Cart)=  0.04576362 RMS(Int)=  0.00105665
 Iteration  2 RMS(Cart)=  0.00081663 RMS(Int)=  0.00000015
 Iteration  3 RMS(Cart)=  0.00000016 RMS(Int)=  0.00000000
 ITry= 1 IFail=0 DXMaxC= 4.95D-02 DCOld= 1.00D+10 DXMaxT= 3.00D-01 DXLimC= 3.00D+00 Rises=F
 ClnCor:  largest displacement from symmetrization is 8.94D-15 for atom     3.
 Variable       Old X    -DE/DX   Delta X   Delta X   Delta X     New X
                                 (Linear)    (Quad)   (Total)
    R1        1.81414  -0.00684   0.00000  -0.01231  -0.01231   1.80183
    R2        1.81414  -0.00684   0.00000  -0.01231  -0.01231   1.80183
    A1        1.91063  -0.01194   0.00000  -0.07412  -0.07412   1.83651
         Item               Value     Threshold  Converged?
 Maximum Force            0.011938     0.000450     NO 
 RMS     Force            0.008872     0.000300     NO 
 Maximum Displacement     0.049494     0.001800     NO 
 RMS     Displacement     0.046099     0.001200     NO 
 Predicted change in Energy=-5.297211D-04
 Lowest energy point so far.  Saving SCF results.
 GradGradGradGradGradGradGradGradGradGradGradGradGradGradGradGradGradGrad

 Leave Link  103 at Fri Aug 27 00:03:51 2021, MaxMem= 17179869184 cpu:        21.8
 (Enter /public3/home/sc51754/softwares/g09e01/l202.exe)
                          Input orientation:                          
 ---------------------------------------------------------------------
 Center     Atomic      Atomic             Coordinates (Angstroms)
 Number     Number       Type             X           Y           Z
 ---------------------------------------------------------------------
      1          8           0        0.029710    0.782119    0.000000
      2          1           0        0.982532    0.817688   -0.000000
      3          1           0       -0.254819    1.692162    0.000000
 ---------------------------------------------------------------------
                    Distance matrix (angstroms):
                    1          2          3
     1  O    0.000000
     2  H    0.953486   0.000000
     3  H    0.953486   1.515171   0.000000
 Stoichiometry    H2O
 Framework group  C2V[C2(O),SGV(H2)]
 Deg. of freedom     2
 Full point group                 C2V     NOp   4
 RotChk:  IX=3 Diff= 5.07D-16
 Largest Abelian subgroup         C2V     NOp   4
 Largest concise Abelian subgroup C2      NOp   2
                         Standard orientation:                         
 ---------------------------------------------------------------------
 Center     Atomic      Atomic             Coordinates (Angstroms)
 Number     Number       Type             X           Y           Z
 ---------------------------------------------------------------------
      1          8           0        0.000000   -0.000000    0.115793
      2          1           0        0.000000   -0.757585   -0.463171
      3          1           0        0.000000    0.757585   -0.463171
 ---------------------------------------------------------------------
 Rotational constants (GHZ):    842.2562098    436.8565301    287.6565245
 Leave Link  202 at Fri Aug 27 00:03:52 2021, MaxMem= 17179869184 cpu:         7.9
 (Enter /public3/home/sc51754/softwares/g09e01/l301.exe)
 Basis read from rwf:  (5D, 7F)
 No pseudopotential information found on rwf file.
 There are    27 symmetry adapted cartesian basis functions of A1  symmetry.
 There are     7 symmetry adapted cartesian basis functions of A2  symmetry.
 There are    12 symmetry adapted cartesian basis functions of B1  symmetry.
 There are    19 symmetry adapted cartesian basis functions of B2  symmetry.
 There are    23 symmetry adapted basis functions of A1  symmetry.
 There are     7 symmetry adapted basis functions of A2  symmetry.
 There are    11 symmetry adapted basis functions of B1  symmetry.
 There are    17 symmetry adapted basis functions of B2  symmetry.
    58 basis functions,    91 primitive gaussians,    65 cartesian basis functions
     5 alpha electrons        5 beta electrons
       nuclear repulsion energy         9.2291285626 Hartrees.
 IExCor= 4235 DFT=T Ex+Corr=M06 ExCW=0 ScaHFX=  0.270000
 ScaDFX=  1.000000  1.000000  1.000000  1.000000 ScalE2=  1.000000  1.000000
 IRadAn=      0 IRanWt=     -1 IRanGd=            0 ICorTp=0 IEmpDi=  4
 NAtoms=    3 NActive=    3 NUniq=    2 SFac= 2.25D+00 NAtFMM=   60 NAOKFM=F Big=F
 Integral buffers will be    131072 words long.
 Raffenetti 2 integral format.
 Two-electron integral symmetry is turned on.
 No density basis found on file   724.
 Leave Link  301 at Fri Aug 27 00:03:52 2021, MaxMem= 17179869184 cpu:         1.1
 (Enter /public3/home/sc51754/softwares/g09e01/l302.exe)
 NPDir=0 NMtPBC=     1 NCelOv=     1 NCel=       1 NClECP=     1 NCelD=      1
         NCelK=      1 NCelE2=     1 NClLst=     1 CellRange=     0.0.
 One-electron integrals computed using PRISM.
 One-electron integral symmetry used in STVInt
 NBasis=    58 RedAO= T EigKep=  5.72D-03  NBF=    23     7    11    17
 NBsUse=    58 1.00D-06 EigRej= -1.00D+00 NBFU=    23     7    11    17
 Precomputing XC quadrature grid using
 IXCGrd= 4 IRadAn=           0 IRanWt=          -1 IRanGd=           0 AccXCQ= 0.00D+00.
 Generated NRdTot=       0 NPtTot=           0 NUsed=           0 NTot=          32
 NSgBfM=    65    65    65    65    65 MxSgAt=     3 MxSgA2=     3.
 Leave Link  302 at Fri Aug 27 00:03:53 2021, MaxMem= 17179869184 cpu:        41.1
 (Enter /public3/home/sc51754/softwares/g09e01/l303.exe)
 DipDrv:  MaxL=1.
 Leave Link  303 at Fri Aug 27 00:03:53 2021, MaxMem= 17179869184 cpu:        16.8
 (Enter /public3/home/sc51754/softwares/g09e01/l401.exe)
 Initial guess from the checkpoint file:  "H2O_M06_PC2_OPT_FREQ.chk"
 B after Tr=    -0.000000   -0.000000    0.000000
         Rot=    1.000000    0.000000   -0.000000   -0.000000 Ang=   0.00 deg.
 Guess basis will be translated and rotated to current coordinates.
 JPrj=2 DoOrth=T DoCkMO=T.
 Initial guess orbital symmetries:
       Occupied  (A1) (A1) (B2) (A1) (B1)
       Virtual   (A1) (A1) (A1) (A1) (A1) (A1) (A1) (A1) (A1) (A1)
                 (A1) (A1) (A1) (A1) (A1) (A1) (A1) (A1) (A1) (A1)
                 (A2) (A2) (A2) (A2) (A2) (A2) (A2) (B1) (B1) (B1)
                 (B1) (B1) (B1) (B1) (B1) (B1) (B1) (B2) (B2) (B2)
                 (B2) (B2) (B2) (B2) (B2) (B2) (B2) (B2) (B2) (B2)
                 (B2) (B2) (B2)
 The electronic state of the initial guess is 1-A1.
 Generating alternative initial guess.
 ExpMin= 7.41D-02 ExpMax= 1.48D+04 ExpMxC= 5.05D+02 IAcc=2 IRadAn=         4 AccDes= 0.00D+00
 Harris functional with IExCor= 1009 and IRadAn=       4 diagonalized for initial guess.
 HarFok:  IExCor= 1009 AccDes= 0.00D+00 IRadAn=         4 IDoV= 1 UseB2=F ITyADJ=14
 ICtDFT=  3500011 ScaDFX=  1.000000  1.000000  1.000000  1.000000
 FoFCou: FMM=F IPFlag=           0 FMFlag=      100000 FMFlg1=           0
         NFxFlg=           0 DoJE=T BraDBF=F KetDBF=T FulRan=T
         wScrn=  0.000000 ICntrl=     500 IOpCl=  0 I1Cent=   200000004 NGrid=           0
         NMat0=    1 NMatS0=      1 NMatT0=    0 NMatD0=    1 NMtDS0=    0 NMtDT0=    0
 Petite list used in FoFCou.
 Harris En= -76.4286128578110    
 Leave Link  401 at Fri Aug 27 00:03:55 2021, MaxMem= 17179869184 cpu:        85.8
 (Enter /public3/home/sc51754/softwares/g09e01/l502.exe)
 Closed shell SCF:
 Using DIIS extrapolation, IDIIS=  1040.
 Integral symmetry usage will be decided dynamically.
 Keep R1 ints in memory in symmetry-blocked form, NReq=3467901.
 IVT=       35997 IEndB=       35997 NGot= 17179869184 MDV= 17179451308
 LenX= 17179451308 LenY= 17179446642
 Requested convergence on RMS density matrix=1.00D-08 within 128 cycles.
 Requested convergence on MAX density matrix=1.00D-06.
 Requested convergence on             energy=1.00D-06.
 No special actions if energy rises.
 FoFCou: FMM=F IPFlag=           0 FMFlag=           0 FMFlg1=           0
         NFxFlg=           0 DoJE=F BraDBF=F KetDBF=F FulRan=T
         wScrn=  0.000000 ICntrl=     600 IOpCl=  0 I1Cent=           0 NGrid=           0
         NMat0=    1 NMatS0=   1711 NMatT0=    0 NMatD0=    1 NMtDS0=    0 NMtDT0=    0
 Petite list used in FoFCou.
 Integral accuracy reduced to 1.0D-05 until final iterations.

 Cycle   1  Pass 0  IDiag  1:
 E= -76.4282109940239    
 DIIS: error= 2.78D-03 at cycle   1 NSaved=   1.
 NSaved= 1 IEnMin= 1 EnMin= -76.4282109940239     IErMin= 1 ErrMin= 2.78D-03
 ErrMax= 2.78D-03  0.00D+00 EMaxC= 1.00D-01 BMatC= 3.31D-04 BMatP= 3.31D-04
 IDIUse=3 WtCom= 9.72D-01 WtEn= 2.78D-02
 Coeff-Com:  0.100D+01
 Coeff-En:   0.100D+01
 Coeff:      0.100D+01
 Gap=     1.133 Goal=   None    Shift=    0.000
 GapD=    1.133 DampG=2.000 DampE=1.000 DampFc=2.0000 IDamp=-1.
 RMSDP=2.97D-04 MaxDP=3.90D-03              OVMax= 6.85D-03

 Cycle   2  Pass 0  IDiag  1:
 E= -76.4284444051466     Delta-E=       -0.000233411123 Rises=F Damp=F
 DIIS: error= 6.20D-04 at cycle   2 NSaved=   2.
 NSaved= 2 IEnMin= 2 EnMin= -76.4284444051466     IErMin= 2 ErrMin= 6.20D-04
 ErrMax= 6.20D-04  0.00D+00 EMaxC= 1.00D-01 BMatC= 9.86D-06 BMatP= 3.31D-04
 IDIUse=3 WtCom= 9.94D-01 WtEn= 6.20D-03
 Coeff-Com:  0.264D-01 0.974D+00
 Coeff-En:   0.000D+00 0.100D+01
 Coeff:      0.263D-01 0.974D+00
 Gap=     0.339 Goal=   None    Shift=    0.000
 RMSDP=6.41D-05 MaxDP=1.20D-03 DE=-2.33D-04 OVMax= 1.74D-03

 Cycle   3  Pass 0  IDiag  1:
 E= -76.4284409222503     Delta-E=        0.000003482896 Rises=F Damp=F
 DIIS: error= 8.27D-04 at cycle   3 NSaved=   3.
 NSaved= 3 IEnMin= 2 EnMin= -76.4284444051466     IErMin= 2 ErrMin= 6.20D-04
 ErrMax= 8.27D-04  0.00D+00 EMaxC= 1.00D-01 BMatC= 1.61D-05 BMatP= 9.86D-06
 IDIUse=3 WtCom= 2.58D-01 WtEn= 7.42D-01
 Coeff-Com: -0.108D-01 0.568D+00 0.442D+00
 Coeff-En:   0.000D+00 0.594D+00 0.406D+00
 Coeff:     -0.278D-02 0.587D+00 0.416D+00
 Gap=     0.341 Goal=   None    Shift=    0.000
 RMSDP=2.97D-05 MaxDP=5.94D-04 DE= 3.48D-06 OVMax= 8.77D-04

 Cycle   4  Pass 0  IDiag  1:
 E= -76.4284515889487     Delta-E=       -0.000010666698 Rises=F Damp=F
 DIIS: error= 1.94D-05 at cycle   4 NSaved=   4.
 NSaved= 4 IEnMin= 4 EnMin= -76.4284515889487     IErMin= 4 ErrMin= 1.94D-05
 ErrMax= 1.94D-05  0.00D+00 EMaxC= 1.00D-01 BMatC= 1.22D-08 BMatP= 9.86D-06
 IDIUse=1 WtCom= 1.00D+00 WtEn= 0.00D+00
 Coeff-Com: -0.211D-02-0.109D-02-0.156D-01 0.102D+01
 Coeff:     -0.211D-02-0.109D-02-0.156D-01 0.102D+01
 Gap=     0.341 Goal=   None    Shift=    0.000
 RMSDP=2.26D-06 MaxDP=3.61D-05 DE=-1.07D-05 OVMax= 6.05D-05

 Initial convergence to 1.0D-05 achieved.  Increase integral accuracy.
 Cycle   5  Pass 1  IDiag  1:
 E= -76.4282751284854     Delta-E=        0.000176460463 Rises=F Damp=F
 DIIS: error= 6.21D-04 at cycle   1 NSaved=   1.
 NSaved= 1 IEnMin= 1 EnMin= -76.4282751284854     IErMin= 1 ErrMin= 6.21D-04
 ErrMax= 6.21D-04  0.00D+00 EMaxC= 1.00D-01 BMatC= 1.40D-05 BMatP= 1.40D-05
 IDIUse=3 WtCom= 9.94D-01 WtEn= 6.21D-03
 Coeff-Com:  0.100D+01
 Coeff-En:   0.100D+01
 Coeff:      0.100D+01
 Gap=     0.341 Goal=   None    Shift=    0.000
 RMSDP=2.26D-06 MaxDP=3.61D-05 DE= 1.76D-04 OVMax= 5.97D-04

 Cycle   6  Pass 1  IDiag  1:
 E= -76.4282808699783     Delta-E=       -0.000005741493 Rises=F Damp=F
 DIIS: error= 3.29D-05 at cycle   2 NSaved=   2.
 NSaved= 2 IEnMin= 2 EnMin= -76.4282808699783     IErMin= 2 ErrMin= 3.29D-05
 ErrMax= 3.29D-05  0.00D+00 EMaxC= 1.00D-01 BMatC= 5.47D-08 BMatP= 1.40D-05
 IDIUse=1 WtCom= 1.00D+00 WtEn= 0.00D+00
 Coeff-Com: -0.175D-01 0.102D+01
 Coeff:     -0.175D-01 0.102D+01
 Gap=     0.341 Goal=   None    Shift=    0.000
 RMSDP=4.10D-06 MaxDP=7.31D-05 DE=-5.74D-06 OVMax= 1.14D-04

 Cycle   7  Pass 1  IDiag  1:
 E= -76.4282808919225     Delta-E=       -0.000000021944 Rises=F Damp=F
 DIIS: error= 2.94D-05 at cycle   3 NSaved=   3.
 NSaved= 3 IEnMin= 3 EnMin= -76.4282808919225     IErMin= 3 ErrMin= 2.94D-05
 ErrMax= 2.94D-05  0.00D+00 EMaxC= 1.00D-01 BMatC= 2.40D-08 BMatP= 5.47D-08
 IDIUse=1 WtCom= 1.00D+00 WtEn= 0.00D+00
 Coeff-Com: -0.945D-02 0.388D+00 0.622D+00
 Coeff:     -0.945D-02 0.388D+00 0.622D+00
 Gap=     0.341 Goal=   None    Shift=    0.000
 RMSDP=1.79D-06 MaxDP=3.09D-05 DE=-2.19D-08 OVMax= 5.39D-05

 Cycle   8  Pass 1  IDiag  1:
 E= -76.4282809040674     Delta-E=       -0.000000012145 Rises=F Damp=F
 DIIS: error= 1.59D-05 at cycle   4 NSaved=   4.
 NSaved= 4 IEnMin= 4 EnMin= -76.4282809040674     IErMin= 4 ErrMin= 1.59D-05
 ErrMax= 1.59D-05  0.00D+00 EMaxC= 1.00D-01 BMatC= 6.03D-09 BMatP= 2.40D-08
 IDIUse=1 WtCom= 1.00D+00 WtEn= 0.00D+00
 Coeff-Com: -0.322D-02 0.493D-01 0.335D+00 0.618D+00
 Coeff:     -0.322D-02 0.493D-01 0.335D+00 0.618D+00
 Gap=     0.341 Goal=   None    Shift=    0.000
 RMSDP=6.07D-07 MaxDP=1.34D-05 DE=-1.21D-08 OVMax= 1.80D-05

 Cycle   9  Pass 1  IDiag  1:
 E= -76.4282809079779     Delta-E=       -0.000000003911 Rises=F Damp=F
 DIIS: error= 1.16D-06 at cycle   5 NSaved=   5.
 NSaved= 5 IEnMin= 5 EnMin= -76.4282809079779     IErMin= 5 ErrMin= 1.16D-06
 ErrMax= 1.16D-06  0.00D+00 EMaxC= 1.00D-01 BMatC= 4.51D-11 BMatP= 6.03D-09
 IDIUse=1 WtCom= 1.00D+00 WtEn= 0.00D+00
 Coeff-Com: -0.424D-03-0.411D-02 0.527D-01 0.148D+00 0.804D+00
 Coeff:     -0.424D-03-0.411D-02 0.527D-01 0.148D+00 0.804D+00
 Gap=     0.341 Goal=   None    Shift=    0.000
 RMSDP=5.31D-08 MaxDP=7.72D-07 DE=-3.91D-09 OVMax= 1.70D-06

 Cycle  10  Pass 1  IDiag  1:
 E= -76.4282809080078     Delta-E=       -0.000000000030 Rises=F Damp=F
 DIIS: error= 7.24D-08 at cycle   6 NSaved=   6.
 NSaved= 6 IEnMin= 6 EnMin= -76.4282809080078     IErMin= 6 ErrMin= 7.24D-08
 ErrMax= 7.24D-08  0.00D+00 EMaxC= 1.00D-01 BMatC= 1.20D-13 BMatP= 4.51D-11
 IDIUse=1 WtCom= 1.00D+00 WtEn= 0.00D+00
 Coeff-Com:  0.247D-04 0.113D-03-0.528D-02-0.129D-01-0.174D-01 0.104D+01
 Coeff:      0.247D-04 0.113D-03-0.528D-02-0.129D-01-0.174D-01 0.104D+01
 Gap=     0.341 Goal=   None    Shift=    0.000
 RMSDP=7.15D-09 MaxDP=9.94D-08 DE=-2.99D-11 OVMax= 2.02D-07

 SCF Done:  E(RM06) =  -76.4282809080     A.U. after   10 cycles
            NFock= 10  Conv=0.72D-08     -V/T= 2.0019
 KE= 7.628122809737D+01 PE=-1.995295758535D+02 EE= 3.759093828554D+01
 Leave Link  502 at Fri Aug 27 00:03:56 2021, MaxMem= 17179869184 cpu:        33.9
 (Enter /public3/home/sc51754/softwares/g09e01/l701.exe)
 Compute integral first derivatives.
 ... and contract with generalized density number  0.
 Leave Link  701 at Fri Aug 27 00:03:57 2021, MaxMem= 17179869184 cpu:        58.0
 (Enter /public3/home/sc51754/softwares/g09e01/l702.exe)
 L702 exits ... SP integral derivatives will be done elsewhere.
 Leave Link  702 at Fri Aug 27 00:03:57 2021, MaxMem= 17179869184 cpu:         0.3
 (Enter /public3/home/sc51754/softwares/g09e01/l703.exe)
 Compute integral first derivatives, UseDBF=F ICtDFT=           0.
 Integral derivatives from FoFJK, PRISM(SPDF).
 Calling FoFJK, ICntrl=      2127 FMM=F ISym2X=1 I1Cent= 0 IOpClX= 0 NMat=1 NMatS=1 NMatT=0.
 FoFJK:  IHMeth= 1 ICntrl=    2127 DoSepK=F KAlg= 0 I1Cent=   0 FoldK=F
 IRaf=         0 NMat=   1 IRICut=       1 DoRegI=T DoRafI=F ISym2E= 1.
 FoFCou: FMM=F IPFlag=           0 FMFlag=      100000 FMFlg1=         800
         NFxFlg=           0 DoJE=F BraDBF=F KetDBF=F FulRan=T
         wScrn=  0.000000 ICntrl=    2127 IOpCl=  0 I1Cent=           0 NGrid=           0
         NMat0=    1 NMatS0=      1 NMatT0=    0 NMatD0=    1 NMtDS0=    0 NMtDT0=    0
 Petite list used in FoFCou.
 Leave Link  703 at Fri Aug 27 00:03:58 2021, MaxMem= 17179869184 cpu:        46.0
 (Enter /public3/home/sc51754/softwares/g09e01/l716.exe)
 Dipole        = 3.64103839D-17-8.88178420D-16-7.77431534D-01
 ***** Axes restored to original set *****
 -------------------------------------------------------------------
 Center     Atomic                   Forces (Hartrees/Bohr)
 Number     Number              X              Y              Z
 -------------------------------------------------------------------
      1        8          -0.001574467   -0.002227819    0.000000000
      2        1           0.001964934    0.000281593   -0.000000000
      3        1          -0.000390467    0.001946226   -0.000000000
 -------------------------------------------------------------------
 Cartesian Forces:  Max     0.002227819 RMS     0.001304805
 Leave Link  716 at Fri Aug 27 00:03:58 2021, MaxMem= 17179869184 cpu:         0.4
 (Enter /public3/home/sc51754/softwares/g09e01/l103.exe)

 GradGradGradGradGradGradGradGradGradGradGradGradGradGradGradGradGradGrad
 Berny optimization.
 Using GEDIIS/GDIIS optimizer.
 FormGI is forming the generalized inverse of G from B-inverse, IUseBI=4.
 Internal  Forces:  Max     0.001974071 RMS     0.001626294
 Search for a local minimum.
 Step number   2 out of a maximum of   20
 All quantities printed in internal units (Hartrees-Bohrs-Radians)
 RMS Force = .16263D-02 SwitMx=.10000D-02 MixMth= 1
 Mixed Optimization -- RFO/linear search
 Update second derivatives using D2CorX and points    1    2
 DE= -5.24D-04 DEPred=-5.30D-04 R= 9.90D-01
 TightC=F SS=  1.41D+00  RLast= 7.61D-02 DXNew= 5.0454D-01 2.2842D-01
 Trust test= 9.90D-01 RLast= 7.61D-02 DXMaxT set to 3.00D-01
 The second derivative matrix:
                          R1        R2        A1
           R1           0.58256
           R2           0.02783   0.58256
           A1           0.01756   0.01756   0.15016
 ITU=  1  0
 Use linear search instead of GDIIS.
     Eigenvalues ---    0.14882   0.55473   0.61172
 RFO step:  Lambda=-1.40491001D-05 EMin= 1.48823849D-01
 Quartic linear search produced a step of -0.01855.
 Iteration  1 RMS(Cart)=  0.00218560 RMS(Int)=  0.00000412
 Iteration  2 RMS(Cart)=  0.00000461 RMS(Int)=  0.00000000
 Iteration  3 RMS(Cart)=  0.00000000 RMS(Int)=  0.00000000
 ITry= 1 IFail=0 DXMaxC= 2.41D-03 DCOld= 1.00D+10 DXMaxT= 3.00D-01 DXLimC= 3.00D+00 Rises=F
 ClnCor:  largest displacement from symmetrization is 3.40D-15 for atom     3.
 Variable       Old X    -DE/DX   Delta X   Delta X   Delta X     New X
                                 (Linear)    (Quad)   (Total)
    R1        1.80183   0.00197   0.00023   0.00310   0.00333   1.80515
    R2        1.80183   0.00197   0.00023   0.00310   0.00333   1.80515
    A1        1.83651  -0.00037   0.00138  -0.00473  -0.00335   1.83316
         Item               Value     Threshold  Converged?
 Maximum Force            0.001974     0.000450     NO 
 RMS     Force            0.001626     0.000300     NO 
 Maximum Displacement     0.002407     0.001800     NO 
 RMS     Displacement     0.002186     0.001200     NO 
 Predicted change in Energy=-7.184214D-06
 Lowest energy point so far.  Saving SCF results.
 GradGradGradGradGradGradGradGradGradGradGradGradGradGradGradGradGradGrad

 Leave Link  103 at Fri Aug 27 00:03:58 2021, MaxMem= 17179869184 cpu:        16.2
 (Enter /public3/home/sc51754/softwares/g09e01/l202.exe)
                          Input orientation:                          
 ---------------------------------------------------------------------
 Center     Atomic      Atomic             Coordinates (Angstroms)
 Number     Number       Type             X           Y           Z
 ---------------------------------------------------------------------
      1          8           0        0.028810    0.780845    0.000000
      2          1           0        0.983331    0.818079   -0.000000
      3          1           0       -0.254717    1.693045    0.000000
 ---------------------------------------------------------------------
                    Distance matrix (angstroms):
                    1          2          3
     1  O    0.000000
     2  H    0.955247   0.000000
     3  H    0.955247   1.516024   0.000000
 Stoichiometry    H2O
 Framework group  C2V[C2(O),SGV(H2)]
 Deg. of freedom     2
 Full point group                 C2V     NOp   4
 RotChk:  IX=3 Diff= 3.14D-16
 Largest Abelian subgroup         C2V     NOp   4
 Largest concise Abelian subgroup C2      NOp   2
                         Standard orientation:                         
 ---------------------------------------------------------------------
 Center     Atomic      Atomic             Coordinates (Angstroms)
 Number     Number       Type             X           Y           Z
 ---------------------------------------------------------------------
      1          8           0        0.000000   -0.000000    0.116261
      2          1           0        0.000000   -0.758012   -0.465043
      3          1           0        0.000000    0.758012   -0.465043
 ---------------------------------------------------------------------
 Rotational constants (GHZ):    835.4901171    436.3651335    286.6511392
 Leave Link  202 at Fri Aug 27 00:03:59 2021, MaxMem= 17179869184 cpu:         5.9
 (Enter /public3/home/sc51754/softwares/g09e01/l301.exe)
 Basis read from rwf:  (5D, 7F)
 No pseudopotential information found on rwf file.
 There are    27 symmetry adapted cartesian basis functions of A1  symmetry.
 There are     7 symmetry adapted cartesian basis functions of A2  symmetry.
 There are    12 symmetry adapted cartesian basis functions of B1  symmetry.
 There are    19 symmetry adapted cartesian basis functions of B2  symmetry.
 There are    23 symmetry adapted basis functions of A1  symmetry.
 There are     7 symmetry adapted basis functions of A2  symmetry.
 There are    11 symmetry adapted basis functions of B1  symmetry.
 There are    17 symmetry adapted basis functions of B2  symmetry.
    58 basis functions,    91 primitive gaussians,    65 cartesian basis functions
     5 alpha electrons        5 beta electrons
       nuclear repulsion energy         9.2125639400 Hartrees.
 IExCor= 4235 DFT=T Ex+Corr=M06 ExCW=0 ScaHFX=  0.270000
 ScaDFX=  1.000000  1.000000  1.000000  1.000000 ScalE2=  1.000000  1.000000
 IRadAn=      0 IRanWt=     -1 IRanGd=            0 ICorTp=0 IEmpDi=  4
 NAtoms=    3 NActive=    3 NUniq=    2 SFac= 2.25D+00 NAtFMM=   60 NAOKFM=F Big=F
 Integral buffers will be    131072 words long.
 Raffenetti 2 integral format.
 Two-electron integral symmetry is turned on.
 No density basis found on file   724.
 Leave Link  301 at Fri Aug 27 00:03:59 2021, MaxMem= 17179869184 cpu:         1.0
 (Enter /public3/home/sc51754/softwares/g09e01/l302.exe)
 NPDir=0 NMtPBC=     1 NCelOv=     1 NCel=       1 NClECP=     1 NCelD=      1
         NCelK=      1 NCelE2=     1 NClLst=     1 CellRange=     0.0.
 One-electron integrals computed using PRISM.
 One-electron integral symmetry used in STVInt
 NBasis=    58 RedAO= T EigKep=  5.74D-03  NBF=    23     7    11    17
 NBsUse=    58 1.00D-06 EigRej= -1.00D+00 NBFU=    23     7    11    17
 Precomputing XC quadrature grid using
 IXCGrd= 4 IRadAn=           0 IRanWt=          -1 IRanGd=           0 AccXCQ= 0.00D+00.
 Generated NRdTot=       0 NPtTot=           0 NUsed=           0 NTot=          32
 NSgBfM=    65    65    65    65    65 MxSgAt=     3 MxSgA2=     3.
 Leave Link  302 at Fri Aug 27 00:04:00 2021, MaxMem= 17179869184 cpu:        53.6
 (Enter /public3/home/sc51754/softwares/g09e01/l303.exe)
 DipDrv:  MaxL=1.
 Leave Link  303 at Fri Aug 27 00:04:00 2021, MaxMem= 17179869184 cpu:        17.9
 (Enter /public3/home/sc51754/softwares/g09e01/l401.exe)
 Initial guess from the checkpoint file:  "H2O_M06_PC2_OPT_FREQ.chk"
 B after Tr=     0.000000   -0.000000   -0.000000
         Rot=    1.000000    0.000000   -0.000000   -0.000000 Ang=   0.00 deg.
 Guess basis will be translated and rotated to current coordinates.
 JPrj=2 DoOrth=T DoCkMO=T.
 Initial guess orbital symmetries:
       Occupied  (A1) (A1) (B2) (A1) (B1)
       Virtual   (A1) (A1) (A1) (A1) (A1) (A1) (A1) (A1) (A1) (A1)
                 (A1) (A1) (A1) (A1) (A1) (A1) (A1) (A1) (A1) (A1)
                 (A2) (A2) (A2) (A2) (A2) (A2) (A2) (B1) (B1) (B1)
                 (B1) (B1) (B1) (B1) (B1) (B1) (B1) (B2) (B2) (B2)
                 (B2) (B2) (B2) (B2) (B2) (B2) (B2) (B2) (B2) (B2)
                 (B2) (B2) (B2)
 The electronic state of the initial guess is 1-A1.
 Leave Link  401 at Fri Aug 27 00:04:01 2021, MaxMem= 17179869184 cpu:        39.6
 (Enter /public3/home/sc51754/softwares/g09e01/l502.exe)
 Closed shell SCF:
 Using DIIS extrapolation, IDIIS=  1040.
 Integral symmetry usage will be decided dynamically.
 Keep R1 ints in memory in symmetry-blocked form, NReq=3467901.
 IVT=       35997 IEndB=       35997 NGot= 17179869184 MDV= 17179451308
 LenX= 17179451308 LenY= 17179446642
 Requested convergence on RMS density matrix=1.00D-08 within 128 cycles.
 Requested convergence on MAX density matrix=1.00D-06.
 Requested convergence on             energy=1.00D-06.
 No special actions if energy rises.
 FoFCou: FMM=F IPFlag=           0 FMFlag=           0 FMFlg1=           0
         NFxFlg=           0 DoJE=F BraDBF=F KetDBF=F FulRan=T
         wScrn=  0.000000 ICntrl=     600 IOpCl=  0 I1Cent=           0 NGrid=           0
         NMat0=    1 NMatS0=   1711 NMatT0=    0 NMatD0=    1 NMtDS0=    0 NMtDT0=    0
 Petite list used in FoFCou.

 Cycle   1  Pass 1  IDiag  1:
 E= -76.4282863295188    
 DIIS: error= 4.15D-04 at cycle   1 NSaved=   1.
 NSaved= 1 IEnMin= 1 EnMin= -76.4282863295188     IErMin= 1 ErrMin= 4.15D-04
 ErrMax= 4.15D-04  0.00D+00 EMaxC= 1.00D-01 BMatC= 3.74D-06 BMatP= 3.74D-06
 IDIUse=3 WtCom= 9.96D-01 WtEn= 4.15D-03
 Coeff-Com:  0.100D+01
 Coeff-En:   0.100D+01
 Coeff:      0.100D+01
 Gap=     1.128 Goal=   None    Shift=    0.000
 RMSDP=3.01D-05 MaxDP=4.67D-04              OVMax= 7.17D-04

 Cycle   2  Pass 1  IDiag  1:
 E= -76.4282885508972     Delta-E=       -0.000002221378 Rises=F Damp=F
 DIIS: error= 1.59D-04 at cycle   2 NSaved=   2.
 NSaved= 2 IEnMin= 2 EnMin= -76.4282885508972     IErMin= 2 ErrMin= 1.59D-04
 ErrMax= 1.59D-04  0.00D+00 EMaxC= 1.00D-01 BMatC= 5.73D-07 BMatP= 3.74D-06
 IDIUse=3 WtCom= 9.98D-01 WtEn= 1.59D-03
 Coeff-Com:  0.177D+00 0.823D+00
 Coeff-En:   0.000D+00 0.100D+01
 Coeff:      0.176D+00 0.824D+00
 Gap=     0.340 Goal=   None    Shift=    0.000
 RMSDP=1.11D-05 MaxDP=2.52D-04 DE=-2.22D-06 OVMax= 3.22D-04

 Cycle   3  Pass 1  IDiag  1:
 E= -76.4282885913443     Delta-E=       -0.000000040447 Rises=F Damp=F
 DIIS: error= 1.45D-04 at cycle   3 NSaved=   3.
 NSaved= 3 IEnMin= 3 EnMin= -76.4282885913443     IErMin= 3 ErrMin= 1.45D-04
 ErrMax= 1.45D-04  0.00D+00 EMaxC= 1.00D-01 BMatC= 5.06D-07 BMatP= 5.73D-07
 IDIUse=3 WtCom= 9.99D-01 WtEn= 1.45D-03
 Coeff-Com: -0.482D-02 0.485D+00 0.520D+00
 Coeff-En:   0.000D+00 0.474D+00 0.526D+00
 Coeff:     -0.481D-02 0.485D+00 0.520D+00
 Gap=     0.340 Goal=   None    Shift=    0.000
 RMSDP=5.72D-06 MaxDP=1.06D-04 DE=-4.04D-08 OVMax= 1.72D-04

 Cycle   4  Pass 1  IDiag  1:
 E= -76.4282889247329     Delta-E=       -0.000000333389 Rises=F Damp=F
 DIIS: error= 1.07D-05 at cycle   4 NSaved=   4.
 NSaved= 4 IEnMin= 4 EnMin= -76.4282889247329     IErMin= 4 ErrMin= 1.07D-05
 ErrMax= 1.07D-05  0.00D+00 EMaxC= 1.00D-01 BMatC= 3.13D-09 BMatP= 5.06D-07
 IDIUse=1 WtCom= 1.00D+00 WtEn= 0.00D+00
 Coeff-Com: -0.671D-02 0.954D-01 0.143D+00 0.768D+00
 Coeff:     -0.671D-02 0.954D-01 0.143D+00 0.768D+00
 Gap=     0.340 Goal=   None    Shift=    0.000
 RMSDP=4.69D-07 MaxDP=5.72D-06 DE=-3.33D-07 OVMax= 1.55D-05

 Cycle   5  Pass 1  IDiag  1:
 E= -76.4282889269639     Delta-E=       -0.000000002231 Rises=F Damp=F
 DIIS: error= 9.95D-07 at cycle   5 NSaved=   5.
 NSaved= 5 IEnMin= 5 EnMin= -76.4282889269639     IErMin= 5 ErrMin= 9.95D-07
 ErrMax= 9.95D-07  0.00D+00 EMaxC= 1.00D-01 BMatC= 2.30D-11 BMatP= 3.13D-09
 IDIUse=1 WtCom= 1.00D+00 WtEn= 0.00D+00
 Coeff-Com:  0.142D-03-0.111D-01-0.884D-02 0.388D-01 0.981D+00
 Coeff:      0.142D-03-0.111D-01-0.884D-02 0.388D-01 0.981D+00
 Gap=     0.340 Goal=   None    Shift=    0.000
 RMSDP=9.68D-08 MaxDP=1.80D-06 DE=-2.23D-09 OVMax= 2.88D-06

 Cycle   6  Pass 1  IDiag  1:
 E= -76.4282889269833     Delta-E=       -0.000000000019 Rises=F Damp=F
 DIIS: error= 6.69D-08 at cycle   6 NSaved=   6.
 NSaved= 6 IEnMin= 6 EnMin= -76.4282889269833     IErMin= 6 ErrMin= 6.69D-08
 ErrMax= 6.69D-08  0.00D+00 EMaxC= 1.00D-01 BMatC= 1.77D-13 BMatP= 2.30D-11
 IDIUse=1 WtCom= 1.00D+00 WtEn= 0.00D+00
 Coeff-Com:  0.108D-03-0.120D-02-0.142D-02-0.769D-02-0.354D-01 0.105D+01
 Coeff:      0.108D-03-0.120D-02-0.142D-02-0.769D-02-0.354D-01 0.105D+01
 Gap=     0.340 Goal=   None    Shift=    0.000
 RMSDP=9.58D-09 MaxDP=1.02D-07 DE=-1.94D-11 OVMax= 3.64D-07

 SCF Done:  E(RM06) =  -76.4282889270     A.U. after    6 cycles
            NFock=  6  Conv=0.96D-08     -V/T= 2.0020
 KE= 7.627533851350D+01 PE=-1.994940272742D+02 EE= 3.757783589373D+01
 Leave Link  502 at Fri Aug 27 00:04:02 2021, MaxMem= 17179869184 cpu:        26.9
 (Enter /public3/home/sc51754/softwares/g09e01/l701.exe)
 Compute integral first derivatives.
 ... and contract with generalized density number  0.
 Leave Link  701 at Fri Aug 27 00:04:03 2021, MaxMem= 17179869184 cpu:        59.0
 (Enter /public3/home/sc51754/softwares/g09e01/l702.exe)
 L702 exits ... SP integral derivatives will be done elsewhere.
 Leave Link  702 at Fri Aug 27 00:04:03 2021, MaxMem= 17179869184 cpu:         0.3
 (Enter /public3/home/sc51754/softwares/g09e01/l703.exe)
 Compute integral first derivatives, UseDBF=F ICtDFT=           0.
 Integral derivatives from FoFJK, PRISM(SPDF).
 Calling FoFJK, ICntrl=      2127 FMM=F ISym2X=1 I1Cent= 0 IOpClX= 0 NMat=1 NMatS=1 NMatT=0.
 FoFJK:  IHMeth= 1 ICntrl=    2127 DoSepK=F KAlg= 0 I1Cent=   0 FoldK=F
 IRaf=         0 NMat=   1 IRICut=       1 DoRegI=T DoRafI=F ISym2E= 1.
 FoFCou: FMM=F IPFlag=           0 FMFlag=      100000 FMFlg1=         800
         NFxFlg=           0 DoJE=F BraDBF=F KetDBF=F FulRan=T
         wScrn=  0.000000 ICntrl=    2127 IOpCl=  0 I1Cent=           0 NGrid=           0
         NMat0=    1 NMatS0=      1 NMatT0=    0 NMatD0=    1 NMtDS0=    0 NMtDT0=    0
 Petite list used in FoFCou.
 Leave Link  703 at Fri Aug 27 00:04:04 2021, MaxMem= 17179869184 cpu:        33.2
 (Enter /public3/home/sc51754/softwares/g09e01/l716.exe)
 Dipole        = 3.66076529D-17-6.66133815D-16-7.79027026D-01
 ***** Axes restored to original set *****
 -------------------------------------------------------------------
 Center     Atomic                   Forces (Hartrees/Bohr)
 Number     Number              X              Y              Z
 -------------------------------------------------------------------
      1        8          -0.000185033   -0.000261816    0.000000000
      2        1           0.000220318    0.000040587   -0.000000000
      3        1          -0.000035285    0.000221229   -0.000000000
 -------------------------------------------------------------------
 Cartesian Forces:  Max     0.000261816 RMS     0.000150244
 Leave Link  716 at Fri Aug 27 00:04:04 2021, MaxMem= 17179869184 cpu:         0.3
 (Enter /public3/home/sc51754/softwares/g09e01/l103.exe)

 GradGradGradGradGradGradGradGradGradGradGradGradGradGradGradGradGradGrad
 Berny optimization.
 Using GEDIIS/GDIIS optimizer.
 FormGI is forming the generalized inverse of G from B-inverse, IUseBI=4.
 Internal  Forces:  Max     0.000221733 RMS     0.000184084
 Search for a local minimum.
 Step number   3 out of a maximum of   20
 All quantities printed in internal units (Hartrees-Bohrs-Radians)
 RMS Force = .18408D-03 SwitMx=.10000D-02 MixMth= 2
 Mixed Optimization -- En-DIIS/RFO-DIIS
 Update second derivatives using D2CorX and points    1    2    3
 DE= -8.02D-06 DEPred=-7.18D-06 R= 1.12D+00
 TightC=F SS=  1.41D+00  RLast= 5.78D-03 DXNew= 5.0454D-01 1.7329D-02
 Trust test= 1.12D+00 RLast= 5.78D-03 DXMaxT set to 3.00D-01
 The second derivative matrix:
                          R1        R2        A1
           R1           0.55402
           R2          -0.00071   0.55402
           A1           0.02650   0.02650   0.14735
 ITU=  1  1  0
 Use linear search instead of GDIIS.
     Eigenvalues ---    0.14391   0.55473   0.55674
 RFO step:  Lambda= 0.00000000D+00 EMin= 1.43914940D-01
 Quartic linear search produced a step of  0.13201.
 Iteration  1 RMS(Cart)=  0.00031139 RMS(Int)=  0.00000009
 Iteration  2 RMS(Cart)=  0.00000011 RMS(Int)=  0.00000000
 ITry= 1 IFail=0 DXMaxC= 3.58D-04 DCOld= 1.00D+10 DXMaxT= 3.00D-01 DXLimC= 3.00D+00 Rises=F
 ClnCor:  largest displacement from symmetrization is 1.96D-15 for atom     1.
 Variable       Old X    -DE/DX   Delta X   Delta X   Delta X     New X
                                 (Linear)    (Quad)   (Total)
    R1        1.80515   0.00022   0.00044  -0.00001   0.00043   1.80558
    R2        1.80515   0.00022   0.00044  -0.00001   0.00043   1.80558
    A1        1.83316  -0.00006  -0.00044  -0.00011  -0.00055   1.83261
         Item               Value     Threshold  Converged?
 Maximum Force            0.000222     0.000450     YES
 RMS     Force            0.000184     0.000300     YES
 Maximum Displacement     0.000358     0.001800     YES
 RMS     Displacement     0.000311     0.001200     YES
 Predicted change in Energy=-1.103691D-07
 Optimization completed.
    -- Stationary point found.
                           ----------------------------
                           !   Optimized Parameters   !
                           ! (Angstroms and Degrees)  !
 --------------------------                            --------------------------
 ! Name  Definition              Value          Derivative Info.                !
 --------------------------------------------------------------------------------
 ! R1    R(1,2)                  0.9552         -DE/DX =    0.0002              !
 ! R2    R(1,3)                  0.9552         -DE/DX =    0.0002              !
 ! A1    A(2,1,3)              105.0323         -DE/DX =   -0.0001              !
 --------------------------------------------------------------------------------
 Lowest energy point so far.  Saving SCF results.
 GradGradGradGradGradGradGradGradGradGradGradGradGradGradGradGradGradGrad

 Largest change from initial coordinates is atom    3       0.034 Angstoms.
 Leave Link  103 at Fri Aug 27 00:04:04 2021, MaxMem= 17179869184 cpu:        18.4
 (Enter /public3/home/sc51754/softwares/g09e01/l202.exe)
                          Input orientation:                          
 ---------------------------------------------------------------------
 Center     Atomic      Atomic             Coordinates (Angstroms)
 Number     Number       Type             X           Y           Z
 ---------------------------------------------------------------------
      1          8           0        0.028810    0.780845    0.000000
      2          1           0        0.983331    0.818079   -0.000000
      3          1           0       -0.254717    1.693045    0.000000
 ---------------------------------------------------------------------
                    Distance matrix (angstroms):
                    1          2          3
     1  O    0.000000
     2  H    0.955247   0.000000
     3  H    0.955247   1.516024   0.000000
 Stoichiometry    H2O
 Framework group  C2V[C2(O),SGV(H2)]
 Deg. of freedom     2
 Full point group                 C2V     NOp   4
 RotChk:  IX=3 Diff= 1.58D-15
 Largest Abelian subgroup         C2V     NOp   4
 Largest concise Abelian subgroup C2      NOp   2
                         Standard orientation:                         
 ---------------------------------------------------------------------
 Center     Atomic      Atomic             Coordinates (Angstroms)
 Number     Number       Type             X           Y           Z
 ---------------------------------------------------------------------
      1          8           0        0.000000   -0.000000    0.116261
      2          1           0       -0.000000   -0.758012   -0.465043
      3          1           0        0.000000    0.758012   -0.465043
 ---------------------------------------------------------------------
 Rotational constants (GHZ):    835.4901171    436.3651335    286.6511392
 Leave Link  202 at Fri Aug 27 00:04:04 2021, MaxMem= 17179869184 cpu:         6.1
 (Enter /public3/home/sc51754/softwares/g09e01/l601.exe)
 Copying SCF densities to generalized density rwf, IOpCl= 0 IROHF=0.

 **********************************************************************

            Population analysis using the SCF density.

 **********************************************************************

 Orbital symmetries:
       Occupied  (A1) (A1) (B2) (A1) (B1)
       Virtual   (A1) (B2) (B2) (A1) (A1) (B1) (B2) (A1) (A2) (A1)
                 (B1) (B2) (B2) (A1) (A1) (B2) (B1) (A2) (A1) (A1)
                 (B2) (B1) (A1) (B1) (B2) (A1) (A2) (B2) (B1) (B2)
                 (A1) (A2) (A1) (B2) (B1) (A2) (A1) (B2) (B2) (A1)
                 (B1) (A1) (B1) (B2) (A2) (A1) (B1) (A2) (A1) (A1)
                 (B2) (B2) (A1)
 The electronic state is 1-A1.
 Alpha  occ. eigenvalues --  -19.20290  -1.03894  -0.54607  -0.40479  -0.33080
 Alpha virt. eigenvalues --    0.00948   0.03959   0.27606   0.28462   0.33808
 Alpha virt. eigenvalues --    0.35757   0.44359   0.66696   0.75725   0.77494
 Alpha virt. eigenvalues --    0.85790   1.01947   1.14796   1.20451   1.41642
 Alpha virt. eigenvalues --    1.42723   1.77221   1.83525   1.86516   2.06536
 Alpha virt. eigenvalues --    2.11381   2.32267   2.90460   3.37163   3.38159
 Alpha virt. eigenvalues --    3.50858   3.55523   3.69186   3.78065   3.83336
 Alpha virt. eigenvalues --    3.98481   4.03274   4.26294   4.36738   4.43854
 Alpha virt. eigenvalues --    4.47108   4.62296   4.80062   4.85885   4.92364
 Alpha virt. eigenvalues --    4.96192   5.60526   5.90461   5.95934   6.14886
 Alpha virt. eigenvalues --    6.25221   6.28752   6.33946   6.40631   6.87978
 Alpha virt. eigenvalues --    6.93804   7.38826  15.05191
          Condensed to atoms (all electrons):
               1          2          3
     1  O    7.724362   0.352065   0.352065
     2  H    0.352065   0.454894  -0.021205
     3  H    0.352065  -0.021205   0.454894
 Mulliken charges:
               1
     1  O   -0.428492
     2  H    0.214246
     3  H    0.214246
 Sum of Mulliken charges =   0.00000
 Mulliken charges with hydrogens summed into heavy atoms:
               1
     1  O    0.000000
 Electronic spatial extent (au):  <R**2>=             19.4901
 Charge=              0.0000 electrons
 Dipole moment (field-independent basis, Debye):
    X=              0.0000    Y=             -0.0000    Z=             -1.9801  Tot=              1.9801
 Quadrupole moment (field-independent basis, Debye-Ang):
   XX=             -7.5098   YY=             -4.3050   ZZ=             -6.2834
   XY=              0.0000   XZ=             -0.0000   YZ=              0.0000
 Traceless Quadrupole moment (field-independent basis, Debye-Ang):
   XX=             -1.4771   YY=              1.7277   ZZ=             -0.2506
   XY=              0.0000   XZ=             -0.0000   YZ=              0.0000
 Octapole moment (field-independent basis, Debye-Ang**2):
  XXX=             -0.0000  YYY=             -0.0000  ZZZ=             -1.2424  XYY=              0.0000
  XXY=              0.0000  XXZ=             -0.3309  XZZ=             -0.0000  YZZ=             -0.0000
  YYZ=             -1.3140  XYZ=             -0.0000
 Hexadecapole moment (field-independent basis, Debye-Ang**3):
 XXXX=             -6.6097 YYYY=             -6.0684 ZZZZ=             -7.1854 XXXY=             -0.0000
 XXXZ=              0.0000 YYYX=             -0.0000 YYYZ=              0.0000 ZZZX=              0.0000
 ZZZY=              0.0000 XXYY=             -2.4166 XXZZ=             -2.3495 YYZZ=             -1.9032
 XXYZ=             -0.0000 YYXZ=             -0.0000 ZZXY=             -0.0000
 N-N= 9.212563939963D+00 E-N=-1.994940285400D+02  KE= 7.627533851350D+01
 Symmetry A1   KE= 6.800809050575D+01
 Symmetry A2   KE=-1.789323066817D-21
 Symmetry B1   KE= 4.560213620787D+00
 Symmetry B2   KE= 3.707034386959D+00
 No NMR shielding tensors so no spin-rotation constants.
 Leave Link  601 at Fri Aug 27 00:04:06 2021, MaxMem= 17179869184 cpu:        73.8
 (Enter /public3/home/sc51754/softwares/g09e01/l9999.exe)
 1\1\GINC-P2607\FOpt\RM06\Gen\H2O1\SC51754\27-Aug-2021\0\\#p opt freq M
 06/gen\\H2O_M06_PC2_OPT_FREQ\\0,1\O,0.0288101219,0.7808452381,0.\H,0.9
 833307384,0.8180790656,0.\H,-0.2547172424,1.6930448868,0.\\Version=EM6
 4L-G09RevE.01\State=1-A1\HF=-76.4282889\RMSD=9.576e-09\RMSF=1.502e-04\
 Dipole=0.4496117,0.6361858,0.\Quadrupole=0.7945678,0.3035909,-1.098158
 7,-0.693238,0.,0.\PG=C02V [C2(O1),SGV(H2)]\\@


 ASKING FOR EFFICIENCY AND ADAPTABILITY IN THE SAME PROGRAM IS LIKE
 ASKING FOR A BEAUTIFUL AND MODEST WIFE ...
 WE'LL PROBABLY HAVE TO SETTLE FOR ONE OR THE OTHER.

             -- THE PSYCHOLOGY OF COMPUTER PROGRAMMING
                GERALD M. WEINBERG
 Leave Link 9999 at Fri Aug 27 00:04:06 2021, MaxMem= 17179869184 cpu:         0.9
 Job cpu time:       0 days  0 hours 18 minutes 44.4 seconds.
 File lengths (MBytes):  RWF=      5 Int=      0 D2E=      0 Chk=      1 Scr=      1
 Normal termination of Gaussian 09 at Fri Aug 27 00:04:06 2021.
 (Enter /public3/home/sc51754/softwares/g09e01/l1.exe)
 Link1:  Proceeding to internal job step number  2.
 ----------------------------------------------------------------
 #P Geom=AllCheck Guess=TCheck SCRF=Check GenChk RM06/ChkBas Freq
 ----------------------------------------------------------------
 1/10=4,29=7,30=1,38=1,40=1/1,3;
 2/12=2,40=1/2;
 3/5=7,6=2,11=2,14=-4,16=1,25=1,30=1,67=1,70=2,71=2,74=-54,82=7,116=1,140=1/1,2,3;
 4/5=101/1;
 5/5=2,38=6,98=1/2;
 8/6=4,10=90,11=11/1;
 11/6=1,8=1,9=11,15=111,16=1/1,2,10;
 10/6=1/2;
 6/7=2,8=2,9=2,10=2,18=1,28=1/1;
 7/8=1,10=1,25=1/1,2,3,16;
 1/10=4,30=1/3;
 99//99;
 Leave Link    1 at Fri Aug 27 00:04:06 2021, MaxMem= 17179869184 cpu:         2.4
 (Enter /public3/home/sc51754/softwares/g09e01/l101.exe)
 Structure from the checkpoint file:  "H2O_M06_PC2_OPT_FREQ.chk"
 --------------------
 H2O_M06_PC2_OPT_FREQ
 --------------------
 Charge =  0 Multiplicity = 1
 Redundant internal coordinates found in file.
 O,0,0.0288101219,0.7808452381,0.
 H,0,0.9833307384,0.8180790656,0.
 H,0,-0.2547172424,1.6930448868,0.
 Recover connectivity data from disk.
 NAtoms=      3 NQM=        3 NQMF=       0 NMMI=      0 NMMIF=      0
                NMic=       0 NMicF=      0.
                    Isotopes and Nuclear Properties:
 (Nuclear quadrupole moments (NQMom) in fm**2, nuclear magnetic moments (NMagM)
  in nuclear magnetons)

  Atom         1           2           3
 IAtWgt=          16           1           1
 AtmWgt=  15.9949146   1.0078250   1.0078250
 NucSpn=           0           1           1
 AtZEff=  -5.6000000  -1.0000000  -1.0000000
 NQMom=    0.0000000   0.0000000   0.0000000
 NMagM=    0.0000000   2.7928460   2.7928460
 AtZNuc=   8.0000000   1.0000000   1.0000000
 Leave Link  101 at Fri Aug 27 00:04:06 2021, MaxMem= 17179869184 cpu:         6.6
 (Enter /public3/home/sc51754/softwares/g09e01/l103.exe)

 GradGradGradGradGradGradGradGradGradGradGradGradGradGradGradGradGradGrad
 Berny optimization.
 Initialization pass.
                           ----------------------------
                           !    Initial Parameters    !
                           ! (Angstroms and Degrees)  !
 --------------------------                            --------------------------
 ! Name  Definition              Value          Derivative Info.                !
 --------------------------------------------------------------------------------
 ! R1    R(1,2)                  0.9552         calculate D2E/DX2 analytically  !
 ! R2    R(1,3)                  0.9552         calculate D2E/DX2 analytically  !
 ! A1    A(2,1,3)              105.0323         calculate D2E/DX2 analytically  !
 --------------------------------------------------------------------------------
 Trust Radius=3.00D-01 FncErr=1.00D-07 GrdErr=1.00D-07
 Number of steps in this run=      2 maximum allowed number of steps=      2.
 GradGradGradGradGradGradGradGradGradGradGradGradGradGradGradGradGradGrad

 Leave Link  103 at Fri Aug 27 00:04:06 2021, MaxMem= 17179869184 cpu:         0.2
 (Enter /public3/home/sc51754/softwares/g09e01/l202.exe)
                          Input orientation:                          
 ---------------------------------------------------------------------
 Center     Atomic      Atomic             Coordinates (Angstroms)
 Number     Number       Type             X           Y           Z
 ---------------------------------------------------------------------
      1          8           0        0.028810    0.780845    0.000000
      2          1           0        0.983331    0.818079   -0.000000
      3          1           0       -0.254717    1.693045    0.000000
 ---------------------------------------------------------------------
                    Distance matrix (angstroms):
                    1          2          3
     1  O    0.000000
     2  H    0.955247   0.000000
     3  H    0.955247   1.516024   0.000000
 Stoichiometry    H2O
 Framework group  C2V[C2(O),SGV(H2)]
 Deg. of freedom     2
 Full point group                 C2V     NOp   4
 RotChk:  IX=3 Diff= 1.14D-15
 Largest Abelian subgroup         C2V     NOp   4
 Largest concise Abelian subgroup C2      NOp   2
[...]
      9 vectors produced by pass  4 Test12= 2.94D-15 1.11D-08 XBig12= 8.09D-08 1.33D-04.
      9 vectors produced by pass  5 Test12= 2.94D-15 1.11D-08 XBig12= 1.96D-10 5.48D-06.
      3 vectors produced by pass  6 Test12= 2.94D-15 1.11D-08 XBig12= 1.94D-13 1.43D-07.
 InvSVY:  IOpt=1 It=  1 EMax= 2.22D-16
 Solved reduced A of dimension    57 with     9 vectors.
 FullF1:  Do perturbations    1 to     9.
 Isotropic polarizability for W=    0.000000        7.28 Bohr**3.
 End of Minotr F.D. properties file   721 does not exist.
 End of Minotr F.D. properties file   722 does not exist.
 End of Minotr F.D. properties file   788 does not exist.
 Leave Link 1002 at Fri Aug 27 00:04:13 2021, MaxMem= 17179869184 cpu:        62.0
 (Enter /public3/home/sc51754/softwares/g09e01/l601.exe)
 Copying SCF densities to generalized density rwf, IOpCl= 0 IROHF=0.

 **********************************************************************

            Population analysis using the SCF density.

 **********************************************************************

 Orbital symmetries:
       Occupied  (A1) (A1) (B2) (A1) (B1)
       Virtual   (A1) (B2) (B2) (A1) (A1) (B1) (B2) (A1) (A2) (A1)
                 (B1) (B2) (B2) (A1) (A1) (B2) (B1) (A2) (A1) (A1)
                 (B2) (B1) (A1) (B1) (B2) (A1) (A2) (B2) (B1) (B2)
                 (A1) (A2) (A1) (B2) (B1) (A2) (A1) (B2) (B2) (A1)
                 (B1) (A1) (B1) (B2) (A2) (A1) (B1) (A2) (A1) (A1)
                 (B2) (B2) (A1)
 The electronic state is 1-A1.
 Alpha  occ. eigenvalues --  -19.20290  -1.03894  -0.54607  -0.40479  -0.33080
 Alpha virt. eigenvalues --    0.00948   0.03959   0.27606   0.28462   0.33808
 Alpha virt. eigenvalues --    0.35757   0.44359   0.66696   0.75725   0.77494
 Alpha virt. eigenvalues --    0.85790   1.01947   1.14796   1.20451   1.41642
 Alpha virt. eigenvalues --    1.42723   1.77221   1.83525   1.86516   2.06536
 Alpha virt. eigenvalues --    2.11381   2.32267   2.90460   3.37163   3.38159
 Alpha virt. eigenvalues --    3.50858   3.55523   3.69186   3.78065   3.83336
 Alpha virt. eigenvalues --    3.98481   4.03274   4.26294   4.36738   4.43854
 Alpha virt. eigenvalues --    4.47108   4.62296   4.80062   4.85885   4.92364
 Alpha virt. eigenvalues --    4.96192   5.60526   5.90461   5.95934   6.14886
 Alpha virt. eigenvalues --    6.25221   6.28752   6.33946   6.40631   6.87978
 Alpha virt. eigenvalues --    6.93804   7.38826  15.05191
          Condensed to atoms (all electrons):
               1          2          3
     1  O    7.724362   0.352065   0.352065
     2  H    0.352065   0.454894  -0.021205
     3  H    0.352065  -0.021205   0.454894
 Mulliken charges:
               1
     1  O   -0.428492
     2  H    0.214246
     3  H    0.214246
 Sum of Mulliken charges =   0.00000
 Mulliken charges with hydrogens summed into heavy atoms:
               1
     1  O    0.000000
 APT charges:
               1
     1  O   -0.543305
     2  H    0.271652
     3  H    0.271652
 Sum of APT charges =  -0.00000
 APT charges with hydrogens summed into heavy atoms:
               1
     1  O   -0.000000
 Electronic spatial extent (au):  <R**2>=             19.4901
 Charge=              0.0000 electrons
 Dipole moment (field-independent basis, Debye):
    X=              0.0000    Y=             -0.0000    Z=             -1.9801  Tot=              1.9801
 Quadrupole moment (field-independent basis, Debye-Ang):
   XX=             -7.5098   YY=             -4.3050   ZZ=             -6.2834
   XY=              0.0000   XZ=             -0.0000   YZ=              0.0000
 Traceless Quadrupole moment (field-independent basis, Debye-Ang):
   XX=             -1.4771   YY=              1.7277   ZZ=             -0.2506
   XY=              0.0000   XZ=             -0.0000   YZ=              0.0000
 Octapole moment (field-independent basis, Debye-Ang**2):
  XXX=             -0.0000  YYY=             -0.0000  ZZZ=             -1.2424  XYY=              0.0000
  XXY=              0.0000  XXZ=             -0.3309  XZZ=             -0.0000  YZZ=             -0.0000
  YYZ=             -1.3140  XYZ=             -0.0000
 Hexadecapole moment (field-independent basis, Debye-Ang**3):
 XXXX=             -6.6097 YYYY=             -6.0684 ZZZZ=             -7.1854 XXXY=             -0.0000
 XXXZ=              0.0000 YYYX=             -0.0000 YYYZ=              0.0000 ZZZX=              0.0000
 ZZZY=             -0.0000 XXYY=             -2.4166 XXZZ=             -2.3495 YYZZ=             -1.9032
 XXYZ=             -0.0000 YYXZ=             -0.0000 ZZXY=             -0.0000
 N-N= 9.212563939963D+00 E-N=-1.994940286098D+02  KE= 7.627533854509D+01
 Symmetry A1   KE= 6.800809045718D+01
 Symmetry A2   KE= 1.933409707731D-20
 Symmetry B1   KE= 4.560213642339D+00
 Symmetry B2   KE= 3.707034445573D+00
  Exact polarizability:   6.246   0.000   8.353   0.000   0.000   7.252
 Approx polarizability:   6.588   0.000  10.230  -0.000   0.000   8.633
 No NMR shielding tensors so no spin-rotation constants.
 Leave Link  601 at Fri Aug 27 00:04:15 2021, MaxMem= 17179869184 cpu:        73.6
 (Enter /public3/home/sc51754/softwares/g09e01/l701.exe)
 Compute integral second derivatives.
 ... and contract with generalized density number  0.
 Leave Link  701 at Fri Aug 27 00:04:16 2021, MaxMem= 17179869184 cpu:        63.3
 (Enter /public3/home/sc51754/softwares/g09e01/l702.exe)
 L702 exits ... SP integral derivatives will be done elsewhere.
 Leave Link  702 at Fri Aug 27 00:04:16 2021, MaxMem= 17179869184 cpu:         0.3
 (Enter /public3/home/sc51754/softwares/g09e01/l703.exe)
 Compute integral second derivatives, UseDBF=F ICtDFT=           0.
 Integral derivatives from FoFJK, PRISM(SPDF).
 Calling FoFJK, ICntrl=    100127 FMM=F ISym2X=1 I1Cent= 0 IOpClX= 0 NMat=1 NMatS=1 NMatT=0.
 FoFJK:  IHMeth= 1 ICntrl=  100127 DoSepK=F KAlg= 0 I1Cent=   0 FoldK=F
 IRaf=         0 NMat=   1 IRICut=       1 DoRegI=T DoRafI=F ISym2E= 1.
 FoFCou: FMM=F IPFlag=           0 FMFlag=      100000 FMFlg1=         800
         NFxFlg=           0 DoJE=F BraDBF=F KetDBF=F FulRan=T
         wScrn=  0.000000 ICntrl=  100127 IOpCl=  0 I1Cent=           0 NGrid=           0
         NMat0=    1 NMatS0=      1 NMatT0=    0 NMatD0=    1 NMtDS0=    0 NMtDT0=    0
 Petite list used in FoFCou.
 Leave Link  703 at Fri Aug 27 00:04:17 2021, MaxMem= 17179869184 cpu:        72.2
 (Enter /public3/home/sc51754/softwares/g09e01/l716.exe)
 Dipole        = 3.66076526D-17-2.14777062D-15-7.79027023D-01
 Polarizability= 6.24625647D+00 2.36979999D-10 8.35344508D+00
                 1.60997421D-09 3.49552175D-09 7.25201514D+00
 Full mass-weighted force constant matrix:
 Low frequencies ---  -26.2540   -0.0022   -0.0010    0.0012  105.6700  120.3196
 Low frequencies --- 1616.8066 3891.5175 4012.4647
 Diagonal vibrational polarizability:
        0.0000000       0.1226182       0.7899274
 Harmonic frequencies (cm**-1), IR intensities (KM/Mole), Raman scattering
 activities (A**4/AMU), depolarization ratios for plane and unpolarized
 incident light, reduced masses (AMU), force constants (mDyne/A),
 and normal coordinates:
                      1                      2                      3
                     A1                     A1                     B2
 Frequencies --   1616.8066              3891.5175              4012.4639
 Red. masses --      1.0829                 1.0450                 1.0824
 Frc consts  --      1.6678                 9.3237                10.2673
 IR Inten    --     74.9813                10.1355                73.3574
  Atom  AN      X      Y      Z        X      Y      Z        X      Y      Z
     1   8     0.00  -0.00  -0.07     0.00  -0.00  -0.05    -0.00  -0.07   0.00
     2   1    -0.00  -0.43   0.56     0.00   0.59   0.40     0.00   0.56   0.43
     3   1    -0.00   0.43   0.56    -0.00  -0.59   0.40     0.00   0.56  -0.43

 -------------------
 - Thermochemistry -
 -------------------
 Temperature   298.150 Kelvin.  Pressure   1.00000 Atm.
 Atom     1 has atomic number  8 and mass  15.99491
 Atom     2 has atomic number  1 and mass   1.00783
 Atom     3 has atomic number  1 and mass   1.00783
 Molecular mass:    18.01056 amu.
 Principal axes and moments of inertia in atomic units:
                           1         2         3
     Eigenvalues --     2.16010   4.13585   6.29595
           X            0.00000  -0.00000   1.00000
           Y            1.00000  -0.00000  -0.00000
           Z            0.00000   1.00000   0.00000
 This molecule is an asymmetric top.
 Rotational symmetry number  2.
 Rotational temperatures (Kelvin)     40.09715    20.94220    13.75707
 Rotational constants (GHZ):         835.49012   436.36513   286.65114
 Zero-point vibrational energy      56947.0 (Joules/Mol)
                                   13.61065 (Kcal/Mol)
 Vibrational temperatures:   2326.22  5599.02  5773.03
          (Kelvin)
 
 Zero-point correction=                           0.021690 (Hartree/Particle)
 Thermal correction to Energy=                    0.024526
 Thermal correction to Enthalpy=                  0.025470
 Thermal correction to Gibbs Free Energy=         0.004067
 Sum of electronic and zero-point Energies=            -76.406599
 Sum of electronic and thermal Energies=               -76.403763
 Sum of electronic and thermal Enthalpies=             -76.402819
 Sum of electronic and thermal Free Energies=          -76.424222
 
                     E (Thermal)             CV                S
                      KCal/Mol        Cal/Mol-Kelvin    Cal/Mol-Kelvin
 Total                   15.390              6.011             45.045
 Electronic               0.000              0.000              0.000
 Translational            0.889              2.981             34.608
 Rotational               0.889              2.981             10.429
 Vibrational             13.613              0.050              0.007
                       Q            Log10(Q)             Ln(Q)
 Total Bot       0.134625D-01         -1.870874         -4.307845
 Total V=0       0.127582D+09          8.105790         18.664271
 Vib (Bot)       0.105564D-09         -9.976486        -22.971708
 Vib (V=0)       0.100041D+01          0.000178          0.000409
 Electronic      0.100000D+01          0.000000          0.000000
 Translational   0.300432D+07          6.477746         14.915562
 Rotational      0.424489D+02          1.627866          3.748301
 
                                                         H2O_M06_PC2_OPT_FREQ
                                                             IR Spectrum
 
     4   3                                                                       1                                                   
     0   8                                                                       6                                                   
     1   9                                                                       1                                                   
     2   2                                                                       7                                                   
 
     X   X                                                                       X                                                   
     X   X                                                                       X                                                   
     X   X                                                                       X                                                   
     X                                                                           X                                                   
     X                                                                           X                                                   
     X                                                                           X                                                   
     X                                                                           X                                                   
     X                                                                           X                                                   
     X                                                                           X                                                   
     X                                                                           X                                                   
     X                                                                           X                                                   
     X                                                                           X                                                   
     X                                                                           X                                                   
     X                                                                           X                                                   
     X                                                                           X                                                   
     X                                                                           X                                                   
     X                                                                           X                                                   
     X                                                                           X                                                   
     X                                                                           X                                                   
     X                                                                           X                                                   
 
 ***** Axes restored to original set *****
 -------------------------------------------------------------------
 Center     Atomic                   Forces (Hartrees/Bohr)
 Number     Number              X              Y              Z
 -------------------------------------------------------------------
      1        8          -0.000185033   -0.000261816    0.000000000
      2        1           0.000220316    0.000040588    0.000000000
      3        1          -0.000035283    0.000221228   -0.000000000
 -------------------------------------------------------------------
 Cartesian Forces:  Max     0.000261816 RMS     0.000150243
 Force constants in Cartesian coordinates: 
                1             2             3             4             5 
      1  0.633038D+00
      2 -0.118912D+00  0.548820D+00
      3  0.000000D+00  0.000000D+00  0.980695D-03
      4 -0.546424D+00  0.876358D-02  0.000000D+00  0.561774D+00
      5 -0.526784D-01 -0.445049D-01  0.000000D+00  0.330194D-02  0.466422D-01
      6  0.000000D+00  0.000000D+00 -0.490348D-03  0.000000D+00  0.000000D+00
      7 -0.866140D-01  0.110149D+00  0.000000D+00 -0.153498D-01  0.493765D-01
      8  0.171591D+00 -0.504315D+00  0.000000D+00 -0.120655D-01 -0.213728D-02
      9  0.000000D+00  0.000000D+00 -0.490348D-03  0.000000D+00  0.000000D+00
                6             7             8             9 
      6  0.458110D-03
      7  0.000000D+00  0.101964D+00
      8  0.000000D+00 -0.159525D+00  0.506452D+00
      9  0.322373D-04  0.000000D+00  0.000000D+00  0.458110D-03
 FormGI is forming the generalized inverse of G from B-inverse, IUseBI=4.
 Force constants in internal coordinates: 
                1             2             3 
      1  0.561419D+00
      2 -0.778152D-02  0.561419D+00
      3  0.299671D-01  0.299671D-01  0.153940D+00
 Leave Link  716 at Fri Aug 27 00:04:18 2021, MaxMem= 17179869184 cpu:        21.8
 (Enter /public3/home/sc51754/softwares/g09e01/l103.exe)

 GradGradGradGradGradGradGradGradGradGradGradGradGradGradGradGradGradGrad
 Berny optimization.
 Red2BG is reusing G-inverse.
 Internal  Forces:  Max     0.000221731 RMS     0.000184083
 Search for a local minimum.
 Step number   1 out of a maximum of    2
 All quantities printed in internal units (Hartrees-Bohrs-Radians)
 Second derivative matrix not updated -- analytic derivatives used.
 The second derivative matrix:
                          R1        R2        A1
           R1           0.56142
           R2          -0.00778   0.56142
           A1           0.02997   0.02997   0.15394
 ITU=  0
     Eigenvalues ---    0.14950   0.55808   0.56920
 Angle between quadratic step and forces=  31.30 degrees.
 Linear search not attempted -- first point.
 Iteration  1 RMS(Cart)=  0.00030841 RMS(Int)=  0.00000009
 Iteration  2 RMS(Cart)=  0.00000010 RMS(Int)=  0.00000000
 ITry= 1 IFail=0 DXMaxC= 3.54D-04 DCOld= 1.00D+10 DXMaxT= 3.00D-01 DXLimC= 3.00D+00 Rises=F
 ClnCor:  largest displacement from symmetrization is 1.79D-14 for atom     3.
 Variable       Old X    -DE/DX   Delta X   Delta X   Delta X     New X
                                 (Linear)    (Quad)   (Total)
    R1        1.80515   0.00022   0.00000   0.00043   0.00043   1.80558
    R2        1.80515   0.00022   0.00000   0.00043   0.00043   1.80558
    A1        1.83316  -0.00006   0.00000  -0.00054  -0.00054   1.83262
         Item               Value     Threshold  Converged?
 Maximum Force            0.000222     0.000450     YES
 RMS     Force            0.000184     0.000300     YES
 Maximum Displacement     0.000354     0.001800     YES
 RMS     Displacement     0.000308     0.001200     YES
 Predicted change in Energy=-1.109570D-07
 Optimization completed.
    -- Stationary point found.
                           ----------------------------
                           !   Optimized Parameters   !
                           ! (Angstroms and Degrees)  !
 --------------------------                            --------------------------
 ! Name  Definition              Value          Derivative Info.                !
 --------------------------------------------------------------------------------
 ! R1    R(1,2)                  0.9552         -DE/DX =    0.0002              !
 ! R2    R(1,3)                  0.9552         -DE/DX =    0.0002              !
 ! A1    A(2,1,3)              105.0323         -DE/DX =   -0.0001              !
 --------------------------------------------------------------------------------
 GradGradGradGradGradGradGradGradGradGradGradGradGradGradGradGradGradGrad

 Leave Link  103 at Fri Aug 27 00:04:18 2021, MaxMem= 17179869184 cpu:        12.1
 (Enter /public3/home/sc51754/softwares/g09e01/l9999.exe)
 1\1\GINC-P2607\Freq\RM06\Gen\H2O1\SC51754\27-Aug-2021\0\\#P Geom=AllCh
 eck Guess=TCheck SCRF=Check GenChk RM06/ChkBas Freq\\H2O_M06_PC2_OPT_F
 REQ\\0,1\O,0.0288101219,0.7808452381,0.\H,0.9833307384,0.8180790656,0.
 \H,-0.2547172424,1.6930448868,0.\\Version=EM64L-G09RevE.01\State=1-A1\
 HF=-76.4282889\RMSD=5.781e-10\RMSF=1.502e-04\ZeroPoint=0.02169\Thermal
 =0.0245255\Dipole=0.4496117,0.6361858,0.\DipoleDeriv=-0.4872417,0.0750
 074,0.,0.0750074,-0.4341186,0.,0.,0.,-0.7085534,0.1870852,-0.0533142,0
 .,-0.0617338,0.2735949,0.,0.,0.,0.3542767,0.3001564,-0.0216932,0.,-0.0
 132736,0.1605237,0.,0.,0.,0.3542767\Polar=7.9865625,-0.5191268,7.61889
 77,0.,0.,6.2462565\PG=C02V [C2(O1),SGV(H2)]\NImag=0\\0.63303800,-0.118
 91241,0.54881982,0.,0.,0.00098070,-0.54642399,0.00876358,0.,0.56177377
 ,-0.05267841,-0.04450492,0.,0.00330194,0.04664220,0.,0.,-0.00049035,0.
 ,0.,0.00045811,-0.08661401,0.11014884,0.,-0.01534978,0.04937647,0.,0.1
 0196379,0.17159082,-0.50431490,0.,-0.01206551,-0.00213728,0.,-0.159525
 31,0.50645218,0.,0.,-0.00049035,0.,0.,0.00003224,0.,0.,0.00045811\\0.0
 0018503,0.00026182,0.,-0.00022032,-0.00004059,0.,0.00003528,-0.0002212
 3,0.\\\@


 TELEVISION IS CALLED A MEDIUM BECAUSE IT ISN'T
 RARE, AND IT ISN'T WELL DONE.
 Job cpu time:       0 days  0 hours 10 minutes 37.1 seconds.
 File lengths (MBytes):  RWF=      5 Int=      0 D2E=      0 Chk=      1 Scr=      1
 Normal termination of Gaussian 09 at Fri Aug 27 00:04:18 2021.
