 Entering Gaussian System, Link 0=g09
 AtFile(1): pc-2.gbs
            -H     0
            S    4   1.00
                  0.754230D+02           0.240650D-02
                  0.113500D+02           0.184870D-01
                  0.259930D+01           0.897420D-01
                  0.735130D+00           0.281110D+00
            S    1   1.00
                  0.231670D+00           0.100000D+01
            S    1   1.00
                  0.741470D-01           0.100000D+01
            P    1   1.00
                  0.160000D+01           0.100000D+01
            P    1   1.00
                  0.450000D+00           0.100000D+01
            D    1   1.00
                  0.125000D+01           0.100000D+01
            ****
            -C     0
            S    7   1.00
                  0.785710D+04           0.568250D-03
                  0.117870D+04           0.439150D-02
                  0.268320D+03           0.225040D-01
                  0.759480D+02           0.866530D-01
                  0.245590D+02           0.244050D+00
                  0.862120D+01           0.441480D+00
                  0.312780D+01           0.353320D+00
            S    7   1.00
                  0.117870D+04          -0.594920D-06
                  0.268320D+03          -0.627480D-04
                  0.759480D+02          -0.757730D-03
                  0.245590D+02          -0.733080D-02
                  0.862120D+01          -0.389320D-01
                  0.312780D+01          -0.889080D-01
                  0.822020D+00           0.216890D+00
            S    1   1.00
                  0.330170D+00           0.100000D+01
            S    1   1.00
                  0.114630D+00           0.100000D+01
            P    4   1.00
                  0.337750D+02           0.602940D-02
                  0.767660D+01           0.432280D-01
                  0.223570D+01           0.163010D+00
                  0.764470D+00           0.365040D+00
            P    1   1.00
                  0.262320D+00           0.100000D+01
            P    1   1.00
                  0.846380D-01           0.100000D+01
            D    1   1.00
                  0.140000D+01           0.100000D+01
            D    1   1.00
                  0.450000D+00           0.100000D+01
            F    1   1.00
                  0.950000D+00           0.100000D+01
            ****
            -N     0
            S    7   1.00
                  0.111010D+05           0.545700D-03
                  0.166530D+04           0.421810D-02
                  0.379080D+03           0.216450D-01
                  0.107300D+03           0.837760D-01
                  0.347470D+02           0.238810D+00
                  0.122490D+02           0.439940D+00
                  0.447430D+01           0.363640D+00
            S    7   1.00
                  0.166530D+04          -0.150060D-05
                  0.379080D+03          -0.587530D-04
                  0.107300D+03          -0.774530D-03
                  0.347470D+02          -0.721610D-02
                  0.122490D+02          -0.393380D-01
                  0.447430D+01          -0.906110D-01
                  0.124040D+01           0.198820D+00
            S    1   1.00
                  0.487430D+00           0.100000D+01
            S    1   1.00
                  0.164840D+00           0.100000D+01
            P    4   1.00
                  0.479340D+02           0.617060D-02
                  0.109990D+02           0.442600D-01
                  0.324720D+01           0.168250D+00
                  0.111140D+01           0.368480D+00
            P    1   1.00
                  0.379880D+00           0.100000D+01
            P    1   1.00
                  0.120680D+00           0.100000D+01
            D    1   1.00
                  0.180000D+01           0.100000D+01
            D    1   1.00
                  0.550000D+00           0.100000D+01
            F    1   1.00
                  0.102000D+01           0.100000D+01
            ****
            -O     0
            S    7   1.00
                  0.147820D+05           0.535190D-03
                  0.221730D+04           0.413750D-02
                  0.504740D+03           0.212450D-01
                  0.142870D+03           0.824530D-01
                  0.463000D+02           0.236710D+00
                  0.163370D+02           0.440390D+00
                  0.598280D+01           0.364650D+00
            S    7   1.00
                  0.221730D+04          -0.192750D-05
                  0.504740D+03          -0.579640D-04
                  0.142870D+03          -0.794940D-03
                  0.463000D+02          -0.731250D-02
                  0.163370D+02          -0.405740D-01
                  0.598280D+01          -0.915940D-01
                  0.167180D+01           0.209400D+00
            S    1   1.00
                  0.646620D+00           0.100000D+01
            S    1   1.00
                  0.216690D+00           0.100000D+01
            P    4   1.00
                  0.604240D+02           0.689490D-02
                  0.139350D+02           0.490050D-01
                  0.415310D+01           0.182550D+00
                  0.141580D+01           0.376330D+00
            P    1   1.00
                  0.475490D+00           0.100000D+01
            P    1   1.00
                  0.145290D+00           0.100000D+01
            D    1   1.00
                  0.220000D+01           0.100000D+01
            D    1   1.00
                  0.650000D+00           0.100000D+01
            F    1   1.00
                  0.110000D+01           0.100000D+01
            ****
 Initial command:
 /gpfs/share/home/1801110325/software/g09e01/l1.exe "./Gau-31872.inp" -scrdir="./"
 Entering Link 1 = /gpfs/share/home/1801110325/software/g09e01/l1.exe PID=     31874.
  
 Copyright (c) 1988,1990,1992,1993,1995,1998,2003,2009,2015,
            Gaussian, Inc.  All Rights Reserved.
  
 This is part of the Gaussian(R) 09 program.  It is based on
 the Gaussian(R) 03 system (copyright 2003, Gaussian, Inc.),
 the Gaussian(R) 98 system (copyright 1998, Gaussian, Inc.),
 the Gaussian(R) 94 system (copyright 1995, Gaussian, Inc.),
 the Gaussian 92(TM) system (copyright 1992, Gaussian, Inc.),
 the Gaussian 90(TM) system (copyright 1990, Gaussian, Inc.),
 the Gaussian 88(TM) system (copyright 1988, Gaussian, Inc.),
 the Gaussian 86(TM) system (copyright 1986, Carnegie Mellon
 University), and the Gaussian 82(TM) system (copyright 1983,
 Carnegie Mellon University). Gaussian is a federally registered
 trademark of Gaussian, Inc.
  
 This software contains proprietary and confidential information,
 including trade secrets, belonging to Gaussian, Inc.
  
 This software is provided under written license and may be
 used, copied, transmitted, or stored only in accord with that
 written license.
  
 The following legend is applicable only to US Government
 contracts under FAR:
  
                    RESTRICTED RIGHTS LEGEND
  
 Use, reproduction and disclosure by the US Government is
 subject to restrictions as set forth in subparagraphs (a)
 and (c) of the Commercial Computer Software - Restricted
 Rights clause in FAR 52.227-19.
  
 Gaussian, Inc.
 340 Quinnipiac St., Bldg. 40, Wallingford CT 06492
  
  
 ---------------------------------------------------------------
 Warning -- This program may not be used in any manner that
 competes with the business of Gaussian, Inc. or will provide
 assistance to any competitor of Gaussian, Inc.  The licensee
 of this program is prohibited from giving any competitor of
 Gaussian, Inc. access to this program.  By using this program,
 the user acknowledges that Gaussian, Inc. is engaged in the
 business of creating and licensing software in the field of
 computational chemistry and represents and warrants to the
 licensee that it is not a competitor of Gaussian, Inc. and that
 it will not use this program in any manner prohibited above.
 ---------------------------------------------------------------
  

 Cite this work as:
 Gaussian 09, Revision E.01,
 M. J. Frisch, G. W. Trucks, H. B. Schlegel, G. E. Scuseria, 
 M. A. Robb, J. R. Cheeseman, G. Scalmani, V. Barone, B. Mennucci, 
 G. A. Petersson, H. Nakatsuji, M. Caricato, X. Li, H. P. Hratchian, 
 A. F. Izmaylov, J. Bloino, G. Zheng, J. L. Sonnenberg, M. Hada, 
 M. Ehara, K. Toyota, R. Fukuda, J. Hasegawa, M. Ishida, T. Nakajima, 
 Y. Honda, O. Kitao, H. Nakai, T. Vreven, J. A. Montgomery, Jr., 
 J. E. Peralta, F. Ogliaro, M. Bearpark, J. J. Heyd, E. Brothers, 
 K. N. Kudin, V. N. Staroverov, T. Keith, R. Kobayashi, J. Normand, 
 K. Raghavachari, A. Rendell, J. C. Burant, S. S. Iyengar, J. Tomasi, 
 M. Cossi, N. Rega, J. M. Millam, M. Klene, J. E. Knox, J. B. Cross, 
 V. Bakken, C. Adamo, J. Jaramillo, R. Gomperts, R. E. Stratmann, 
 O. Yazyev, A. J. Austin, R. Cammi, C. Pomelli, J. W. Ochterski, 
 R. L. Martin, K. Morokuma, V. G. Zakrzewski, G. A. Voth, 
 P. Salvador, J. J. Dannenberg, S. Dapprich, A. D. Daniels, 
 O. Farkas, J. B. Foresman, J. V. Ortiz, J. Cioslowski, 
 and D. J. Fox, Gaussian, Inc., Wallingford CT, 2013.
 
 ******************************************
 Gaussian 09:  EM64L-G09RevE.01 30-Nov-2015
                 2-Sep-2021 
 ******************************************
 %nprocshared=6
 Will use up to    6 processors via shared memory.
 %mem=10GB
 %chk=H2O_TPSSh_PC2_OPT_FREQ.chk
 ----------------------------------------------------------
 #p opt freq TPSSh/gen SCF(novaracc,noincfock) int=acc2e=12
 ----------------------------------------------------------
 1/14=-1,18=20,19=15,26=3,38=1/1,3;
 2/9=110,12=2,17=6,18=5,40=1/2;
 3/5=7,11=2,16=1,25=1,30=1,71=1,74=-35/1,2,3;
 4//1;
 5/5=100002,38=1,87=12/2;
 6/7=2,8=2,9=2,10=2,28=1/1;
 7/87=12/1,2,3,16;
 1/14=-1,18=20,19=15,26=3/3(2);
 2/9=110/2;
 99//99;
 2/9=110/2;
 3/5=7,6=1,11=2,16=1,25=1,30=1,71=1,74=-35,82=7/1,2,3;
 4/5=5,16=3,69=1/1;
 5/5=100002,38=1,87=12/2;
 7/87=12/1,2,3,16;
 1/14=-1,18=20,19=15,26=3/3(-5);
 2/9=110/2;
 6/7=2,8=2,9=2,10=2,19=2,28=1/1;
 99/9=1/99;
 Leave Link    1 at Thu Sep  2 22:19:24 2021, MaxMem=  1342177280 cpu:         3.1
 (Enter /gpfs/share/home/1801110325/software/g09e01/l101.exe)
 ----------------------
 H2O_TPSSh_PC2_OPT_FREQ
 ----------------------
 Symbolic Z-matrix:
 Charge =  0 Multiplicity = 1
 O                     0.03922   0.79557   0. 
 H                     0.99922   0.79581   0. 
 H                    -0.28101   1.70059   0. 
 
 NAtoms=      3 NQM=        3 NQMF=       0 NMMI=      0 NMMIF=      0
                NMic=       0 NMicF=      0.
                    Isotopes and Nuclear Properties:
 (Nuclear quadrupole moments (NQMom) in fm**2, nuclear magnetic moments (NMagM)
  in nuclear magnetons)

  Atom         1           2           3
 IAtWgt=          16           1           1
 AtmWgt=  15.9949146   1.0078250   1.0078250
 NucSpn=           0           1           1
 AtZEff=   0.0000000   0.0000000   0.0000000
 NQMom=    0.0000000   0.0000000   0.0000000
 NMagM=    0.0000000   2.7928460   2.7928460
 AtZNuc=   8.0000000   1.0000000   1.0000000
 Leave Link  101 at Thu Sep  2 22:19:24 2021, MaxMem=  1342177280 cpu:         1.4
 (Enter /gpfs/share/home/1801110325/software/g09e01/l103.exe)

 GradGradGradGradGradGradGradGradGradGradGradGradGradGradGradGradGradGrad
 Berny optimization.
 Initialization pass.
                           ----------------------------
                           !    Initial Parameters    !
                           ! (Angstroms and Degrees)  !
 --------------------------                            --------------------------
 ! Name  Definition              Value          Derivative Info.                !
 --------------------------------------------------------------------------------
 ! R1    R(1,2)                  0.96           estimate D2E/DX2                !
 ! R2    R(1,3)                  0.96           estimate D2E/DX2                !
 ! A1    A(2,1,3)              109.4712         estimate D2E/DX2                !
 --------------------------------------------------------------------------------
 Trust Radius=3.00D-01 FncErr=1.00D-07 GrdErr=1.00D-06
 Number of steps in this run=     20 maximum allowed number of steps=    100.
 GradGradGradGradGradGradGradGradGradGradGradGradGradGradGradGradGradGrad

 Leave Link  103 at Thu Sep  2 22:19:24 2021, MaxMem=  1342177280 cpu:         0.4
 (Enter /gpfs/share/home/1801110325/software/g09e01/l202.exe)
                          Input orientation:                          
 ---------------------------------------------------------------------
 Center     Atomic      Atomic             Coordinates (Angstroms)
 Number     Number       Type             X           Y           Z
 ---------------------------------------------------------------------
      1          8           0        0.039217    0.795571    0.000000
      2          1           0        0.999217    0.795812    0.000000
      3          1           0       -0.281010    1.700587    0.000000
 ---------------------------------------------------------------------
                    Distance matrix (angstroms):
                    1          2          3
     1  O    0.000000
     2  H    0.960000   0.000000
     3  H    0.960000   1.567673   0.000000
 Stoichiometry    H2O
 Framework group  C2V[C2(O),SGV(H2)]
 Deg. of freedom     2
 Full point group                 C2V     NOp   4
 Largest Abelian subgroup         C2V     NOp   4
 Largest concise Abelian subgroup C2      NOp   2
                         Standard orientation:                         
 ---------------------------------------------------------------------
 Center     Atomic      Atomic             Coordinates (Angstroms)
 Number     Number       Type             X           Y           Z
 ---------------------------------------------------------------------
      1          8           0        0.000000   -0.000000    0.110851
      2          1           0       -0.000000   -0.783837   -0.443405
      3          1           0        0.000000    0.783837   -0.443405
 ---------------------------------------------------------------------
 Rotational constants (GHZ):    919.0227056    408.0852078    282.5991526
 Leave Link  202 at Thu Sep  2 22:19:24 2021, MaxMem=  1342177280 cpu:         0.9
 (Enter /gpfs/share/home/1801110325/software/g09e01/l301.exe)
 General basis read from cards:  (5D, 7F)
 Centers:       2      3
 S 4 1.00
     Exponent=  7.5423000000D+01 Coefficients=  2.4065000000D-03
     Exponent=  1.1350000000D+01 Coefficients=  1.8487000000D-02
     Exponent=  2.5993000000D+00 Coefficients=  8.9742000000D-02
     Exponent=  7.3513000000D-01 Coefficients=  2.8111000000D-01
 S 1 1.00
     Exponent=  2.3167000000D-01 Coefficients=  1.0000000000D+00
 S 1 1.00
     Exponent=  7.4147000000D-02 Coefficients=  1.0000000000D+00
 P 1 1.00
     Exponent=  1.6000000000D+00 Coefficients=  1.0000000000D+00
 P 1 1.00
     Exponent=  4.5000000000D-01 Coefficients=  1.0000000000D+00
 D 1 1.00
     Exponent=  1.2500000000D+00 Coefficients=  1.0000000000D+00
 ****
 Centers:       1
 S 7 1.00
     Exponent=  1.4782000000D+04 Coefficients=  5.3519000000D-04
     Exponent=  2.2173000000D+03 Coefficients=  4.1375000000D-03
     Exponent=  5.0474000000D+02 Coefficients=  2.1245000000D-02
     Exponent=  1.4287000000D+02 Coefficients=  8.2453000000D-02
     Exponent=  4.6300000000D+01 Coefficients=  2.3671000000D-01
     Exponent=  1.6337000000D+01 Coefficients=  4.4039000000D-01
     Exponent=  5.9828000000D+00 Coefficients=  3.6465000000D-01
 S 7 1.00
     Exponent=  2.2173000000D+03 Coefficients= -1.9275000000D-06
     Exponent=  5.0474000000D+02 Coefficients= -5.7964000000D-05
     Exponent=  1.4287000000D+02 Coefficients= -7.9494000000D-04
     Exponent=  4.6300000000D+01 Coefficients= -7.3125000000D-03
     Exponent=  1.6337000000D+01 Coefficients= -4.0574000000D-02
     Exponent=  5.9828000000D+00 Coefficients= -9.1594000000D-02
     Exponent=  1.6718000000D+00 Coefficients=  2.0940000000D-01
 S 1 1.00
     Exponent=  6.4662000000D-01 Coefficients=  1.0000000000D+00
 S 1 1.00
     Exponent=  2.1669000000D-01 Coefficients=  1.0000000000D+00
 P 4 1.00
     Exponent=  6.0424000000D+01 Coefficients=  6.8949000000D-03
     Exponent=  1.3935000000D+01 Coefficients=  4.9005000000D-02
     Exponent=  4.1531000000D+00 Coefficients=  1.8255000000D-01
     Exponent=  1.4158000000D+00 Coefficients=  3.7633000000D-01
 P 1 1.00
     Exponent=  4.7549000000D-01 Coefficients=  1.0000000000D+00
 P 1 1.00
     Exponent=  1.4529000000D-01 Coefficients=  1.0000000000D+00
 D 1 1.00
     Exponent=  2.2000000000D+00 Coefficients=  1.0000000000D+00
 D 1 1.00
     Exponent=  6.5000000000D-01 Coefficients=  1.0000000000D+00
 F 1 1.00
     Exponent=  1.1000000000D+00 Coefficients=  1.0000000000D+00
 ****
 Ernie: Thresh=  0.10000D-02 Tol=  0.10000D-05 Strict=F.
 Ernie:  1 primitive shells out of 43 were deleted.
 There are    27 symmetry adapted cartesian basis functions of A1  symmetry.
 There are     7 symmetry adapted cartesian basis functions of A2  symmetry.
 There are    12 symmetry adapted cartesian basis functions of B1  symmetry.
 There are    19 symmetry adapted cartesian basis functions of B2  symmetry.
 There are    23 symmetry adapted basis functions of A1  symmetry.
 There are     7 symmetry adapted basis functions of A2  symmetry.
 There are    11 symmetry adapted basis functions of B1  symmetry.
 There are    17 symmetry adapted basis functions of B2  symmetry.
    58 basis functions,    91 primitive gaussians,    65 cartesian basis functions
     5 alpha electrons        5 beta electrons
       nuclear repulsion energy         9.1571759018 Hartrees.
 IExCor= 2523 DFT=T Ex+Corr=TPSSh ExCW=0 ScaHFX=  0.100000
 ScaDFX=  0.900000  0.900000  1.000000  1.000000 ScalE2=  1.000000  1.000000
 IRadAn=      0 IRanWt=     -1 IRanGd=            0 ICorTp=0 IEmpDi=  4
 NAtoms=    3 NActive=    3 NUniq=    2 SFac= 2.25D+00 NAtFMM=   60 NAOKFM=F Big=F
 Integral buffers will be    131072 words long.
 Raffenetti 2 integral format.
 Two-electron integral symmetry is turned on.
 Leave Link  301 at Thu Sep  2 22:19:25 2021, MaxMem=  1342177280 cpu:         2.7
 (Enter /gpfs/share/home/1801110325/software/g09e01/l302.exe)
 NPDir=0 NMtPBC=     1 NCelOv=     1 NCel=       1 NClECP=     1 NCelD=      1
         NCelK=      1 NCelE2=     1 NClLst=     1 CellRange=     0.0.
 One-electron integrals computed using PRISM.
 One-electron integral symmetry used in STVInt
 NBasis=    58 RedAO= T EigKep=  5.81D-03  NBF=    23     7    11    17
 NBsUse=    58 1.00D-06 EigRej= -1.00D+00 NBFU=    23     7    11    17
 Precomputing XC quadrature grid using
 IXCGrd= 4 IRadAn=           0 IRanWt=          -1 IRanGd=           0 AccXCQ= 0.00D+00.
 Generated NRdTot=       0 NPtTot=           0 NUsed=           0 NTot=          32
 NSgBfM=    65    65    65    65    65 MxSgAt=     3 MxSgA2=     3.
 Leave Link  302 at Thu Sep  2 22:19:25 2021, MaxMem=  1342177280 cpu:         0.9
 (Enter /gpfs/share/home/1801110325/software/g09e01/l303.exe)
 DipDrv:  MaxL=1.
 Leave Link  303 at Thu Sep  2 22:19:25 2021, MaxMem=  1342177280 cpu:         0.1
 (Enter /gpfs/share/home/1801110325/software/g09e01/l401.exe)
 ExpMin= 7.41D-02 ExpMax= 1.48D+04 ExpMxC= 5.05D+02 IAcc=2 IRadAn=         4 AccDes= 0.00D+00
 Harris functional with IExCor= 1009 and IRadAn=       4 diagonalized for initial guess.
 HarFok:  IExCor= 1009 AccDes= 0.00D+00 IRadAn=         4 IDoV= 1 UseB2=F ITyADJ=14
 ICtDFT=  3500011 ScaDFX=  1.000000  1.000000  1.000000  1.000000
 FoFCou: FMM=F IPFlag=           0 FMFlag=      100000 FMFlg1=           0
         NFxFlg=           0 DoJE=T BraDBF=F KetDBF=T FulRan=T
         wScrn=  0.000000 ICntrl=     500 IOpCl=  0 I1Cent=   200000004 NGrid=           0
         NMat0=    1 NMatS0=      1 NMatT0=    0 NMatD0=    1 NMtDS0=    0 NMtDT0=    0
 Petite list used in FoFCou.
 Harris En= -76.4282148740560    
 JPrj=0 DoOrth=F DoCkMO=F.
 Initial guess orbital symmetries:
       Occupied  (A1) (A1) (B2) (A1) (B1)
       Virtual   (A1) (B2) (B2) (A1) (A1) (B1) (B2) (A1) (A2) (A1)
                 (B1) (B2) (B2) (A1) (A1) (B2) (B1) (A1) (A2) (B2)
                 (A1) (B1) (A1) (B2) (B1) (A1) (A2) (B2) (B1) (B2)
                 (A2) (A1) (A1) (B2) (B1) (A2) (A1) (B2) (B2) (A1)
                 (B1) (A1) (B1) (B2) (A2) (B1) (A1) (A1) (A2) (A1)
                 (B2) (B2) (A1)
 The electronic state of the initial guess is 1-A1.
 Leave Link  401 at Thu Sep  2 22:19:25 2021, MaxMem=  1342177280 cpu:         1.2
 (Enter /gpfs/share/home/1801110325/software/g09e01/l502.exe)
 Closed shell SCF:
 Using DIIS extrapolation, IDIIS=  1040.
 Integral symmetry usage will be decided dynamically.
 Keep R1 ints in memory in symmetry-blocked form, NReq=3464159.
 IVT=       32227 IEndB=       32227 NGot=  1342177280 MDV=  1341763174
 LenX=  1341763174 LenY=  1341758508
 Requested convergence on RMS density matrix=1.00D-08 within 128 cycles.
 Requested convergence on MAX density matrix=1.00D-06.
 Requested convergence on             energy=1.00D-06.
 No special actions if energy rises.
 FoFCou: FMM=F IPFlag=           0 FMFlag=           0 FMFlg1=           0
         NFxFlg=           0 DoJE=F BraDBF=F KetDBF=F FulRan=T
         wScrn=  0.000000 ICntrl=     600 IOpCl=  0 I1Cent=           0 NGrid=           0
         NMat0=    1 NMatS0=   1711 NMatT0=    0 NMatD0=    1 NMtDS0=    0 NMtDT0=    0
 Petite list used in FoFCou.

 Cycle   1  Pass 1  IDiag  1:
 E= -76.3836729378273    
 DIIS: error= 6.53D-02 at cycle   1 NSaved=   1.
 NSaved= 1 IEnMin= 1 EnMin= -76.3836729378273     IErMin= 1 ErrMin= 6.53D-02
 ErrMax= 6.53D-02  0.00D+00 EMaxC= 1.00D-01 BMatC= 1.06D-01 BMatP= 1.06D-01
 IDIUse=3 WtCom= 3.47D-01 WtEn= 6.53D-01
 Coeff-Com:  0.100D+01
 Coeff-En:   0.100D+01
 Coeff:      0.100D+01
 Gap=     0.144 Goal=   None    Shift=    0.000
 GapD=    0.144 DampG=1.000 DampE=0.500 DampFc=0.5000 IDamp=-1.
 Damping current iteration by 5.00D-01
 RMSDP=7.05D-03 MaxDP=1.20D-01              OVMax= 2.18D-01

 Cycle   2  Pass 1  IDiag  1:
 E= -76.3965676697670     Delta-E=       -0.012894731940 Rises=F Damp=T
 DIIS: error= 2.60D-02 at cycle   2 NSaved=   2.
 NSaved= 2 IEnMin= 2 EnMin= -76.3965676697670     IErMin= 2 ErrMin= 2.60D-02
 ErrMax= 2.60D-02  0.00D+00 EMaxC= 1.00D-01 BMatC= 1.61D-02 BMatP= 1.06D-01
 IDIUse=3 WtCom= 7.40D-01 WtEn= 2.60D-01
 Coeff-Com:  0.265D+00 0.735D+00
 Coeff-En:   0.427D+00 0.573D+00
 Coeff:      0.307D+00 0.693D+00
 Gap=     0.283 Goal=   None    Shift=    0.000
 RMSDP=1.00D-03 MaxDP=2.51D-02 DE=-1.29D-02 OVMax= 1.35D-01

 Cycle   3  Pass 1  IDiag  1:
 E= -76.4593894689728     Delta-E=       -0.062821799206 Rises=F Damp=F
 DIIS: error= 4.88D-03 at cycle   3 NSaved=   3.
 NSaved= 3 IEnMin= 3 EnMin= -76.4593894689728     IErMin= 3 ErrMin= 4.88D-03
 ErrMax= 4.88D-03  0.00D+00 EMaxC= 1.00D-01 BMatC= 6.12D-04 BMatP= 1.61D-02
 IDIUse=3 WtCom= 9.51D-01 WtEn= 4.88D-02
 Coeff-Com:  0.479D-01-0.812D-01 0.103D+01
 Coeff-En:   0.000D+00 0.000D+00 0.100D+01
 Coeff:      0.456D-01-0.773D-01 0.103D+01
 Gap=     0.300 Goal=   None    Shift=    0.000
 RMSDP=1.69D-04 MaxDP=3.11D-03 DE=-6.28D-02 OVMax= 5.18D-03

 Cycle   4  Pass 1  IDiag  1:
 E= -76.4597714337062     Delta-E=       -0.000381964733 Rises=F Damp=F
 DIIS: error= 4.63D-04 at cycle   4 NSaved=   4.
 NSaved= 4 IEnMin= 4 EnMin= -76.4597714337062     IErMin= 4 ErrMin= 4.63D-04
 ErrMax= 4.63D-04  0.00D+00 EMaxC= 1.00D-01 BMatC= 5.93D-06 BMatP= 6.12D-04
 IDIUse=3 WtCom= 9.95D-01 WtEn= 4.63D-03
 Coeff-Com:  0.120D-01-0.309D-01 0.272D+00 0.747D+00
 Coeff-En:   0.000D+00 0.000D+00 0.000D+00 0.100D+01
 Coeff:      0.119D-01-0.307D-01 0.271D+00 0.748D+00
 Gap=     0.300 Goal=   None    Shift=    0.000
 RMSDP=1.85D-05 MaxDP=2.43D-04 DE=-3.82D-04 OVMax= 5.26D-04

 Cycle   5  Pass 1  IDiag  1:
 E= -76.4597752086647     Delta-E=       -0.000003774959 Rises=F Damp=F
 DIIS: error= 1.67D-04 at cycle   5 NSaved=   5.
 NSaved= 5 IEnMin= 5 EnMin= -76.4597752086647     IErMin= 5 ErrMin= 1.67D-04
 ErrMax= 1.67D-04  0.00D+00 EMaxC= 1.00D-01 BMatC= 6.46D-07 BMatP= 5.93D-06
 IDIUse=3 WtCom= 9.98D-01 WtEn= 1.67D-03
 Coeff-Com:  0.253D-02-0.449D-02 0.219D-01 0.946D-01 0.885D+00
 Coeff-En:   0.000D+00 0.000D+00 0.000D+00 0.000D+00 0.100D+01
 Coeff:      0.253D-02-0.448D-02 0.218D-01 0.945D-01 0.886D+00
 Gap=     0.300 Goal=   None    Shift=    0.000
 RMSDP=7.04D-06 MaxDP=1.01D-04 DE=-3.77D-06 OVMax= 1.98D-04

 Cycle   6  Pass 1  IDiag  1:
 E= -76.4597756968296     Delta-E=       -0.000000488165 Rises=F Damp=F
 DIIS: error= 9.79D-06 at cycle   6 NSaved=   6.
 NSaved= 6 IEnMin= 6 EnMin= -76.4597756968296     IErMin= 6 ErrMin= 9.79D-06
 ErrMax= 9.79D-06  0.00D+00 EMaxC= 1.00D-01 BMatC= 2.09D-09 BMatP= 6.46D-07
 IDIUse=1 WtCom= 1.00D+00 WtEn= 0.00D+00
 Coeff-Com: -0.885D-04 0.190D-03-0.144D-02-0.917D-02-0.672D-01 0.108D+01
 Coeff:     -0.885D-04 0.190D-03-0.144D-02-0.917D-02-0.672D-01 0.108D+01
 Gap=     0.300 Goal=   None    Shift=    0.000
 RMSDP=4.90D-07 MaxDP=8.46D-06 DE=-4.88D-07 OVMax= 1.33D-05

 Cycle   7  Pass 1  IDiag  1:
 E= -76.4597756984110     Delta-E=       -0.000000001581 Rises=F Damp=F
 DIIS: error= 7.13D-07 at cycle   7 NSaved=   7.
 NSaved= 7 IEnMin= 7 EnMin= -76.4597756984110     IErMin= 7 ErrMin= 7.13D-07
 ErrMax= 7.13D-07  0.00D+00 EMaxC= 1.00D-01 BMatC= 1.15D-11 BMatP= 2.09D-09
 IDIUse=1 WtCom= 1.00D+00 WtEn= 0.00D+00
 Coeff-Com: -0.123D-04 0.195D-04-0.969D-04-0.278D-03-0.197D-02 0.275D-01
 Coeff-Com:  0.975D+00
 Coeff:     -0.123D-04 0.195D-04-0.969D-04-0.278D-03-0.197D-02 0.275D-01
 Coeff:      0.975D+00
 Gap=     0.300 Goal=   None    Shift=    0.000
 RMSDP=2.78D-08 MaxDP=4.36D-07 DE=-1.58D-09 OVMax= 9.88D-07

 Cycle   8  Pass 1  IDiag  1:
 E= -76.4597756984199     Delta-E=       -0.000000000009 Rises=F Damp=F
 DIIS: error= 3.10D-08 at cycle   8 NSaved=   8.
 NSaved= 8 IEnMin= 8 EnMin= -76.4597756984199     IErMin= 8 ErrMin= 3.10D-08
 ErrMax= 3.10D-08  0.00D+00 EMaxC= 1.00D-01 BMatC= 2.37D-14 BMatP= 1.15D-11
 IDIUse=1 WtCom= 1.00D+00 WtEn= 0.00D+00
 Coeff-Com:  0.138D-06-0.350D-06 0.302D-05 0.491D-04 0.386D-03-0.432D-02
 Coeff-Com:  0.368D-02 0.100D+01
 Coeff:      0.138D-06-0.350D-06 0.302D-05 0.491D-04 0.386D-03-0.432D-02
 Coeff:      0.368D-02 0.100D+01
 Gap=     0.300 Goal=   None    Shift=    0.000
 RMSDP=1.62D-09 MaxDP=2.62D-08 DE=-8.92D-12 OVMax= 5.01D-08

 SCF Done:  E(RTPSSh) =  -76.4597756984     A.U. after    8 cycles
            NFock=  8  Conv=0.16D-08     -V/T= 2.0037
 KE= 7.617852353966D+01 PE=-1.992088638907D+02 EE= 3.741338875074D+01
 Leave Link  502 at Thu Sep  2 22:19:26 2021, MaxMem=  1342177280 cpu:         2.7
 (Enter /gpfs/share/home/1801110325/software/g09e01/l601.exe)
 Copying SCF densities to generalized density rwf, IOpCl= 0 IROHF=0.

 **********************************************************************

            Population analysis using the SCF density.

 **********************************************************************

 Orbital symmetries:
       Occupied  (A1) (A1) (B2) (A1) (B1)
       Virtual   (A1) (B2) (A1) (B2) (A1) (B1) (B2) (A1) (A2) (A1)
                 (B1) (B2) (B2) (A1) (A1) (B2) (B1) (A2) (A1) (B2)
                 (A1) (B1) (A1) (B2) (B1) (A1) (A2) (B2) (B1) (B2)
                 (A2) (A1) (A1) (B2) (B1) (A2) (A1) (B2) (B2) (A1)
                 (B1) (A1) (B1) (B2) (A2) (B1) (A1) (A1) (A2) (A1)
                 (B2) (B2) (A1)
 The electronic state is 1-A1.
 Alpha  occ. eigenvalues --  -19.05146  -0.98903  -0.52140  -0.36099  -0.29185
 Alpha virt. eigenvalues --    0.00834   0.06773   0.27982   0.28174   0.33105
 Alpha virt. eigenvalues --    0.34107   0.44877   0.68471   0.75027   0.79765
 Alpha virt. eigenvalues --    0.88284   1.04167   1.16143   1.20071   1.42697
 Alpha virt. eigenvalues --    1.47140   1.73510   1.83552   1.83623   2.06980
 Alpha virt. eigenvalues --    2.09882   2.26231   2.89115   3.39591   3.41982
 Alpha virt. eigenvalues --    3.56056   3.58550   3.77364   3.83432   3.84037
 Alpha virt. eigenvalues --    4.07405   4.07520   4.28967   4.43590   4.50231
 Alpha virt. eigenvalues --    4.53520   4.67065   4.84624   4.87450   4.92428
 Alpha virt. eigenvalues --    5.00166   5.67908   6.01925   6.15342   6.21084
 Alpha virt. eigenvalues --    6.22609   6.23801   6.33840   6.35677   6.93070
 Alpha virt. eigenvalues --    6.97848   7.41796  15.28675
          Condensed to atoms (all electrons):
               1          2          3
     1  O    7.714900   0.364830   0.364830
     2  H    0.364830   0.438662  -0.025773
     3  H    0.364830  -0.025773   0.438662
 Mulliken charges:
               1
     1  O   -0.444561
     2  H    0.222280
     3  H    0.222280
 Sum of Mulliken charges =   0.00000
 Mulliken charges with hydrogens summed into heavy atoms:
               1
     1  O    0.000000
 Electronic spatial extent (au):  <R**2>=             19.7383
 Charge=              0.0000 electrons
 Dipole moment (field-independent basis, Debye):
    X=              0.0000    Y=             -0.0000    Z=             -1.8943  Tot=              1.8943
 Quadrupole moment (field-independent basis, Debye-Ang):
   XX=             -7.6123   YY=             -4.1802   ZZ=             -6.4932
   XY=              0.0000   XZ=             -0.0000   YZ=              0.0000
 Traceless Quadrupole moment (field-independent basis, Debye-Ang):
   XX=             -1.5171   YY=              1.9151   ZZ=             -0.3980
   XY=              0.0000   XZ=             -0.0000   YZ=              0.0000
 Octapole moment (field-independent basis, Debye-Ang**2):
  XXX=             -0.0000  YYY=             -0.0000  ZZZ=             -1.1508  XYY=              0.0000
  XXY=             -0.0000  XXZ=             -0.3177  XZZ=             -0.0000  YZZ=             -0.0000
  YYZ=             -1.3114  XYZ=             -0.0000
 Hexadecapole moment (field-independent basis, Debye-Ang**3):
 XXXX=             -6.8495 YYYY=             -6.1399 ZZZZ=             -7.3862 XXXY=             -0.0000
 XXXZ=              0.0000 YYYX=             -0.0000 YYYZ=              0.0000 ZZZX=              0.0000
 ZZZY=             -0.0000 XXYY=             -2.5134 XXZZ=             -2.4146 YYZZ=             -2.0070
 XXYZ=             -0.0000 YYXZ=             -0.0000 ZZXY=             -0.0000
 N-N= 9.157175901845D+00 E-N=-1.992088628320D+02  KE= 7.617852353966D+01
 Symmetry A1   KE= 6.799744314543D+01
 Symmetry A2   KE= 5.055755205279D-22
 Symmetry B1   KE= 4.532332613383D+00
 Symmetry B2   KE= 3.648747780847D+00
 No NMR shielding tensors so no spin-rotation constants.
 Leave Link  601 at Thu Sep  2 22:19:26 2021, MaxMem=  1342177280 cpu:         0.5
 (Enter /gpfs/share/home/1801110325/software/g09e01/l701.exe)
 Compute integral first derivatives.
 ... and contract with generalized density number  0.
 Leave Link  701 at Thu Sep  2 22:19:26 2021, MaxMem=  1342177280 cpu:         1.7
 (Enter /gpfs/share/home/1801110325/software/g09e01/l702.exe)
 L702 exits ... SP integral derivatives will be done elsewhere.
 Leave Link  702 at Thu Sep  2 22:19:26 2021, MaxMem=  1342177280 cpu:         0.1
 (Enter /gpfs/share/home/1801110325/software/g09e01/l703.exe)
 Compute integral first derivatives, UseDBF=F ICtDFT=           0.
 Integral derivatives from FoFJK, PRISM(SPDF).
 Calling FoFJK, ICntrl=      2127 FMM=F ISym2X=1 I1Cent= 0 IOpClX= 0 NMat=1 NMatS=1 NMatT=0.
 FoFJK:  IHMeth= 1 ICntrl=    2127 DoSepK=F KAlg= 0 I1Cent=   0 FoldK=F
 IRaf=         0 NMat=   1 IRICut=       1 DoRegI=T DoRafI=F ISym2E= 1.
 FoFCou: FMM=F IPFlag=           0 FMFlag=      100000 FMFlg1=         800
         NFxFlg=           0 DoJE=F BraDBF=F KetDBF=F FulRan=T
         wScrn=  0.000000 ICntrl=    2127 IOpCl=  0 I1Cent=           0 NGrid=           0
         NMat0=    1 NMatS0=      1 NMatT0=    0 NMatD0=    1 NMtDS0=    0 NMtDT0=    0
 Petite list used in FoFCou.
 Leave Link  703 at Thu Sep  2 22:19:27 2021, MaxMem=  1342177280 cpu:         1.9
 (Enter /gpfs/share/home/1801110325/software/g09e01/l716.exe)
 Dipole        = 3.93011806D-17-4.44089210D-16-7.45290326D-01
 ***** Axes restored to original set *****
 -------------------------------------------------------------------
 Center     Atomic                   Forces (Hartrees/Bohr)
 Number     Number              X              Y              Z
 -------------------------------------------------------------------
      1        8          -0.006734084   -0.009528509    0.000000000
      2        1           0.000247387    0.006969008   -0.000000000
      3        1           0.006486697    0.002559500   -0.000000000
 -------------------------------------------------------------------
 Cartesian Forces:  Max     0.009528509 RMS     0.005092445
 Leave Link  716 at Thu Sep  2 22:19:27 2021, MaxMem=  1342177280 cpu:         0.1
 (Enter /gpfs/share/home/1801110325/software/g09e01/l103.exe)

 GradGradGradGradGradGradGradGradGradGradGradGradGradGradGradGradGradGrad
 Berny optimization.
 FormGI is forming the generalized inverse of G from B-inverse, IUseBI=4.
 Internal  Forces:  Max     0.012642623 RMS     0.007302056
 Search for a local minimum.
 Step number   1 out of a maximum of   20
 All quantities printed in internal units (Hartrees-Bohrs-Radians)
 RMS Force = .73021D-02 SwitMx=.10000D-02 MixMth= 1
 Mixed Optimization -- RFO/linear search
 Second derivative matrix not updated -- first step.
 The second derivative matrix:
                          R1        R2        A1
           R1           0.55473
           R2           0.00000   0.55473
           A1           0.00000   0.00000   0.16000
 ITU=  0
     Eigenvalues ---    0.16000   0.55473   0.55473
 RFO step:  Lambda=-9.93036273D-04 EMin= 1.60000000D-01
 Linear search not attempted -- first point.
 Iteration  1 RMS(Cart)=  0.04319318 RMS(Int)=  0.00114152
 Iteration  2 RMS(Cart)=  0.00100849 RMS(Int)=  0.00000003
 Iteration  3 RMS(Cart)=  0.00000003 RMS(Int)=  0.00000000
 ITry= 1 IFail=0 DXMaxC= 4.53D-02 DCOld= 1.00D+10 DXMaxT= 3.00D-01 DXLimC= 3.00D+00 Rises=F
 ClnCor:  largest displacement from symmetrization is 2.37D-15 for atom     3.
 Variable       Old X    -DE/DX   Delta X   Delta X   Delta X     New X
                                 (Linear)    (Quad)   (Total)
    R1        1.81414   0.00025   0.00000   0.00045   0.00045   1.81459
    R2        1.81414   0.00025   0.00000   0.00045   0.00045   1.81459
    A1        1.91063  -0.01264   0.00000  -0.07853  -0.07853   1.83210
         Item               Value     Threshold  Converged?
 Maximum Force            0.012643     0.000450     NO 
 RMS     Force            0.007302     0.000300     NO 
 Maximum Displacement     0.045301     0.001800     NO 
 RMS     Displacement     0.043681     0.001200     NO 
 Predicted change in Energy=-4.995801D-04
 Lowest energy point so far.  Saving SCF results.
 GradGradGradGradGradGradGradGradGradGradGradGradGradGradGradGradGradGrad

 Leave Link  103 at Thu Sep  2 22:19:27 2021, MaxMem=  1342177280 cpu:         0.0
 (Enter /gpfs/share/home/1801110325/software/g09e01/l202.exe)
                          Input orientation:                          
 ---------------------------------------------------------------------
 Center     Atomic      Atomic             Coordinates (Angstroms)
 Number     Number       Type             X           Y           Z
 ---------------------------------------------------------------------
      1          8           0        0.027487    0.778973    0.000000
      2          1           0        0.986975    0.816908   -0.000000
      3          1           0       -0.257038    1.696089    0.000000
 ---------------------------------------------------------------------
                    Distance matrix (angstroms):
                    1          2          3
     1  O    0.000000
     2  H    0.960237   0.000000
     3  H    0.960237   1.523327   0.000000
 Stoichiometry    H2O
 Framework group  C2V[C2(O),SGV(H2)]
 Deg. of freedom     2
 Full point group                 C2V     NOp   4
 RotChk:  IX=3 Diff= 2.91D-16
 Largest Abelian subgroup         C2V     NOp   4
 Largest concise Abelian subgroup C2      NOp   2
                         Standard orientation:                         
 ---------------------------------------------------------------------
 Center     Atomic      Atomic             Coordinates (Angstroms)
 Number     Number       Type             X           Y           Z
 ---------------------------------------------------------------------
      1          8           0        0.000000    0.000000    0.116949
      2          1           0        0.000000   -0.761664   -0.467794
      3          1           0        0.000000    0.761664   -0.467794
 ---------------------------------------------------------------------
 Rotational constants (GHZ):    825.6918737    432.1907751    283.6961073
 Leave Link  202 at Thu Sep  2 22:19:27 2021, MaxMem=  1342177280 cpu:         0.0
 (Enter /gpfs/share/home/1801110325/software/g09e01/l301.exe)
 Basis read from rwf:  (5D, 7F)
 No pseudopotential information found on rwf file.
 There are    27 symmetry adapted cartesian basis functions of A1  symmetry.
 There are     7 symmetry adapted cartesian basis functions of A2  symmetry.
 There are    12 symmetry adapted cartesian basis functions of B1  symmetry.
 There are    19 symmetry adapted cartesian basis functions of B2  symmetry.
 There are    23 symmetry adapted basis functions of A1  symmetry.
 There are     7 symmetry adapted basis functions of A2  symmetry.
 There are    11 symmetry adapted basis functions of B1  symmetry.
 There are    17 symmetry adapted basis functions of B2  symmetry.
    58 basis functions,    91 primitive gaussians,    65 cartesian basis functions
     5 alpha electrons        5 beta electrons
       nuclear repulsion energy         9.1648236018 Hartrees.
 IExCor= 2523 DFT=T Ex+Corr=TPSSh ExCW=0 ScaHFX=  0.100000
 ScaDFX=  0.900000  0.900000  1.000000  1.000000 ScalE2=  1.000000  1.000000
 IRadAn=      0 IRanWt=     -1 IRanGd=            0 ICorTp=0 IEmpDi=  4
 NAtoms=    3 NActive=    3 NUniq=    2 SFac= 2.25D+00 NAtFMM=   60 NAOKFM=F Big=F
 Integral buffers will be    131072 words long.
 Raffenetti 2 integral format.
 Two-electron integral symmetry is turned on.
 No density basis found on file   724.
 Leave Link  301 at Thu Sep  2 22:19:27 2021, MaxMem=  1342177280 cpu:         0.3
 (Enter /gpfs/share/home/1801110325/software/g09e01/l302.exe)
 NPDir=0 NMtPBC=     1 NCelOv=     1 NCel=       1 NClECP=     1 NCelD=      1
         NCelK=      1 NCelE2=     1 NClLst=     1 CellRange=     0.0.
 One-electron integrals computed using PRISM.
 One-electron integral symmetry used in STVInt
 NBasis=    58 RedAO= T EigKep=  5.81D-03  NBF=    23     7    11    17
 NBsUse=    58 1.00D-06 EigRej= -1.00D+00 NBFU=    23     7    11    17
 Precomputing XC quadrature grid using
 IXCGrd= 4 IRadAn=           0 IRanWt=          -1 IRanGd=           0 AccXCQ= 0.00D+00.
 Generated NRdTot=       0 NPtTot=           0 NUsed=           0 NTot=          32
 NSgBfM=    65    65    65    65    65 MxSgAt=     3 MxSgA2=     3.
 Leave Link  302 at Thu Sep  2 22:19:27 2021, MaxMem=  1342177280 cpu:         0.6
 (Enter /gpfs/share/home/1801110325/software/g09e01/l303.exe)
 DipDrv:  MaxL=1.
 Leave Link  303 at Thu Sep  2 22:19:27 2021, MaxMem=  1342177280 cpu:         0.1
 (Enter /gpfs/share/home/1801110325/software/g09e01/l401.exe)
 Initial guess from the checkpoint file:  "H2O_TPSSh_PC2_OPT_FREQ.chk"
 B after Tr=    -0.000000   -0.000000    0.000000
         Rot=    1.000000    0.000000   -0.000000   -0.000000 Ang=   0.00 deg.
 Guess basis will be translated and rotated to current coordinates.
 JPrj=2 DoOrth=T DoCkMO=T.
 Initial guess orbital symmetries:
       Occupied  (A1) (A1) (B2) (A1) (B1)
       Virtual   (A1) (A1) (A1) (A1) (A1) (A1) (A1) (A1) (A1) (A1)
                 (A1) (A1) (A1) (A1) (A1) (A1) (A1) (A1) (A1) (A1)
                 (A2) (A2) (A2) (A2) (A2) (A2) (A2) (B1) (B1) (B1)
                 (B1) (B1) (B1) (B1) (B1) (B1) (B1) (B2) (B2) (B2)
                 (B2) (B2) (B2) (B2) (B2) (B2) (B2) (B2) (B2) (B2)
                 (B2) (B2) (B2)
 The electronic state of the initial guess is 1-A1.
 Generating alternative initial guess.
 ExpMin= 7.41D-02 ExpMax= 1.48D+04 ExpMxC= 5.05D+02 IAcc=2 IRadAn=         4 AccDes= 0.00D+00
 Harris functional with IExCor= 1009 and IRadAn=       4 diagonalized for initial guess.
 HarFok:  IExCor= 1009 AccDes= 0.00D+00 IRadAn=         4 IDoV= 1 UseB2=F ITyADJ=14
 ICtDFT=  3500011 ScaDFX=  1.000000  1.000000  1.000000  1.000000
 FoFCou: FMM=F IPFlag=           0 FMFlag=      100000 FMFlg1=           0
         NFxFlg=           0 DoJE=T BraDBF=F KetDBF=T FulRan=T
         wScrn=  0.000000 ICntrl=     500 IOpCl=  0 I1Cent=   200000004 NGrid=           0
         NMat0=    1 NMatS0=      1 NMatT0=    0 NMatD0=    1 NMtDS0=    0 NMtDT0=    0
 Petite list used in FoFCou.
 Harris En= -76.4281105949837    
 Leave Link  401 at Thu Sep  2 22:19:27 2021, MaxMem=  1342177280 cpu:         0.8
 (Enter /gpfs/share/home/1801110325/software/g09e01/l502.exe)
 Closed shell SCF:
 Using DIIS extrapolation, IDIIS=  1040.
 Integral symmetry usage will be decided dynamically.
 Keep R1 ints in memory in symmetry-blocked form, NReq=3464159.
 IVT=       32227 IEndB=       32227 NGot=  1342177280 MDV=  1341763174
 LenX=  1341763174 LenY=  1341758508
 Requested convergence on RMS density matrix=1.00D-08 within 128 cycles.
 Requested convergence on MAX density matrix=1.00D-06.
 Requested convergence on             energy=1.00D-06.
 No special actions if energy rises.
 FoFCou: FMM=F IPFlag=           0 FMFlag=           0 FMFlg1=           0
         NFxFlg=           0 DoJE=F BraDBF=F KetDBF=F FulRan=T
         wScrn=  0.000000 ICntrl=     600 IOpCl=  0 I1Cent=           0 NGrid=           0
         NMat0=    1 NMatS0=   1711 NMatT0=    0 NMatD0=    1 NMtDS0=    0 NMtDT0=    0
 Petite list used in FoFCou.

 Cycle   1  Pass 1  IDiag  1:
 E= -76.4600556587101    
 DIIS: error= 2.48D-03 at cycle   1 NSaved=   1.
 NSaved= 1 IEnMin= 1 EnMin= -76.4600556587101     IErMin= 1 ErrMin= 2.48D-03
 ErrMax= 2.48D-03  0.00D+00 EMaxC= 1.00D-01 BMatC= 2.88D-04 BMatP= 2.88D-04
 IDIUse=3 WtCom= 9.75D-01 WtEn= 2.48D-02
 Coeff-Com:  0.100D+01
 Coeff-En:   0.100D+01
 Coeff:      0.100D+01
 Gap=     1.096 Goal=   None    Shift=    0.000
 GapD=    1.096 DampG=2.000 DampE=1.000 DampFc=2.0000 IDamp=-1.
 RMSDP=3.69D-04 MaxDP=5.73D-03              OVMax= 7.75D-03

 Cycle   2  Pass 1  IDiag  1:
 E= -76.4603038832534     Delta-E=       -0.000248224543 Rises=F Damp=F
 DIIS: error= 2.44D-04 at cycle   2 NSaved=   2.
 NSaved= 2 IEnMin= 2 EnMin= -76.4603038832534     IErMin= 2 ErrMin= 2.44D-04
 ErrMax= 2.44D-04  0.00D+00 EMaxC= 1.00D-01 BMatC= 1.60D-06 BMatP= 2.88D-04
 IDIUse=3 WtCom= 9.98D-01 WtEn= 2.44D-03
 Coeff-Com: -0.334D-02 0.100D+01
 Coeff-En:   0.000D+00 0.100D+01
 Coeff:     -0.334D-02 0.100D+01
 Gap=     0.301 Goal=   None    Shift=    0.000
 RMSDP=2.30D-05 MaxDP=4.15D-04 DE=-2.48D-04 OVMax= 6.77D-04

 Cycle   3  Pass 1  IDiag  1:
 E= -76.4603037764453     Delta-E=        0.000000106808 Rises=F Damp=F
 DIIS: error= 2.86D-04 at cycle   3 NSaved=   3.
 NSaved= 3 IEnMin= 2 EnMin= -76.4603038832534     IErMin= 2 ErrMin= 2.44D-04
 ErrMax= 2.86D-04  0.00D+00 EMaxC= 1.00D-01 BMatC= 1.94D-06 BMatP= 1.60D-06
 IDIUse=3 WtCom= 3.72D-01 WtEn= 6.28D-01
 Coeff-Com: -0.544D-02 0.533D+00 0.473D+00
 Coeff-En:   0.000D+00 0.525D+00 0.475D+00
 Coeff:     -0.202D-02 0.528D+00 0.474D+00
 Gap=     0.300 Goal=   None    Shift=    0.000
 RMSDP=1.31D-05 MaxDP=2.24D-04 DE= 1.07D-07 OVMax= 3.97D-04

 Cycle   4  Pass 1  IDiag  1:
 E= -76.4603050014196     Delta-E=       -0.000001224974 Rises=F Damp=F
 DIIS: error= 7.39D-05 at cycle   4 NSaved=   4.
 NSaved= 4 IEnMin= 4 EnMin= -76.4603050014196     IErMin= 4 ErrMin= 7.39D-05
 ErrMax= 7.39D-05  0.00D+00 EMaxC= 1.00D-01 BMatC= 1.27D-07 BMatP= 1.60D-06
 IDIUse=1 WtCom= 1.00D+00 WtEn= 0.00D+00
 Coeff-Com: -0.127D-02 0.307D-01 0.212D+00 0.759D+00
 Coeff:     -0.127D-02 0.307D-01 0.212D+00 0.759D+00
 Gap=     0.300 Goal=   None    Shift=    0.000
 RMSDP=2.81D-06 MaxDP=4.81D-05 DE=-1.22D-06 OVMax= 8.20D-05

 Cycle   5  Pass 1  IDiag  1:
 E= -76.4603050880824     Delta-E=       -0.000000086663 Rises=F Damp=F
 DIIS: error= 1.78D-06 at cycle   5 NSaved=   5.
 NSaved= 5 IEnMin= 5 EnMin= -76.4603050880824     IErMin= 5 ErrMin= 1.78D-06
 ErrMax= 1.78D-06  0.00D+00 EMaxC= 1.00D-01 BMatC= 6.87D-11 BMatP= 1.27D-07
 IDIUse=1 WtCom= 1.00D+00 WtEn= 0.00D+00
 Coeff-Com: -0.774D-04-0.118D-02 0.103D-01 0.506D-01 0.940D+00
 Coeff:     -0.774D-04-0.118D-02 0.103D-01 0.506D-01 0.940D+00
 Gap=     0.300 Goal=   None    Shift=    0.000
 RMSDP=1.01D-07 MaxDP=1.50D-06 DE=-8.67D-08 OVMax= 2.71D-06

 Cycle   6  Pass 1  IDiag  1:
 E= -76.4603050881244     Delta-E=       -0.000000000042 Rises=F Damp=F
 DIIS: error= 6.10D-07 at cycle   6 NSaved=   6.
 NSaved= 6 IEnMin= 6 EnMin= -76.4603050881244     IErMin= 6 ErrMin= 6.10D-07
 ErrMax= 6.10D-07  0.00D+00 EMaxC= 1.00D-01 BMatC= 6.25D-12 BMatP= 6.87D-11
 IDIUse=1 WtCom= 1.00D+00 WtEn= 0.00D+00
 Coeff-Com:  0.277D-04-0.111D-02-0.348D-02-0.934D-02 0.245D+00 0.769D+00
 Coeff:      0.277D-04-0.111D-02-0.348D-02-0.934D-02 0.245D+00 0.769D+00
 Gap=     0.300 Goal=   None    Shift=    0.000
 RMSDP=2.21D-08 MaxDP=3.33D-07 DE=-4.20D-11 OVMax= 6.20D-07

 Cycle   7  Pass 1  IDiag  1:
 E= -76.4603050881287     Delta-E=       -0.000000000004 Rises=F Damp=F
 DIIS: error= 1.11D-08 at cycle   7 NSaved=   7.
 NSaved= 7 IEnMin= 7 EnMin= -76.4603050881287     IErMin= 7 ErrMin= 1.11D-08
 ErrMax= 1.11D-08  0.00D+00 EMaxC= 1.00D-01 BMatC= 2.35D-15 BMatP= 6.25D-12
 IDIUse=1 WtCom= 1.00D+00 WtEn= 0.00D+00
 Coeff-Com:  0.148D-06 0.184D-04 0.116D-04-0.664D-04-0.774D-02-0.732D-02
 Coeff-Com:  0.102D+01
 Coeff:      0.148D-06 0.184D-04 0.116D-04-0.664D-04-0.774D-02-0.732D-02
 Coeff:      0.102D+01
 Gap=     0.300 Goal=   None    Shift=    0.000
 RMSDP=6.28D-10 MaxDP=8.07D-09 DE=-4.29D-12 OVMax= 1.98D-08

 SCF Done:  E(RTPSSh) =  -76.4603050881     A.U. after    7 cycles
            NFock=  7  Conv=0.63D-09     -V/T= 2.0036
 KE= 7.618670955927D+01 PE=-1.992207782088D+02 EE= 3.740893995958D+01
 Leave Link  502 at Thu Sep  2 22:19:27 2021, MaxMem=  1342177280 cpu:         1.8
 (Enter /gpfs/share/home/1801110325/software/g09e01/l701.exe)
 Compute integral first derivatives.
 ... and contract with generalized density number  0.
 Leave Link  701 at Thu Sep  2 22:19:28 2021, MaxMem=  1342177280 cpu:         1.8
 (Enter /gpfs/share/home/1801110325/software/g09e01/l702.exe)
 L702 exits ... SP integral derivatives will be done elsewhere.
 Leave Link  702 at Thu Sep  2 22:19:28 2021, MaxMem=  1342177280 cpu:         0.1
 (Enter /gpfs/share/home/1801110325/software/g09e01/l703.exe)
 Compute integral first derivatives, UseDBF=F ICtDFT=           0.
 Integral derivatives from FoFJK, PRISM(SPDF).
 Calling FoFJK, ICntrl=      2127 FMM=F ISym2X=1 I1Cent= 0 IOpClX= 0 NMat=1 NMatS=1 NMatT=0.
 FoFJK:  IHMeth= 1 ICntrl=    2127 DoSepK=F KAlg= 0 I1Cent=   0 FoldK=F
 IRaf=         0 NMat=   1 IRICut=       1 DoRegI=T DoRafI=F ISym2E= 1.
 FoFCou: FMM=F IPFlag=           0 FMFlag=      100000 FMFlg1=         800
         NFxFlg=           0 DoJE=F BraDBF=F KetDBF=F FulRan=T
         wScrn=  0.000000 ICntrl=    2127 IOpCl=  0 I1Cent=           0 NGrid=           0
         NMat0=    1 NMatS0=      1 NMatT0=    0 NMatD0=    1 NMtDS0=    0 NMtDT0=    0
 Petite list used in FoFCou.
 Leave Link  703 at Thu Sep  2 22:19:28 2021, MaxMem=  1342177280 cpu:         1.9
 (Enter /gpfs/share/home/1801110325/software/g09e01/l716.exe)
 Dipole        = 3.74238089D-17 0.00000000D+00-7.71656880D-01
 ***** Axes restored to original set *****
 -------------------------------------------------------------------
 Center     Atomic                   Forces (Hartrees/Bohr)
 Number     Number              X              Y              Z
 -------------------------------------------------------------------
      1        8          -0.001956913   -0.002768968    0.000000000
      2        1           0.002317413    0.000438203   -0.000000000
      3        1          -0.000360500    0.002330765   -0.000000000
 -------------------------------------------------------------------
 Cartesian Forces:  Max     0.002768968 RMS     0.001585403
 Leave Link  716 at Thu Sep  2 22:19:28 2021, MaxMem=  1342177280 cpu:         0.1
 (Enter /gpfs/share/home/1801110325/software/g09e01/l103.exe)

 GradGradGradGradGradGradGradGradGradGradGradGradGradGradGradGradGradGrad
 Berny optimization.
 Using GEDIIS/GDIIS optimizer.
 FormGI is forming the generalized inverse of G from B-inverse, IUseBI=4.
 Internal  Forces:  Max     0.002332915 RMS     0.001939062
 Search for a local minimum.
 Step number   2 out of a maximum of   20
 All quantities printed in internal units (Hartrees-Bohrs-Radians)
 RMS Force = .19391D-02 SwitMx=.10000D-02 MixMth= 1
 Mixed Optimization -- RFO/linear search
 Update second derivatives using D2CorX and points    1    2
 DE= -5.29D-04 DEPred=-5.00D-04 R= 1.06D+00
 TightC=F SS=  1.41D+00  RLast= 7.85D-02 DXNew= 5.0454D-01 2.3559D-01
 Trust test= 1.06D+00 RLast= 7.85D-02 DXMaxT set to 3.00D-01
 The second derivative matrix:
                          R1        R2        A1
           R1           0.55928
           R2           0.00455   0.55928
           A1           0.02975   0.02975   0.15333
 ITU=  1  0
 Use linear search instead of GDIIS.
     Eigenvalues ---    0.14906   0.55473   0.56810
 RFO step:  Lambda=-2.14929805D-05 EMin= 1.49061626D-01
 Quartic linear search produced a step of  0.05211.
 Iteration  1 RMS(Cart)=  0.00319770 RMS(Int)=  0.00000984
 Iteration  2 RMS(Cart)=  0.00001115 RMS(Int)=  0.00000000
 Iteration  3 RMS(Cart)=  0.00000000 RMS(Int)=  0.00000000
 ITry= 1 IFail=0 DXMaxC= 3.68D-03 DCOld= 1.00D+10 DXMaxT= 3.00D-01 DXLimC= 3.00D+00 Rises=F
 ClnCor:  largest displacement from symmetrization is 2.76D-15 for atom     3.
 Variable       Old X    -DE/DX   Delta X   Delta X   Delta X     New X
                                 (Linear)    (Quad)   (Total)
    R1        1.81459   0.00233   0.00002   0.00441   0.00443   1.81902
    R2        1.81459   0.00233   0.00002   0.00441   0.00443   1.81902
    A1        1.83210  -0.00063  -0.00409  -0.00153  -0.00562   1.82648
         Item               Value     Threshold  Converged?
 Maximum Force            0.002333     0.000450     NO 
 RMS     Force            0.001939     0.000300     NO 
 Maximum Displacement     0.003676     0.001800     NO 
 RMS     Displacement     0.003199     0.001200     NO 
 Predicted change in Energy=-1.219634D-05
 Lowest energy point so far.  Saving SCF results.
 GradGradGradGradGradGradGradGradGradGradGradGradGradGradGradGradGradGrad

 Leave Link  103 at Thu Sep  2 22:19:28 2021, MaxMem=  1342177280 cpu:         0.0
 (Enter /gpfs/share/home/1801110325/software/g09e01/l202.exe)
                          Input orientation:                          
 ---------------------------------------------------------------------
 Center     Atomic      Atomic             Coordinates (Angstroms)
 Number     Number       Type             X           Y           Z
 ---------------------------------------------------------------------
      1          8           0        0.026112    0.777028    0.000000
      2          1           0        0.987834    0.817759   -0.000000
      3          1           0       -0.256522    1.697183    0.000000
 ---------------------------------------------------------------------
                    Distance matrix (angstroms):
                    1          2          3
     1  O    0.000000
     2  H    0.962584   0.000000
     3  H    0.962584   1.523748   0.000000
 Stoichiometry    H2O
 Framework group  C2V[C2(O),SGV(H2)]
 Deg. of freedom     2
 Full point group                 C2V     NOp   4
 RotChk:  IX=3 Diff= 4.71D-16
 Largest Abelian subgroup         C2V     NOp   4
 Largest concise Abelian subgroup C2      NOp   2
                         Standard orientation:                         
 ---------------------------------------------------------------------
 Center     Atomic      Atomic             Coordinates (Angstroms)
 Number     Number       Type             X           Y           Z
 ---------------------------------------------------------------------
      1          8           0       -0.000000   -0.000000    0.117663
      2          1           0        0.000000   -0.761874   -0.470652
      3          1           0        0.000000    0.761874   -0.470652
 ---------------------------------------------------------------------
 Rotational constants (GHZ):    815.6938367    431.9521633    282.4043979
 Leave Link  202 at Thu Sep  2 22:19:28 2021, MaxMem=  1342177280 cpu:         0.0
 (Enter /gpfs/share/home/1801110325/software/g09e01/l301.exe)
 Basis read from rwf:  (5D, 7F)
 No pseudopotential information found on rwf file.
 There are    27 symmetry adapted cartesian basis functions of A1  symmetry.
 There are     7 symmetry adapted cartesian basis functions of A2  symmetry.
 There are    12 symmetry adapted cartesian basis functions of B1  symmetry.
 There are    19 symmetry adapted cartesian basis functions of B2  symmetry.
 There are    23 symmetry adapted basis functions of A1  symmetry.
 There are     7 symmetry adapted basis functions of A2  symmetry.
 There are    11 symmetry adapted basis functions of B1  symmetry.
 There are    17 symmetry adapted basis functions of B2  symmetry.
    58 basis functions,    91 primitive gaussians,    65 cartesian basis functions
     5 alpha electrons        5 beta electrons
       nuclear repulsion energy         9.1432354135 Hartrees.
 IExCor= 2523 DFT=T Ex+Corr=TPSSh ExCW=0 ScaHFX=  0.100000
 ScaDFX=  0.900000  0.900000  1.000000  1.000000 ScalE2=  1.000000  1.000000
 IRadAn=      0 IRanWt=     -1 IRanGd=            0 ICorTp=0 IEmpDi=  4
 NAtoms=    3 NActive=    3 NUniq=    2 SFac= 2.25D+00 NAtFMM=   60 NAOKFM=F Big=F
 Integral buffers will be    131072 words long.
 Raffenetti 2 integral format.
 Two-electron integral symmetry is turned on.
 No density basis found on file   724.
 Leave Link  301 at Thu Sep  2 22:19:28 2021, MaxMem=  1342177280 cpu:         0.3
 (Enter /gpfs/share/home/1801110325/software/g09e01/l302.exe)
 NPDir=0 NMtPBC=     1 NCelOv=     1 NCel=       1 NClECP=     1 NCelD=      1
         NCelK=      1 NCelE2=     1 NClLst=     1 CellRange=     0.0.
 One-electron integrals computed using PRISM.
 One-electron integral symmetry used in STVInt
 NBasis=    58 RedAO= T EigKep=  5.84D-03  NBF=    23     7    11    17
 NBsUse=    58 1.00D-06 EigRej= -1.00D+00 NBFU=    23     7    11    17
 Precomputing XC quadrature grid using
 IXCGrd= 4 IRadAn=           0 IRanWt=          -1 IRanGd=           0 AccXCQ= 0.00D+00.
 Generated NRdTot=       0 NPtTot=           0 NUsed=           0 NTot=          32
 NSgBfM=    65    65    65    65    65 MxSgAt=     3 MxSgA2=     3.
 Leave Link  302 at Thu Sep  2 22:19:28 2021, MaxMem=  1342177280 cpu:         0.6
 (Enter /gpfs/share/home/1801110325/software/g09e01/l303.exe)
 DipDrv:  MaxL=1.
 Leave Link  303 at Thu Sep  2 22:19:28 2021, MaxMem=  1342177280 cpu:         0.1
 (Enter /gpfs/share/home/1801110325/software/g09e01/l401.exe)
 Initial guess from the checkpoint file:  "H2O_TPSSh_PC2_OPT_FREQ.chk"
 B after Tr=     0.000000   -0.000000   -0.000000
         Rot=    1.000000   -0.000000   -0.000000    0.000000 Ang=   0.00 deg.
 Guess basis will be translated and rotated to current coordinates.
 JPrj=2 DoOrth=T DoCkMO=T.
 Initial guess orbital symmetries:
       Occupied  (A1) (A1) (B2) (A1) (B1)
       Virtual   (A1) (A1) (A1) (A1) (A1) (A1) (A1) (A1) (A1) (A1)
                 (A1) (A1) (A1) (A1) (A1) (A1) (A1) (A1) (A1) (A1)
                 (A2) (A2) (A2) (A2) (A2) (A2) (A2) (B1) (B1) (B1)
                 (B1) (B1) (B1) (B1) (B1) (B1) (B1) (B2) (B2) (B2)
                 (B2) (B2) (B2) (B2) (B2) (B2) (B2) (B2) (B2) (B2)
                 (B2) (B2) (B2)
 The electronic state of the initial guess is 1-A1.
 Leave Link  401 at Thu Sep  2 22:19:28 2021, MaxMem=  1342177280 cpu:         0.4
 (Enter /gpfs/share/home/1801110325/software/g09e01/l502.exe)
 Closed shell SCF:
 Using DIIS extrapolation, IDIIS=  1040.
 Integral symmetry usage will be decided dynamically.
 Keep R1 ints in memory in symmetry-blocked form, NReq=3464159.
 IVT=       32227 IEndB=       32227 NGot=  1342177280 MDV=  1341763174
 LenX=  1341763174 LenY=  1341758508
 Requested convergence on RMS density matrix=1.00D-08 within 128 cycles.
 Requested convergence on MAX density matrix=1.00D-06.
 Requested convergence on             energy=1.00D-06.
 No special actions if energy rises.
 FoFCou: FMM=F IPFlag=           0 FMFlag=           0 FMFlg1=           0
         NFxFlg=           0 DoJE=F BraDBF=F KetDBF=F FulRan=T
         wScrn=  0.000000 ICntrl=     600 IOpCl=  0 I1Cent=           0 NGrid=           0
         NMat0=    1 NMatS0=   1711 NMatT0=    0 NMatD0=    1 NMtDS0=    0 NMtDT0=    0
 Petite list used in FoFCou.

 Cycle   1  Pass 1  IDiag  1:
 E= -76.4603126908395    
 DIIS: error= 5.57D-04 at cycle   1 NSaved=   1.
 NSaved= 1 IEnMin= 1 EnMin= -76.4603126908395     IErMin= 1 ErrMin= 5.57D-04
 ErrMax= 5.57D-04  0.00D+00 EMaxC= 1.00D-01 BMatC= 6.68D-06 BMatP= 6.68D-06
 IDIUse=3 WtCom= 9.94D-01 WtEn= 5.57D-03
 Coeff-Com:  0.100D+01
 Coeff-En:   0.100D+01
 Coeff:      0.100D+01
 Gap=     1.096 Goal=   None    Shift=    0.000
 RMSDP=4.65D-05 MaxDP=7.51D-04              OVMax= 1.21D-03

 Cycle   2  Pass 1  IDiag  1:
 E= -76.4603168660411     Delta-E=       -0.000004175202 Rises=F Damp=F
 DIIS: error= 2.65D-04 at cycle   2 NSaved=   2.
 NSaved= 2 IEnMin= 2 EnMin= -76.4603168660411     IErMin= 2 ErrMin= 2.65D-04
 ErrMax= 2.65D-04  0.00D+00 EMaxC= 1.00D-01 BMatC= 1.56D-06 BMatP= 6.68D-06
 IDIUse=3 WtCom= 9.97D-01 WtEn= 2.65D-03
 Coeff-Com:  0.237D+00 0.763D+00
 Coeff-En:   0.000D+00 0.100D+01
 Coeff:      0.236D+00 0.764D+00
 Gap=     0.300 Goal=   None    Shift=    0.000
 RMSDP=1.89D-05 MaxDP=3.48D-04 DE=-4.18D-06 OVMax= 5.72D-04

 Cycle   3  Pass 1  IDiag  1:
 E= -76.4603168868855     Delta-E=       -0.000000020844 Rises=F Damp=F
 DIIS: error= 2.52D-04 at cycle   3 NSaved=   3.
 NSaved= 3 IEnMin= 3 EnMin= -76.4603168868855     IErMin= 3 ErrMin= 2.52D-04
 ErrMax= 2.52D-04  0.00D+00 EMaxC= 1.00D-01 BMatC= 1.52D-06 BMatP= 1.56D-06
 IDIUse=3 WtCom= 9.97D-01 WtEn= 2.52D-03
 Coeff-Com: -0.306D-02 0.498D+00 0.505D+00
 Coeff-En:   0.000D+00 0.496D+00 0.504D+00
 Coeff:     -0.305D-02 0.498D+00 0.505D+00
 Gap=     0.300 Goal=   None    Shift=    0.000
 RMSDP=9.45D-06 MaxDP=1.60D-04 DE=-2.08D-08 OVMax= 2.95D-04

 Cycle   4  Pass 1  IDiag  1:
 E= -76.4603179115597     Delta-E=       -0.000001024674 Rises=F Damp=F
 DIIS: error= 1.66D-05 at cycle   4 NSaved=   4.
 NSaved= 4 IEnMin= 4 EnMin= -76.4603179115597     IErMin= 4 ErrMin= 1.66D-05
 ErrMax= 1.66D-05  0.00D+00 EMaxC= 1.00D-01 BMatC= 5.23D-09 BMatP= 1.52D-06
 IDIUse=1 WtCom= 1.00D+00 WtEn= 0.00D+00
 Coeff-Com: -0.627D-02 0.126D+00 0.149D+00 0.731D+00
 Coeff:     -0.627D-02 0.126D+00 0.149D+00 0.731D+00
 Gap=     0.300 Goal=   None    Shift=    0.000
 RMSDP=6.90D-07 MaxDP=1.18D-05 DE=-1.02D-06 OVMax= 2.08D-05

 Cycle   5  Pass 1  IDiag  1:
 E= -76.4603179153228     Delta-E=       -0.000000003763 Rises=F Damp=F
 DIIS: error= 1.15D-06 at cycle   5 NSaved=   5.
 NSaved= 5 IEnMin= 5 EnMin= -76.4603179153228     IErMin= 5 ErrMin= 1.15D-06
 ErrMax= 1.15D-06  0.00D+00 EMaxC= 1.00D-01 BMatC= 3.15D-11 BMatP= 5.23D-09
 IDIUse=1 WtCom= 1.00D+00 WtEn= 0.00D+00
 Coeff-Com: -0.430D-03 0.574D-03 0.644D-03 0.712D-01 0.928D+00
 Coeff:     -0.430D-03 0.574D-03 0.644D-03 0.712D-01 0.928D+00
 Gap=     0.300 Goal=   None    Shift=    0.000
 RMSDP=4.83D-08 MaxDP=7.75D-07 DE=-3.76D-09 OVMax= 1.72D-06

 Cycle   6  Pass 1  IDiag  1:
 E= -76.4603179153443     Delta-E=       -0.000000000022 Rises=F Damp=F
 DIIS: error= 3.14D-08 at cycle   6 NSaved=   6.
 NSaved= 6 IEnMin= 6 EnMin= -76.4603179153443     IErMin= 6 ErrMin= 3.14D-08
 ErrMax= 3.14D-08  0.00D+00 EMaxC= 1.00D-01 BMatC= 3.31D-14 BMatP= 3.15D-11
 IDIUse=1 WtCom= 1.00D+00 WtEn= 0.00D+00
 Coeff-Com:  0.278D-04-0.680D-03-0.695D-03-0.107D-02 0.154D-01 0.987D+00
 Coeff:      0.278D-04-0.680D-03-0.695D-03-0.107D-02 0.154D-01 0.987D+00
 Gap=     0.300 Goal=   None    Shift=    0.000
 RMSDP=2.79D-09 MaxDP=5.26D-08 DE=-2.15D-11 OVMax= 8.15D-08

 SCF Done:  E(RTPSSh) =  -76.4603179153     A.U. after    6 cycles
            NFock=  6  Conv=0.28D-08     -V/T= 2.0037
 KE= 7.617927977605D+01 PE=-1.991744415582D+02 EE= 3.739160845325D+01
 Leave Link  502 at Thu Sep  2 22:19:29 2021, MaxMem=  1342177280 cpu:         1.8
 (Enter /gpfs/share/home/1801110325/software/g09e01/l701.exe)
 Compute integral first derivatives.
 ... and contract with generalized density number  0.
 Leave Link  701 at Thu Sep  2 22:19:29 2021, MaxMem=  1342177280 cpu:         1.5
 (Enter /gpfs/share/home/1801110325/software/g09e01/l702.exe)
 L702 exits ... SP integral derivatives will be done elsewhere.
 Leave Link  702 at Thu Sep  2 22:19:29 2021, MaxMem=  1342177280 cpu:         0.1
 (Enter /gpfs/share/home/1801110325/software/g09e01/l703.exe)
 Compute integral first derivatives, UseDBF=F ICtDFT=           0.
 Integral derivatives from FoFJK, PRISM(SPDF).
 Calling FoFJK, ICntrl=      2127 FMM=F ISym2X=1 I1Cent= 0 IOpClX= 0 NMat=1 NMatS=1 NMatT=0.
 FoFJK:  IHMeth= 1 ICntrl=    2127 DoSepK=F KAlg= 0 I1Cent=   0 FoldK=F
 IRaf=         0 NMat=   1 IRICut=       1 DoRegI=T DoRafI=F ISym2E= 1.
 FoFCou: FMM=F IPFlag=           0 FMFlag=      100000 FMFlg1=         800
         NFxFlg=           0 DoJE=F BraDBF=F KetDBF=F FulRan=T
         wScrn=  0.000000 ICntrl=    2127 IOpCl=  0 I1Cent=           0 NGrid=           0
         NMat0=    1 NMatS0=      1 NMatT0=    0 NMatD0=    1 NMtDS0=    0 NMtDT0=    0
 Petite list used in FoFCou.
 Leave Link  703 at Thu Sep  2 22:19:29 2021, MaxMem=  1342177280 cpu:         1.9
 (Enter /gpfs/share/home/1801110325/software/g09e01/l716.exe)
 Dipole        = 3.76297233D-17-6.66133815D-16-7.73876284D-01
 ***** Axes restored to original set *****
 -------------------------------------------------------------------
 Center     Atomic                   Forces (Hartrees/Bohr)
 Number     Number              X              Y              Z
 -------------------------------------------------------------------
      1        8          -0.000118071   -0.000167067    0.000000000
      2        1           0.000168319    0.000006300   -0.000000000
      3        1          -0.000050248    0.000160767   -0.000000000
 -------------------------------------------------------------------
 Cartesian Forces:  Max     0.000168319 RMS     0.000104666
 Leave Link  716 at Thu Sep  2 22:19:29 2021, MaxMem=  1342177280 cpu:         0.1
 (Enter /gpfs/share/home/1801110325/software/g09e01/l103.exe)

 GradGradGradGradGradGradGradGradGradGradGradGradGradGradGradGradGradGrad
 Berny optimization.
 Using GEDIIS/GDIIS optimizer.
 FormGI is forming the generalized inverse of G from B-inverse, IUseBI=4.
 Internal  Forces:  Max     0.000168435 RMS     0.000137529
 Search for a local minimum.
 Step number   3 out of a maximum of   20
 All quantities printed in internal units (Hartrees-Bohrs-Radians)
 RMS Force = .13753D-03 SwitMx=.10000D-02 MixMth= 2
 Mixed Optimization -- En-DIIS/RFO-DIIS
 Update second derivatives using D2CorX and points    1    2    3
 DE= -1.28D-05 DEPred=-1.22D-05 R= 1.05D+00
 TightC=F SS=  1.41D+00  RLast= 8.42D-03 DXNew= 5.0454D-01 2.5265D-02
 Trust test= 1.05D+00 RLast= 8.42D-03 DXMaxT set to 3.00D-01
 The second derivative matrix:
                          R1        R2        A1
           R1           0.53957
           R2          -0.01517   0.53957
           A1           0.02857   0.02857   0.15710
 ITU=  1  1  0
 Use linear search instead of GDIIS.
     Eigenvalues ---    0.15271   0.52879   0.55473
 RFO step:  Lambda=-1.26931444D-08 EMin= 1.52713214D-01
 Quartic linear search produced a step of  0.06580.
 Iteration  1 RMS(Cart)=  0.00020869 RMS(Int)=  0.00000001
 Iteration  2 RMS(Cart)=  0.00000001 RMS(Int)=  0.00000000
 ITry= 1 IFail=0 DXMaxC= 2.15D-04 DCOld= 1.00D+10 DXMaxT= 3.00D-01 DXLimC= 3.00D+00 Rises=F
 ClnCor:  largest displacement from symmetrization is 1.30D-14 for atom     3.
 Variable       Old X    -DE/DX   Delta X   Delta X   Delta X     New X
                                 (Linear)    (Quad)   (Total)
    R1        1.81902   0.00017   0.00029   0.00004   0.00033   1.81935
    R2        1.81902   0.00017   0.00029   0.00004   0.00033   1.81935
    A1        1.82648   0.00000  -0.00037   0.00025  -0.00012   1.82637
         Item               Value     Threshold  Converged?
 Maximum Force            0.000168     0.000450     YES
 RMS     Force            0.000138     0.000300     YES
 Maximum Displacement     0.000215     0.001800     YES
 RMS     Displacement     0.000209     0.001200     YES
 Predicted change in Energy=-5.501843D-08
 Optimization completed.
    -- Stationary point found.
                           ----------------------------
                           !   Optimized Parameters   !
                           ! (Angstroms and Degrees)  !
 --------------------------                            --------------------------
 ! Name  Definition              Value          Derivative Info.                !
 --------------------------------------------------------------------------------
 ! R1    R(1,2)                  0.9626         -DE/DX =    0.0002              !
 ! R2    R(1,3)                  0.9626         -DE/DX =    0.0002              !
 ! A1    A(2,1,3)              104.6497         -DE/DX =    0.0                 !
 --------------------------------------------------------------------------------
 Lowest energy point so far.  Saving SCF results.
 GradGradGradGradGradGradGradGradGradGradGradGradGradGradGradGradGradGrad

 Largest change from initial coordinates is atom    3       0.035 Angstoms.
 Leave Link  103 at Thu Sep  2 22:19:30 2021, MaxMem=  1342177280 cpu:         0.0
 (Enter /gpfs/share/home/1801110325/software/g09e01/l202.exe)
                          Input orientation:                          
 ---------------------------------------------------------------------
 Center     Atomic      Atomic             Coordinates (Angstroms)
 Number     Number       Type             X           Y           Z
 ---------------------------------------------------------------------
      1          8           0        0.026112    0.777028    0.000000
      2          1           0        0.987834    0.817759   -0.000000
      3          1           0       -0.256522    1.697183    0.000000
 ---------------------------------------------------------------------
                    Distance matrix (angstroms):
                    1          2          3
     1  O    0.000000
     2  H    0.962584   0.000000
     3  H    0.962584   1.523748   0.000000
 Stoichiometry    H2O
 Framework group  C2V[C2(O),SGV(H2)]
 Deg. of freedom     2
 Full point group                 C2V     NOp   4
 RotChk:  IX=3 Diff= 9.93D-16
 Largest Abelian subgroup         C2V     NOp   4
 Largest concise Abelian subgroup C2      NOp   2
                         Standard orientation:                         
 ---------------------------------------------------------------------
 Center     Atomic      Atomic             Coordinates (Angstroms)
 Number     Number       Type             X           Y           Z
 ---------------------------------------------------------------------
      1          8           0        0.000000   -0.000000    0.117663
      2          1           0        0.000000   -0.761874   -0.470652
      3          1           0        0.000000    0.761874   -0.470652
 ---------------------------------------------------------------------
 Rotational constants (GHZ):    815.6938367    431.9521633    282.4043979
 Leave Link  202 at Thu Sep  2 22:19:30 2021, MaxMem=  1342177280 cpu:         0.0
 (Enter /gpfs/share/home/1801110325/software/g09e01/l601.exe)
 Copying SCF densities to generalized density rwf, IOpCl= 0 IROHF=0.

 **********************************************************************

            Population analysis using the SCF density.

 **********************************************************************

 Orbital symmetries:
       Occupied  (A1) (A1) (B2) (A1) (B1)
       Virtual   (A1) (B2) (B2) (A1) (A1) (B1) (B2) (A1) (A2) (A1)
                 (B1) (B2) (B2) (A1) (A1) (B2) (B1) (A2) (A1) (A1)
                 (B2) (B1) (A1) (B1) (B2) (A1) (A2) (B2) (B1) (B2)
                 (A1) (A2) (A1) (B2) (B1) (A2) (A1) (B2) (B2) (A1)
                 (B1) (A1) (B1) (B2) (A2) (B1) (A1) (A2) (A1) (A1)
                 (B2) (B2) (A1)
 The electronic state is 1-A1.
 Alpha  occ. eigenvalues --  -19.05373  -0.99116  -0.51201  -0.36981  -0.29265
 Alpha virt. eigenvalues --    0.00726   0.06783   0.27354   0.28759   0.33109
 Alpha virt. eigenvalues --    0.34089   0.44972   0.67013   0.76029   0.79054
 Alpha virt. eigenvalues --    0.86217   1.04148   1.16877   1.21772   1.42826
 Alpha virt. eigenvalues --    1.46162   1.75693   1.82088   1.84774   2.05118
 Alpha virt. eigenvalues --    2.07842   2.26203   2.91067   3.38742   3.40021
 Alpha virt. eigenvalues --    3.53016   3.60830   3.73387   3.82550   3.88423
 Alpha virt. eigenvalues --    4.04246   4.08093   4.29128   4.40080   4.49343
 Alpha virt. eigenvalues --    4.52797   4.66839   4.84938   4.92634   4.93561
 Alpha virt. eigenvalues --    4.99692   5.68142   6.02409   6.04366   6.21680
 Alpha virt. eigenvalues --    6.23001   6.33167   6.33764   6.42088   6.86284
 Alpha virt. eigenvalues --    6.99387   7.46662  15.04755
          Condensed to atoms (all electrons):
               1          2          3
     1  O    7.717075   0.359291   0.359291
     2  H    0.359291   0.448399  -0.025518
     3  H    0.359291  -0.025518   0.448399
 Mulliken charges:
               1
     1  O   -0.435657
     2  H    0.217828
     3  H    0.217828
 Sum of Mulliken charges =   0.00000
 Mulliken charges with hydrogens summed into heavy atoms:
               1
     1  O    0.000000
 Electronic spatial extent (au):  <R**2>=             19.7589
 Charge=              0.0000 electrons
 Dipole moment (field-independent basis, Debye):
    X=              0.0000    Y=             -0.0000    Z=             -1.9670  Tot=              1.9670
 Quadrupole moment (field-independent basis, Debye-Ang):
   XX=             -7.6069   YY=             -4.3788   ZZ=             -6.3547
   XY=              0.0000   XZ=             -0.0000   YZ=              0.0000
 Traceless Quadrupole moment (field-independent basis, Debye-Ang):
   XX=             -1.4934   YY=              1.7346   ZZ=             -0.2412
   XY=              0.0000   XZ=             -0.0000   YZ=              0.0000
 Octapole moment (field-independent basis, Debye-Ang**2):
  XXX=             -0.0000  YYY=             -0.0000  ZZZ=             -1.2272  XYY=              0.0000
  XXY=              0.0000  XXZ=             -0.3277  XZZ=             -0.0000  YZZ=             -0.0000
  YYZ=             -1.3056  XYZ=             -0.0000
 Hexadecapole moment (field-independent basis, Debye-Ang**3):
 XXXX=             -6.8268 YYYY=             -6.3151 ZZZZ=             -7.4179 XXXY=             -0.0000
 XXXZ=              0.0000 YYYX=             -0.0000 YYYZ=              0.0000 ZZZX=              0.0000
 ZZZY=              0.0000 XXYY=             -2.4968 XXZZ=             -2.4271 YYZZ=             -1.9718
 XXYZ=             -0.0000 YYXZ=             -0.0000 ZZXY=             -0.0000
 N-N= 9.143235413517D+00 E-N=-1.991744420718D+02  KE= 7.617927977605D+01
 Symmetry A1   KE= 6.798001319372D+01
 Symmetry A2   KE=-2.132294848549D-21
 Symmetry B1   KE= 4.537185622993D+00
 Symmetry B2   KE= 3.662080959337D+00
 No NMR shielding tensors so no spin-rotation constants.
 Leave Link  601 at Thu Sep  2 22:19:30 2021, MaxMem=  1342177280 cpu:         0.5
 (Enter /gpfs/share/home/1801110325/software/g09e01/l9999.exe)
 1\1\GINC-A8U03N01\FOpt\RTPSSh\Gen\H2O1\1801110325\02-Sep-2021\0\\#p op
 t freq TPSSh/gen SCF(novaracc,noincfock) int=acc2e=12\\H2O_TPSSh_PC2_O
 PT_FREQ\\0,1\O,0.026112308,0.7770279199,0.\H,0.9878336899,0.8177586664
 ,0.\H,-0.25652238,1.6971826042,0.\\Version=EM64L-G09RevE.01\State=1-A1
 \HF=-76.4603179\RMSD=2.791e-09\RMSF=1.047e-04\Dipole=0.446639,0.631979
 5,0.\Quadrupole=0.8003398,0.3099826,-1.1103224,-0.692363,0.,0.\PG=C02V
  [C2(O1),SGV(H2)]\\@


  ON THE CHOICE OF THE CORRECT LANGUAGE -
 I SPEAK SPANISH TO GOD, ITALIAN TO WOMEN,
 FRENCH TO MEN, AND GERMAN TO MY HORSE.
          -- CHARLES V
 Leave Link 9999 at Thu Sep  2 22:19:30 2021, MaxMem=  1342177280 cpu:         0.1
 Job cpu time:       0 days  0 hours  0 minutes 33.8 seconds.
 File lengths (MBytes):  RWF=   2160 Int=      0 D2E=      0 Chk=     32 Scr=     32
 Normal termination of Gaussian 09 at Thu Sep  2 22:19:30 2021.
 (Enter /gpfs/share/home/1801110325/software/g09e01/l1.exe)
 Link1:  Proceeding to internal job step number  2.
 ------------------------------------------------------------------
 #P Geom=AllCheck Guess=TCheck SCRF=Check GenChk RTPSSh/ChkBas Freq
 ------------------------------------------------------------------
 1/10=4,29=7,30=1,38=1,40=1/1,3;
 2/12=2,40=1/2;
 3/5=7,6=2,11=2,14=-4,16=1,25=1,30=1,67=1,70=2,71=2,74=-35,82=7,116=1,140=1/1,2,3;
 4/5=101/1;
 5/5=100002,38=6,87=12,98=1/2;
 8/6=4,10=90,11=11,87=12/1;
 11/6=1,8=1,9=11,15=111,16=1,87=12/1,2,10;
 10/6=1,87=12/2;
 6/7=2,8=2,9=2,10=2,18=1,28=1/1;
 7/8=1,10=1,25=1,87=12/1,2,3,16;
 1/10=4,30=1/3;
 99//99;
 Leave Link    1 at Thu Sep  2 22:19:30 2021, MaxMem=  1342177280 cpu:         0.2
 (Enter /gpfs/share/home/1801110325/software/g09e01/l101.exe)
 Structure from the checkpoint file:  "H2O_TPSSh_PC2_OPT_FREQ.chk"
 ----------------------
 H2O_TPSSh_PC2_OPT_FREQ
 ----------------------
 Charge =  0 Multiplicity = 1
 Redundant internal coordinates found in file.
 O,0,0.026112308,0.7770279199,0.
 H,0,0.9878336899,0.8177586664,0.
 H,0,-0.25652238,1.6971826042,0.
 Recover connectivity data from disk.
 NAtoms=      3 NQM=        3 NQMF=       0 NMMI=      0 NMMIF=      0
                NMic=       0 NMicF=      0.
                    Isotopes and Nuclear Properties:
 (Nuclear quadrupole moments (NQMom) in fm**2, nuclear magnetic moments (NMagM)
  in nuclear magnetons)

  Atom         1           2           3
 IAtWgt=          16           1           1
 AtmWgt=  15.9949146   1.0078250   1.0078250
 NucSpn=           0           1           1
 AtZEff=  -5.6000000  -1.0000000  -1.0000000
 NQMom=    0.0000000   0.0000000   0.0000000
 NMagM=    0.0000000   2.7928460   2.7928460
 AtZNuc=   8.0000000   1.0000000   1.0000000
 Leave Link  101 at Thu Sep  2 22:19:30 2021, MaxMem=  1342177280 cpu:         1.1
 (Enter /gpfs/share/home/1801110325/software/g09e01/l103.exe)

 GradGradGradGradGradGradGradGradGradGradGradGradGradGradGradGradGradGrad
 Berny optimization.
 Initialization pass.
                           ----------------------------
                           !    Initial Parameters    !
                           ! (Angstroms and Degrees)  !
 --------------------------                            --------------------------
 ! Name  Definition              Value          Derivative Info.                !
 --------------------------------------------------------------------------------
 ! R1    R(1,2)                  0.9626         calculate D2E/DX2 analytically  !
 ! R2    R(1,3)                  0.9626         calculate D2E/DX2 analytically  !
 ! A1    A(2,1,3)              104.6497         calculate D2E/DX2 analytically  !
 --------------------------------------------------------------------------------
 Trust Radius=3.00D-01 FncErr=1.00D-07 GrdErr=1.00D-07
 Number of steps in this run=      2 maximum allowed number of steps=      2.
 GradGradGradGradGradGradGradGradGradGradGradGradGradGradGradGradGradGrad

 Leave Link  103 at Thu Sep  2 22:19:30 2021, MaxMem=  1342177280 cpu:         0.0
 (Enter /gpfs/share/home/1801110325/software/g09e01/l202.exe)
                          Input orientation:                          
 ---------------------------------------------------------------------
 Center     Atomic      Atomic             Coordinates (Angstroms)
 Number     Number       Type             X           Y           Z
 ---------------------------------------------------------------------
      1          8           0        0.026112    0.777028    0.000000
      2          1           0        0.987834    0.817759   -0.000000
      3          1           0       -0.256522    1.697183    0.000000
 ---------------------------------------------------------------------
                    Distance matrix (angstroms):
                    1          2          3
     1  O    0.000000
     2  H    0.962584   0.000000
     3  H    0.962584   1.523748   0.000000
 Stoichiometry    H2O
 Framework group  C2V[C2(O),SGV(H2)]
 Deg. of freedom     2
 Full point group                 C2V     NOp   4
 RotChk:  IX=3 Diff= 2.07D-15
 Largest Abelian subgroup         C2V     NOp   4
 Largest concise Abelian subgroup C2      NOp   2
                         Standard orientation:                         
 ---------------------------------------------------------------------
 Center     Atomic      Atomic             Coordinates (Angstroms)
 Number     Number       Type             X           Y           Z
 ---------------------------------------------------------------------
      1          8           0        0.000000    0.000000    0.117663
      2          1           0        0.000000   -0.761874   -0.470652
      3          1           0        0.000000    0.761874   -0.470652
 ---------------------------------------------------------------------
 Rotational constants (GHZ):    815.6938367    431.9521633    282.4043979
 Leave Link  202 at Thu Sep  2 22:19:30 2021, MaxMem=  1342177280 cpu:         0.0
 (Enter /gpfs/share/home/1801110325/software/g09e01/l301.exe)
 Basis read from chk: "H2O_TPSSh_PC2_OPT_FREQ.chk" (5D, 7F)
 No pseudopotential information found on chk file.
 There are    27 symmetry adapted cartesian basis functions of A1  symmetry.
 There are     7 symmetry adapted cartesian basis functions of A2  symmetry.
 There are    12 symmetry adapted cartesian basis functions of B1  symmetry.
 There are    19 symmetry adapted cartesian basis functions of B2  symmetry.
 There are    23 symmetry adapted basis functions of A1  symmetry.
 There are     7 symmetry adapted basis functions of A2  symmetry.
 There are    11 symmetry adapted basis functions of B1  symmetry.
 There are    17 symmetry adapted basis functions of B2  symmetry.
    58 basis functions,    91 primitive gaussians,    65 cartesian basis functions
     5 alpha electrons        5 beta electrons
       nuclear repulsion energy         9.1432354135 Hartrees.
 IExCor= 2523 DFT=T Ex+Corr=TPSSh ExCW=0 ScaHFX=  0.100000
 ScaDFX=  0.900000  0.900000  1.000000  1.000000 ScalE2=  1.000000  1.000000
 IRadAn=      0 IRanWt=     -1 IRanGd=            0 ICorTp=0 IEmpDi=  4
 NAtoms=    3 NActive=    3 NUniq=    2 SFac= 2.25D+00 NAtFMM=   60 NAOKFM=F Big=F
 Integral buffers will be    131072 words long.
 Raffenetti 2 integral format.
 Two-electron integral symmetry is turned on.
 No density basis found on file 20724.
 Leave Link  301 at Thu Sep  2 22:19:30 2021, MaxMem=  1342177280 cpu:         0.3
 (Enter /gpfs/share/home/1801110325/software/g09e01/l302.exe)
 NPDir=0 NMtPBC=     1 NCelOv=     1 NCel=       1 NClECP=     1 NCelD=      1
         NCelK=      1 NCelE2=     1 NClLst=     1 CellRange=     0.0.
 One-electron integrals computed using PRISM.
 One-electron integral symmetry used in STVInt
 NBasis=    58 RedAO= T EigKep=  5.84D-03  NBF=    23     7    11    17
 NBsUse=    58 1.00D-06 EigRej= -1.00D+00 NBFU=    23     7    11    17
[...]
      9 vectors produced by pass  4 Test12= 2.94D-15 1.11D-08 XBig12= 9.70D-09 3.38D-05.
      4 vectors produced by pass  5 Test12= 2.94D-15 1.11D-08 XBig12= 1.66D-11 1.60D-06.
      1 vectors produced by pass  6 Test12= 2.94D-15 1.11D-08 XBig12= 2.15D-14 5.25D-08.
 InvSVY:  IOpt=1 It=  1 EMax= 2.22D-16
 Solved reduced A of dimension    50 with     9 vectors.
 FullF1:  Do perturbations    1 to     9.
 Isotropic polarizability for W=    0.000000        7.56 Bohr**3.
 End of Minotr F.D. properties file   721 does not exist.
 End of Minotr F.D. properties file   722 does not exist.
 End of Minotr F.D. properties file   788 does not exist.
 Leave Link 1002 at Thu Sep  2 22:19:33 2021, MaxMem=  1342177280 cpu:         6.2
 (Enter /gpfs/share/home/1801110325/software/g09e01/l601.exe)
 Copying SCF densities to generalized density rwf, IOpCl= 0 IROHF=0.

 **********************************************************************

            Population analysis using the SCF density.

 **********************************************************************

 Orbital symmetries:
       Occupied  (A1) (A1) (B2) (A1) (B1)
       Virtual   (A1) (B2) (B2) (A1) (A1) (B1) (B2) (A1) (A2) (A1)
                 (B1) (B2) (B2) (A1) (A1) (B2) (B1) (A2) (A1) (A1)
                 (B2) (B1) (A1) (B1) (B2) (A1) (A2) (B2) (B1) (B2)
                 (A1) (A2) (A1) (B2) (B1) (A2) (A1) (B2) (B2) (A1)
                 (B1) (A1) (B1) (B2) (A2) (B1) (A1) (A2) (A1) (A1)
                 (B2) (B2) (A1)
 The electronic state is 1-A1.
 Alpha  occ. eigenvalues --  -19.05373  -0.99116  -0.51201  -0.36981  -0.29265
 Alpha virt. eigenvalues --    0.00726   0.06783   0.27354   0.28759   0.33109
 Alpha virt. eigenvalues --    0.34089   0.44972   0.67013   0.76029   0.79054
 Alpha virt. eigenvalues --    0.86217   1.04148   1.16877   1.21772   1.42826
 Alpha virt. eigenvalues --    1.46162   1.75693   1.82088   1.84774   2.05118
 Alpha virt. eigenvalues --    2.07842   2.26203   2.91067   3.38742   3.40021
 Alpha virt. eigenvalues --    3.53016   3.60830   3.73387   3.82550   3.88423
 Alpha virt. eigenvalues --    4.04246   4.08093   4.29128   4.40080   4.49343
 Alpha virt. eigenvalues --    4.52797   4.66839   4.84938   4.92634   4.93561
 Alpha virt. eigenvalues --    4.99692   5.68142   6.02409   6.04366   6.21680
 Alpha virt. eigenvalues --    6.23001   6.33167   6.33764   6.42088   6.86284
 Alpha virt. eigenvalues --    6.99387   7.46662  15.04755
          Condensed to atoms (all electrons):
               1          2          3
     1  O    7.717075   0.359291   0.359291
     2  H    0.359291   0.448399  -0.025518
     3  H    0.359291  -0.025518   0.448399
 Mulliken charges:
               1
     1  O   -0.435657
     2  H    0.217828
     3  H    0.217828
 Sum of Mulliken charges =   0.00000
 Mulliken charges with hydrogens summed into heavy atoms:
               1
     1  O    0.000000
 APT charges:
               1
     1  O   -0.501450
     2  H    0.250725
     3  H    0.250725
 Sum of APT charges =   0.00000
 APT charges with hydrogens summed into heavy atoms:
               1
     1  O    0.000000
 Electronic spatial extent (au):  <R**2>=             19.7589
 Charge=              0.0000 electrons
 Dipole moment (field-independent basis, Debye):
    X=              0.0000    Y=             -0.0000    Z=             -1.9670  Tot=              1.9670
 Quadrupole moment (field-independent basis, Debye-Ang):
   XX=             -7.6069   YY=             -4.3788   ZZ=             -6.3547
   XY=              0.0000   XZ=             -0.0000   YZ=              0.0000
 Traceless Quadrupole moment (field-independent basis, Debye-Ang):
   XX=             -1.4934   YY=              1.7346   ZZ=             -0.2412
   XY=              0.0000   XZ=             -0.0000   YZ=              0.0000
 Octapole moment (field-independent basis, Debye-Ang**2):
  XXX=             -0.0000  YYY=             -0.0000  ZZZ=             -1.2272  XYY=              0.0000
  XXY=             -0.0000  XXZ=             -0.3277  XZZ=             -0.0000  YZZ=             -0.0000
  YYZ=             -1.3056  XYZ=             -0.0000
 Hexadecapole moment (field-independent basis, Debye-Ang**3):
 XXXX=             -6.8268 YYYY=             -6.3151 ZZZZ=             -7.4179 XXXY=             -0.0000
 XXXZ=              0.0000 YYYX=             -0.0000 YYYZ=              0.0000 ZZZX=              0.0000
 ZZZY=             -0.0000 XXYY=             -2.4968 XXZZ=             -2.4271 YYZZ=             -1.9718
 XXYZ=             -0.0000 YYXZ=             -0.0000 ZZXY=             -0.0000
 N-N= 9.143235413517D+00 E-N=-1.991744424009D+02  KE= 7.617927992274D+01
 Symmetry A1   KE= 6.798001324141D+01
 Symmetry A2   KE= 1.678152495564D-21
 Symmetry B1   KE= 4.537185684551D+00
 Symmetry B2   KE= 3.662080996784D+00
  Exact polarizability:   6.431   0.000   8.678  -0.000   0.000   7.570
 Approx polarizability:   7.137   0.000  11.273  -0.000   0.000   9.586
 No NMR shielding tensors so no spin-rotation constants.
 Leave Link  601 at Thu Sep  2 22:19:33 2021, MaxMem=  1342177280 cpu:         0.7
 (Enter /gpfs/share/home/1801110325/software/g09e01/l701.exe)
 Compute integral second derivatives.
 ... and contract with generalized density number  0.
 Leave Link  701 at Thu Sep  2 22:19:34 2021, MaxMem=  1342177280 cpu:         2.3
 (Enter /gpfs/share/home/1801110325/software/g09e01/l702.exe)
 L702 exits ... SP integral derivatives will be done elsewhere.
 Leave Link  702 at Thu Sep  2 22:19:34 2021, MaxMem=  1342177280 cpu:         0.1
 (Enter /gpfs/share/home/1801110325/software/g09e01/l703.exe)
 Compute integral second derivatives, UseDBF=F ICtDFT=           0.
 Integral derivatives from FoFJK, PRISM(SPDF).
 Calling FoFJK, ICntrl=    100127 FMM=F ISym2X=1 I1Cent= 0 IOpClX= 0 NMat=1 NMatS=1 NMatT=0.
 FoFJK:  IHMeth= 1 ICntrl=  100127 DoSepK=F KAlg= 0 I1Cent=   0 FoldK=F
 IRaf=         0 NMat=   1 IRICut=       1 DoRegI=T DoRafI=F ISym2E= 1.
 FoFCou: FMM=F IPFlag=           0 FMFlag=      100000 FMFlg1=         800
         NFxFlg=           0 DoJE=F BraDBF=F KetDBF=F FulRan=T
         wScrn=  0.000000 ICntrl=  100127 IOpCl=  0 I1Cent=           0 NGrid=           0
         NMat0=    1 NMatS0=      1 NMatT0=    0 NMatD0=    1 NMtDS0=    0 NMtDT0=    0
 Petite list used in FoFCou.
 Leave Link  703 at Thu Sep  2 22:19:35 2021, MaxMem=  1342177280 cpu:         5.2
 (Enter /gpfs/share/home/1801110325/software/g09e01/l716.exe)
 Dipole        = 3.76297272D-17-5.34620091D-16-7.73876360D-01
 Polarizability= 6.43097446D+00 1.17158207D-16 8.67841371D+00
                -1.87360490D-16 2.67788378D-14 7.57049917D+00
 Full mass-weighted force constant matrix:
 Low frequencies ---  -90.1790  -84.7444  -54.4837   -0.0012   -0.0004    0.0011
 Low frequencies --- 1639.2415 3783.3781 3887.4071
 Diagonal vibrational polarizability:
        0.0000000       0.0792795       0.6904542
 Harmonic frequencies (cm**-1), IR intensities (KM/Mole), Raman scattering
 activities (A**4/AMU), depolarization ratios for plane and unpolarized
 incident light, reduced masses (AMU), force constants (mDyne/A),
 and normal coordinates:
                      1                      2                      3
                     A1                     A1                     B2
 Frequencies --   1639.2415              3783.3781              3887.4070
 Red. masses --      1.0832                 1.0447                 1.0820
 Frc consts  --      1.7149                 8.8105                 9.6338
 IR Inten    --     68.2500                 3.6897                44.5193
  Atom  AN      X      Y      Z        X      Y      Z        X      Y      Z
     1   8     0.00  -0.00  -0.07     0.00   0.00  -0.05    -0.00  -0.07  -0.00
     2   1    -0.00  -0.43   0.56     0.00   0.59   0.39     0.00   0.56   0.43
     3   1    -0.00   0.43   0.56    -0.00  -0.59   0.39     0.00   0.56  -0.43

 -------------------
 - Thermochemistry -
 -------------------
 Temperature   298.150 Kelvin.  Pressure   1.00000 Atm.
 Atom     1 has atomic number  8 and mass  15.99491
 Atom     2 has atomic number  1 and mass   1.00783
 Atom     3 has atomic number  1 and mass   1.00783
 Molecular mass:    18.01056 amu.
 Principal axes and moments of inertia in atomic units:
                           1         2         3
     Eigenvalues --     2.21252   4.17810   6.39063
           X            0.00000  -0.00000   1.00000
           Y            1.00000  -0.00000  -0.00000
           Z            0.00000   1.00000   0.00000
 This molecule is an asymmetric top.
 Rotational symmetry number  2.
 Rotational temperatures (Kelvin)     39.14708    20.73041    13.55326
 Rotational constants (GHZ):         815.69384   431.95216   282.40440
 Zero-point vibrational energy      55686.3 (Joules/Mol)
                                   13.30935 (Kcal/Mol)
 Vibrational temperatures:   2358.50  5443.43  5593.10
          (Kelvin)
 
 Zero-point correction=                           0.021210 (Hartree/Particle)
 Thermal correction to Energy=                    0.024045
 Thermal correction to Enthalpy=                  0.024989
 Thermal correction to Gibbs Free Energy=         0.003564
 Sum of electronic and zero-point Energies=            -76.439108
 Sum of electronic and thermal Energies=               -76.436273
 Sum of electronic and thermal Enthalpies=             -76.435329
 Sum of electronic and thermal Free Energies=          -76.456754
 
                     E (Thermal)             CV                S
                      KCal/Mol        Cal/Mol-Kelvin    Cal/Mol-Kelvin
 Total                   15.089              6.007             45.093
 Electronic               0.000              0.000              0.000
 Translational            0.889              2.981             34.608
 Rotational               0.889              2.981             10.478
 Vibrational             13.311              0.046              0.006
                       Q            Log10(Q)             Ln(Q)
 Total Bot       0.229412D-01         -1.639383         -3.774819
 Total V=0       0.130746D+09          8.116427         18.688764
 Vib (Bot)       0.175529D-09         -9.755651        -22.463217
 Vib (V=0)       0.100037D+01          0.000159          0.000367
 Electronic      0.100000D+01          0.000000          0.000000
 Translational   0.300432D+07          6.477746         14.915562
 Rotational      0.435032D+02          1.638522          3.772836
 
                                                        H2O_TPSSh_PC2_OPT_FREQ
                                                             IR Spectrum
 
      3  3                                                                     1                                                     
      8  7                                                                     6                                                     
      8  8                                                                     3                                                     
      7  3                                                                     9                                                     
 
      X  X                                                                     X                                                     
      X                                                                        X                                                     
      X                                                                        X                                                     
      X                                                                        X                                                     
      X                                                                        X                                                     
      X                                                                        X                                                     
      X                                                                        X                                                     
      X                                                                        X                                                     
      X                                                                        X                                                     
      X                                                                        X                                                     
      X                                                                        X                                                     
      X                                                                        X                                                     
      X                                                                        X                                                     
                                                                               X                                                     
                                                                               X                                                     
                                                                               X                                                     
                                                                               X                                                     
                                                                               X                                                     
                                                                               X                                                     
                                                                               X                                                     
 
 ***** Axes restored to original set *****
 -------------------------------------------------------------------
 Center     Atomic                   Forces (Hartrees/Bohr)
 Number     Number              X              Y              Z
 -------------------------------------------------------------------
      1        8          -0.000118071   -0.000167066    0.000000000
      2        1           0.000168318    0.000006300    0.000000000
      3        1          -0.000050248    0.000160767   -0.000000000
 -------------------------------------------------------------------
 Cartesian Forces:  Max     0.000168318 RMS     0.000104665
 Force constants in Cartesian coordinates: 
                1             2             3             4             5 
      1  0.595050D+00
      2 -0.104546D+00  0.521006D+00
      3  0.000000D+00  0.000000D+00 -0.486500D-03
      4 -0.512439D+00  0.669023D-02  0.000000D+00  0.529199D+00
      5 -0.543537D-01 -0.455894D-01  0.000000D+00  0.353190D-02  0.479726D-01
      6  0.000000D+00  0.000000D+00  0.243250D-03  0.000000D+00  0.000000D+00
      7 -0.826112D-01  0.978562D-01  0.000000D+00 -0.167603D-01  0.508218D-01
      8  0.158900D+00 -0.475417D+00  0.000000D+00 -0.102221D-01 -0.238319D-02
      9  0.000000D+00  0.000000D+00  0.243250D-03  0.000000D+00  0.000000D+00
                6             7             8             9 
      6 -0.276706D-03
      7  0.000000D+00  0.993715D-01
      8  0.000000D+00 -0.148678D+00  0.477800D+00
      9  0.334556D-04  0.000000D+00  0.000000D+00 -0.276706D-03
 FormGI is forming the generalized inverse of G from B-inverse, IUseBI=4.
 Force constants in internal coordinates: 
                1             2             3 
      1  0.528568D+00
      2 -0.550575D-02  0.528568D+00
      3  0.307455D-01  0.307455D-01  0.160929D+00
 Leave Link  716 at Thu Sep  2 22:19:35 2021, MaxMem=  1342177280 cpu:         0.3
 (Enter /gpfs/share/home/1801110325/software/g09e01/l103.exe)

 GradGradGradGradGradGradGradGradGradGradGradGradGradGradGradGradGradGrad
 Berny optimization.
 Red2BG is reusing G-inverse.
 Internal  Forces:  Max     0.000168434 RMS     0.000137529
 Search for a local minimum.
 Step number   1 out of a maximum of    2
 All quantities printed in internal units (Hartrees-Bohrs-Radians)
 Second derivative matrix not updated -- analytic derivatives used.
 The second derivative matrix:
                          R1        R2        A1
           R1           0.52857
           R2          -0.00551   0.52857
           A1           0.03075   0.03075   0.16093
 ITU=  0
     Eigenvalues ---    0.15578   0.52821   0.53407
 Angle between quadratic step and forces=  14.40 degrees.
 Linear search not attempted -- first point.
 Iteration  1 RMS(Cart)=  0.00020864 RMS(Int)=  0.00000001
 Iteration  2 RMS(Cart)=  0.00000001 RMS(Int)=  0.00000000
 ITry= 1 IFail=0 DXMaxC= 2.15D-04 DCOld= 1.00D+10 DXMaxT= 3.00D-01 DXLimC= 3.00D+00 Rises=F
 ClnCor:  largest displacement from symmetrization is 4.27D-15 for atom     3.
 Variable       Old X    -DE/DX   Delta X   Delta X   Delta X     New X
                                 (Linear)    (Quad)   (Total)
    R1        1.81902   0.00017   0.00000   0.00033   0.00033   1.81935
    R2        1.81902   0.00017   0.00000   0.00033   0.00033   1.81935
    A1        1.82648   0.00000   0.00000  -0.00012  -0.00012   1.82637
         Item               Value     Threshold  Converged?
 Maximum Force            0.000168     0.000450     YES
 RMS     Force            0.000138     0.000300     YES
 Maximum Displacement     0.000215     0.001800     YES
 RMS     Displacement     0.000209     0.001200     YES
 Predicted change in Energy=-5.530216D-08
 Optimization completed.
    -- Stationary point found.
                           ----------------------------
                           !   Optimized Parameters   !
                           ! (Angstroms and Degrees)  !
 --------------------------                            --------------------------
 ! Name  Definition              Value          Derivative Info.                !
 --------------------------------------------------------------------------------
 ! R1    R(1,2)                  0.9626         -DE/DX =    0.0002              !
 ! R2    R(1,3)                  0.9626         -DE/DX =    0.0002              !
 ! A1    A(2,1,3)              104.6497         -DE/DX =    0.0                 !
 --------------------------------------------------------------------------------
 GradGradGradGradGradGradGradGradGradGradGradGradGradGradGradGradGradGrad

 Leave Link  103 at Thu Sep  2 22:19:35 2021, MaxMem=  1342177280 cpu:         0.0
 (Enter /gpfs/share/home/1801110325/software/g09e01/l9999.exe)
 1\1\GINC-A8U03N01\Freq\RTPSSh\Gen\H2O1\1801110325\02-Sep-2021\0\\#P Ge
 om=AllCheck Guess=TCheck SCRF=Check GenChk RTPSSh/ChkBas Freq\\H2O_TPS
 Sh_PC2_OPT_FREQ\\0,1\O,0.026112308,0.7770279199,0.\H,0.9878336899,0.81
 77586664,0.\H,-0.25652238,1.6971826042,0.\\Version=EM64L-G09RevE.01\St
 ate=1-A1\HF=-76.4603179\RMSD=4.559e-10\RMSF=1.047e-04\ZeroPoint=0.0212
 098\Thermal=0.0240451\Dipole=0.446639,0.6319796,0.\DipoleDeriv=-0.4268
 106,0.0641116,0.,0.0641116,-0.3814044,0.,0.,0.,-0.6961363,0.1380856,-0
 .0522192,0.,-0.0652367,0.2660219,0.,0.,0.,0.3480681,0.2887251,-0.01189
 24,0.,0.001125,0.1153824,0.,0.,0.,0.3480681\Polar=8.3093712,-0.5221831
 ,7.9395417,0.,0.,6.4309745\PG=C02V [C2(O1),SGV(H2)]\NImag=0\\0.5950499
 3,-0.10454640,0.52100629,0.,0.,-0.00048650,-0.51243873,0.00669023,0.,0
 .52919903,-0.05435374,-0.04558939,0.,0.00353190,0.04797258,0.,0.,0.000
 24325,0.,0.,-0.00027671,-0.08261121,0.09785617,0.,-0.01676030,0.050821
 84,0.,0.09937151,0.15890013,-0.47541691,0.,-0.01022213,-0.00238319,0.,
 -0.14867800,0.47780010,0.,0.,0.00024325,0.,0.,0.00003346,0.,0.,-0.0002
 7671\\0.00011807,0.00016707,0.,-0.00016832,-0.00000630,0.,0.00005025,-
 0.00016077,0.\\\@


 I WANT IT ALL - RICH, THIN, AND CHOCOLATE.
 Job cpu time:       0 days  0 hours  0 minutes 26.8 seconds.
 File lengths (MBytes):  RWF=   2160 Int=      0 D2E=      0 Chk=     32 Scr=     32
 Normal termination of Gaussian 09 at Thu Sep  2 22:19:35 2021.
