 Entering Gaussian System, Link 0=g09
 AtFile(1): pc-2.gbs
            -H     0
            S    4   1.00
                  0.754230D+02           0.240650D-02
                  0.113500D+02           0.184870D-01
                  0.259930D+01           0.897420D-01
                  0.735130D+00           0.281110D+00
            S    1   1.00
                  0.231670D+00           0.100000D+01
            S    1   1.00
                  0.741470D-01           0.100000D+01
            P    1   1.00
                  0.160000D+01           0.100000D+01
            P    1   1.00
                  0.450000D+00           0.100000D+01
            D    1   1.00
                  0.125000D+01           0.100000D+01
            ****
            -C     0
            S    7   1.00
                  0.785710D+04           0.568250D-03
                  0.117870D+04           0.439150D-02
                  0.268320D+03           0.225040D-01
                  0.759480D+02           0.866530D-01
                  0.245590D+02           0.244050D+00
                  0.862120D+01           0.441480D+00
                  0.312780D+01           0.353320D+00
            S    7   1.00
                  0.117870D+04          -0.594920D-06
                  0.268320D+03          -0.627480D-04
                  0.759480D+02          -0.757730D-03
                  0.245590D+02          -0.733080D-02
                  0.862120D+01          -0.389320D-01
                  0.312780D+01          -0.889080D-01
                  0.822020D+00           0.216890D+00
            S    1   1.00
                  0.330170D+00           0.100000D+01
            S    1   1.00
                  0.114630D+00           0.100000D+01
            P    4   1.00
                  0.337750D+02           0.602940D-02
                  0.767660D+01           0.432280D-01
                  0.223570D+01           0.163010D+00
                  0.764470D+00           0.365040D+00
            P    1   1.00
                  0.262320D+00           0.100000D+01
            P    1   1.00
                  0.846380D-01           0.100000D+01
            D    1   1.00
                  0.140000D+01           0.100000D+01
            D    1   1.00
                  0.450000D+00           0.100000D+01
            F    1   1.00
                  0.950000D+00           0.100000D+01
            ****
            -N     0
            S    7   1.00
                  0.111010D+05           0.545700D-03
                  0.166530D+04           0.421810D-02
                  0.379080D+03           0.216450D-01
                  0.107300D+03           0.837760D-01
                  0.347470D+02           0.238810D+00
                  0.122490D+02           0.439940D+00
                  0.447430D+01           0.363640D+00
            S    7   1.00
                  0.166530D+04          -0.150060D-05
                  0.379080D+03          -0.587530D-04
                  0.107300D+03          -0.774530D-03
                  0.347470D+02          -0.721610D-02
                  0.122490D+02          -0.393380D-01
                  0.447430D+01          -0.906110D-01
                  0.124040D+01           0.198820D+00
            S    1   1.00
                  0.487430D+00           0.100000D+01
            S    1   1.00
                  0.164840D+00           0.100000D+01
            P    4   1.00
                  0.479340D+02           0.617060D-02
                  0.109990D+02           0.442600D-01
                  0.324720D+01           0.168250D+00
                  0.111140D+01           0.368480D+00
            P    1   1.00
                  0.379880D+00           0.100000D+01
            P    1   1.00
                  0.120680D+00           0.100000D+01
            D    1   1.00
                  0.180000D+01           0.100000D+01
            D    1   1.00
                  0.550000D+00           0.100000D+01
            F    1   1.00
                  0.102000D+01           0.100000D+01
            ****
            -O     0
            S    7   1.00
                  0.147820D+05           0.535190D-03
                  0.221730D+04           0.413750D-02
                  0.504740D+03           0.212450D-01
                  0.142870D+03           0.824530D-01
                  0.463000D+02           0.236710D+00
                  0.163370D+02           0.440390D+00
                  0.598280D+01           0.364650D+00
            S    7   1.00
                  0.221730D+04          -0.192750D-05
                  0.504740D+03          -0.579640D-04
                  0.142870D+03          -0.794940D-03
                  0.463000D+02          -0.731250D-02
                  0.163370D+02          -0.405740D-01
                  0.598280D+01          -0.915940D-01
                  0.167180D+01           0.209400D+00
            S    1   1.00
                  0.646620D+00           0.100000D+01
            S    1   1.00
                  0.216690D+00           0.100000D+01
            P    4   1.00
                  0.604240D+02           0.689490D-02
                  0.139350D+02           0.490050D-01
                  0.415310D+01           0.182550D+00
                  0.141580D+01           0.376330D+00
            P    1   1.00
                  0.475490D+00           0.100000D+01
            P    1   1.00
                  0.145290D+00           0.100000D+01
            D    1   1.00
                  0.220000D+01           0.100000D+01
            D    1   1.00
                  0.650000D+00           0.100000D+01
            F    1   1.00
                  0.110000D+01           0.100000D+01
            ****
 Initial command:
 /public3/home/sc51754/softwares/g09e01/l1.exe "./Gau-34675.inp" -scrdir="./"
 Entering Link 1 = /public3/home/sc51754/softwares/g09e01/l1.exe PID=     34676.
  
 Copyright (c) 1988,1990,1992,1993,1995,1998,2003,2009,2015,
            Gaussian, Inc.  All Rights Reserved.
  
 This is part of the Gaussian(R) 09 program.  It is based on
 the Gaussian(R) 03 system (copyright 2003, Gaussian, Inc.),
 the Gaussian(R) 98 system (copyright 1998, Gaussian, Inc.),
 the Gaussian(R) 94 system (copyright 1995, Gaussian, Inc.),
 the Gaussian 92(TM) system (copyright 1992, Gaussian, Inc.),
 the Gaussian 90(TM) system (copyright 1990, Gaussian, Inc.),
 the Gaussian 88(TM) system (copyright 1988, Gaussian, Inc.),
 the Gaussian 86(TM) system (copyright 1986, Carnegie Mellon
 University), and the Gaussian 82(TM) system (copyright 1983,
 Carnegie Mellon University). Gaussian is a federally registered
 trademark of Gaussian, Inc.
  
 This software contains proprietary and confidential information,
 including trade secrets, belonging to Gaussian, Inc.
  
 This software is provided under written license and may be
 used, copied, transmitted, or stored only in accord with that
 written license.
  
 The following legend is applicable only to US Government
 contracts under FAR:
  
                    RESTRICTED RIGHTS LEGEND
  
 Use, reproduction and disclosure by the US Government is
 subject to restrictions as set forth in subparagraphs (a)
 and (c) of the Commercial Computer Software - Restricted
 Rights clause in FAR 52.227-19.
  
 Gaussian, Inc.
 340 Quinnipiac St., Bldg. 40, Wallingford CT 06492
  
  
 ---------------------------------------------------------------
 Warning -- This program may not be used in any manner that
 competes with the business of Gaussian, Inc. or will provide
 assistance to any competitor of Gaussian, Inc.  The licensee
 of this program is prohibited from giving any competitor of
 Gaussian, Inc. access to this program.  By using this program,
 the user acknowledges that Gaussian, Inc. is engaged in the
 business of creating and licensing software in the field of
 computational chemistry and represents and warrants to the
 licensee that it is not a competitor of Gaussian, Inc. and that
 it will not use this program in any manner prohibited above.
 ---------------------------------------------------------------
  

 Cite this work as:
 Gaussian 09, Revision E.01,
 M. J. Frisch, G. W. Trucks, H. B. Schlegel, G. E. Scuseria, 
 M. A. Robb, J. R. Cheeseman, G. Scalmani, V. Barone, B. Mennucci, 
 G. A. Petersson, H. Nakatsuji, M. Caricato, X. Li, H. P. Hratchian, 
 A. F. Izmaylov, J. Bloino, G. Zheng, J. L. Sonnenberg, M. Hada, 
 M. Ehara, K. Toyota, R. Fukuda, J. Hasegawa, M. Ishida, T. Nakajima, 
 Y. Honda, O. Kitao, H. Nakai, T. Vreven, J. A. Montgomery, Jr., 
 J. E. Peralta, F. Ogliaro, M. Bearpark, J. J. Heyd, E. Brothers, 
 K. N. Kudin, V. N. Staroverov, T. Keith, R. Kobayashi, J. Normand, 
 K. Raghavachari, A. Rendell, J. C. Burant, S. S. Iyengar, J. Tomasi, 
 M. Cossi, N. Rega, J. M. Millam, M. Klene, J. E. Knox, J. B. Cross, 
 V. Bakken, C. Adamo, J. Jaramillo, R. Gomperts, R. E. Stratmann, 
 O. Yazyev, A. J. Austin, R. Cammi, C. Pomelli, J. W. Ochterski, 
 R. L. Martin, K. Morokuma, V. G. Zakrzewski, G. A. Voth, 
 P. Salvador, J. J. Dannenberg, S. Dapprich, A. D. Daniels, 
 O. Farkas, J. B. Foresman, J. V. Ortiz, J. Cioslowski, 
 and D. J. Fox, Gaussian, Inc., Wallingford CT, 2013.
 
 ******************************************
 Gaussian 09:  EM64L-G09RevE.01 30-Nov-2015
                27-Aug-2021 
 ******************************************
 %nprocshared=64
 Will use up to   64 processors via shared memory.
 %mem=128GB
 %chk=H2O_M062X_PC2_OPT_FREQ.chk
 ---------------------
 #p opt freq M062X/gen
 ---------------------
 1/14=-1,18=20,19=15,26=3,38=1/1,3;
 2/9=110,12=2,17=6,18=5,40=1/2;
 3/5=7,11=2,16=1,25=1,30=1,71=1,74=-55/1,2,3;
 4//1;
 5/5=2,38=5/2;
 6/7=2,8=2,9=2,10=2,28=1/1;
 7//1,2,3,16;
 1/14=-1,18=20,19=15,26=3/3(2);
 2/9=110/2;
 99//99;
 2/9=110/2;
 3/5=7,6=1,11=2,16=1,25=1,30=1,71=1,74=-55,82=7/1,2,3;
 4/5=5,16=3,69=1/1;
 5/5=2,38=5/2;
 7//1,2,3,16;
 1/14=-1,18=20,19=15,26=3/3(-5);
 2/9=110/2;
 6/7=2,8=2,9=2,10=2,19=2,28=1/1;
 99/9=1/99;
 Leave Link    1 at Fri Aug 27 00:04:18 2021, MaxMem= 17179869184 cpu:         4.6
 (Enter /public3/home/sc51754/softwares/g09e01/l101.exe)
 ----------------------
 H2O_M062X_PC2_OPT_FREQ
 ----------------------
 Symbolic Z-matrix:
 Charge =  0 Multiplicity = 1
 O                     0.03922   0.79557   0. 
 H                     0.99922   0.79581   0. 
 H                    -0.28101   1.70059   0. 
 
 NAtoms=      3 NQM=        3 NQMF=       0 NMMI=      0 NMMIF=      0
                NMic=       0 NMicF=      0.
                    Isotopes and Nuclear Properties:
 (Nuclear quadrupole moments (NQMom) in fm**2, nuclear magnetic moments (NMagM)
  in nuclear magnetons)

  Atom         1           2           3
 IAtWgt=          16           1           1
 AtmWgt=  15.9949146   1.0078250   1.0078250
 NucSpn=           0           1           1
 AtZEff=   0.0000000   0.0000000   0.0000000
 NQMom=    0.0000000   0.0000000   0.0000000
 NMagM=    0.0000000   2.7928460   2.7928460
 AtZNuc=   8.0000000   1.0000000   1.0000000
 Leave Link  101 at Fri Aug 27 00:04:19 2021, MaxMem= 17179869184 cpu:         6.8
 (Enter /public3/home/sc51754/softwares/g09e01/l103.exe)

 GradGradGradGradGradGradGradGradGradGradGradGradGradGradGradGradGradGrad
 Berny optimization.
 Initialization pass.
                           ----------------------------
                           !    Initial Parameters    !
                           ! (Angstroms and Degrees)  !
 --------------------------                            --------------------------
 ! Name  Definition              Value          Derivative Info.                !
 --------------------------------------------------------------------------------
 ! R1    R(1,2)                  0.96           estimate D2E/DX2                !
 ! R2    R(1,3)                  0.96           estimate D2E/DX2                !
 ! A1    A(2,1,3)              109.4712         estimate D2E/DX2                !
 --------------------------------------------------------------------------------
 Trust Radius=3.00D-01 FncErr=1.00D-07 GrdErr=1.00D-06
 Number of steps in this run=     20 maximum allowed number of steps=    100.
 GradGradGradGradGradGradGradGradGradGradGradGradGradGradGradGradGradGrad

 Leave Link  103 at Fri Aug 27 00:04:19 2021, MaxMem= 17179869184 cpu:         0.1
 (Enter /public3/home/sc51754/softwares/g09e01/l202.exe)
                          Input orientation:                          
 ---------------------------------------------------------------------
 Center     Atomic      Atomic             Coordinates (Angstroms)
 Number     Number       Type             X           Y           Z
 ---------------------------------------------------------------------
      1          8           0        0.039217    0.795571    0.000000
      2          1           0        0.999217    0.795812    0.000000
      3          1           0       -0.281010    1.700587    0.000000
 ---------------------------------------------------------------------
                    Distance matrix (angstroms):
                    1          2          3
     1  O    0.000000
     2  H    0.960000   0.000000
     3  H    0.960000   1.567673   0.000000
 Stoichiometry    H2O
 Framework group  C2V[C2(O),SGV(H2)]
 Deg. of freedom     2
 Full point group                 C2V     NOp   4
 Largest Abelian subgroup         C2V     NOp   4
 Largest concise Abelian subgroup C2      NOp   2
                         Standard orientation:                         
 ---------------------------------------------------------------------
 Center     Atomic      Atomic             Coordinates (Angstroms)
 Number     Number       Type             X           Y           Z
 ---------------------------------------------------------------------
      1          8           0        0.000000   -0.000000    0.110851
      2          1           0       -0.000000   -0.783837   -0.443405
      3          1           0        0.000000    0.783837   -0.443405
 ---------------------------------------------------------------------
 Rotational constants (GHZ):    919.0227056    408.0852078    282.5991526
 Leave Link  202 at Fri Aug 27 00:04:19 2021, MaxMem= 17179869184 cpu:         8.0
 (Enter /public3/home/sc51754/softwares/g09e01/l301.exe)
 General basis read from cards:  (5D, 7F)
 Centers:       2      3
 S 4 1.00
     Exponent=  7.5423000000D+01 Coefficients=  2.4065000000D-03
     Exponent=  1.1350000000D+01 Coefficients=  1.8487000000D-02
     Exponent=  2.5993000000D+00 Coefficients=  8.9742000000D-02
     Exponent=  7.3513000000D-01 Coefficients=  2.8111000000D-01
 S 1 1.00
     Exponent=  2.3167000000D-01 Coefficients=  1.0000000000D+00
 S 1 1.00
     Exponent=  7.4147000000D-02 Coefficients=  1.0000000000D+00
 P 1 1.00
     Exponent=  1.6000000000D+00 Coefficients=  1.0000000000D+00
 P 1 1.00
     Exponent=  4.5000000000D-01 Coefficients=  1.0000000000D+00
 D 1 1.00
     Exponent=  1.2500000000D+00 Coefficients=  1.0000000000D+00
 ****
 Centers:       1
 S 7 1.00
     Exponent=  1.4782000000D+04 Coefficients=  5.3519000000D-04
     Exponent=  2.2173000000D+03 Coefficients=  4.1375000000D-03
     Exponent=  5.0474000000D+02 Coefficients=  2.1245000000D-02
     Exponent=  1.4287000000D+02 Coefficients=  8.2453000000D-02
     Exponent=  4.6300000000D+01 Coefficients=  2.3671000000D-01
     Exponent=  1.6337000000D+01 Coefficients=  4.4039000000D-01
     Exponent=  5.9828000000D+00 Coefficients=  3.6465000000D-01
 S 7 1.00
     Exponent=  2.2173000000D+03 Coefficients= -1.9275000000D-06
     Exponent=  5.0474000000D+02 Coefficients= -5.7964000000D-05
     Exponent=  1.4287000000D+02 Coefficients= -7.9494000000D-04
     Exponent=  4.6300000000D+01 Coefficients= -7.3125000000D-03
     Exponent=  1.6337000000D+01 Coefficients= -4.0574000000D-02
     Exponent=  5.9828000000D+00 Coefficients= -9.1594000000D-02
     Exponent=  1.6718000000D+00 Coefficients=  2.0940000000D-01
 S 1 1.00
     Exponent=  6.4662000000D-01 Coefficients=  1.0000000000D+00
 S 1 1.00
     Exponent=  2.1669000000D-01 Coefficients=  1.0000000000D+00
 P 4 1.00
     Exponent=  6.0424000000D+01 Coefficients=  6.8949000000D-03
     Exponent=  1.3935000000D+01 Coefficients=  4.9005000000D-02
     Exponent=  4.1531000000D+00 Coefficients=  1.8255000000D-01
     Exponent=  1.4158000000D+00 Coefficients=  3.7633000000D-01
 P 1 1.00
     Exponent=  4.7549000000D-01 Coefficients=  1.0000000000D+00
 P 1 1.00
     Exponent=  1.4529000000D-01 Coefficients=  1.0000000000D+00
 D 1 1.00
     Exponent=  2.2000000000D+00 Coefficients=  1.0000000000D+00
 D 1 1.00
     Exponent=  6.5000000000D-01 Coefficients=  1.0000000000D+00
 F 1 1.00
     Exponent=  1.1000000000D+00 Coefficients=  1.0000000000D+00
 ****
 Ernie: Thresh=  0.10000D-02 Tol=  0.10000D-05 Strict=F.
 Ernie:  1 primitive shells out of 43 were deleted.
 There are    27 symmetry adapted cartesian basis functions of A1  symmetry.
 There are     7 symmetry adapted cartesian basis functions of A2  symmetry.
 There are    12 symmetry adapted cartesian basis functions of B1  symmetry.
 There are    19 symmetry adapted cartesian basis functions of B2  symmetry.
 There are    23 symmetry adapted basis functions of A1  symmetry.
 There are     7 symmetry adapted basis functions of A2  symmetry.
 There are    11 symmetry adapted basis functions of B1  symmetry.
 There are    17 symmetry adapted basis functions of B2  symmetry.
    58 basis functions,    91 primitive gaussians,    65 cartesian basis functions
     5 alpha electrons        5 beta electrons
       nuclear repulsion energy         9.1571759018 Hartrees.
 IExCor= 4336 DFT=T Ex+Corr=M062X ExCW=0 ScaHFX=  0.540000
 ScaDFX=  1.000000  1.000000  1.000000  1.000000 ScalE2=  1.000000  1.000000
 IRadAn=      0 IRanWt=     -1 IRanGd=            0 ICorTp=0 IEmpDi=  4
 NAtoms=    3 NActive=    3 NUniq=    2 SFac= 2.25D+00 NAtFMM=   60 NAOKFM=F Big=F
 Integral buffers will be    131072 words long.
 Raffenetti 2 integral format.
 Two-electron integral symmetry is turned on.
 Leave Link  301 at Fri Aug 27 00:04:19 2021, MaxMem= 17179869184 cpu:         2.1
 (Enter /public3/home/sc51754/softwares/g09e01/l302.exe)
 NPDir=0 NMtPBC=     1 NCelOv=     1 NCel=       1 NClECP=     1 NCelD=      1
         NCelK=      1 NCelE2=     1 NClLst=     1 CellRange=     0.0.
 One-electron integrals computed using PRISM.
 One-electron integral symmetry used in STVInt
 NBasis=    58 RedAO= T EigKep=  5.81D-03  NBF=    23     7    11    17
 NBsUse=    58 1.00D-06 EigRej= -1.00D+00 NBFU=    23     7    11    17
 Precomputing XC quadrature grid using
 IXCGrd= 4 IRadAn=           0 IRanWt=          -1 IRanGd=           0 AccXCQ= 0.00D+00.
 Generated NRdTot=       0 NPtTot=           0 NUsed=           0 NTot=          32
 NSgBfM=    65    65    65    65    65 MxSgAt=     3 MxSgA2=     3.
 Leave Link  302 at Fri Aug 27 00:04:20 2021, MaxMem= 17179869184 cpu:        41.5
 (Enter /public3/home/sc51754/softwares/g09e01/l303.exe)
 DipDrv:  MaxL=1.
 Leave Link  303 at Fri Aug 27 00:04:20 2021, MaxMem= 17179869184 cpu:         9.3
 (Enter /public3/home/sc51754/softwares/g09e01/l401.exe)
 ExpMin= 7.41D-02 ExpMax= 1.48D+04 ExpMxC= 5.05D+02 IAcc=2 IRadAn=         4 AccDes= 0.00D+00
 Harris functional with IExCor= 1009 and IRadAn=       4 diagonalized for initial guess.
 HarFok:  IExCor= 1009 AccDes= 0.00D+00 IRadAn=         4 IDoV= 1 UseB2=F ITyADJ=14
 ICtDFT=  3500011 ScaDFX=  1.000000  1.000000  1.000000  1.000000
 FoFCou: FMM=F IPFlag=           0 FMFlag=      100000 FMFlg1=           0
         NFxFlg=           0 DoJE=T BraDBF=F KetDBF=T FulRan=T
         wScrn=  0.000000 ICntrl=     500 IOpCl=  0 I1Cent=   200000004 NGrid=           0
         NMat0=    1 NMatS0=      1 NMatT0=    0 NMatD0=    1 NMtDS0=    0 NMtDT0=    0
 Petite list used in FoFCou.
 Harris En= -76.4282148740560    
 JPrj=0 DoOrth=F DoCkMO=F.
 Initial guess orbital symmetries:
       Occupied  (A1) (A1) (B2) (A1) (B1)
       Virtual   (A1) (B2) (B2) (A1) (A1) (B1) (B2) (A1) (A2) (A1)
                 (B1) (B2) (B2) (A1) (A1) (B2) (B1) (A1) (A2) (B2)
                 (A1) (B1) (A1) (B2) (B1) (A1) (A2) (B2) (B1) (B2)
                 (A2) (A1) (A1) (B2) (B1) (A2) (A1) (B2) (B2) (A1)
                 (B1) (A1) (B1) (B2) (A2) (B1) (A1) (A1) (A2) (A1)
                 (B2) (B2) (A1)
 The electronic state of the initial guess is 1-A1.
 Leave Link  401 at Fri Aug 27 00:04:21 2021, MaxMem= 17179869184 cpu:        48.1
 (Enter /public3/home/sc51754/softwares/g09e01/l502.exe)
 Closed shell SCF:
 Using DIIS extrapolation, IDIIS=  1040.
 Integral symmetry usage will be decided dynamically.
 Keep R1 ints in memory in symmetry-blocked form, NReq=3467901.
 IVT=       35997 IEndB=       35997 NGot= 17179869184 MDV= 17179451308
 LenX= 17179451308 LenY= 17179446642
 Requested convergence on RMS density matrix=1.00D-08 within 128 cycles.
 Requested convergence on MAX density matrix=1.00D-06.
 Requested convergence on             energy=1.00D-06.
 No special actions if energy rises.
 FoFCou: FMM=F IPFlag=           0 FMFlag=           0 FMFlg1=           0
         NFxFlg=           0 DoJE=F BraDBF=F KetDBF=F FulRan=T
         wScrn=  0.000000 ICntrl=     600 IOpCl=  0 I1Cent=           0 NGrid=           0
         NMat0=    1 NMatS0=   1711 NMatT0=    0 NMatD0=    1 NMtDS0=    0 NMtDT0=    0
 Petite list used in FoFCou.
 Integral accuracy reduced to 1.0D-05 until final iterations.

 Cycle   1  Pass 0  IDiag  1:
 E= -76.3520192759283    
 DIIS: error= 6.58D-02 at cycle   1 NSaved=   1.
 NSaved= 1 IEnMin= 1 EnMin= -76.3520192759283     IErMin= 1 ErrMin= 6.58D-02
 ErrMax= 6.58D-02  0.00D+00 EMaxC= 1.00D-01 BMatC= 1.15D-01 BMatP= 1.15D-01
 IDIUse=3 WtCom= 3.42D-01 WtEn= 6.58D-01
 Coeff-Com:  0.100D+01
 Coeff-En:   0.100D+01
 Coeff:      0.100D+01
 Gap=     0.297 Goal=   None    Shift=    0.000
 GapD=    0.297 DampG=1.000 DampE=0.500 DampFc=0.5000 IDamp=-1.
 Damping current iteration by 5.00D-01
 RMSDP=5.65D-03 MaxDP=1.11D-01              OVMax= 1.61D-01

 Cycle   2  Pass 0  IDiag  1:
 E= -76.3866927994168     Delta-E=       -0.034673523488 Rises=F Damp=T
 DIIS: error= 1.27D-02 at cycle   2 NSaved=   2.
 NSaved= 2 IEnMin= 2 EnMin= -76.3866927994168     IErMin= 2 ErrMin= 1.27D-02
 ErrMax= 1.27D-02  0.00D+00 EMaxC= 1.00D-01 BMatC= 4.60D-03 BMatP= 1.15D-01
 IDIUse=3 WtCom= 8.73D-01 WtEn= 1.27D-01
 Coeff-Com:  0.858D-01 0.914D+00
 Coeff-En:   0.143D+00 0.857D+00
 Coeff:      0.931D-01 0.907D+00
 Gap=     0.432 Goal=   None    Shift=    0.000
 RMSDP=5.41D-04 MaxDP=8.93D-03 DE=-3.47D-02 OVMax= 8.71D-02

 Cycle   3  Pass 0  IDiag  1:
 E= -76.4306042446947     Delta-E=       -0.043911445278 Rises=F Damp=F
 DIIS: error= 7.55D-04 at cycle   3 NSaved=   3.
 NSaved= 3 IEnMin= 3 EnMin= -76.4306042446947     IErMin= 3 ErrMin= 7.55D-04
 ErrMax= 7.55D-04  0.00D+00 EMaxC= 1.00D-01 BMatC= 2.32D-05 BMatP= 4.60D-03
 IDIUse=3 WtCom= 9.92D-01 WtEn= 7.55D-03
 Coeff-Com:  0.297D-02-0.381D-01 0.104D+01
 Coeff-En:   0.000D+00 0.000D+00 0.100D+01
 Coeff:      0.295D-02-0.378D-01 0.103D+01
 Gap=     0.440 Goal=   None    Shift=    0.000
 RMSDP=6.94D-05 MaxDP=8.61D-04 DE=-4.39D-02 OVMax= 1.66D-03

 Cycle   4  Pass 0  IDiag  1:
 E= -76.4306205884900     Delta-E=       -0.000016343795 Rises=F Damp=F
 DIIS: error= 2.56D-04 at cycle   4 NSaved=   4.
 NSaved= 4 IEnMin= 4 EnMin= -76.4306205884900     IErMin= 4 ErrMin= 2.56D-04
 ErrMax= 2.56D-04  0.00D+00 EMaxC= 1.00D-01 BMatC= 2.28D-06 BMatP= 2.32D-05
 IDIUse=3 WtCom= 9.97D-01 WtEn= 2.56D-03
 Coeff-Com:  0.182D-02-0.148D-01 0.210D+00 0.803D+00
 Coeff-En:   0.000D+00 0.000D+00 0.000D+00 0.100D+01
 Coeff:      0.181D-02-0.148D-01 0.210D+00 0.803D+00
 Gap=     0.440 Goal=   None    Shift=    0.000
 RMSDP=1.48D-05 MaxDP=2.65D-04 DE=-1.63D-05 OVMax= 3.49D-04

 Cycle   5  Pass 0  IDiag  1:
 E= -76.4306219861915     Delta-E=       -0.000001397701 Rises=F Damp=F
 DIIS: error= 5.68D-05 at cycle   5 NSaved=   5.
 NSaved= 5 IEnMin= 5 EnMin= -76.4306219861915     IErMin= 5 ErrMin= 5.68D-05
 ErrMax= 5.68D-05  0.00D+00 EMaxC= 1.00D-01 BMatC= 4.47D-08 BMatP= 2.28D-06
 IDIUse=1 WtCom= 1.00D+00 WtEn= 0.00D+00
 Coeff-Com:  0.993D-04 0.174D-02-0.411D-01-0.124D+00 0.116D+01
 Coeff:      0.993D-04 0.174D-02-0.411D-01-0.124D+00 0.116D+01
 Gap=     0.440 Goal=   None    Shift=    0.000
 RMSDP=5.37D-06 MaxDP=1.08D-04 DE=-1.40D-06 OVMax= 1.63D-04

 Initial convergence to 1.0D-05 achieved.  Increase integral accuracy.
 Cycle   6  Pass 1  IDiag  1:
 E= -76.4306477354689     Delta-E=       -0.000025749277 Rises=F Damp=F
 DIIS: error= 9.31D-05 at cycle   1 NSaved=   1.
 NSaved= 1 IEnMin= 1 EnMin= -76.4306477354689     IErMin= 1 ErrMin= 9.31D-05
 ErrMax= 9.31D-05  0.00D+00 EMaxC= 1.00D-01 BMatC= 6.13D-07 BMatP= 6.13D-07
 IDIUse=1 WtCom= 1.00D+00 WtEn= 0.00D+00
 Coeff-Com:  0.100D+01
 Coeff:      0.100D+01
 Gap=     0.440 Goal=   None    Shift=    0.000
 RMSDP=5.37D-06 MaxDP=1.08D-04 DE=-2.57D-05 OVMax= 1.38D-04

 Cycle   7  Pass 1  IDiag  1:
 E= -76.4306479888155     Delta-E=       -0.000000253347 Rises=F Damp=F
 DIIS: error= 2.38D-05 at cycle   2 NSaved=   2.
 NSaved= 2 IEnMin= 2 EnMin= -76.4306479888155     IErMin= 2 ErrMin= 2.38D-05
 ErrMax= 2.38D-05  0.00D+00 EMaxC= 1.00D-01 BMatC= 1.38D-08 BMatP= 6.13D-07
 IDIUse=1 WtCom= 1.00D+00 WtEn= 0.00D+00
 Coeff-Com: -0.243D-03 0.100D+01
 Coeff:     -0.243D-03 0.100D+01
 Gap=     0.440 Goal=   None    Shift=    0.000
 RMSDP=1.46D-06 MaxDP=3.12D-05 DE=-2.53D-07 OVMax= 5.53D-05

 Cycle   8  Pass 1  IDiag  1:
 E= -76.4306479902332     Delta-E=       -0.000000001418 Rises=F Damp=F
 DIIS: error= 2.14D-05 at cycle   3 NSaved=   3.
 NSaved= 3 IEnMin= 3 EnMin= -76.4306479902332     IErMin= 3 ErrMin= 2.14D-05
 ErrMax= 2.14D-05  0.00D+00 EMaxC= 1.00D-01 BMatC= 1.10D-08 BMatP= 1.38D-08
 IDIUse=1 WtCom= 1.00D+00 WtEn= 0.00D+00
 Coeff-Com: -0.204D-01 0.479D+00 0.542D+00
 Coeff:     -0.204D-01 0.479D+00 0.542D+00
 Gap=     0.440 Goal=   None    Shift=    0.000
 RMSDP=8.51D-07 MaxDP=1.60D-05 DE=-1.42D-09 OVMax= 2.76D-05

 Cycle   9  Pass 1  IDiag  1:
 E= -76.4306479972459     Delta-E=       -0.000000007013 Rises=F Damp=F
 DIIS: error= 3.47D-06 at cycle   4 NSaved=   4.
 NSaved= 4 IEnMin= 4 EnMin= -76.4306479972459     IErMin= 4 ErrMin= 3.47D-06
 ErrMax= 3.47D-06  0.00D+00 EMaxC= 1.00D-01 BMatC= 2.31D-10 BMatP= 1.10D-08
 IDIUse=1 WtCom= 1.00D+00 WtEn= 0.00D+00
 Coeff-Com: -0.252D-02 0.164D-02 0.122D+00 0.879D+00
 Coeff:     -0.252D-02 0.164D-02 0.122D+00 0.879D+00
 Gap=     0.440 Goal=   None    Shift=    0.000
 RMSDP=1.25D-07 MaxDP=2.52D-06 DE=-7.01D-09 OVMax= 4.75D-06

 Cycle  10  Pass 1  IDiag  1:
 E= -76.4306479974097     Delta-E=       -0.000000000164 Rises=F Damp=F
 DIIS: error= 3.24D-07 at cycle   5 NSaved=   5.
 NSaved= 5 IEnMin= 5 EnMin= -76.4306479974097     IErMin= 5 ErrMin= 3.24D-07
 ErrMax= 3.24D-07  0.00D+00 EMaxC= 1.00D-01 BMatC= 2.45D-12 BMatP= 2.31D-10
 IDIUse=1 WtCom= 1.00D+00 WtEn= 0.00D+00
 Coeff-Com:  0.670D-03-0.189D-01-0.107D-01 0.343D-01 0.995D+00
 Coeff:      0.670D-03-0.189D-01-0.107D-01 0.343D-01 0.995D+00
 Gap=     0.440 Goal=   None    Shift=    0.000
 RMSDP=2.58D-08 MaxDP=3.83D-07 DE=-1.64D-10 OVMax= 1.06D-06

 Cycle  11  Pass 1  IDiag  1:
 E= -76.4306479974135     Delta-E=       -0.000000000004 Rises=F Damp=F
 DIIS: error= 7.62D-08 at cycle   6 NSaved=   6.
 NSaved= 6 IEnMin= 6 EnMin= -76.4306479974135     IErMin= 6 ErrMin= 7.62D-08
 ErrMax= 7.62D-08  0.00D+00 EMaxC= 1.00D-01 BMatC= 7.05D-14 BMatP= 2.45D-12
 IDIUse=1 WtCom= 1.00D+00 WtEn= 0.00D+00
 Coeff-Com: -0.976D-05 0.258D-02-0.379D-02-0.419D-01-0.819D-01 0.113D+01
 Coeff:     -0.976D-05 0.258D-02-0.379D-02-0.419D-01-0.819D-01 0.113D+01
 Gap=     0.440 Goal=   None    Shift=    0.000
 RMSDP=7.06D-09 MaxDP=1.09D-07 DE=-3.78D-12 OVMax= 3.19D-07

 SCF Done:  E(RM062X) =  -76.4306479974     A.U. after   11 cycles
            NFock= 11  Conv=0.71D-08     -V/T= 2.0042
 KE= 7.610738957873D+01 PE=-1.991029187347D+02 EE= 3.740770525669D+01
 Leave Link  502 at Fri Aug 27 00:04:22 2021, MaxMem= 17179869184 cpu:        40.9
 (Enter /public3/home/sc51754/softwares/g09e01/l601.exe)
 Copying SCF densities to generalized density rwf, IOpCl= 0 IROHF=0.

 **********************************************************************

            Population analysis using the SCF density.

 **********************************************************************

 Orbital symmetries:
       Occupied  (A1) (A1) (B2) (A1) (B1)
       Virtual   (A1) (B2) (A1) (B2) (A1) (B1) (B2) (A1) (A2) (A1)
                 (B1) (B2) (B2) (A1) (A1) (B2) (B1) (A2) (A1) (B2)
                 (A1) (B1) (A1) (B2) (B1) (A1) (A2) (B2) (B2) (B1)
                 (A2) (A1) (A1) (B2) (B1) (A2) (A1) (B2) (B2) (A1)
                 (B1) (A1) (B1) (B2) (A1) (A2) (B1) (A2) (A1) (B2)
                 (A1) (B2) (A1)
 The electronic state is 1-A1.
 Alpha  occ. eigenvalues --  -19.62248  -1.13167  -0.61717  -0.46537  -0.39982
 Alpha virt. eigenvalues --    0.04028   0.08389   0.32045   0.32918   0.38381
 Alpha virt. eigenvalues --    0.38940   0.49125   0.73604   0.80022   0.84968
 Alpha virt. eigenvalues --    0.93385   1.08423   1.20632   1.24766   1.48253
 Alpha virt. eigenvalues --    1.52029   1.79026   1.88843   1.89782   2.13709
 Alpha virt. eigenvalues --    2.15112   2.34564   2.91633   3.39882   3.41041
 Alpha virt. eigenvalues --    3.54773   3.56981   3.75713   3.81480   3.81996
 Alpha virt. eigenvalues --    4.02501   4.02645   4.25882   4.37624   4.44283
 Alpha virt. eigenvalues --    4.48082   4.61907   4.78378   4.80013   4.85025
 Alpha virt. eigenvalues --    4.94854   5.59394   5.93338   6.04574   6.12519
 Alpha virt. eigenvalues --    6.15586   6.21405   6.29578   6.32308   6.81400
 Alpha virt. eigenvalues --    6.86740   7.33341  15.05756
          Condensed to atoms (all electrons):
               1          2          3
     1  O    7.686933   0.369536   0.369536
     2  H    0.369536   0.443122  -0.025661
     3  H    0.369536  -0.025661   0.443122
 Mulliken charges:
               1
     1  O   -0.426005
     2  H    0.213002
     3  H    0.213002
 Sum of Mulliken charges =  -0.00000
 Mulliken charges with hydrogens summed into heavy atoms:
               1
     1  O   -0.000000
 Electronic spatial extent (au):  <R**2>=             19.7167
 Charge=             -0.0000 electrons
 Dipole moment (field-independent basis, Debye):
    X=              0.0000    Y=             -0.0000    Z=             -1.9466  Tot=              1.9466
 Quadrupole moment (field-independent basis, Debye-Ang):
   XX=             -7.6222   YY=             -4.1499   ZZ=             -6.4845
   XY=              0.0000   XZ=             -0.0000   YZ=              0.0000
 Traceless Quadrupole moment (field-independent basis, Debye-Ang):
   XX=             -1.5366   YY=              1.9356   ZZ=             -0.3990
   XY=              0.0000   XZ=             -0.0000   YZ=              0.0000
 Octapole moment (field-independent basis, Debye-Ang**2):
  XXX=             -0.0000  YYY=             -0.0000  ZZZ=             -1.2139  XYY=              0.0000
  XXY=              0.0000  XXZ=             -0.3284  XZZ=             -0.0000  YZZ=             -0.0000
  YYZ=             -1.3864  XYZ=             -0.0000
 Hexadecapole moment (field-independent basis, Debye-Ang**3):
 XXXX=             -6.8023 YYYY=             -6.0393 ZZZZ=             -7.3329 XXXY=             -0.0000
 XXXZ=              0.0000 YYYX=             -0.0000 YYYZ=              0.0000 ZZZX=              0.0000
 ZZZY=              0.0000 XXYY=             -2.5016 XXZZ=             -2.3997 YYZZ=             -1.9633
 XXYZ=             -0.0000 YYXZ=             -0.0000 ZZXY=             -0.0000
 N-N= 9.157175901845D+00 E-N=-1.991029183999D+02  KE= 7.610738957873D+01
 Symmetry A1   KE= 6.796518919879D+01
 Symmetry A2   KE= 4.334468878052D-21
 Symmetry B1   KE= 4.504557841747D+00
 Symmetry B2   KE= 3.637642538192D+00
 No NMR shielding tensors so no spin-rotation constants.
 Leave Link  601 at Fri Aug 27 00:04:24 2021, MaxMem= 17179869184 cpu:        76.4
 (Enter /public3/home/sc51754/softwares/g09e01/l701.exe)
 Compute integral first derivatives.
 ... and contract with generalized density number  0.
 Leave Link  701 at Fri Aug 27 00:04:25 2021, MaxMem= 17179869184 cpu:        52.0
 (Enter /public3/home/sc51754/softwares/g09e01/l702.exe)
 L702 exits ... SP integral derivatives will be done elsewhere.
 Leave Link  702 at Fri Aug 27 00:04:25 2021, MaxMem= 17179869184 cpu:         0.2
 (Enter /public3/home/sc51754/softwares/g09e01/l703.exe)
 Compute integral first derivatives, UseDBF=F ICtDFT=           0.
 Integral derivatives from FoFJK, PRISM(SPDF).
 Calling FoFJK, ICntrl=      2127 FMM=F ISym2X=1 I1Cent= 0 IOpClX= 0 NMat=1 NMatS=1 NMatT=0.
 FoFJK:  IHMeth= 1 ICntrl=    2127 DoSepK=F KAlg= 0 I1Cent=   0 FoldK=F
 IRaf=         0 NMat=   1 IRICut=       1 DoRegI=T DoRafI=F ISym2E= 1.
 FoFCou: FMM=F IPFlag=           0 FMFlag=      100000 FMFlg1=         800
         NFxFlg=           0 DoJE=F BraDBF=F KetDBF=F FulRan=T
         wScrn=  0.000000 ICntrl=    2127 IOpCl=  0 I1Cent=           0 NGrid=           0
         NMat0=    1 NMatS0=      1 NMatT0=    0 NMatD0=    1 NMtDS0=    0 NMtDT0=    0
 Petite list used in FoFCou.
 Leave Link  703 at Fri Aug 27 00:04:26 2021, MaxMem= 17179869184 cpu:        50.5
 (Enter /public3/home/sc51754/softwares/g09e01/l716.exe)
 Dipole        = 3.84063319D-17-2.22044605D-16-7.65858614D-01
 ***** Axes restored to original set *****
 -------------------------------------------------------------------
 Center     Atomic                   Forces (Hartrees/Bohr)
 Number     Number              X              Y              Z
 -------------------------------------------------------------------
      1        8          -0.003076435   -0.004353055    0.000000000
      2        1          -0.003934244    0.006044081   -0.000000000
      3        1           0.007010679   -0.001691026   -0.000000000
 -------------------------------------------------------------------
 Cartesian Forces:  Max     0.007010679 RMS     0.003835969
 Leave Link  716 at Fri Aug 27 00:04:26 2021, MaxMem= 17179869184 cpu:         0.4
 (Enter /public3/home/sc51754/softwares/g09e01/l103.exe)

 GradGradGradGradGradGradGradGradGradGradGradGradGradGradGradGradGradGrad
 Berny optimization.
 FormGI is forming the generalized inverse of G from B-inverse, IUseBI=4.
 Internal  Forces:  Max     0.010966584 RMS     0.007099264
 Search for a local minimum.
 Step number   1 out of a maximum of   20
 All quantities printed in internal units (Hartrees-Bohrs-Radians)
 RMS Force = .70993D-02 SwitMx=.10000D-02 MixMth= 1
 Mixed Optimization -- RFO/linear search
 Second derivative matrix not updated -- first step.
 The second derivative matrix:
                          R1        R2        A1
           R1           0.55473
           R2           0.00000   0.55473
           A1           0.00000   0.00000   0.16000
 ITU=  0
     Eigenvalues ---    0.16000   0.55473   0.55473
 RFO step:  Lambda=-8.03586693D-04 EMin= 1.60000000D-01
 Linear search not attempted -- first point.
 Iteration  1 RMS(Cart)=  0.04030221 RMS(Int)=  0.00087413
 Iteration  2 RMS(Cart)=  0.00070924 RMS(Int)=  0.00000006
 Iteration  3 RMS(Cart)=  0.00000007 RMS(Int)=  0.00000000
 ITry= 1 IFail=0 DXMaxC= 4.32D-02 DCOld= 1.00D+10 DXMaxT= 3.00D-01 DXLimC= 3.00D+00 Rises=F
 ClnCor:  largest displacement from symmetrization is 7.46D-15 for atom     3.
 Variable       Old X    -DE/DX   Delta X   Delta X   Delta X     New X
                                 (Linear)    (Quad)   (Total)
    R1        1.81414  -0.00393   0.00000  -0.00708  -0.00708   1.80706
    R2        1.81414  -0.00393   0.00000  -0.00708  -0.00708   1.80706
    A1        1.91063  -0.01097   0.00000  -0.06820  -0.06820   1.84243
         Item               Value     Threshold  Converged?
 Maximum Force            0.010967     0.000450     NO 
 RMS     Force            0.007099     0.000300     NO 
 Maximum Displacement     0.043242     0.001800     NO 
 RMS     Displacement     0.040619     0.001200     NO 
 Predicted change in Energy=-4.037023D-04
 Lowest energy point so far.  Saving SCF results.
 GradGradGradGradGradGradGradGradGradGradGradGradGradGradGradGradGradGrad

 Leave Link  103 at Fri Aug 27 00:04:26 2021, MaxMem= 17179869184 cpu:        18.1
 (Enter /public3/home/sc51754/softwares/g09e01/l202.exe)
                          Input orientation:                          
 ---------------------------------------------------------------------
 Center     Atomic      Atomic             Coordinates (Angstroms)
 Number     Number       Type             X           Y           Z
 ---------------------------------------------------------------------
      1          8           0        0.029931    0.782431    0.000000
      2          1           0        0.985620    0.815272   -0.000000
      3          1           0       -0.258128    1.694266    0.000000
 ---------------------------------------------------------------------
                    Distance matrix (angstroms):
                    1          2          3
     1  O    0.000000
     2  H    0.956254   0.000000
     3  H    0.956254   1.523004   0.000000
 Stoichiometry    H2O
 Framework group  C2V[C2(O),SGV(H2)]
 Deg. of freedom     2
 Full point group                 C2V     NOp   4
 RotChk:  IX=3 Diff= 4.28D-16
 Largest Abelian subgroup         C2V     NOp   4
 Largest concise Abelian subgroup C2      NOp   2
                         Standard orientation:                         
 ---------------------------------------------------------------------
 Center     Atomic      Atomic             Coordinates (Angstroms)
 Number     Number       Type             X           Y           Z
 ---------------------------------------------------------------------
      1          8           0       -0.000000   -0.000000    0.115678
      2          1           0        0.000000   -0.761502   -0.462713
      3          1           0        0.000000    0.761502   -0.462713
 ---------------------------------------------------------------------
 Rotational constants (GHZ):    843.9251105    432.3746408    285.8982117
 Leave Link  202 at Fri Aug 27 00:04:26 2021, MaxMem= 17179869184 cpu:         3.5
 (Enter /public3/home/sc51754/softwares/g09e01/l301.exe)
 Basis read from rwf:  (5D, 7F)
 No pseudopotential information found on rwf file.
 There are    27 symmetry adapted cartesian basis functions of A1  symmetry.
 There are     7 symmetry adapted cartesian basis functions of A2  symmetry.
 There are    12 symmetry adapted cartesian basis functions of B1  symmetry.
 There are    19 symmetry adapted cartesian basis functions of B2  symmetry.
 There are    23 symmetry adapted basis functions of A1  symmetry.
 There are     7 symmetry adapted basis functions of A2  symmetry.
 There are    11 symmetry adapted basis functions of B1  symmetry.
 There are    17 symmetry adapted basis functions of B2  symmetry.
    58 basis functions,    91 primitive gaussians,    65 cartesian basis functions
     5 alpha electrons        5 beta electrons
       nuclear repulsion energy         9.2016272471 Hartrees.
 IExCor= 4336 DFT=T Ex+Corr=M062X ExCW=0 ScaHFX=  0.540000
 ScaDFX=  1.000000  1.000000  1.000000  1.000000 ScalE2=  1.000000  1.000000
 IRadAn=      0 IRanWt=     -1 IRanGd=            0 ICorTp=0 IEmpDi=  4
 NAtoms=    3 NActive=    3 NUniq=    2 SFac= 2.25D+00 NAtFMM=   60 NAOKFM=F Big=F
 Integral buffers will be    131072 words long.
 Raffenetti 2 integral format.
 Two-electron integral symmetry is turned on.
 No density basis found on file   724.
 Leave Link  301 at Fri Aug 27 00:04:26 2021, MaxMem= 17179869184 cpu:         1.1
 (Enter /public3/home/sc51754/softwares/g09e01/l302.exe)
 NPDir=0 NMtPBC=     1 NCelOv=     1 NCel=       1 NClECP=     1 NCelD=      1
         NCelK=      1 NCelE2=     1 NClLst=     1 CellRange=     0.0.
 One-electron integrals computed using PRISM.
 One-electron integral symmetry used in STVInt
 NBasis=    58 RedAO= T EigKep=  5.76D-03  NBF=    23     7    11    17
 NBsUse=    58 1.00D-06 EigRej= -1.00D+00 NBFU=    23     7    11    17
 Precomputing XC quadrature grid using
 IXCGrd= 4 IRadAn=           0 IRanWt=          -1 IRanGd=           0 AccXCQ= 0.00D+00.
 Generated NRdTot=       0 NPtTot=           0 NUsed=           0 NTot=          32
 NSgBfM=    65    65    65    65    65 MxSgAt=     3 MxSgA2=     3.
 Leave Link  302 at Fri Aug 27 00:04:27 2021, MaxMem= 17179869184 cpu:        37.7
 (Enter /public3/home/sc51754/softwares/g09e01/l303.exe)
 DipDrv:  MaxL=1.
 Leave Link  303 at Fri Aug 27 00:04:27 2021, MaxMem= 17179869184 cpu:        10.8
 (Enter /public3/home/sc51754/softwares/g09e01/l401.exe)
 Initial guess from the checkpoint file:  "H2O_M062X_PC2_OPT_FREQ.chk"
 B after Tr=    -0.000000    0.000000    0.000000
         Rot=    1.000000   -0.000000   -0.000000   -0.000000 Ang=   0.00 deg.
 Guess basis will be translated and rotated to current coordinates.
 JPrj=2 DoOrth=T DoCkMO=T.
 Initial guess orbital symmetries:
       Occupied  (A1) (A1) (B2) (A1) (B1)
       Virtual   (A1) (A1) (A1) (A1) (A1) (A1) (A1) (A1) (A1) (A1)
                 (A1) (A1) (A1) (A1) (A1) (A1) (A1) (A1) (A1) (A1)
                 (A2) (A2) (A2) (A2) (A2) (A2) (A2) (B1) (B1) (B1)
                 (B1) (B1) (B1) (B1) (B1) (B1) (B1) (B2) (B2) (B2)
                 (B2) (B2) (B2) (B2) (B2) (B2) (B2) (B2) (B2) (B2)
                 (B2) (B2) (B2)
 The electronic state of the initial guess is 1-A1.
 Generating alternative initial guess.
 ExpMin= 7.41D-02 ExpMax= 1.48D+04 ExpMxC= 5.05D+02 IAcc=2 IRadAn=         4 AccDes= 0.00D+00
 Harris functional with IExCor= 1009 and IRadAn=       4 diagonalized for initial guess.
 HarFok:  IExCor= 1009 AccDes= 0.00D+00 IRadAn=         4 IDoV= 1 UseB2=F ITyADJ=14
 ICtDFT=  3500011 ScaDFX=  1.000000  1.000000  1.000000  1.000000
 FoFCou: FMM=F IPFlag=           0 FMFlag=      100000 FMFlg1=           0
         NFxFlg=           0 DoJE=T BraDBF=F KetDBF=T FulRan=T
         wScrn=  0.000000 ICntrl=     500 IOpCl=  0 I1Cent=   200000004 NGrid=           0
         NMat0=    1 NMatS0=      1 NMatT0=    0 NMatD0=    1 NMtDS0=    0 NMtDT0=    0
 Petite list used in FoFCou.
 Harris En= -76.4284681274291    
 Leave Link  401 at Fri Aug 27 00:04:29 2021, MaxMem= 17179869184 cpu:        72.3
 (Enter /public3/home/sc51754/softwares/g09e01/l502.exe)
 Closed shell SCF:
 Using DIIS extrapolation, IDIIS=  1040.
 Integral symmetry usage will be decided dynamically.
 Keep R1 ints in memory in symmetry-blocked form, NReq=3467901.
 IVT=       35997 IEndB=       35997 NGot= 17179869184 MDV= 17179451308
 LenX= 17179451308 LenY= 17179446642
 Requested convergence on RMS density matrix=1.00D-08 within 128 cycles.
 Requested convergence on MAX density matrix=1.00D-06.
 Requested convergence on             energy=1.00D-06.
 No special actions if energy rises.
 FoFCou: FMM=F IPFlag=           0 FMFlag=           0 FMFlg1=           0
         NFxFlg=           0 DoJE=F BraDBF=F KetDBF=F FulRan=T
         wScrn=  0.000000 ICntrl=     600 IOpCl=  0 I1Cent=           0 NGrid=           0
         NMat0=    1 NMatS0=   1711 NMatT0=    0 NMatD0=    1 NMtDS0=    0 NMtDT0=    0
 Petite list used in FoFCou.
 Integral accuracy reduced to 1.0D-05 until final iterations.

 Cycle   1  Pass 0  IDiag  1:
 E= -76.4308551442122    
 DIIS: error= 2.03D-03 at cycle   1 NSaved=   1.
 NSaved= 1 IEnMin= 1 EnMin= -76.4308551442122     IErMin= 1 ErrMin= 2.03D-03
 ErrMax= 2.03D-03  0.00D+00 EMaxC= 1.00D-01 BMatC= 2.42D-04 BMatP= 2.42D-04
 IDIUse=3 WtCom= 9.80D-01 WtEn= 2.03D-02
 Coeff-Com:  0.100D+01
 Coeff-En:   0.100D+01
 Coeff:      0.100D+01
 Gap=     1.241 Goal=   None    Shift=    0.000
 GapD=    1.241 DampG=2.000 DampE=1.000 DampFc=2.0000 IDamp=-1.
 RMSDP=2.84D-04 MaxDP=4.26D-03              OVMax= 5.55D-03

 Cycle   2  Pass 0  IDiag  1:
 E= -76.4310402087718     Delta-E=       -0.000185064560 Rises=F Damp=F
 DIIS: error= 2.96D-04 at cycle   2 NSaved=   2.
 NSaved= 2 IEnMin= 2 EnMin= -76.4310402087718     IErMin= 2 ErrMin= 2.96D-04
 ErrMax= 2.96D-04  0.00D+00 EMaxC= 1.00D-01 BMatC= 3.32D-06 BMatP= 2.42D-04
 IDIUse=3 WtCom= 9.97D-01 WtEn= 2.96D-03
 Coeff-Com: -0.447D-01 0.104D+01
 Coeff-En:   0.000D+00 0.100D+01
 Coeff:     -0.446D-01 0.104D+01
 Gap=     0.441 Goal=   None    Shift=    0.000
 RMSDP=5.76D-05 MaxDP=9.65D-04 DE=-1.85D-04 OVMax= 1.08D-03

 Cycle   3  Pass 0  IDiag  1:
 E= -76.4310435971184     Delta-E=       -0.000003388347 Rises=F Damp=F
 DIIS: error= 2.63D-04 at cycle   3 NSaved=   3.
 NSaved= 3 IEnMin= 3 EnMin= -76.4310435971184     IErMin= 3 ErrMin= 2.63D-04
 ErrMax= 2.63D-04  0.00D+00 EMaxC= 1.00D-01 BMatC= 1.67D-06 BMatP= 3.32D-06
 IDIUse=3 WtCom= 9.97D-01 WtEn= 2.63D-03
 Coeff-Com: -0.292D-01 0.437D+00 0.592D+00
 Coeff-En:   0.000D+00 0.000D+00 0.100D+01
 Coeff:     -0.291D-01 0.436D+00 0.594D+00
 Gap=     0.441 Goal=   None    Shift=    0.000
 RMSDP=1.28D-05 MaxDP=2.40D-04 DE=-3.39D-06 OVMax= 3.53D-04

 Cycle   4  Pass 0  IDiag  1:
 E= -76.4310446265096     Delta-E=       -0.000001029391 Rises=F Damp=F
 DIIS: error= 7.33D-05 at cycle   4 NSaved=   4.
 NSaved= 4 IEnMin= 4 EnMin= -76.4310446265096     IErMin= 4 ErrMin= 7.33D-05
 ErrMax= 7.33D-05  0.00D+00 EMaxC= 1.00D-01 BMatC= 1.20D-07 BMatP= 1.67D-06
 IDIUse=1 WtCom= 1.00D+00 WtEn= 0.00D+00
 Coeff-Com: -0.107D-02-0.554D-01 0.179D+00 0.877D+00
 Coeff:     -0.107D-02-0.554D-01 0.179D+00 0.877D+00
 Gap=     0.441 Goal=   None    Shift=    0.000
 RMSDP=6.91D-06 MaxDP=1.26D-04 DE=-1.03D-06 OVMax= 1.24D-04

 Initial convergence to 1.0D-05 achieved.  Increase integral accuracy.
 Cycle   5  Pass 1  IDiag  1:
 E= -76.4310609134527     Delta-E=       -0.000016286943 Rises=F Damp=F
 DIIS: error= 9.15D-05 at cycle   1 NSaved=   1.
 NSaved= 1 IEnMin= 1 EnMin= -76.4310609134527     IErMin= 1 ErrMin= 9.15D-05
 ErrMax= 9.15D-05  0.00D+00 EMaxC= 1.00D-01 BMatC= 6.25D-07 BMatP= 6.25D-07
 IDIUse=1 WtCom= 1.00D+00 WtEn= 0.00D+00
 Coeff-Com:  0.100D+01
 Coeff:      0.100D+01
 Gap=     0.441 Goal=   None    Shift=    0.000
 RMSDP=6.91D-06 MaxDP=1.26D-04 DE=-1.63D-05 OVMax= 1.26D-04

 Cycle   6  Pass 1  IDiag  1:
 E= -76.4310611869567     Delta-E=       -0.000000273504 Rises=F Damp=F
 DIIS: error= 1.63D-05 at cycle   2 NSaved=   2.
 NSaved= 2 IEnMin= 2 EnMin= -76.4310611869567     IErMin= 2 ErrMin= 1.63D-05
 ErrMax= 1.63D-05  0.00D+00 EMaxC= 1.00D-01 BMatC= 8.34D-09 BMatP= 6.25D-07
 IDIUse=1 WtCom= 1.00D+00 WtEn= 0.00D+00
 Coeff-Com: -0.377D-01 0.104D+01
 Coeff:     -0.377D-01 0.104D+01
 Gap=     0.441 Goal=   None    Shift=    0.000
 RMSDP=1.05D-06 MaxDP=2.25D-05 DE=-2.74D-07 OVMax= 4.16D-05

 Cycle   7  Pass 1  IDiag  1:
 E= -76.4310611894111     Delta-E=       -0.000000002454 Rises=F Damp=F
 DIIS: error= 1.43D-05 at cycle   3 NSaved=   3.
 NSaved= 3 IEnMin= 3 EnMin= -76.4310611894111     IErMin= 3 ErrMin= 1.43D-05
 ErrMax= 1.43D-05  0.00D+00 EMaxC= 1.00D-01 BMatC= 4.83D-09 BMatP= 8.34D-09
 IDIUse=1 WtCom= 1.00D+00 WtEn= 0.00D+00
 Coeff-Com: -0.265D-01 0.458D+00 0.569D+00
 Coeff:     -0.265D-01 0.458D+00 0.569D+00
 Gap=     0.441 Goal=   None    Shift=    0.000
 RMSDP=5.95D-07 MaxDP=1.13D-05 DE=-2.45D-09 OVMax= 1.97D-05

 Cycle   8  Pass 1  IDiag  1:
 E= -76.4310611924335     Delta-E=       -0.000000003022 Rises=F Damp=F
 DIIS: error= 3.41D-06 at cycle   4 NSaved=   4.
 NSaved= 4 IEnMin= 4 EnMin= -76.4310611924335     IErMin= 4 ErrMin= 3.41D-06
 ErrMax= 3.41D-06  0.00D+00 EMaxC= 1.00D-01 BMatC= 2.40D-10 BMatP= 4.83D-09
 IDIUse=1 WtCom= 1.00D+00 WtEn= 0.00D+00
 Coeff-Com: -0.195D-02-0.557D-02 0.173D+00 0.835D+00
 Coeff:     -0.195D-02-0.557D-02 0.173D+00 0.835D+00
 Gap=     0.441 Goal=   None    Shift=    0.000
 RMSDP=1.23D-07 MaxDP=2.75D-06 DE=-3.02D-09 OVMax= 4.47D-06

 Cycle   9  Pass 1  IDiag  1:
 E= -76.4310611925965     Delta-E=       -0.000000000163 Rises=F Damp=F
 DIIS: error= 3.31D-07 at cycle   5 NSaved=   5.
 NSaved= 5 IEnMin= 5 EnMin= -76.4310611925965     IErMin= 5 ErrMin= 3.31D-07
 ErrMax= 3.31D-07  0.00D+00 EMaxC= 1.00D-01 BMatC= 1.87D-12 BMatP= 2.40D-10
 IDIUse=1 WtCom= 1.00D+00 WtEn= 0.00D+00
 Coeff-Com:  0.842D-03-0.189D-01-0.394D-02 0.568D-01 0.965D+00
 Coeff:      0.842D-03-0.189D-01-0.394D-02 0.568D-01 0.965D+00
 Gap=     0.441 Goal=   None    Shift=    0.000
 RMSDP=2.21D-08 MaxDP=3.14D-07 DE=-1.63D-10 OVMax= 8.85D-07

 Cycle  10  Pass 1  IDiag  1:
 E= -76.4310611925994     Delta-E=       -0.000000000003 Rises=F Damp=F
 DIIS: error= 6.68D-08 at cycle   6 NSaved=   6.
 NSaved= 6 IEnMin= 6 EnMin= -76.4310611925994     IErMin= 6 ErrMin= 6.68D-08
 ErrMax= 6.68D-08  0.00D+00 EMaxC= 1.00D-01 BMatC= 5.47D-14 BMatP= 1.87D-12
 IDIUse=1 WtCom= 1.00D+00 WtEn= 0.00D+00
 Coeff-Com: -0.840D-04 0.330D-02-0.618D-02-0.417D-01-0.999D-01 0.114D+01
 Coeff:     -0.840D-04 0.330D-02-0.618D-02-0.417D-01-0.999D-01 0.114D+01
 Gap=     0.441 Goal=   None    Shift=    0.000
 RMSDP=6.11D-09 MaxDP=9.10D-08 DE=-2.93D-12 OVMax= 2.82D-07

 SCF Done:  E(RM062X) =  -76.4310611926     A.U. after   10 cycles
            NFock= 10  Conv=0.61D-08     -V/T= 2.0040
 KE= 7.612831507599D+01 PE=-1.991937013263D+02 EE= 3.743269781063D+01
 Leave Link  502 at Fri Aug 27 00:04:30 2021, MaxMem= 17179869184 cpu:        34.3
 (Enter /public3/home/sc51754/softwares/g09e01/l701.exe)
 Compute integral first derivatives.
 ... and contract with generalized density number  0.
 Leave Link  701 at Fri Aug 27 00:04:30 2021, MaxMem= 17179869184 cpu:        39.4
 (Enter /public3/home/sc51754/softwares/g09e01/l702.exe)
 L702 exits ... SP integral derivatives will be done elsewhere.
 Leave Link  702 at Fri Aug 27 00:04:31 2021, MaxMem= 17179869184 cpu:         0.3
 (Enter /public3/home/sc51754/softwares/g09e01/l703.exe)
 Compute integral first derivatives, UseDBF=F ICtDFT=           0.
 Integral derivatives from FoFJK, PRISM(SPDF).
 Calling FoFJK, ICntrl=      2127 FMM=F ISym2X=1 I1Cent= 0 IOpClX= 0 NMat=1 NMatS=1 NMatT=0.
 FoFJK:  IHMeth= 1 ICntrl=    2127 DoSepK=F KAlg= 0 I1Cent=   0 FoldK=F
 IRaf=         0 NMat=   1 IRICut=       1 DoRegI=T DoRafI=F ISym2E= 1.
 FoFCou: FMM=F IPFlag=           0 FMFlag=      100000 FMFlg1=         800
         NFxFlg=           0 DoJE=F BraDBF=F KetDBF=F FulRan=T
         wScrn=  0.000000 ICntrl=    2127 IOpCl=  0 I1Cent=           0 NGrid=           0
         NMat0=    1 NMatS0=      1 NMatT0=    0 NMatD0=    1 NMtDS0=    0 NMtDT0=    0
 Petite list used in FoFCou.
 Leave Link  703 at Fri Aug 27 00:04:31 2021, MaxMem= 17179869184 cpu:        40.9
 (Enter /public3/home/sc51754/softwares/g09e01/l716.exe)
 Dipole        = 3.61692464D-17 2.22044605D-16-7.88629879D-01
 ***** Axes restored to original set *****
 -------------------------------------------------------------------
 Center     Atomic                   Forces (Hartrees/Bohr)
 Number     Number              X              Y              Z
 -------------------------------------------------------------------
      1        8          -0.001539847   -0.002178833    0.000000000
      2        1           0.001785457    0.000371708   -0.000000000
      3        1          -0.000245610    0.001807125   -0.000000000
 -------------------------------------------------------------------
 Cartesian Forces:  Max     0.002178833 RMS     0.001236954
 Leave Link  716 at Fri Aug 27 00:04:32 2021, MaxMem= 17179869184 cpu:         0.3
 (Enter /public3/home/sc51754/softwares/g09e01/l103.exe)

 GradGradGradGradGradGradGradGradGradGradGradGradGradGradGradGradGradGrad
 Berny optimization.
 Using GEDIIS/GDIIS optimizer.
 FormGI is forming the generalized inverse of G from B-inverse, IUseBI=4.
 Internal  Forces:  Max     0.001797170 RMS     0.001502641
 Search for a local minimum.
 Step number   2 out of a maximum of   20
 All quantities printed in internal units (Hartrees-Bohrs-Radians)
 RMS Force = .15026D-02 SwitMx=.10000D-02 MixMth= 1
 Mixed Optimization -- RFO/linear search
 Update second derivatives using D2CorX and points    1    2
 DE= -4.13D-04 DEPred=-4.04D-04 R= 1.02D+00
 TightC=F SS=  1.41D+00  RLast= 6.89D-02 DXNew= 5.0454D-01 2.0679D-01
 Trust test= 1.02D+00 RLast= 6.89D-02 DXMaxT set to 3.00D-01
 The second derivative matrix:
                          R1        R2        A1
           R1           0.57697
           R2           0.02223   0.57697
           A1           0.02182   0.02182   0.14806
 ITU=  1  0
 Use linear search instead of GDIIS.
     Eigenvalues ---    0.14595   0.55473   0.60130
 RFO step:  Lambda=-1.37971810D-05 EMin= 1.45954410D-01
 Quartic linear search produced a step of  0.01556.
 Iteration  1 RMS(Cart)=  0.00248932 RMS(Int)=  0.00000621
 Iteration  2 RMS(Cart)=  0.00000701 RMS(Int)=  0.00000000
 Iteration  3 RMS(Cart)=  0.00000000 RMS(Int)=  0.00000000
 ITry= 1 IFail=0 DXMaxC= 2.88D-03 DCOld= 1.00D+10 DXMaxT= 3.00D-01 DXLimC= 3.00D+00 Rises=F
 ClnCor:  largest displacement from symmetrization is 3.23D-15 for atom     3.
 Variable       Old X    -DE/DX   Delta X   Delta X   Delta X     New X
                                 (Linear)    (Quad)   (Total)
    R1        1.80706   0.00180  -0.00011   0.00328   0.00317   1.81023
    R2        1.80706   0.00180  -0.00011   0.00328   0.00317   1.81023
    A1        1.84243  -0.00056  -0.00106  -0.00361  -0.00467   1.83776
         Item               Value     Threshold  Converged?
 Maximum Force            0.001797     0.000450     NO 
 RMS     Force            0.001503     0.000300     NO 
 Maximum Displacement     0.002876     0.001800     NO 
 RMS     Displacement     0.002491     0.001200     NO 
 Predicted change in Energy=-7.021837D-06
 Lowest energy point so far.  Saving SCF results.
 GradGradGradGradGradGradGradGradGradGradGradGradGradGradGradGradGradGrad

 Leave Link  103 at Fri Aug 27 00:04:32 2021, MaxMem= 17179869184 cpu:        18.7
 (Enter /public3/home/sc51754/softwares/g09e01/l202.exe)
                          Input orientation:                          
 ---------------------------------------------------------------------
 Center     Atomic      Atomic             Coordinates (Angstroms)
 Number     Number       Type             X           Y           Z
 ---------------------------------------------------------------------
      1          8           0        0.028855    0.780909    0.000000
      2          1           0        0.986142    0.816045   -0.000000
      3          1           0       -0.257573    1.695016    0.000000
 ---------------------------------------------------------------------
                    Distance matrix (angstroms):
                    1          2          3
     1  O    0.000000
     2  H    0.957932   0.000000
     3  H    0.957932   1.522964   0.000000
 Stoichiometry    H2O
 Framework group  C2V[C2(O),SGV(H2)]
 Deg. of freedom     2
 Full point group                 C2V     NOp   4
 RotChk:  IX=3 Diff= 5.50D-16
 Largest Abelian subgroup         C2V     NOp   4
 Largest concise Abelian subgroup C2      NOp   2
                         Standard orientation:                         
 ---------------------------------------------------------------------
 Center     Atomic      Atomic             Coordinates (Angstroms)
 Number     Number       Type             X           Y           Z
 ---------------------------------------------------------------------
      1          8           0       -0.000000    0.000000    0.116237
      2          1           0        0.000000   -0.761482   -0.464950
      3          1           0        0.000000    0.761482   -0.464950
 ---------------------------------------------------------------------
 Rotational constants (GHZ):    835.8252136    432.3972746    284.9725090
 Leave Link  202 at Fri Aug 27 00:04:32 2021, MaxMem= 17179869184 cpu:         8.5
 (Enter /public3/home/sc51754/softwares/g09e01/l301.exe)
 Basis read from rwf:  (5D, 7F)
 No pseudopotential information found on rwf file.
 There are    27 symmetry adapted cartesian basis functions of A1  symmetry.
 There are     7 symmetry adapted cartesian basis functions of A2  symmetry.
 There are    12 symmetry adapted cartesian basis functions of B1  symmetry.
 There are    19 symmetry adapted cartesian basis functions of B2  symmetry.
 There are    23 symmetry adapted basis functions of A1  symmetry.
 There are     7 symmetry adapted basis functions of A2  symmetry.
 There are    11 symmetry adapted basis functions of B1  symmetry.
 There are    17 symmetry adapted basis functions of B2  symmetry.
    58 basis functions,    91 primitive gaussians,    65 cartesian basis functions
     5 alpha electrons        5 beta electrons
       nuclear repulsion energy         9.1861284941 Hartrees.
 IExCor= 4336 DFT=T Ex+Corr=M062X ExCW=0 ScaHFX=  0.540000
 ScaDFX=  1.000000  1.000000  1.000000  1.000000 ScalE2=  1.000000  1.000000
 IRadAn=      0 IRanWt=     -1 IRanGd=            0 ICorTp=0 IEmpDi=  4
 NAtoms=    3 NActive=    3 NUniq=    2 SFac= 2.25D+00 NAtFMM=   60 NAOKFM=F Big=F
 Integral buffers will be    131072 words long.
 Raffenetti 2 integral format.
 Two-electron integral symmetry is turned on.
 No density basis found on file   724.
 Leave Link  301 at Fri Aug 27 00:04:32 2021, MaxMem= 17179869184 cpu:         0.9
 (Enter /public3/home/sc51754/softwares/g09e01/l302.exe)
 NPDir=0 NMtPBC=     1 NCelOv=     1 NCel=       1 NClECP=     1 NCelD=      1
         NCelK=      1 NCelE2=     1 NClLst=     1 CellRange=     0.0.
 One-electron integrals computed using PRISM.
 One-electron integral symmetry used in STVInt
 NBasis=    58 RedAO= T EigKep=  5.78D-03  NBF=    23     7    11    17
 NBsUse=    58 1.00D-06 EigRej= -1.00D+00 NBFU=    23     7    11    17
 Precomputing XC quadrature grid using
 IXCGrd= 4 IRadAn=           0 IRanWt=          -1 IRanGd=           0 AccXCQ= 0.00D+00.
 Generated NRdTot=       0 NPtTot=           0 NUsed=           0 NTot=          32
 NSgBfM=    65    65    65    65    65 MxSgAt=     3 MxSgA2=     3.
 Leave Link  302 at Fri Aug 27 00:04:33 2021, MaxMem= 17179869184 cpu:        40.1
 (Enter /public3/home/sc51754/softwares/g09e01/l303.exe)
 DipDrv:  MaxL=1.
 Leave Link  303 at Fri Aug 27 00:04:33 2021, MaxMem= 17179869184 cpu:         7.7
 (Enter /public3/home/sc51754/softwares/g09e01/l401.exe)
 Initial guess from the checkpoint file:  "H2O_M062X_PC2_OPT_FREQ.chk"
 B after Tr=    -0.000000   -0.000000   -0.000000
         Rot=    1.000000    0.000000   -0.000000   -0.000000 Ang=   0.00 deg.
 Guess basis will be translated and rotated to current coordinates.
 JPrj=2 DoOrth=T DoCkMO=T.
 Initial guess orbital symmetries:
       Occupied  (A1) (A1) (B2) (A1) (B1)
       Virtual   (A1) (A1) (A1) (A1) (A1) (A1) (A1) (A1) (A1) (A1)
                 (A1) (A1) (A1) (A1) (A1) (A1) (A1) (A1) (A1) (A1)
                 (A2) (A2) (A2) (A2) (A2) (A2) (A2) (B1) (B1) (B1)
                 (B1) (B1) (B1) (B1) (B1) (B1) (B1) (B2) (B2) (B2)
                 (B2) (B2) (B2) (B2) (B2) (B2) (B2) (B2) (B2) (B2)
                 (B2) (B2) (B2)
 The electronic state of the initial guess is 1-A1.
 Leave Link  401 at Fri Aug 27 00:04:34 2021, MaxMem= 17179869184 cpu:        32.1
 (Enter /public3/home/sc51754/softwares/g09e01/l502.exe)
 Closed shell SCF:
 Using DIIS extrapolation, IDIIS=  1040.
 Integral symmetry usage will be decided dynamically.
 Keep R1 ints in memory in symmetry-blocked form, NReq=3467901.
 IVT=       35997 IEndB=       35997 NGot= 17179869184 MDV= 17179451308
 LenX= 17179451308 LenY= 17179446642
 Requested convergence on RMS density matrix=1.00D-08 within 128 cycles.
 Requested convergence on MAX density matrix=1.00D-06.
 Requested convergence on             energy=1.00D-06.
 No special actions if energy rises.
 FoFCou: FMM=F IPFlag=           0 FMFlag=           0 FMFlg1=           0
         NFxFlg=           0 DoJE=F BraDBF=F KetDBF=F FulRan=T
         wScrn=  0.000000 ICntrl=     600 IOpCl=  0 I1Cent=           0 NGrid=           0
         NMat0=    1 NMatS0=   1711 NMatT0=    0 NMatD0=    1 NMtDS0=    0 NMtDT0=    0
 Petite list used in FoFCou.

 Cycle   1  Pass 1  IDiag  1:
 E= -76.4310657888048    
 DIIS: error= 4.21D-04 at cycle   1 NSaved=   1.
 NSaved= 1 IEnMin= 1 EnMin= -76.4310657888048     IErMin= 1 ErrMin= 4.21D-04
 ErrMax= 4.21D-04  0.00D+00 EMaxC= 1.00D-01 BMatC= 3.87D-06 BMatP= 3.87D-06
 IDIUse=3 WtCom= 9.96D-01 WtEn= 4.21D-03
 Coeff-Com:  0.100D+01
 Coeff-En:   0.100D+01
 Coeff:      0.100D+01
 Gap=     1.238 Goal=   None    Shift=    0.000
 RMSDP=3.06D-05 MaxDP=5.10D-04              OVMax= 6.91D-04

 Cycle   2  Pass 1  IDiag  1:
 E= -76.4310684856548     Delta-E=       -0.000002696850 Rises=F Damp=F
 DIIS: error= 1.31D-04 at cycle   2 NSaved=   2.
 NSaved= 2 IEnMin= 2 EnMin= -76.4310684856548     IErMin= 2 ErrMin= 1.31D-04
 ErrMax= 1.31D-04  0.00D+00 EMaxC= 1.00D-01 BMatC= 4.12D-07 BMatP= 3.87D-06
 IDIUse=3 WtCom= 9.99D-01 WtEn= 1.31D-03
 Coeff-Com:  0.107D+00 0.893D+00
 Coeff-En:   0.000D+00 0.100D+01
 Coeff:      0.107D+00 0.893D+00
 Gap=     0.441 Goal=   None    Shift=    0.000
 RMSDP=9.29D-06 MaxDP=2.09D-04 DE=-2.70D-06 OVMax= 2.57D-04

 Cycle   3  Pass 1  IDiag  1:
 E= -76.4310686061837     Delta-E=       -0.000000120529 Rises=F Damp=F
 DIIS: error= 1.02D-04 at cycle   3 NSaved=   3.
 NSaved= 3 IEnMin= 3 EnMin= -76.4310686061837     IErMin= 3 ErrMin= 1.02D-04
 ErrMax= 1.02D-04  0.00D+00 EMaxC= 1.00D-01 BMatC= 2.72D-07 BMatP= 4.12D-07
 IDIUse=3 WtCom= 9.99D-01 WtEn= 1.02D-03
 Coeff-Com: -0.362D-01 0.450D+00 0.586D+00
 Coeff-En:   0.000D+00 0.345D+00 0.655D+00
 Coeff:     -0.361D-01 0.450D+00 0.586D+00
 Gap=     0.441 Goal=   None    Shift=    0.000
 RMSDP=4.17D-06 MaxDP=7.67D-05 DE=-1.21D-07 OVMax= 1.39D-04

 Cycle   4  Pass 1  IDiag  1:
 E= -76.4310687849945     Delta-E=       -0.000000178811 Rises=F Damp=F
 DIIS: error= 1.08D-05 at cycle   4 NSaved=   4.
 NSaved= 4 IEnMin= 4 EnMin= -76.4310687849945     IErMin= 4 ErrMin= 1.08D-05
 ErrMax= 1.08D-05  0.00D+00 EMaxC= 1.00D-01 BMatC= 2.73D-09 BMatP= 2.72D-07
 IDIUse=1 WtCom= 1.00D+00 WtEn= 0.00D+00
 Coeff-Com: -0.942D-02 0.114D-01 0.933D-01 0.905D+00
 Coeff:     -0.942D-02 0.114D-01 0.933D-01 0.905D+00
 Gap=     0.441 Goal=   None    Shift=    0.000
 RMSDP=7.77D-07 MaxDP=1.55D-05 DE=-1.79D-07 OVMax= 2.50D-05

 Cycle   5  Pass 1  IDiag  1:
 E= -76.4310687878995     Delta-E=       -0.000000002905 Rises=F Damp=F
 DIIS: error= 2.34D-06 at cycle   5 NSaved=   5.
 NSaved= 5 IEnMin= 5 EnMin= -76.4310687878995     IErMin= 5 ErrMin= 2.34D-06
 ErrMax= 2.34D-06  0.00D+00 EMaxC= 1.00D-01 BMatC= 7.71D-11 BMatP= 2.73D-09
 IDIUse=1 WtCom= 1.00D+00 WtEn= 0.00D+00
 Coeff-Com:  0.122D-02-0.274D-01-0.287D-01 0.408D-01 0.101D+01
 Coeff:      0.122D-02-0.274D-01-0.287D-01 0.408D-01 0.101D+01
 Gap=     0.441 Goal=   None    Shift=    0.000
 RMSDP=2.86D-07 MaxDP=4.03D-06 DE=-2.90D-09 OVMax= 9.63D-06

 Cycle   6  Pass 1  IDiag  1:
 E= -76.4310687880429     Delta-E=       -0.000000000143 Rises=F Damp=F
 DIIS: error= 2.91D-07 at cycle   6 NSaved=   6.
 NSaved= 6 IEnMin= 6 EnMin= -76.4310687880429     IErMin= 6 ErrMin= 2.91D-07
 ErrMax= 2.91D-07  0.00D+00 EMaxC= 1.00D-01 BMatC= 9.01D-13 BMatP= 7.71D-11
 IDIUse=1 WtCom= 1.00D+00 WtEn= 0.00D+00
 Coeff-Com: -0.522D-05 0.357D-02 0.250D-02-0.180D-01-0.172D+00 0.118D+01
 Coeff:     -0.522D-05 0.357D-02 0.250D-02-0.180D-01-0.172D+00 0.118D+01
 Gap=     0.441 Goal=   None    Shift=    0.000
 RMSDP=3.85D-08 MaxDP=6.26D-07 DE=-1.43D-10 OVMax= 1.62D-06

 Cycle   7  Pass 1  IDiag  1:
 E= -76.4310687880461     Delta-E=       -0.000000000003 Rises=F Damp=F
 DIIS: error= 2.86D-08 at cycle   7 NSaved=   7.
 NSaved= 7 IEnMin= 7 EnMin= -76.4310687880461     IErMin= 7 ErrMin= 2.86D-08
 ErrMax= 2.86D-08  0.00D+00 EMaxC= 1.00D-01 BMatC= 1.52D-14 BMatP= 9.01D-13
 IDIUse=1 WtCom= 1.00D+00 WtEn= 0.00D+00
 Coeff-Com: -0.153D-04-0.112D-03 0.595D-04 0.969D-03 0.129D-01-0.187D+00
 Coeff-Com:  0.117D+01
 Coeff:     -0.153D-04-0.112D-03 0.595D-04 0.969D-03 0.129D-01-0.187D+00
 Coeff:      0.117D+01
 Gap=     0.441 Goal=   None    Shift=    0.000
 RMSDP=3.59D-09 MaxDP=5.29D-08 DE=-3.20D-12 OVMax= 1.50D-07

 SCF Done:  E(RM062X) =  -76.4310687880     A.U. after    7 cycles
            NFock=  7  Conv=0.36D-08     -V/T= 2.0041
 KE= 7.612274943281D+01 PE=-1.991602594158D+02 EE= 3.742031270083D+01
 Leave Link  502 at Fri Aug 27 00:04:35 2021, MaxMem= 17179869184 cpu:        29.5
 (Enter /public3/home/sc51754/softwares/g09e01/l701.exe)
 Compute integral first derivatives.
 ... and contract with generalized density number  0.
 Leave Link  701 at Fri Aug 27 00:04:36 2021, MaxMem= 17179869184 cpu:        50.1
 (Enter /public3/home/sc51754/softwares/g09e01/l702.exe)
 L702 exits ... SP integral derivatives will be done elsewhere.
 Leave Link  702 at Fri Aug 27 00:04:36 2021, MaxMem= 17179869184 cpu:         0.4
 (Enter /public3/home/sc51754/softwares/g09e01/l703.exe)
 Compute integral first derivatives, UseDBF=F ICtDFT=           0.
 Integral derivatives from FoFJK, PRISM(SPDF).
 Calling FoFJK, ICntrl=      2127 FMM=F ISym2X=1 I1Cent= 0 IOpClX= 0 NMat=1 NMatS=1 NMatT=0.
 FoFJK:  IHMeth= 1 ICntrl=    2127 DoSepK=F KAlg= 0 I1Cent=   0 FoldK=F
 IRaf=         0 NMat=   1 IRICut=       1 DoRegI=T DoRafI=F ISym2E= 1.
 FoFCou: FMM=F IPFlag=           0 FMFlag=      100000 FMFlg1=         800
         NFxFlg=           0 DoJE=F BraDBF=F KetDBF=F FulRan=T
         wScrn=  0.000000 ICntrl=    2127 IOpCl=  0 I1Cent=           0 NGrid=           0
         NMat0=    1 NMatS0=      1 NMatT0=    0 NMatD0=    1 NMtDS0=    0 NMtDT0=    0
 Petite list used in FoFCou.
 Leave Link  703 at Fri Aug 27 00:04:37 2021, MaxMem= 17179869184 cpu:        43.6
 (Enter /public3/home/sc51754/softwares/g09e01/l716.exe)
 Dipole        = 3.63169767D-17-2.22044605D-16-7.90710335D-01
 ***** Axes restored to original set *****
 -------------------------------------------------------------------
 Center     Atomic                   Forces (Hartrees/Bohr)
 Number     Number              X              Y              Z
 -------------------------------------------------------------------
      1        8          -0.000131649   -0.000186279    0.000000000
      2        1           0.000171083    0.000018750   -0.000000000
      3        1          -0.000039434    0.000167529   -0.000000000
 -------------------------------------------------------------------
 Cartesian Forces:  Max     0.000186279 RMS     0.000111192
 Leave Link  716 at Fri Aug 27 00:04:37 2021, MaxMem= 17179869184 cpu:         0.3
 (Enter /public3/home/sc51754/softwares/g09e01/l103.exe)

 GradGradGradGradGradGradGradGradGradGradGradGradGradGradGradGradGradGrad
 Berny optimization.
 Using GEDIIS/GDIIS optimizer.
 FormGI is forming the generalized inverse of G from B-inverse, IUseBI=4.
 Internal  Forces:  Max     0.000171655 RMS     0.000140760
 Search for a local minimum.
 Step number   3 out of a maximum of   20
 All quantities printed in internal units (Hartrees-Bohrs-Radians)
 RMS Force = .14076D-03 SwitMx=.10000D-02 MixMth= 2
 Mixed Optimization -- En-DIIS/RFO-DIIS
 Update second derivatives using D2CorX and points    1    2    3
 DE= -7.60D-06 DEPred=-7.02D-06 R= 1.08D+00
 TightC=F SS=  1.41D+00  RLast= 6.48D-03 DXNew= 5.0454D-01 1.9430D-02
 Trust test= 1.08D+00 RLast= 6.48D-03 DXMaxT set to 3.00D-01
 The second derivative matrix:
                          R1        R2        A1
           R1           0.55234
           R2          -0.00239   0.55234
           A1           0.02528   0.02528   0.14940
 ITU=  1  1  0
 Use linear search instead of GDIIS.
     Eigenvalues ---    0.14624   0.55312   0.55473
 RFO step:  Lambda= 0.00000000D+00 EMin= 1.46237584D-01
 Quartic linear search produced a step of  0.09356.
 Iteration  1 RMS(Cart)=  0.00020482 RMS(Int)=  0.00000003
 Iteration  2 RMS(Cart)=  0.00000003 RMS(Int)=  0.00000000
 ITry= 1 IFail=0 DXMaxC= 2.11D-04 DCOld= 1.00D+10 DXMaxT= 3.00D-01 DXLimC= 3.00D+00 Rises=F
 ClnCor:  largest displacement from symmetrization is 1.21D-14 for atom     3.
 Variable       Old X    -DE/DX   Delta X   Delta X   Delta X     New X
                                 (Linear)    (Quad)   (Total)
    R1        1.81023   0.00017   0.00030   0.00003   0.00033   1.81055
    R2        1.81023   0.00017   0.00030   0.00003   0.00033   1.81055
    A1        1.83776  -0.00002  -0.00044   0.00017  -0.00027   1.83750
         Item               Value     Threshold  Converged?
 Maximum Force            0.000172     0.000450     YES
 RMS     Force            0.000141     0.000300     YES
 Maximum Displacement     0.000211     0.001800     YES
 RMS     Displacement     0.000205     0.001200     YES
 Predicted change in Energy=-5.857381D-08
 Optimization completed.
    -- Stationary point found.
                           ----------------------------
                           !   Optimized Parameters   !
                           ! (Angstroms and Degrees)  !
 --------------------------                            --------------------------
 ! Name  Definition              Value          Derivative Info.                !
 --------------------------------------------------------------------------------
 ! R1    R(1,2)                  0.9579         -DE/DX =    0.0002              !
 ! R2    R(1,3)                  0.9579         -DE/DX =    0.0002              !
 ! A1    A(2,1,3)              105.296          -DE/DX =    0.0                 !
 --------------------------------------------------------------------------------
 Lowest energy point so far.  Saving SCF results.
 GradGradGradGradGradGradGradGradGradGradGradGradGradGradGradGradGradGrad

 Largest change from initial coordinates is atom    3       0.031 Angstoms.
 Leave Link  103 at Fri Aug 27 00:04:37 2021, MaxMem= 17179869184 cpu:        14.7
 (Enter /public3/home/sc51754/softwares/g09e01/l202.exe)
                          Input orientation:                          
 ---------------------------------------------------------------------
 Center     Atomic      Atomic             Coordinates (Angstroms)
 Number     Number       Type             X           Y           Z
 ---------------------------------------------------------------------
      1          8           0        0.028855    0.780909    0.000000
      2          1           0        0.986142    0.816045   -0.000000
      3          1           0       -0.257573    1.695016    0.000000
 ---------------------------------------------------------------------
                    Distance matrix (angstroms):
                    1          2          3
     1  O    0.000000
     2  H    0.957932   0.000000
     3  H    0.957932   1.522964   0.000000
 Stoichiometry    H2O
 Framework group  C2V[C2(O),SGV(H2)]
 Deg. of freedom     2
 Full point group                 C2V     NOp   4
 RotChk:  IX=3 Diff= 5.85D-32
 Largest Abelian subgroup         C2V     NOp   4
 Largest concise Abelian subgroup C2      NOp   2
                         Standard orientation:                         
 ---------------------------------------------------------------------
 Center     Atomic      Atomic             Coordinates (Angstroms)
 Number     Number       Type             X           Y           Z
 ---------------------------------------------------------------------
      1          8           0       -0.000000    0.000000    0.116237
      2          1           0        0.000000   -0.761482   -0.464950
      3          1           0        0.000000    0.761482   -0.464950
 ---------------------------------------------------------------------
 Rotational constants (GHZ):    835.8252136    432.3972746    284.9725090
 Leave Link  202 at Fri Aug 27 00:04:37 2021, MaxMem= 17179869184 cpu:         3.3
 (Enter /public3/home/sc51754/softwares/g09e01/l601.exe)
 Copying SCF densities to generalized density rwf, IOpCl= 0 IROHF=0.

 **********************************************************************

            Population analysis using the SCF density.

 **********************************************************************

 Orbital symmetries:
       Occupied  (A1) (A1) (B2) (A1) (B1)
       Virtual   (A1) (B2) (B2) (A1) (A1) (B1) (B2) (A1) (A2) (A1)
                 (B1) (B2) (B2) (A1) (A1) (B2) (B1) (A2) (A1) (A1)
                 (B2) (B1) (A1) (B1) (B2) (A1) (A2) (B2) (B1) (B2)
                 (A1) (A2) (A1) (B2) (B1) (A2) (A1) (B2) (B2) (A1)
                 (B1) (A1) (B1) (B2) (A2) (B1) (A1) (A2) (A1) (A1)
                 (B2) (B2) (A1)
 The electronic state is 1-A1.
 Alpha  occ. eigenvalues --  -19.62386  -1.13545  -0.61084  -0.47322  -0.40099
 Alpha virt. eigenvalues --    0.03967   0.08470   0.32383   0.32700   0.38544
 Alpha virt. eigenvalues --    0.38921   0.49299   0.72265   0.80979   0.84511
 Alpha virt. eigenvalues --    0.91678   1.08396   1.21389   1.26117   1.48856
 Alpha virt. eigenvalues --    1.51606   1.81066   1.87803   1.90947   2.11262
 Alpha virt. eigenvalues --    2.14662   2.34601   2.93734   3.38258   3.41143
 Alpha virt. eigenvalues --    3.52271   3.59112   3.72989   3.81353   3.85833
 Alpha virt. eigenvalues --    3.99961   4.03417   4.26979   4.35083   4.43988
 Alpha virt. eigenvalues --    4.47890   4.62599   4.78385   4.86075   4.86998
 Alpha virt. eigenvalues --    4.95733   5.59511   5.93885   5.96942   6.16017
 Alpha virt. eigenvalues --    6.22443   6.26151   6.29542   6.34369   6.82433
 Alpha virt. eigenvalues --    6.84411   7.38588  14.90860
          Condensed to atoms (all electrons):
               1          2          3
     1  O    7.679463   0.366179   0.366179
     2  H    0.366179   0.453118  -0.025208
     3  H    0.366179  -0.025208   0.453118
 Mulliken charges:
               1
     1  O   -0.411821
     2  H    0.205911
     3  H    0.205911
 Sum of Mulliken charges =   0.00000
 Mulliken charges with hydrogens summed into heavy atoms:
               1
     1  O    0.000000
 Electronic spatial extent (au):  <R**2>=             19.6778
 Charge=              0.0000 electrons
 Dipole moment (field-independent basis, Debye):
    X=              0.0000    Y=              0.0000    Z=             -2.0098  Tot=              2.0098
 Quadrupole moment (field-independent basis, Debye-Ang):
   XX=             -7.6075   YY=             -4.3335   ZZ=             -6.3600
   XY=              0.0000   XZ=             -0.0000   YZ=              0.0000
 Traceless Quadrupole moment (field-independent basis, Debye-Ang):
   XX=             -1.5072   YY=              1.7669   ZZ=             -0.2597
   XY=              0.0000   XZ=             -0.0000   YZ=              0.0000
 Octapole moment (field-independent basis, Debye-Ang**2):
  XXX=             -0.0000  YYY=             -0.0000  ZZZ=             -1.2876  XYY=              0.0000
  XXY=             -0.0000  XXZ=             -0.3400  XZZ=             -0.0000  YZZ=             -0.0000
  YYZ=             -1.3711  XYZ=             -0.0000
 Hexadecapole moment (field-independent basis, Debye-Ang**3):
 XXXX=             -6.7680 YYYY=             -6.1671 ZZZZ=             -7.3263 XXXY=             -0.0000
 XXXZ=              0.0000 YYYX=             -0.0000 YYYZ=              0.0000 ZZZX=              0.0000
 ZZZY=             -0.0000 XXYY=             -2.4748 XXZZ=             -2.4018 YYZZ=             -1.9256
 XXYZ=             -0.0000 YYXZ=             -0.0000 ZZXY=             -0.0000
 N-N= 9.186128494133D+00 E-N=-1.991602596368D+02  KE= 7.612274943281D+01
 Symmetry A1   KE= 6.795558465241D+01
 Symmetry A2   KE=-7.672033636348D-21
 Symmetry B1   KE= 4.508936726275D+00
 Symmetry B2   KE= 3.658228054124D+00
 No NMR shielding tensors so no spin-rotation constants.
 Leave Link  601 at Fri Aug 27 00:04:39 2021, MaxMem= 17179869184 cpu:        73.6
 (Enter /public3/home/sc51754/softwares/g09e01/l9999.exe)
 1\1\GINC-P2607\FOpt\RM062X\Gen\H2O1\SC51754\27-Aug-2021\0\\#p opt freq
  M062X/gen\\H2O_M062X_PC2_OPT_FREQ\\0,1\O,0.0288549618,0.7809086851,0.
 \H,0.9861420444,0.8160446625,0.\H,-0.2575733883,1.6950158428,0.\\Versi
 on=EM64L-G09RevE.01\State=1-A1\HF=-76.4310688\RMSD=3.593e-09\RMSF=1.11
 2e-04\Dipole=0.4563547,0.6457269,0.\Quadrupole=0.811744,0.3088073,-1.1
 205513,-0.7101246,0.,0.\PG=C02V [C2(O1),SGV(H2)]\\@


 TO DRY ONE'S EYES AND LAUGH AT A FALL
 AND BAFFLED, GET UP AND BEGIN AGAIN.
           R. BROWNING
 Leave Link 9999 at Fri Aug 27 00:04:39 2021, MaxMem= 17179869184 cpu:         1.9
 Job cpu time:       0 days  0 hours 17 minutes 56.6 seconds.
 File lengths (MBytes):  RWF=      5 Int=      0 D2E=      0 Chk=      1 Scr=      1
 Normal termination of Gaussian 09 at Fri Aug 27 00:04:39 2021.
 (Enter /public3/home/sc51754/softwares/g09e01/l1.exe)
 Link1:  Proceeding to internal job step number  2.
 ------------------------------------------------------------------
 #P Geom=AllCheck Guess=TCheck SCRF=Check GenChk RM062X/ChkBas Freq
 ------------------------------------------------------------------
 1/10=4,29=7,30=1,38=1,40=1/1,3;
 2/12=2,40=1/2;
 3/5=7,6=2,11=2,14=-4,16=1,25=1,30=1,67=1,70=2,71=2,74=-55,82=7,116=1,140=1/1,2,3;
 4/5=101/1;
 5/5=2,38=6,98=1/2;
 8/6=4,10=90,11=11/1;
 11/6=1,8=1,9=11,15=111,16=1/1,2,10;
 10/6=1/2;
 6/7=2,8=2,9=2,10=2,18=1,28=1/1;
 7/8=1,10=1,25=1/1,2,3,16;
 1/10=4,30=1/3;
 99//99;
 Leave Link    1 at Fri Aug 27 00:04:39 2021, MaxMem= 17179869184 cpu:         0.9
 (Enter /public3/home/sc51754/softwares/g09e01/l101.exe)
 Structure from the checkpoint file:  "H2O_M062X_PC2_OPT_FREQ.chk"
 ----------------------
 H2O_M062X_PC2_OPT_FREQ
 ----------------------
 Charge =  0 Multiplicity = 1
 Redundant internal coordinates found in file.
 O,0,0.0288549618,0.7809086851,0.
 H,0,0.9861420444,0.8160446625,0.
 H,0,-0.2575733883,1.6950158428,0.
 Recover connectivity data from disk.
 NAtoms=      3 NQM=        3 NQMF=       0 NMMI=      0 NMMIF=      0
                NMic=       0 NMicF=      0.
                    Isotopes and Nuclear Properties:
 (Nuclear quadrupole moments (NQMom) in fm**2, nuclear magnetic moments (NMagM)
  in nuclear magnetons)

  Atom         1           2           3
 IAtWgt=          16           1           1
 AtmWgt=  15.9949146   1.0078250   1.0078250
 NucSpn=           0           1           1
 AtZEff=  -5.6000000  -1.0000000  -1.0000000
 NQMom=    0.0000000   0.0000000   0.0000000
 NMagM=    0.0000000   2.7928460   2.7928460
 AtZNuc=   8.0000000   1.0000000   1.0000000
 Leave Link  101 at Fri Aug 27 00:04:39 2021, MaxMem= 17179869184 cpu:         5.8
 (Enter /public3/home/sc51754/softwares/g09e01/l103.exe)

 GradGradGradGradGradGradGradGradGradGradGradGradGradGradGradGradGradGrad
 Berny optimization.
 Initialization pass.
                           ----------------------------
                           !    Initial Parameters    !
                           ! (Angstroms and Degrees)  !
 --------------------------                            --------------------------
 ! Name  Definition              Value          Derivative Info.                !
 --------------------------------------------------------------------------------
 ! R1    R(1,2)                  0.9579         calculate D2E/DX2 analytically  !
 ! R2    R(1,3)                  0.9579         calculate D2E/DX2 analytically  !
 ! A1    A(2,1,3)              105.296          calculate D2E/DX2 analytically  !
 --------------------------------------------------------------------------------
 Trust Radius=3.00D-01 FncErr=1.00D-07 GrdErr=1.00D-07
 Number of steps in this run=      2 maximum allowed number of steps=      2.
 GradGradGradGradGradGradGradGradGradGradGradGradGradGradGradGradGradGrad

 Leave Link  103 at Fri Aug 27 00:04:39 2021, MaxMem= 17179869184 cpu:         0.1
 (Enter /public3/home/sc51754/softwares/g09e01/l202.exe)
                          Input orientation:                          
 ---------------------------------------------------------------------
 Center     Atomic      Atomic             Coordinates (Angstroms)
 Number     Number       Type             X           Y           Z
 ---------------------------------------------------------------------
      1          8           0        0.028855    0.780909    0.000000
      2          1           0        0.986142    0.816045   -0.000000
      3          1           0       -0.257573    1.695016    0.000000
[...]
      4 vectors produced by pass  6 Test12= 2.94D-15 1.11D-08 XBig12= 2.10D-12 7.38D-07.
      2 vectors produced by pass  7 Test12= 2.94D-15 1.11D-08 XBig12= 4.54D-15 2.01D-08.
 InvSVY:  IOpt=1 It=  1 EMax= 2.22D-16
 Solved reduced A of dimension    60 with     9 vectors.
 FullF1:  Do perturbations    1 to     9.
 Isotropic polarizability for W=    0.000000        7.30 Bohr**3.
 End of Minotr F.D. properties file   721 does not exist.
 End of Minotr F.D. properties file   722 does not exist.
 End of Minotr F.D. properties file   788 does not exist.
 Leave Link 1002 at Fri Aug 27 00:04:46 2021, MaxMem= 17179869184 cpu:        70.5
 (Enter /public3/home/sc51754/softwares/g09e01/l601.exe)
 Copying SCF densities to generalized density rwf, IOpCl= 0 IROHF=0.

 **********************************************************************

            Population analysis using the SCF density.

 **********************************************************************

 Orbital symmetries:
       Occupied  (A1) (A1) (B2) (A1) (B1)
       Virtual   (A1) (B2) (B2) (A1) (A1) (B1) (B2) (A1) (A2) (A1)
                 (B1) (B2) (B2) (A1) (A1) (B2) (B1) (A2) (A1) (A1)
                 (B2) (B1) (A1) (B1) (B2) (A1) (A2) (B2) (B1) (B2)
                 (A1) (A2) (A1) (B2) (B1) (A2) (A1) (B2) (B2) (A1)
                 (B1) (A1) (B1) (B2) (A2) (B1) (A1) (A2) (A1) (A1)
                 (B2) (B2) (A1)
 The electronic state is 1-A1.
 Alpha  occ. eigenvalues --  -19.62386  -1.13545  -0.61084  -0.47322  -0.40099
 Alpha virt. eigenvalues --    0.03967   0.08470   0.32383   0.32700   0.38544
 Alpha virt. eigenvalues --    0.38921   0.49299   0.72265   0.80979   0.84511
 Alpha virt. eigenvalues --    0.91678   1.08396   1.21389   1.26117   1.48856
 Alpha virt. eigenvalues --    1.51606   1.81066   1.87803   1.90947   2.11262
 Alpha virt. eigenvalues --    2.14662   2.34601   2.93734   3.38258   3.41143
 Alpha virt. eigenvalues --    3.52271   3.59112   3.72989   3.81353   3.85833
 Alpha virt. eigenvalues --    3.99961   4.03417   4.26979   4.35083   4.43988
 Alpha virt. eigenvalues --    4.47890   4.62599   4.78385   4.86075   4.86998
 Alpha virt. eigenvalues --    4.95733   5.59511   5.93885   5.96942   6.16017
 Alpha virt. eigenvalues --    6.22443   6.26151   6.29542   6.34369   6.82433
 Alpha virt. eigenvalues --    6.84411   7.38588  14.90860
          Condensed to atoms (all electrons):
               1          2          3
     1  O    7.679463   0.366179   0.366179
     2  H    0.366179   0.453118  -0.025208
     3  H    0.366179  -0.025208   0.453118
 Mulliken charges:
               1
     1  O   -0.411821
     2  H    0.205911
     3  H    0.205911
 Sum of Mulliken charges =   0.00000
 Mulliken charges with hydrogens summed into heavy atoms:
               1
     1  O    0.000000
 APT charges:
               1
     1  O   -0.554686
     2  H    0.277343
     3  H    0.277343
 Sum of APT charges =  -0.00000
 APT charges with hydrogens summed into heavy atoms:
               1
     1  O   -0.000000
 Electronic spatial extent (au):  <R**2>=             19.6778
 Charge=              0.0000 electrons
 Dipole moment (field-independent basis, Debye):
    X=              0.0000    Y=             -0.0000    Z=             -2.0098  Tot=              2.0098
 Quadrupole moment (field-independent basis, Debye-Ang):
   XX=             -7.6075   YY=             -4.3335   ZZ=             -6.3600
   XY=              0.0000   XZ=             -0.0000   YZ=              0.0000
 Traceless Quadrupole moment (field-independent basis, Debye-Ang):
   XX=             -1.5072   YY=              1.7669   ZZ=             -0.2597
   XY=              0.0000   XZ=             -0.0000   YZ=              0.0000
 Octapole moment (field-independent basis, Debye-Ang**2):
  XXX=             -0.0000  YYY=             -0.0000  ZZZ=             -1.2876  XYY=              0.0000
  XXY=              0.0000  XXZ=             -0.3400  XZZ=             -0.0000  YZZ=             -0.0000
  YYZ=             -1.3711  XYZ=             -0.0000
 Hexadecapole moment (field-independent basis, Debye-Ang**3):
 XXXX=             -6.7680 YYYY=             -6.1671 ZZZZ=             -7.3263 XXXY=             -0.0000
 XXXZ=              0.0000 YYYX=             -0.0000 YYYZ=              0.0000 ZZZX=              0.0000
 ZZZY=             -0.0000 XXYY=             -2.4748 XXZZ=             -2.4018 YYZZ=             -1.9256
 XXYZ=             -0.0000 YYXZ=             -0.0000 ZZXY=             -0.0000
 N-N= 9.186128494133D+00 E-N=-1.991602594947D+02  KE= 7.612274935866D+01
 Symmetry A1   KE= 6.795558457532D+01
 Symmetry A2   KE=-1.920109356009D-20
 Symmetry B1   KE= 4.508936719608D+00
 Symmetry B2   KE= 3.658228063732D+00
  Exact polarizability:   6.197  -0.000   8.429  -0.000   0.000   7.274
 Approx polarizability:   5.800   0.000   8.972  -0.000   0.000   7.536
 No NMR shielding tensors so no spin-rotation constants.
 Leave Link  601 at Fri Aug 27 00:04:47 2021, MaxMem= 17179869184 cpu:        59.7
 (Enter /public3/home/sc51754/softwares/g09e01/l701.exe)
 Compute integral second derivatives.
 ... and contract with generalized density number  0.
 Leave Link  701 at Fri Aug 27 00:04:49 2021, MaxMem= 17179869184 cpu:        58.1
 (Enter /public3/home/sc51754/softwares/g09e01/l702.exe)
 L702 exits ... SP integral derivatives will be done elsewhere.
 Leave Link  702 at Fri Aug 27 00:04:49 2021, MaxMem= 17179869184 cpu:         0.3
 (Enter /public3/home/sc51754/softwares/g09e01/l703.exe)
 Compute integral second derivatives, UseDBF=F ICtDFT=           0.
 Integral derivatives from FoFJK, PRISM(SPDF).
 Calling FoFJK, ICntrl=    100127 FMM=F ISym2X=1 I1Cent= 0 IOpClX= 0 NMat=1 NMatS=1 NMatT=0.
 FoFJK:  IHMeth= 1 ICntrl=  100127 DoSepK=F KAlg= 0 I1Cent=   0 FoldK=F
 IRaf=         0 NMat=   1 IRICut=       1 DoRegI=T DoRafI=F ISym2E= 1.
 FoFCou: FMM=F IPFlag=           0 FMFlag=      100000 FMFlg1=         800
         NFxFlg=           0 DoJE=F BraDBF=F KetDBF=F FulRan=T
         wScrn=  0.000000 ICntrl=  100127 IOpCl=  0 I1Cent=           0 NGrid=           0
         NMat0=    1 NMatS0=      1 NMatT0=    0 NMatD0=    1 NMtDS0=    0 NMtDT0=    0
 Petite list used in FoFCou.
 Leave Link  703 at Fri Aug 27 00:04:50 2021, MaxMem= 17179869184 cpu:        70.4
 (Enter /public3/home/sc51754/softwares/g09e01/l716.exe)
 Dipole        = 3.63169761D-17-9.94952005D-16-7.90710339D-01
 Polarizability= 6.19677093D+00-1.20839467D-10 8.42936035D+00
                -1.31001047D-09 4.59171146D-09 7.27388117D+00
 Full mass-weighted force constant matrix:
 Low frequencies --- -166.6368 -156.1368 -100.7652   -0.0019    0.0005    0.0019
 Low frequencies --- 1613.4512 3883.4114 3988.3239
 Diagonal vibrational polarizability:
        0.0000000       0.1282299       0.8205720
 Harmonic frequencies (cm**-1), IR intensities (KM/Mole), Raman scattering
 activities (A**4/AMU), depolarization ratios for plane and unpolarized
 incident light, reduced masses (AMU), force constants (mDyne/A),
 and normal coordinates:
                      1                      2                      3
                     A1                     A1                     B2
 Frequencies --   1613.4512              3883.4114              3988.3111
 Red. masses --      1.0826                 1.0452                 1.0826
 Frc consts  --      1.6605                 9.2870                10.1465
 IR Inten    --     77.2320                12.4270                75.7939
  Atom  AN      X      Y      Z        X      Y      Z        X      Y      Z
     1   8     0.00   0.00  -0.07     0.00   0.00  -0.05    -0.00  -0.07  -0.00
     2   1    -0.00  -0.43   0.56     0.00   0.58   0.40     0.00   0.56   0.43
     3   1    -0.00   0.43   0.56    -0.00  -0.58   0.40     0.00   0.56  -0.43

 -------------------
 - Thermochemistry -
 -------------------
 Temperature   298.150 Kelvin.  Pressure   1.00000 Atm.
 Atom     1 has atomic number  8 and mass  15.99491
 Atom     2 has atomic number  1 and mass   1.00783
 Atom     3 has atomic number  1 and mass   1.00783
 Molecular mass:    18.01056 amu.
 Principal axes and moments of inertia in atomic units:
                           1         2         3
     Eigenvalues --     2.15923   4.17380   6.33304
           X            0.00000  -0.00000   1.00000
           Y            1.00000  -0.00000  -0.00000
           Z            0.00000   1.00000   0.00000
 This molecule is an asymmetric top.
 Rotational symmetry number  2.
 Rotational temperatures (Kelvin)     40.11324    20.75177    13.67651
 Rotational constants (GHZ):         835.82521   432.39727   284.97251
 Zero-point vibrational energy      56733.9 (Joules/Mol)
                                   13.55974 (Kcal/Mol)
 Vibrational temperatures:   2321.39  5587.36  5738.28
          (Kelvin)
 
 Zero-point correction=                           0.021609 (Hartree/Particle)
 Thermal correction to Energy=                    0.024444
 Thermal correction to Enthalpy=                  0.025389
 Thermal correction to Gibbs Free Energy=         0.003979
 Sum of electronic and zero-point Energies=            -76.409460
 Sum of electronic and thermal Energies=               -76.406624
 Sum of electronic and thermal Enthalpies=             -76.405680
 Sum of electronic and thermal Free Energies=          -76.427089
 
                     E (Thermal)             CV                S
                      KCal/Mol        Cal/Mol-Kelvin    Cal/Mol-Kelvin
 Total                   15.339              6.012             45.060
 Electronic               0.000              0.000              0.000
 Translational            0.889              2.981             34.608
 Rotational               0.889              2.981             10.444
 Vibrational             13.562              0.050              0.007
                       Q            Log10(Q)             Ln(Q)
 Total Bot       0.147782D-01         -1.830379         -4.214604
 Total V=0       0.128518D+09          8.108965         18.671582
 Vib (Bot)       0.115037D-09         -9.939164        -22.885770
 Vib (V=0)       0.100042D+01          0.000180          0.000416
 Electronic      0.100000D+01          0.000000          0.000000
 Translational   0.300432D+07          6.477746         14.915562
 Rotational      0.427600D+02          1.631038          3.755604
 
                                                        H2O_M062X_PC2_OPT_FREQ
                                                             IR Spectrum
 
     3   3                                                                       1                                                   
     9   8                                                                       6                                                   
     8   8                                                                       1                                                   
     8   3                                                                       3                                                   
 
     X   X                                                                       X                                                   
     X   X                                                                       X                                                   
     X   X                                                                       X                                                   
     X                                                                           X                                                   
     X                                                                           X                                                   
     X                                                                           X                                                   
     X                                                                           X                                                   
     X                                                                           X                                                   
     X                                                                           X                                                   
     X                                                                           X                                                   
     X                                                                           X                                                   
     X                                                                           X                                                   
     X                                                                           X                                                   
     X                                                                           X                                                   
     X                                                                           X                                                   
     X                                                                           X                                                   
     X                                                                           X                                                   
     X                                                                           X                                                   
     X                                                                           X                                                   
     X                                                                           X                                                   
 
 ***** Axes restored to original set *****
 -------------------------------------------------------------------
 Center     Atomic                   Forces (Hartrees/Bohr)
 Number     Number              X              Y              Z
 -------------------------------------------------------------------
      1        8          -0.000131647   -0.000186277    0.000000000
      2        1           0.000171081    0.000018750    0.000000000
      3        1          -0.000039433    0.000167527   -0.000000000
 -------------------------------------------------------------------
 Cartesian Forces:  Max     0.000186277 RMS     0.000111191
 Force constants in Cartesian coordinates: 
                1             2             3             4             5 
      1  0.626488D+00
      2 -0.114408D+00  0.545461D+00
      3  0.000000D+00  0.000000D+00 -0.188106D-02
      4 -0.541478D+00  0.590295D-02  0.000000D+00  0.557184D+00
      5 -0.531390D-01 -0.444967D-01  0.000000D+00  0.394728D-02  0.462715D-01
      6  0.000000D+00  0.000000D+00  0.940531D-03  0.000000D+00  0.000000D+00
      7 -0.850105D-01  0.108505D+00  0.000000D+00 -0.157064D-01  0.491917D-01
      8  0.167547D+00 -0.500964D+00  0.000000D+00 -0.985022D-02 -0.177483D-02
      9  0.000000D+00  0.000000D+00  0.940531D-03  0.000000D+00  0.000000D+00
                6             7             8             9 
      6 -0.935163D-03
      7  0.000000D+00  0.100717D+00
      8  0.000000D+00 -0.157696D+00  0.502739D+00
      9 -0.536769D-05  0.000000D+00  0.000000D+00 -0.935163D-03
 FormGI is forming the generalized inverse of G from B-inverse, IUseBI=4.
 Force constants in internal coordinates: 
                1             2             3 
      1  0.556156D+00
      2 -0.467134D-02  0.556156D+00
      3  0.280732D-01  0.280732D-01  0.153690D+00
 Leave Link  716 at Fri Aug 27 00:04:51 2021, MaxMem= 17179869184 cpu:        20.4
 (Enter /public3/home/sc51754/softwares/g09e01/l103.exe)

 GradGradGradGradGradGradGradGradGradGradGradGradGradGradGradGradGradGrad
 Berny optimization.
 Red2BG is reusing G-inverse.
 Internal  Forces:  Max     0.000171653 RMS     0.000140758
 Search for a local minimum.
 Step number   1 out of a maximum of    2
 All quantities printed in internal units (Hartrees-Bohrs-Radians)
 Second derivative matrix not updated -- analytic derivatives used.
 The second derivative matrix:
                          R1        R2        A1
           R1           0.55616
           R2          -0.00467   0.55616
           A1           0.02807   0.02807   0.15369
 ITU=  0
     Eigenvalues ---    0.14977   0.55541   0.56083
 Angle between quadratic step and forces=  24.71 degrees.
 Linear search not attempted -- first point.
 Iteration  1 RMS(Cart)=  0.00020465 RMS(Int)=  0.00000003
 Iteration  2 RMS(Cart)=  0.00000003 RMS(Int)=  0.00000000
 ITry= 1 IFail=0 DXMaxC= 2.11D-04 DCOld= 1.00D+10 DXMaxT= 3.00D-01 DXLimC= 3.00D+00 Rises=F
 ClnCor:  largest displacement from symmetrization is 2.51D-14 for atom     3.
 Variable       Old X    -DE/DX   Delta X   Delta X   Delta X     New X
                                 (Linear)    (Quad)   (Total)
    R1        1.81023   0.00017   0.00000   0.00032   0.00032   1.81055
    R2        1.81023   0.00017   0.00000   0.00032   0.00032   1.81055
    A1        1.83776  -0.00002   0.00000  -0.00027  -0.00027   1.83750
         Item               Value     Threshold  Converged?
 Maximum Force            0.000172     0.000450     YES
 RMS     Force            0.000141     0.000300     YES
 Maximum Displacement     0.000211     0.001800     YES
 RMS     Displacement     0.000205     0.001200     YES
 Predicted change in Energy=-5.874168D-08
 Optimization completed.
    -- Stationary point found.
                           ----------------------------
                           !   Optimized Parameters   !
                           ! (Angstroms and Degrees)  !
 --------------------------                            --------------------------
 ! Name  Definition              Value          Derivative Info.                !
 --------------------------------------------------------------------------------
 ! R1    R(1,2)                  0.9579         -DE/DX =    0.0002              !
 ! R2    R(1,3)                  0.9579         -DE/DX =    0.0002              !
 ! A1    A(2,1,3)              105.296          -DE/DX =    0.0                 !
 --------------------------------------------------------------------------------
 GradGradGradGradGradGradGradGradGradGradGradGradGradGradGradGradGradGrad

 Leave Link  103 at Fri Aug 27 00:04:51 2021, MaxMem= 17179869184 cpu:        18.8
 (Enter /public3/home/sc51754/softwares/g09e01/l9999.exe)
 1\1\GINC-P2607\Freq\RM062X\Gen\H2O1\SC51754\27-Aug-2021\0\\#P Geom=All
 Check Guess=TCheck SCRF=Check GenChk RM062X/ChkBas Freq\\H2O_M062X_PC2
 _OPT_FREQ\\0,1\O,0.0288549618,0.7809086851,0.\H,0.9861420444,0.8160446
 625,0.\H,-0.2575733883,1.6950158428,0.\\Version=EM64L-G09RevE.01\State
 =1-A1\HF=-76.4310688\RMSD=4.484e-10\RMSF=1.112e-04\ZeroPoint=0.0216088
 \Thermal=0.0244444\Dipole=0.4563547,0.6457269,0.\DipoleDeriv=-0.496668
 6,0.0726215,0.,0.0726215,-0.4452353,0.,0.,0.,-0.7221535,0.1932502,-0.0
 489993,0.,-0.0626348,0.2777018,0.,0.,0.,0.3610767,0.3034184,-0.0236222
 ,0.,-0.0099867,0.1675335,0.,0.,0.,0.3610767\Polar=8.0444742,-0.5446013
 ,7.6587673,0.,0.,6.1967709\PG=C02V [C2(O1),SGV(H2)]\NImag=0\\0.6264884
 9,-0.11440758,0.54546079,0.,0.,-0.00188106,-0.54147797,0.00590295,0.,0
 .55718434,-0.05313896,-0.04449667,0.,0.00394728,0.04627151,0.,0.,0.000
 94053,0.,0.,-0.00093516,-0.08501052,0.10850463,0.,-0.01570638,0.049191
 69,0.,0.10071689,0.16754654,-0.50096412,0.,-0.00985022,-0.00177483,0.,
 -0.15769632,0.50273896,0.,0.,0.00094053,0.,0.,-0.00000537,0.,0.,-0.000
 93516\\0.00013165,0.00018628,0.,-0.00017108,-0.00001875,0.,0.00003943,
 -0.00016753,0.\\\@


 GETTING A SIMPLE ANSWER FROM A PROFESSOR IS LIKE
 GETTING A THIMBLE OF WATER FROM A FIRE HYDRANT.
     -- PROF. LEN SHAPIRO, NDSU
 Job cpu time:       0 days  0 hours 10 minutes 33.5 seconds.
 File lengths (MBytes):  RWF=      5 Int=      0 D2E=      0 Chk=      1 Scr=      1
 Normal termination of Gaussian 09 at Fri Aug 27 00:04:51 2021.
