 Entering Gaussian System, Link 0=g09
 AtFile(1): pc-2.gbs
            -H     0
            S    4   1.00
                  0.754230D+02           0.240650D-02
                  0.113500D+02           0.184870D-01
                  0.259930D+01           0.897420D-01
                  0.735130D+00           0.281110D+00
            S    1   1.00
                  0.231670D+00           0.100000D+01
            S    1   1.00
                  0.741470D-01           0.100000D+01
            P    1   1.00
                  0.160000D+01           0.100000D+01
            P    1   1.00
                  0.450000D+00           0.100000D+01
            D    1   1.00
                  0.125000D+01           0.100000D+01
            ****
            -C     0
            S    7   1.00
                  0.785710D+04           0.568250D-03
                  0.117870D+04           0.439150D-02
                  0.268320D+03           0.225040D-01
                  0.759480D+02           0.866530D-01
                  0.245590D+02           0.244050D+00
                  0.862120D+01           0.441480D+00
                  0.312780D+01           0.353320D+00
            S    7   1.00
                  0.117870D+04          -0.594920D-06
                  0.268320D+03          -0.627480D-04
                  0.759480D+02          -0.757730D-03
                  0.245590D+02          -0.733080D-02
                  0.862120D+01          -0.389320D-01
                  0.312780D+01          -0.889080D-01
                  0.822020D+00           0.216890D+00
            S    1   1.00
                  0.330170D+00           0.100000D+01
            S    1   1.00
                  0.114630D+00           0.100000D+01
            P    4   1.00
                  0.337750D+02           0.602940D-02
                  0.767660D+01           0.432280D-01
                  0.223570D+01           0.163010D+00
                  0.764470D+00           0.365040D+00
            P    1   1.00
                  0.262320D+00           0.100000D+01
            P    1   1.00
                  0.846380D-01           0.100000D+01
            D    1   1.00
                  0.140000D+01           0.100000D+01
            D    1   1.00
                  0.450000D+00           0.100000D+01
            F    1   1.00
                  0.950000D+00           0.100000D+01
            ****
            -N     0
            S    7   1.00
                  0.111010D+05           0.545700D-03
                  0.166530D+04           0.421810D-02
                  0.379080D+03           0.216450D-01
                  0.107300D+03           0.837760D-01
                  0.347470D+02           0.238810D+00
                  0.122490D+02           0.439940D+00
                  0.447430D+01           0.363640D+00
            S    7   1.00
                  0.166530D+04          -0.150060D-05
                  0.379080D+03          -0.587530D-04
                  0.107300D+03          -0.774530D-03
                  0.347470D+02          -0.721610D-02
                  0.122490D+02          -0.393380D-01
                  0.447430D+01          -0.906110D-01
                  0.124040D+01           0.198820D+00
            S    1   1.00
                  0.487430D+00           0.100000D+01
            S    1   1.00
                  0.164840D+00           0.100000D+01
            P    4   1.00
                  0.479340D+02           0.617060D-02
                  0.109990D+02           0.442600D-01
                  0.324720D+01           0.168250D+00
                  0.111140D+01           0.368480D+00
            P    1   1.00
                  0.379880D+00           0.100000D+01
            P    1   1.00
                  0.120680D+00           0.100000D+01
            D    1   1.00
                  0.180000D+01           0.100000D+01
            D    1   1.00
                  0.550000D+00           0.100000D+01
            F    1   1.00
                  0.102000D+01           0.100000D+01
            ****
            -O     0
            S    7   1.00
                  0.147820D+05           0.535190D-03
                  0.221730D+04           0.413750D-02
                  0.504740D+03           0.212450D-01
                  0.142870D+03           0.824530D-01
                  0.463000D+02           0.236710D+00
                  0.163370D+02           0.440390D+00
                  0.598280D+01           0.364650D+00
            S    7   1.00
                  0.221730D+04          -0.192750D-05
                  0.504740D+03          -0.579640D-04
                  0.142870D+03          -0.794940D-03
                  0.463000D+02          -0.731250D-02
                  0.163370D+02          -0.405740D-01
                  0.598280D+01          -0.915940D-01
                  0.167180D+01           0.209400D+00
            S    1   1.00
                  0.646620D+00           0.100000D+01
            S    1   1.00
                  0.216690D+00           0.100000D+01
            P    4   1.00
                  0.604240D+02           0.689490D-02
                  0.139350D+02           0.490050D-01
                  0.415310D+01           0.182550D+00
                  0.141580D+01           0.376330D+00
            P    1   1.00
                  0.475490D+00           0.100000D+01
            P    1   1.00
                  0.145290D+00           0.100000D+01
            D    1   1.00
                  0.220000D+01           0.100000D+01
            D    1   1.00
                  0.650000D+00           0.100000D+01
            F    1   1.00
                  0.110000D+01           0.100000D+01
            ****
 Initial command:
 /public3/home/sc51754/softwares/g09e01/l1.exe "./Gau-15099.inp" -scrdir="./"
 Entering Link 1 = /public3/home/sc51754/softwares/g09e01/l1.exe PID=     15100.
  
 Copyright (c) 1988,1990,1992,1993,1995,1998,2003,2009,2015,
            Gaussian, Inc.  All Rights Reserved.
  
 This is part of the Gaussian(R) 09 program.  It is based on
 the Gaussian(R) 03 system (copyright 2003, Gaussian, Inc.),
 the Gaussian(R) 98 system (copyright 1998, Gaussian, Inc.),
 the Gaussian(R) 94 system (copyright 1995, Gaussian, Inc.),
 the Gaussian 92(TM) system (copyright 1992, Gaussian, Inc.),
 the Gaussian 90(TM) system (copyright 1990, Gaussian, Inc.),
 the Gaussian 88(TM) system (copyright 1988, Gaussian, Inc.),
 the Gaussian 86(TM) system (copyright 1986, Carnegie Mellon
 University), and the Gaussian 82(TM) system (copyright 1983,
 Carnegie Mellon University). Gaussian is a federally registered
 trademark of Gaussian, Inc.
  
 This software contains proprietary and confidential information,
 including trade secrets, belonging to Gaussian, Inc.
  
 This software is provided under written license and may be
 used, copied, transmitted, or stored only in accord with that
 written license.
  
 The following legend is applicable only to US Government
 contracts under FAR:
  
                    RESTRICTED RIGHTS LEGEND
  
 Use, reproduction and disclosure by the US Government is
 subject to restrictions as set forth in subparagraphs (a)
 and (c) of the Commercial Computer Software - Restricted
 Rights clause in FAR 52.227-19.
  
 Gaussian, Inc.
 340 Quinnipiac St., Bldg. 40, Wallingford CT 06492
  
  
 ---------------------------------------------------------------
 Warning -- This program may not be used in any manner that
 competes with the business of Gaussian, Inc. or will provide
 assistance to any competitor of Gaussian, Inc.  The licensee
 of this program is prohibited from giving any competitor of
 Gaussian, Inc. access to this program.  By using this program,
 the user acknowledges that Gaussian, Inc. is engaged in the
 business of creating and licensing software in the field of
 computational chemistry and represents and warrants to the
 licensee that it is not a competitor of Gaussian, Inc. and that
 it will not use this program in any manner prohibited above.
 ---------------------------------------------------------------
  

 Cite this work as:
 Gaussian 09, Revision E.01,
 M. J. Frisch, G. W. Trucks, H. B. Schlegel, G. E. Scuseria, 
 M. A. Robb, J. R. Cheeseman, G. Scalmani, V. Barone, B. Mennucci, 
 G. A. Petersson, H. Nakatsuji, M. Caricato, X. Li, H. P. Hratchian, 
 A. F. Izmaylov, J. Bloino, G. Zheng, J. L. Sonnenberg, M. Hada, 
 M. Ehara, K. Toyota, R. Fukuda, J. Hasegawa, M. Ishida, T. Nakajima, 
 Y. Honda, O. Kitao, H. Nakai, T. Vreven, J. A. Montgomery, Jr., 
 J. E. Peralta, F. Ogliaro, M. Bearpark, J. J. Heyd, E. Brothers, 
 K. N. Kudin, V. N. Staroverov, T. Keith, R. Kobayashi, J. Normand, 
 K. Raghavachari, A. Rendell, J. C. Burant, S. S. Iyengar, J. Tomasi, 
 M. Cossi, N. Rega, J. M. Millam, M. Klene, J. E. Knox, J. B. Cross, 
 V. Bakken, C. Adamo, J. Jaramillo, R. Gomperts, R. E. Stratmann, 
 O. Yazyev, A. J. Austin, R. Cammi, C. Pomelli, J. W. Ochterski, 
 R. L. Martin, K. Morokuma, V. G. Zakrzewski, G. A. Voth, 
 P. Salvador, J. J. Dannenberg, S. Dapprich, A. D. Daniels, 
 O. Farkas, J. B. Foresman, J. V. Ortiz, J. Cioslowski, 
 and D. J. Fox, Gaussian, Inc., Wallingford CT, 2013.
 
 ******************************************
 Gaussian 09:  EM64L-G09RevE.01 30-Nov-2015
                27-Aug-2021 
 ******************************************
 %nprocshared=64
 Will use up to   64 processors via shared memory.
 %mem=128GB
 %chk=H2O_BHandHLYP_PC2_OPT_FREQ.chk
 -------------------------
 #p opt freq BHandHLYP/gen
 -------------------------
 1/14=-1,18=20,19=15,26=3,38=1/1,3;
 2/9=110,12=2,17=6,18=5,40=1/2;
 3/5=7,11=2,16=1,25=1,30=1,71=1,74=-3/1,2,3;
 4//1;
 5/5=2,38=5/2;
 6/7=2,8=2,9=2,10=2,28=1/1;
 7//1,2,3,16;
 1/14=-1,18=20,19=15,26=3/3(2);
 2/9=110/2;
 99//99;
 2/9=110/2;
 3/5=7,6=1,11=2,16=1,25=1,30=1,71=1,74=-3,82=7/1,2,3;
 4/5=5,16=3,69=1/1;
 5/5=2,38=5/2;
 7//1,2,3,16;
 1/14=-1,18=20,19=15,26=3/3(-5);
 2/9=110/2;
 6/7=2,8=2,9=2,10=2,19=2,28=1/1;
 99/9=1/99;
 Leave Link    1 at Fri Aug 27 00:01:23 2021, MaxMem= 17179869184 cpu:         2.8
 (Enter /public3/home/sc51754/softwares/g09e01/l101.exe)
 --------------------------
 H2O_BHandHLYP_PC2_OPT_FREQ
 --------------------------
 Symbolic Z-matrix:
 Charge =  0 Multiplicity = 1
 O                     0.03922   0.79557   0. 
 H                     0.99922   0.79581   0. 
 H                    -0.28101   1.70059   0. 
 
 NAtoms=      3 NQM=        3 NQMF=       0 NMMI=      0 NMMIF=      0
                NMic=       0 NMicF=      0.
                    Isotopes and Nuclear Properties:
 (Nuclear quadrupole moments (NQMom) in fm**2, nuclear magnetic moments (NMagM)
  in nuclear magnetons)

  Atom         1           2           3
 IAtWgt=          16           1           1
 AtmWgt=  15.9949146   1.0078250   1.0078250
 NucSpn=           0           1           1
 AtZEff=   0.0000000   0.0000000   0.0000000
 NQMom=    0.0000000   0.0000000   0.0000000
 NMagM=    0.0000000   2.7928460   2.7928460
 AtZNuc=   8.0000000   1.0000000   1.0000000
 Leave Link  101 at Fri Aug 27 00:01:23 2021, MaxMem= 17179869184 cpu:         5.9
 (Enter /public3/home/sc51754/softwares/g09e01/l103.exe)

 GradGradGradGradGradGradGradGradGradGradGradGradGradGradGradGradGradGrad
 Berny optimization.
 Initialization pass.
                           ----------------------------
                           !    Initial Parameters    !
                           ! (Angstroms and Degrees)  !
 --------------------------                            --------------------------
 ! Name  Definition              Value          Derivative Info.                !
 --------------------------------------------------------------------------------
 ! R1    R(1,2)                  0.96           estimate D2E/DX2                !
 ! R2    R(1,3)                  0.96           estimate D2E/DX2                !
 ! A1    A(2,1,3)              109.4712         estimate D2E/DX2                !
 --------------------------------------------------------------------------------
 Trust Radius=3.00D-01 FncErr=1.00D-07 GrdErr=1.00D-06
 Number of steps in this run=     20 maximum allowed number of steps=    100.
 GradGradGradGradGradGradGradGradGradGradGradGradGradGradGradGradGradGrad

 Leave Link  103 at Fri Aug 27 00:01:23 2021, MaxMem= 17179869184 cpu:         0.1
 (Enter /public3/home/sc51754/softwares/g09e01/l202.exe)
                          Input orientation:                          
 ---------------------------------------------------------------------
 Center     Atomic      Atomic             Coordinates (Angstroms)
 Number     Number       Type             X           Y           Z
 ---------------------------------------------------------------------
      1          8           0        0.039217    0.795571    0.000000
      2          1           0        0.999217    0.795812    0.000000
      3          1           0       -0.281010    1.700587    0.000000
 ---------------------------------------------------------------------
                    Distance matrix (angstroms):
                    1          2          3
     1  O    0.000000
     2  H    0.960000   0.000000
     3  H    0.960000   1.567673   0.000000
 Stoichiometry    H2O
 Framework group  C2V[C2(O),SGV(H2)]
 Deg. of freedom     2
 Full point group                 C2V     NOp   4
 Largest Abelian subgroup         C2V     NOp   4
 Largest concise Abelian subgroup C2      NOp   2
                         Standard orientation:                         
 ---------------------------------------------------------------------
 Center     Atomic      Atomic             Coordinates (Angstroms)
 Number     Number       Type             X           Y           Z
 ---------------------------------------------------------------------
      1          8           0        0.000000   -0.000000    0.110851
      2          1           0       -0.000000   -0.783837   -0.443405
      3          1           0        0.000000    0.783837   -0.443405
 ---------------------------------------------------------------------
 Rotational constants (GHZ):    919.0227056    408.0852078    282.5991526
 Leave Link  202 at Fri Aug 27 00:01:23 2021, MaxMem= 17179869184 cpu:         8.6
 (Enter /public3/home/sc51754/softwares/g09e01/l301.exe)
 General basis read from cards:  (5D, 7F)
 Centers:       2      3
 S 4 1.00
     Exponent=  7.5423000000D+01 Coefficients=  2.4065000000D-03
     Exponent=  1.1350000000D+01 Coefficients=  1.8487000000D-02
     Exponent=  2.5993000000D+00 Coefficients=  8.9742000000D-02
     Exponent=  7.3513000000D-01 Coefficients=  2.8111000000D-01
 S 1 1.00
     Exponent=  2.3167000000D-01 Coefficients=  1.0000000000D+00
 S 1 1.00
     Exponent=  7.4147000000D-02 Coefficients=  1.0000000000D+00
 P 1 1.00
     Exponent=  1.6000000000D+00 Coefficients=  1.0000000000D+00
 P 1 1.00
     Exponent=  4.5000000000D-01 Coefficients=  1.0000000000D+00
 D 1 1.00
     Exponent=  1.2500000000D+00 Coefficients=  1.0000000000D+00
 ****
 Centers:       1
 S 7 1.00
     Exponent=  1.4782000000D+04 Coefficients=  5.3519000000D-04
     Exponent=  2.2173000000D+03 Coefficients=  4.1375000000D-03
     Exponent=  5.0474000000D+02 Coefficients=  2.1245000000D-02
     Exponent=  1.4287000000D+02 Coefficients=  8.2453000000D-02
     Exponent=  4.6300000000D+01 Coefficients=  2.3671000000D-01
     Exponent=  1.6337000000D+01 Coefficients=  4.4039000000D-01
     Exponent=  5.9828000000D+00 Coefficients=  3.6465000000D-01
 S 7 1.00
     Exponent=  2.2173000000D+03 Coefficients= -1.9275000000D-06
     Exponent=  5.0474000000D+02 Coefficients= -5.7964000000D-05
     Exponent=  1.4287000000D+02 Coefficients= -7.9494000000D-04
     Exponent=  4.6300000000D+01 Coefficients= -7.3125000000D-03
     Exponent=  1.6337000000D+01 Coefficients= -4.0574000000D-02
     Exponent=  5.9828000000D+00 Coefficients= -9.1594000000D-02
     Exponent=  1.6718000000D+00 Coefficients=  2.0940000000D-01
 S 1 1.00
     Exponent=  6.4662000000D-01 Coefficients=  1.0000000000D+00
 S 1 1.00
     Exponent=  2.1669000000D-01 Coefficients=  1.0000000000D+00
 P 4 1.00
     Exponent=  6.0424000000D+01 Coefficients=  6.8949000000D-03
     Exponent=  1.3935000000D+01 Coefficients=  4.9005000000D-02
     Exponent=  4.1531000000D+00 Coefficients=  1.8255000000D-01
     Exponent=  1.4158000000D+00 Coefficients=  3.7633000000D-01
 P 1 1.00
     Exponent=  4.7549000000D-01 Coefficients=  1.0000000000D+00
 P 1 1.00
     Exponent=  1.4529000000D-01 Coefficients=  1.0000000000D+00
 D 1 1.00
     Exponent=  2.2000000000D+00 Coefficients=  1.0000000000D+00
 D 1 1.00
     Exponent=  6.5000000000D-01 Coefficients=  1.0000000000D+00
 F 1 1.00
     Exponent=  1.1000000000D+00 Coefficients=  1.0000000000D+00
 ****
 Ernie: Thresh=  0.10000D-02 Tol=  0.10000D-05 Strict=F.
 Ernie:  1 primitive shells out of 43 were deleted.
 There are    27 symmetry adapted cartesian basis functions of A1  symmetry.
 There are     7 symmetry adapted cartesian basis functions of A2  symmetry.
 There are    12 symmetry adapted cartesian basis functions of B1  symmetry.
 There are    19 symmetry adapted cartesian basis functions of B2  symmetry.
 There are    23 symmetry adapted basis functions of A1  symmetry.
 There are     7 symmetry adapted basis functions of A2  symmetry.
 There are    11 symmetry adapted basis functions of B1  symmetry.
 There are    17 symmetry adapted basis functions of B2  symmetry.
    58 basis functions,    91 primitive gaussians,    65 cartesian basis functions
     5 alpha electrons        5 beta electrons
       nuclear repulsion energy         9.1571759018 Hartrees.
 IExCor=  402 DFT=T Ex+Corr=BHandHLYP ExCW=0 ScaHFX=  0.500000
 ScaDFX=  0.500000  0.500000  1.000000  1.000000 ScalE2=  1.000000  1.000000
 IRadAn=      0 IRanWt=     -1 IRanGd=            0 ICorTp=0 IEmpDi=  4
 NAtoms=    3 NActive=    3 NUniq=    2 SFac= 2.25D+00 NAtFMM=   60 NAOKFM=F Big=F
 Integral buffers will be    131072 words long.
 Raffenetti 2 integral format.
 Two-electron integral symmetry is turned on.
 Leave Link  301 at Fri Aug 27 00:01:23 2021, MaxMem= 17179869184 cpu:         1.5
 (Enter /public3/home/sc51754/softwares/g09e01/l302.exe)
 NPDir=0 NMtPBC=     1 NCelOv=     1 NCel=       1 NClECP=     1 NCelD=      1
         NCelK=      1 NCelE2=     1 NClLst=     1 CellRange=     0.0.
 One-electron integrals computed using PRISM.
 One-electron integral symmetry used in STVInt
 NBasis=    58 RedAO= T EigKep=  5.81D-03  NBF=    23     7    11    17
 NBsUse=    58 1.00D-06 EigRej= -1.00D+00 NBFU=    23     7    11    17
 Precomputing XC quadrature grid using
 IXCGrd= 4 IRadAn=           0 IRanWt=          -1 IRanGd=           0 AccXCQ= 0.00D+00.
 Generated NRdTot=       0 NPtTot=           0 NUsed=           0 NTot=          32
 NSgBfM=    65    65    65    65    65 MxSgAt=     3 MxSgA2=     3.
 Leave Link  302 at Fri Aug 27 00:01:24 2021, MaxMem= 17179869184 cpu:        41.9
 (Enter /public3/home/sc51754/softwares/g09e01/l303.exe)
 DipDrv:  MaxL=1.
 Leave Link  303 at Fri Aug 27 00:01:25 2021, MaxMem= 17179869184 cpu:        12.3
 (Enter /public3/home/sc51754/softwares/g09e01/l401.exe)
 ExpMin= 7.41D-02 ExpMax= 1.48D+04 ExpMxC= 5.05D+02 IAcc=2 IRadAn=         4 AccDes= 0.00D+00
 Harris functional with IExCor=  402 and IRadAn=       4 diagonalized for initial guess.
 HarFok:  IExCor=  402 AccDes= 0.00D+00 IRadAn=         4 IDoV= 1 UseB2=F ITyADJ=14
 ICtDFT=  3500011 ScaDFX=  1.000000  1.000000  1.000000  1.000000
 FoFCou: FMM=F IPFlag=           0 FMFlag=      100000 FMFlg1=           0
         NFxFlg=           0 DoJE=T BraDBF=F KetDBF=T FulRan=T
         wScrn=  0.000000 ICntrl=     500 IOpCl=  0 I1Cent=   200000004 NGrid=           0
         NMat0=    1 NMatS0=      1 NMatT0=    0 NMatD0=    1 NMtDS0=    0 NMtDT0=    0
 Petite list used in FoFCou.
 Harris En= -76.5039076685439    
 JPrj=0 DoOrth=F DoCkMO=F.
 Initial guess orbital symmetries:
       Occupied  (A1) (A1) (B2) (A1) (B1)
       Virtual   (A1) (B2) (B2) (A1) (A1) (B1) (B2) (A1) (A2) (A1)
                 (B1) (B2) (B2) (A1) (A1) (B2) (B1) (A1) (A2) (B2)
                 (A1) (B1) (A1) (B2) (B1) (A1) (A2) (B2) (B1) (B2)
                 (A1) (A2) (A1) (B2) (B1) (A2) (A1) (B2) (B2) (A1)
                 (B1) (A1) (B1) (B2) (A2) (B1) (A1) (A1) (A2) (A1)
                 (B2) (B2) (A1)
 The electronic state of the initial guess is 1-A1.
 Leave Link  401 at Fri Aug 27 00:01:25 2021, MaxMem= 17179869184 cpu:        41.4
 (Enter /public3/home/sc51754/softwares/g09e01/l502.exe)
 Closed shell SCF:
 Using DIIS extrapolation, IDIIS=  1040.
 Integral symmetry usage will be decided dynamically.
 Keep R1 ints in memory in symmetry-blocked form, NReq=3467901.
 IVT=       35997 IEndB=       35997 NGot= 17179869184 MDV= 17179451308
 LenX= 17179451308 LenY= 17179446642
 Requested convergence on RMS density matrix=1.00D-08 within 128 cycles.
 Requested convergence on MAX density matrix=1.00D-06.
 Requested convergence on             energy=1.00D-06.
 No special actions if energy rises.
 FoFCou: FMM=F IPFlag=           0 FMFlag=           0 FMFlg1=           0
         NFxFlg=           0 DoJE=F BraDBF=F KetDBF=F FulRan=T
         wScrn=  0.000000 ICntrl=     600 IOpCl=  0 I1Cent=           0 NGrid=           0
         NMat0=    1 NMatS0=   1711 NMatT0=    0 NMatD0=    1 NMtDS0=    0 NMtDT0=    0
 Petite list used in FoFCou.
 Integral accuracy reduced to 1.0D-05 until final iterations.

 Cycle   1  Pass 0  IDiag  1:
 E= -76.3394204575747    
 DIIS: error= 6.91D-02 at cycle   1 NSaved=   1.
 NSaved= 1 IEnMin= 1 EnMin= -76.3394204575747     IErMin= 1 ErrMin= 6.91D-02
 ErrMax= 6.91D-02  0.00D+00 EMaxC= 1.00D-01 BMatC= 1.31D-01 BMatP= 1.31D-01
 IDIUse=3 WtCom= 3.09D-01 WtEn= 6.91D-01
 Coeff-Com:  0.100D+01
 Coeff-En:   0.100D+01
 Coeff:      0.100D+01
 Gap=     0.286 Goal=   None    Shift=    0.000
 GapD=    0.286 DampG=1.000 DampE=0.500 DampFc=0.5000 IDamp=-1.
 Damping current iteration by 5.00D-01
 RMSDP=5.66D-03 MaxDP=1.04D-01              OVMax= 1.67D-01

 Cycle   2  Pass 0  IDiag  1:
 E= -76.3762504174681     Delta-E=       -0.036829959893 Rises=F Damp=T
 DIIS: error= 1.17D-02 at cycle   2 NSaved=   2.
 NSaved= 2 IEnMin= 2 EnMin= -76.3762504174681     IErMin= 2 ErrMin= 1.17D-02
 ErrMax= 1.17D-02  0.00D+00 EMaxC= 1.00D-01 BMatC= 3.75D-03 BMatP= 1.31D-01
 IDIUse=3 WtCom= 8.83D-01 WtEn= 1.17D-01
 Coeff-Com:  0.654D-01 0.935D+00
 Coeff-En:   0.149D+00 0.851D+00
 Coeff:      0.751D-01 0.925D+00
 Gap=     0.430 Goal=   None    Shift=    0.000
 RMSDP=6.25D-04 MaxDP=1.39D-02 DE=-3.68D-02 OVMax= 9.60D-02

 Cycle   3  Pass 0  IDiag  1:
 E= -76.4236299573621     Delta-E=       -0.047379539894 Rises=F Damp=F
 DIIS: error= 1.82D-03 at cycle   3 NSaved=   3.
 NSaved= 3 IEnMin= 3 EnMin= -76.4236299573621     IErMin= 3 ErrMin= 1.82D-03
 ErrMax= 1.82D-03  0.00D+00 EMaxC= 1.00D-01 BMatC= 6.23D-05 BMatP= 3.75D-03
 IDIUse=3 WtCom= 9.82D-01 WtEn= 1.82D-02
 Coeff-Com: -0.191D-01-0.603D-02 0.103D+01
 Coeff-En:   0.000D+00 0.000D+00 0.100D+01
 Coeff:     -0.188D-01-0.592D-02 0.102D+01
 Gap=     0.435 Goal=   None    Shift=    0.000
 RMSDP=8.87D-05 MaxDP=1.38D-03 DE=-4.74D-02 OVMax= 2.95D-03

 Cycle   4  Pass 0  IDiag  1:
 E= -76.4236843470663     Delta-E=       -0.000054389704 Rises=F Damp=F
 DIIS: error= 3.83D-04 at cycle   4 NSaved=   4.
 NSaved= 4 IEnMin= 4 EnMin= -76.4236843470663     IErMin= 4 ErrMin= 3.83D-04
 ErrMax= 3.83D-04  0.00D+00 EMaxC= 1.00D-01 BMatC= 2.94D-06 BMatP= 6.23D-05
 IDIUse=3 WtCom= 9.96D-01 WtEn= 3.83D-03
 Coeff-Com: -0.107D-02-0.109D-01 0.162D+00 0.850D+00
 Coeff-En:   0.000D+00 0.000D+00 0.000D+00 0.100D+01
 Coeff:     -0.107D-02-0.109D-01 0.161D+00 0.851D+00
 Gap=     0.435 Goal=   None    Shift=    0.000
 RMSDP=1.69D-05 MaxDP=3.19D-04 DE=-5.44D-05 OVMax= 5.02D-04

 Cycle   5  Pass 0  IDiag  1:
 E= -76.4236863380263     Delta-E=       -0.000001990960 Rises=F Damp=F
 DIIS: error= 8.95D-05 at cycle   5 NSaved=   5.
 NSaved= 5 IEnMin= 5 EnMin= -76.4236863380263     IErMin= 5 ErrMin= 8.95D-05
 ErrMax= 8.95D-05  0.00D+00 EMaxC= 1.00D-01 BMatC= 8.05D-08 BMatP= 2.94D-06
 IDIUse=1 WtCom= 1.00D+00 WtEn= 0.00D+00
 Coeff-Com:  0.106D-02-0.325D-03-0.358D-01-0.749D-01 0.111D+01
 Coeff:      0.106D-02-0.325D-03-0.358D-01-0.749D-01 0.111D+01
 Gap=     0.435 Goal=   None    Shift=    0.000
 RMSDP=5.46D-06 MaxDP=9.83D-05 DE=-1.99D-06 OVMax= 1.77D-04

 Initial convergence to 1.0D-05 achieved.  Increase integral accuracy.
 Cycle   6  Pass 1  IDiag  1:
 E= -76.4236811901250     Delta-E=        0.000005147901 Rises=F Damp=F
 DIIS: error= 9.90D-06 at cycle   1 NSaved=   1.
 NSaved= 1 IEnMin= 1 EnMin= -76.4236811901250     IErMin= 1 ErrMin= 9.90D-06
 ErrMax= 9.90D-06  0.00D+00 EMaxC= 1.00D-01 BMatC= 2.29D-09 BMatP= 2.29D-09
 IDIUse=1 WtCom= 1.00D+00 WtEn= 0.00D+00
 Coeff-Com:  0.100D+01
 Coeff:      0.100D+01
 Gap=     0.435 Goal=   None    Shift=    0.000
 RMSDP=5.46D-06 MaxDP=9.83D-05 DE= 5.15D-06 OVMax= 3.79D-05

 Cycle   7  Pass 1  IDiag  1:
 E= -76.4236811920564     Delta-E=       -0.000000001931 Rises=F Damp=F
 DIIS: error= 1.06D-05 at cycle   2 NSaved=   2.
 NSaved= 2 IEnMin= 2 EnMin= -76.4236811920564     IErMin= 1 ErrMin= 9.90D-06
 ErrMax= 1.06D-05  0.00D+00 EMaxC= 1.00D-01 BMatC= 1.73D-09 BMatP= 2.29D-09
 IDIUse=1 WtCom= 1.00D+00 WtEn= 0.00D+00
 Coeff-Com:  0.457D+00 0.543D+00
 Coeff:      0.457D+00 0.543D+00
 Gap=     0.435 Goal=   None    Shift=    0.000
 RMSDP=3.66D-07 MaxDP=7.59D-06 DE=-1.93D-09 OVMax= 1.31D-05

 Cycle   8  Pass 1  IDiag  1:
 E= -76.4236811932297     Delta-E=       -0.000000001173 Rises=F Damp=F
 DIIS: error= 1.70D-06 at cycle   3 NSaved=   3.
 NSaved= 3 IEnMin= 3 EnMin= -76.4236811932297     IErMin= 3 ErrMin= 1.70D-06
 ErrMax= 1.70D-06  0.00D+00 EMaxC= 1.00D-01 BMatC= 6.37D-11 BMatP= 1.73D-09
 IDIUse=1 WtCom= 1.00D+00 WtEn= 0.00D+00
 Coeff-Com: -0.131D+00 0.513D-01 0.108D+01
 Coeff:     -0.131D+00 0.513D-01 0.108D+01
 Gap=     0.435 Goal=   None    Shift=    0.000
 RMSDP=1.53D-07 MaxDP=2.68D-06 DE=-1.17D-09 OVMax= 6.92D-06

 Cycle   9  Pass 1  IDiag  1:
 E= -76.4236811933281     Delta-E=       -0.000000000098 Rises=F Damp=F
 DIIS: error= 2.63D-07 at cycle   4 NSaved=   4.
 NSaved= 4 IEnMin= 4 EnMin= -76.4236811933281     IErMin= 4 ErrMin= 2.63D-07
 ErrMax= 2.63D-07  0.00D+00 EMaxC= 1.00D-01 BMatC= 9.43D-13 BMatP= 6.37D-11
 IDIUse=1 WtCom= 1.00D+00 WtEn= 0.00D+00
 Coeff-Com: -0.181D-01-0.205D-01 0.342D-01 0.100D+01
 Coeff:     -0.181D-01-0.205D-01 0.342D-01 0.100D+01
 Gap=     0.435 Goal=   None    Shift=    0.000
 RMSDP=2.24D-08 MaxDP=3.43D-07 DE=-9.84D-11 OVMax= 8.18D-07

 Cycle  10  Pass 1  IDiag  1:
 E= -76.4236811933293     Delta-E=       -0.000000000001 Rises=F Damp=F
 DIIS: error= 3.38D-08 at cycle   5 NSaved=   5.
 NSaved= 5 IEnMin= 5 EnMin= -76.4236811933293     IErMin= 5 ErrMin= 3.38D-08
 ErrMax= 3.38D-08  0.00D+00 EMaxC= 1.00D-01 BMatC= 2.33D-14 BMatP= 9.43D-13
 IDIUse=1 WtCom= 1.00D+00 WtEn= 0.00D+00
 Coeff-Com:  0.365D-02-0.403D-02-0.344D-01 0.912D-01 0.944D+00
 Coeff:      0.365D-02-0.403D-02-0.344D-01 0.912D-01 0.944D+00
 Gap=     0.435 Goal=   None    Shift=    0.000
 RMSDP=1.94D-09 MaxDP=3.55D-08 DE=-1.22D-12 OVMax= 9.15D-08

 SCF Done:  E(RBHandHLYP) =  -76.4236811933     A.U. after   10 cycles
            NFock= 10  Conv=0.19D-08     -V/T= 2.0035
 KE= 7.615596346239D+01 PE=-1.992186187854D+02 EE= 3.748179822786D+01
 Leave Link  502 at Fri Aug 27 00:01:26 2021, MaxMem= 17179869184 cpu:        29.7
 (Enter /public3/home/sc51754/softwares/g09e01/l601.exe)
 Copying SCF densities to generalized density rwf, IOpCl= 0 IROHF=0.

 **********************************************************************

            Population analysis using the SCF density.

 **********************************************************************

 Orbital symmetries:
       Occupied  (A1) (A1) (B2) (A1) (B1)
       Virtual   (A1) (B2) (A1) (B2) (B1) (A1) (B2) (A1) (A2) (A1)
                 (B1) (B2) (B2) (A1) (A1) (B2) (B1) (A2) (A1) (B2)
                 (A1) (B1) (A1) (B2) (B1) (A1) (A2) (B2) (B1) (B2)
                 (A2) (A1) (A1) (B2) (B1) (A2) (A1) (B2) (B2) (A1)
                 (B1) (A1) (B1) (B2) (A1) (A2) (B1) (A2) (A1) (B2)
                 (A1) (B2) (A1)
 The electronic state is 1-A1.
 Alpha  occ. eigenvalues --  -19.67978  -1.14771  -0.62124  -0.46478  -0.39803
 Alpha virt. eigenvalues --    0.03738   0.09168   0.32152   0.33253   0.38436
 Alpha virt. eigenvalues --    0.38682   0.50142   0.75153   0.81787   0.86501
 Alpha virt. eigenvalues --    0.95261   1.10534   1.23142   1.27738   1.51185
 Alpha virt. eigenvalues --    1.54766   1.83357   1.93344   1.94415   2.19163
 Alpha virt. eigenvalues --    2.20694   2.40130   3.00027   3.49611   3.51446
 Alpha virt. eigenvalues --    3.65415   3.66956   3.85713   3.92237   3.92667
 Alpha virt. eigenvalues --    4.15074   4.15100   4.38239   4.51982   4.58155
 Alpha virt. eigenvalues --    4.61623   4.75624   4.92332   4.95812   5.01889
 Alpha virt. eigenvalues --    5.08879   5.75831   6.08155   6.22142   6.29138
 Alpha virt. eigenvalues --    6.31319   6.38736   6.47544   6.50195   7.05486
 Alpha virt. eigenvalues --    7.07508   7.52819  15.38059
          Condensed to atoms (all electrons):
               1          2          3
     1  O    7.710083   0.368039   0.368039
     2  H    0.368039   0.434156  -0.025276
     3  H    0.368039  -0.025276   0.434156
 Mulliken charges:
               1
     1  O   -0.446162
     2  H    0.223081
     3  H    0.223081
 Sum of Mulliken charges =   0.00000
 Mulliken charges with hydrogens summed into heavy atoms:
               1
     1  O    0.000000
 Electronic spatial extent (au):  <R**2>=             19.6423
 Charge=              0.0000 electrons
 Dipole moment (field-independent basis, Debye):
    X=              0.0000    Y=             -0.0000    Z=             -1.9672  Tot=              1.9672
 Quadrupole moment (field-independent basis, Debye-Ang):
   XX=             -7.5924   YY=             -4.1082   ZZ=             -6.4558
   XY=              0.0000   XZ=             -0.0000   YZ=              0.0000
 Traceless Quadrupole moment (field-independent basis, Debye-Ang):
   XX=             -1.5403   YY=              1.9439   ZZ=             -0.4036
   XY=              0.0000   XZ=             -0.0000   YZ=              0.0000
 Octapole moment (field-independent basis, Debye-Ang**2):
  XXX=             -0.0000  YYY=             -0.0000  ZZZ=             -1.2338  XYY=              0.0000
  XXY=              0.0000  XXZ=             -0.3345  XZZ=             -0.0000  YZZ=             -0.0000
  YYZ=             -1.3871  XYZ=             -0.0000
 Hexadecapole moment (field-independent basis, Debye-Ang**3):
 XXXX=             -6.7672 YYYY=             -5.9904 ZZZZ=             -7.3107 XXXY=             -0.0000
 XXXZ=              0.0000 YYYX=             -0.0000 YYYZ=              0.0000 ZZZX=              0.0000
 ZZZY=              0.0000 XXYY=             -2.4857 XXZZ=             -2.3902 YYZZ=             -1.9502
 XXYZ=             -0.0000 YYXZ=             -0.0000 ZZXY=             -0.0000
 N-N= 9.157175901845D+00 E-N=-1.992186189046D+02  KE= 7.615596346239D+01
 Symmetry A1   KE= 6.798159931664D+01
 Symmetry A2   KE=-1.519662183534D-21
 Symmetry B1   KE= 4.537862742620D+00
 Symmetry B2   KE= 3.636501403133D+00
 No NMR shielding tensors so no spin-rotation constants.
 Leave Link  601 at Fri Aug 27 00:01:27 2021, MaxMem= 17179869184 cpu:        43.1
 (Enter /public3/home/sc51754/softwares/g09e01/l701.exe)
 Compute integral first derivatives.
 ... and contract with generalized density number  0.
 Leave Link  701 at Fri Aug 27 00:01:28 2021, MaxMem= 17179869184 cpu:        63.0
 (Enter /public3/home/sc51754/softwares/g09e01/l702.exe)
 L702 exits ... SP integral derivatives will be done elsewhere.
 Leave Link  702 at Fri Aug 27 00:01:28 2021, MaxMem= 17179869184 cpu:         0.3
 (Enter /public3/home/sc51754/softwares/g09e01/l703.exe)
 Compute integral first derivatives, UseDBF=F ICtDFT=           0.
 Integral derivatives from FoFJK, PRISM(SPDF).
 Calling FoFJK, ICntrl=      2127 FMM=F ISym2X=1 I1Cent= 0 IOpClX= 0 NMat=1 NMatS=1 NMatT=0.
 FoFJK:  IHMeth= 1 ICntrl=    2127 DoSepK=F KAlg= 0 I1Cent=   0 FoldK=F
 IRaf=         0 NMat=   1 IRICut=       1 DoRegI=T DoRafI=F ISym2E= 1.
 FoFCou: FMM=F IPFlag=           0 FMFlag=      100000 FMFlg1=         800
         NFxFlg=           0 DoJE=F BraDBF=F KetDBF=F FulRan=T
         wScrn=  0.000000 ICntrl=    2127 IOpCl=  0 I1Cent=           0 NGrid=           0
         NMat0=    1 NMatS0=      1 NMatT0=    0 NMatD0=    1 NMtDS0=    0 NMtDT0=    0
 Petite list used in FoFCou.
 Leave Link  703 at Fri Aug 27 00:01:29 2021, MaxMem= 17179869184 cpu:        47.4
 (Enter /public3/home/sc51754/softwares/g09e01/l716.exe)
 Dipole        = 3.96180970D-17-4.44089210D-16-7.73952690D-01
 ***** Axes restored to original set *****
 -------------------------------------------------------------------
 Center     Atomic                   Forces (Hartrees/Bohr)
 Number     Number              X              Y              Z
 -------------------------------------------------------------------
      1        8           0.003323019    0.004701963    0.000000000
      2        1          -0.013549289    0.006050470   -0.000000000
      3        1           0.010226270   -0.010752433   -0.000000000
 -------------------------------------------------------------------
 Cartesian Forces:  Max     0.013549289 RMS     0.007253610
 Leave Link  716 at Fri Aug 27 00:01:29 2021, MaxMem= 17179869184 cpu:         0.4
 (Enter /public3/home/sc51754/softwares/g09e01/l103.exe)

 GradGradGradGradGradGradGradGradGradGradGradGradGradGradGradGradGradGrad
 Berny optimization.
 FormGI is forming the generalized inverse of G from B-inverse, IUseBI=4.
 Internal  Forces:  Max     0.013547769 RMS     0.012750171
 Search for a local minimum.
 Step number   1 out of a maximum of   20
 All quantities printed in internal units (Hartrees-Bohrs-Radians)
 RMS Force = .12750D-01 SwitMx=.10000D-02 MixMth= 1
 Mixed Optimization -- RFO/linear search
 Second derivative matrix not updated -- first step.
 The second derivative matrix:
                          R1        R2        A1
           R1           0.55473
           R2           0.00000   0.55473
           A1           0.00000   0.00000   0.16000
 ITU=  0
     Eigenvalues ---    0.16000   0.55473   0.55473
 RFO step:  Lambda=-1.40733592D-03 EMin= 1.60000000D-01
 Linear search not attempted -- first point.
 Iteration  1 RMS(Cart)=  0.04835888 RMS(Int)=  0.00100534
 Iteration  2 RMS(Cart)=  0.00069005 RMS(Int)=  0.00000029
 Iteration  3 RMS(Cart)=  0.00000032 RMS(Int)=  0.00000000
 ITry= 1 IFail=0 DXMaxC= 5.24D-02 DCOld= 1.00D+10 DXMaxT= 3.00D-01 DXLimC= 3.00D+00 Rises=F
 ClnCor:  largest displacement from symmetrization is 7.51D-15 for atom     3.
 Variable       Old X    -DE/DX   Delta X   Delta X   Delta X     New X
                                 (Linear)    (Quad)   (Total)
    R1        1.81414  -0.01355   0.00000  -0.02436  -0.02436   1.78978
    R2        1.81414  -0.01355   0.00000  -0.02436  -0.02436   1.78978
    A1        1.91063  -0.01098   0.00000  -0.06804  -0.06804   1.84259
         Item               Value     Threshold  Converged?
 Maximum Force            0.013548     0.000450     NO 
 RMS     Force            0.012750     0.000300     NO 
 Maximum Displacement     0.052379     0.001800     NO 
 RMS     Displacement     0.048528     0.001200     NO 
 Predicted change in Energy=-7.077608D-04
 Lowest energy point so far.  Saving SCF results.
 GradGradGradGradGradGradGradGradGradGradGradGradGradGradGradGradGradGrad

 Leave Link  103 at Fri Aug 27 00:01:30 2021, MaxMem= 17179869184 cpu:        24.9
 (Enter /public3/home/sc51754/softwares/g09e01/l202.exe)
                          Input orientation:                          
 ---------------------------------------------------------------------
 Center     Atomic      Atomic             Coordinates (Angstroms)
 Number     Number       Type             X           Y           Z
 ---------------------------------------------------------------------
      1          8           0        0.032082    0.785474    0.000000
      2          1           0        0.978634    0.817928   -0.000000
      3          1           0       -0.253292    1.688567    0.000000
 ---------------------------------------------------------------------
                    Distance matrix (angstroms):
                    1          2          3
     1  O    0.000000
     2  H    0.947109   0.000000
     3  H    0.947109   1.508528   0.000000
 Stoichiometry    H2O
 Framework group  C2V[C2(O),SGV(H2)]
 Deg. of freedom     2
 Full point group                 C2V     NOp   4
 RotChk:  IX=3 Diff= 4.63D-16
 Largest Abelian subgroup         C2V     NOp   4
 Largest concise Abelian subgroup C2      NOp   2
                         Standard orientation:                         
 ---------------------------------------------------------------------
 Center     Atomic      Atomic             Coordinates (Angstroms)
 Number     Number       Type             X           Y           Z
 ---------------------------------------------------------------------
      1          8           0        0.000000   -0.000000    0.114560
      2          1           0        0.000000   -0.754264   -0.458241
      3          1           0        0.000000    0.754264   -0.458241
 ---------------------------------------------------------------------
 Rotational constants (GHZ):    860.4776955    440.7122550    291.4432789
 Leave Link  202 at Fri Aug 27 00:01:30 2021, MaxMem= 17179869184 cpu:         5.2
 (Enter /public3/home/sc51754/softwares/g09e01/l301.exe)
 Basis read from rwf:  (5D, 7F)
 No pseudopotential information found on rwf file.
 There are    27 symmetry adapted cartesian basis functions of A1  symmetry.
 There are     7 symmetry adapted cartesian basis functions of A2  symmetry.
 There are    12 symmetry adapted cartesian basis functions of B1  symmetry.
 There are    19 symmetry adapted cartesian basis functions of B2  symmetry.
 There are    23 symmetry adapted basis functions of A1  symmetry.
 There are     7 symmetry adapted basis functions of A2  symmetry.
 There are    11 symmetry adapted basis functions of B1  symmetry.
 There are    17 symmetry adapted basis functions of B2  symmetry.
    58 basis functions,    91 primitive gaussians,    65 cartesian basis functions
     5 alpha electrons        5 beta electrons
       nuclear repulsion energy         9.2904526099 Hartrees.
 IExCor=  402 DFT=T Ex+Corr=BHandHLYP ExCW=0 ScaHFX=  0.500000
 ScaDFX=  0.500000  0.500000  1.000000  1.000000 ScalE2=  1.000000  1.000000
 IRadAn=      0 IRanWt=     -1 IRanGd=            0 ICorTp=0 IEmpDi=  4
 NAtoms=    3 NActive=    3 NUniq=    2 SFac= 2.25D+00 NAtFMM=   60 NAOKFM=F Big=F
 Integral buffers will be    131072 words long.
 Raffenetti 2 integral format.
 Two-electron integral symmetry is turned on.
 No density basis found on file   724.
 Leave Link  301 at Fri Aug 27 00:01:30 2021, MaxMem= 17179869184 cpu:         1.3
 (Enter /public3/home/sc51754/softwares/g09e01/l302.exe)
 NPDir=0 NMtPBC=     1 NCelOv=     1 NCel=       1 NClECP=     1 NCelD=      1
         NCelK=      1 NCelE2=     1 NClLst=     1 CellRange=     0.0.
 One-electron integrals computed using PRISM.
 One-electron integral symmetry used in STVInt
 NBasis=    58 RedAO= T EigKep=  5.63D-03  NBF=    23     7    11    17
 NBsUse=    58 1.00D-06 EigRej= -1.00D+00 NBFU=    23     7    11    17
 Precomputing XC quadrature grid using
 IXCGrd= 4 IRadAn=           0 IRanWt=          -1 IRanGd=           0 AccXCQ= 0.00D+00.
 Generated NRdTot=       0 NPtTot=           0 NUsed=           0 NTot=          32
 NSgBfM=    65    65    65    65    65 MxSgAt=     3 MxSgA2=     3.
 Leave Link  302 at Fri Aug 27 00:01:31 2021, MaxMem= 17179869184 cpu:        37.6
 (Enter /public3/home/sc51754/softwares/g09e01/l303.exe)
 DipDrv:  MaxL=1.
 Leave Link  303 at Fri Aug 27 00:01:31 2021, MaxMem= 17179869184 cpu:        16.7
 (Enter /public3/home/sc51754/softwares/g09e01/l401.exe)
 Initial guess from the checkpoint file:  "H2O_BHandHLYP_PC2_OPT_FREQ.chk"
 B after Tr=    -0.000000    0.000000    0.000000
         Rot=    1.000000    0.000000   -0.000000   -0.000000 Ang=   0.00 deg.
 Guess basis will be translated and rotated to current coordinates.
 JPrj=2 DoOrth=T DoCkMO=T.
 Initial guess orbital symmetries:
       Occupied  (A1) (A1) (B2) (A1) (B1)
       Virtual   (A1) (A1) (A1) (A1) (A1) (A1) (A1) (A1) (A1) (A1)
                 (A1) (A1) (A1) (A1) (A1) (A1) (A1) (A1) (A1) (A1)
                 (A2) (A2) (A2) (A2) (A2) (A2) (A2) (B1) (B1) (B1)
                 (B1) (B1) (B1) (B1) (B1) (B1) (B1) (B2) (B2) (B2)
                 (B2) (B2) (B2) (B2) (B2) (B2) (B2) (B2) (B2) (B2)
                 (B2) (B2) (B2)
 The electronic state of the initial guess is 1-A1.
 Generating alternative initial guess.
 ExpMin= 7.41D-02 ExpMax= 1.48D+04 ExpMxC= 5.05D+02 IAcc=2 IRadAn=         4 AccDes= 0.00D+00
 Harris functional with IExCor=  402 and IRadAn=       4 diagonalized for initial guess.
 HarFok:  IExCor=  402 AccDes= 0.00D+00 IRadAn=         4 IDoV= 1 UseB2=F ITyADJ=14
 ICtDFT=  3500011 ScaDFX=  1.000000  1.000000  1.000000  1.000000
 FoFCou: FMM=F IPFlag=           0 FMFlag=      100000 FMFlg1=           0
         NFxFlg=           0 DoJE=T BraDBF=F KetDBF=T FulRan=T
         wScrn=  0.000000 ICntrl=     500 IOpCl=  0 I1Cent=   200000004 NGrid=           0
         NMat0=    1 NMatS0=      1 NMatT0=    0 NMatD0=    1 NMtDS0=    0 NMtDT0=    0
 Petite list used in FoFCou.
 Harris En= -76.5047153304444    
 Leave Link  401 at Fri Aug 27 00:01:33 2021, MaxMem= 17179869184 cpu:        80.8
 (Enter /public3/home/sc51754/softwares/g09e01/l502.exe)
 Closed shell SCF:
 Using DIIS extrapolation, IDIIS=  1040.
 Integral symmetry usage will be decided dynamically.
 Keep R1 ints in memory in symmetry-blocked form, NReq=3467901.
 IVT=       35997 IEndB=       35997 NGot= 17179869184 MDV= 17179451308
 LenX= 17179451308 LenY= 17179446642
 Requested convergence on RMS density matrix=1.00D-08 within 128 cycles.
 Requested convergence on MAX density matrix=1.00D-06.
 Requested convergence on             energy=1.00D-06.
 No special actions if energy rises.
 FoFCou: FMM=F IPFlag=           0 FMFlag=           0 FMFlg1=           0
         NFxFlg=           0 DoJE=F BraDBF=F KetDBF=F FulRan=T
         wScrn=  0.000000 ICntrl=     600 IOpCl=  0 I1Cent=           0 NGrid=           0
         NMat0=    1 NMatS0=   1711 NMatT0=    0 NMatD0=    1 NMtDS0=    0 NMtDT0=    0
 Petite list used in FoFCou.
 Integral accuracy reduced to 1.0D-05 until final iterations.

 Cycle   1  Pass 0  IDiag  1:
 E= -76.4240516154271    
 DIIS: error= 2.99D-03 at cycle   1 NSaved=   1.
 NSaved= 1 IEnMin= 1 EnMin= -76.4240516154271     IErMin= 1 ErrMin= 2.99D-03
 ErrMax= 2.99D-03  0.00D+00 EMaxC= 1.00D-01 BMatC= 3.99D-04 BMatP= 3.99D-04
 IDIUse=3 WtCom= 9.70D-01 WtEn= 2.99D-02
 Coeff-Com:  0.100D+01
 Coeff-En:   0.100D+01
 Coeff:      0.100D+01
 Gap=     1.238 Goal=   None    Shift=    0.000
 GapD=    1.238 DampG=2.000 DampE=1.000 DampFc=2.0000 IDamp=-1.
 RMSDP=2.97D-04 MaxDP=4.37D-03              OVMax= 6.56D-03

 Cycle   2  Pass 0  IDiag  1:
 E= -76.4243018157925     Delta-E=       -0.000250200365 Rises=F Damp=F
 DIIS: error= 8.89D-04 at cycle   2 NSaved=   2.
 NSaved= 2 IEnMin= 2 EnMin= -76.4243018157925     IErMin= 2 ErrMin= 8.89D-04
 ErrMax= 8.89D-04  0.00D+00 EMaxC= 1.00D-01 BMatC= 1.87D-05 BMatP= 3.99D-04
 IDIUse=3 WtCom= 9.91D-01 WtEn= 8.89D-03
 Coeff-Com:  0.430D-01 0.957D+00
 Coeff-En:   0.000D+00 0.100D+01
 Coeff:      0.426D-01 0.957D+00
 Gap=     0.437 Goal=   None    Shift=    0.000
 RMSDP=7.62D-05 MaxDP=1.27D-03 DE=-2.50D-04 OVMax= 1.88D-03

 Cycle   3  Pass 0  IDiag  1:
 E= -76.4243042432392     Delta-E=       -0.000002427447 Rises=F Damp=F
 DIIS: error= 8.22D-04 at cycle   3 NSaved=   3.
 NSaved= 3 IEnMin= 3 EnMin= -76.4243042432392     IErMin= 3 ErrMin= 8.22D-04
 ErrMax= 8.22D-04  0.00D+00 EMaxC= 1.00D-01 BMatC= 1.69D-05 BMatP= 1.87D-05
 IDIUse=3 WtCom= 9.92D-01 WtEn= 8.22D-03
 Coeff-Com: -0.209D-01 0.492D+00 0.529D+00
 Coeff-En:   0.000D+00 0.446D+00 0.554D+00
 Coeff:     -0.207D-01 0.492D+00 0.529D+00
 Gap=     0.438 Goal=   None    Shift=    0.000
 RMSDP=3.12D-05 MaxDP=6.01D-04 DE=-2.43D-06 OVMax= 9.75D-04

 Cycle   4  Pass 0  IDiag  1:
 E= -76.4243153092805     Delta-E=       -0.000011066041 Rises=F Damp=F
 DIIS: error= 4.07D-05 at cycle   4 NSaved=   4.
 NSaved= 4 IEnMin= 4 EnMin= -76.4243153092805     IErMin= 4 ErrMin= 4.07D-05
 ErrMax= 4.07D-05  0.00D+00 EMaxC= 1.00D-01 BMatC= 5.56D-08 BMatP= 1.69D-05
 IDIUse=1 WtCom= 1.00D+00 WtEn= 0.00D+00
 Coeff-Com: -0.431D-02 0.272D-01 0.660D-01 0.911D+00
 Coeff:     -0.431D-02 0.272D-01 0.660D-01 0.911D+00
 Gap=     0.438 Goal=   None    Shift=    0.000
 RMSDP=5.63D-06 MaxDP=1.04D-04 DE=-1.11D-05 OVMax= 8.62D-05

 Initial convergence to 1.0D-05 achieved.  Increase integral accuracy.
 Cycle   5  Pass 1  IDiag  1:
 E= -76.4243140904858     Delta-E=        0.000001218795 Rises=F Damp=F
 DIIS: error= 7.23D-06 at cycle   1 NSaved=   1.
 NSaved= 1 IEnMin= 1 EnMin= -76.4243140904858     IErMin= 1 ErrMin= 7.23D-06
 ErrMax= 7.23D-06  0.00D+00 EMaxC= 1.00D-01 BMatC= 1.48D-09 BMatP= 1.48D-09
 IDIUse=1 WtCom= 1.00D+00 WtEn= 0.00D+00
 Coeff-Com:  0.100D+01
 Coeff:      0.100D+01
 Gap=     0.438 Goal=   None    Shift=    0.000
 RMSDP=5.63D-06 MaxDP=1.04D-04 DE= 1.22D-06 OVMax= 2.73D-05

 Cycle   6  Pass 1  IDiag  1:
 E= -76.4243140921361     Delta-E=       -0.000000001650 Rises=F Damp=F
 DIIS: error= 2.60D-06 at cycle   2 NSaved=   2.
 NSaved= 2 IEnMin= 2 EnMin= -76.4243140921361     IErMin= 2 ErrMin= 2.60D-06
 ErrMax= 2.60D-06  0.00D+00 EMaxC= 1.00D-01 BMatC= 2.01D-10 BMatP= 1.48D-09
 IDIUse=1 WtCom= 1.00D+00 WtEn= 0.00D+00
 Coeff-Com:  0.179D+00 0.821D+00
 Coeff:      0.179D+00 0.821D+00
 Gap=     0.438 Goal=   None    Shift=    0.000
 RMSDP=2.45D-07 MaxDP=4.21D-06 DE=-1.65D-09 OVMax= 5.89D-06

 Cycle   7  Pass 1  IDiag  1:
 E= -76.4243140922697     Delta-E=       -0.000000000134 Rises=F Damp=F
 DIIS: error= 1.32D-06 at cycle   3 NSaved=   3.
 NSaved= 3 IEnMin= 3 EnMin= -76.4243140922697     IErMin= 3 ErrMin= 1.32D-06
 ErrMax= 1.32D-06  0.00D+00 EMaxC= 1.00D-01 BMatC= 6.39D-11 BMatP= 2.01D-10
 IDIUse=1 WtCom= 1.00D+00 WtEn= 0.00D+00
 Coeff-Com: -0.218D-02 0.333D+00 0.669D+00
 Coeff:     -0.218D-02 0.333D+00 0.669D+00
 Gap=     0.438 Goal=   None    Shift=    0.000
 RMSDP=8.65D-08 MaxDP=1.82D-06 DE=-1.34D-10 OVMax= 3.71D-06

 Cycle   8  Pass 1  IDiag  1:
 E= -76.4243140923174     Delta-E=       -0.000000000048 Rises=F Damp=F
 DIIS: error= 5.20D-07 at cycle   4 NSaved=   4.
 NSaved= 4 IEnMin= 4 EnMin= -76.4243140923174     IErMin= 4 ErrMin= 5.20D-07
 ErrMax= 5.20D-07  0.00D+00 EMaxC= 1.00D-01 BMatC= 5.06D-12 BMatP= 6.39D-11
 IDIUse=1 WtCom= 1.00D+00 WtEn= 0.00D+00
 Coeff-Com: -0.285D-01-0.245D-01 0.205D+00 0.848D+00
 Coeff:     -0.285D-01-0.245D-01 0.205D+00 0.848D+00
 Gap=     0.438 Goal=   None    Shift=    0.000
 RMSDP=3.16D-08 MaxDP=4.41D-07 DE=-4.77D-11 OVMax= 8.36D-07

 Cycle   9  Pass 1  IDiag  1:
 E= -76.4243140923220     Delta-E=       -0.000000000005 Rises=F Damp=F
 DIIS: error= 5.36D-08 at cycle   5 NSaved=   5.
 NSaved= 5 IEnMin= 5 EnMin= -76.4243140923220     IErMin= 5 ErrMin= 5.36D-08
 ErrMax= 5.36D-08  0.00D+00 EMaxC= 1.00D-01 BMatC= 3.05D-14 BMatP= 5.06D-12
 IDIUse=1 WtCom= 1.00D+00 WtEn= 0.00D+00
 Coeff-Com:  0.421D-02-0.388D-02-0.540D-01-0.146D+00 0.120D+01
 Coeff:      0.421D-02-0.388D-02-0.540D-01-0.146D+00 0.120D+01
 Gap=     0.438 Goal=   None    Shift=    0.000
 RMSDP=5.05D-09 MaxDP=9.99D-08 DE=-4.63D-12 OVMax= 2.62D-07

 SCF Done:  E(RBHandHLYP) =  -76.4243140923     A.U. after    9 cycles
            NFock=  9  Conv=0.51D-08     -V/T= 2.0028
 KE= 7.621060396353D+01 PE=-1.994989816832D+02 EE= 3.757361101743D+01
 Leave Link  502 at Fri Aug 27 00:01:34 2021, MaxMem= 17179869184 cpu:        30.4
 (Enter /public3/home/sc51754/softwares/g09e01/l701.exe)
 Compute integral first derivatives.
 ... and contract with generalized density number  0.
 Leave Link  701 at Fri Aug 27 00:01:34 2021, MaxMem= 17179869184 cpu:        47.0
 (Enter /public3/home/sc51754/softwares/g09e01/l702.exe)
 L702 exits ... SP integral derivatives will be done elsewhere.
 Leave Link  702 at Fri Aug 27 00:01:35 2021, MaxMem= 17179869184 cpu:         0.2
 (Enter /public3/home/sc51754/softwares/g09e01/l703.exe)
 Compute integral first derivatives, UseDBF=F ICtDFT=           0.
 Integral derivatives from FoFJK, PRISM(SPDF).
 Calling FoFJK, ICntrl=      2127 FMM=F ISym2X=1 I1Cent= 0 IOpClX= 0 NMat=1 NMatS=1 NMatT=0.
 FoFJK:  IHMeth= 1 ICntrl=    2127 DoSepK=F KAlg= 0 I1Cent=   0 FoldK=F
 IRaf=         0 NMat=   1 IRICut=       1 DoRegI=T DoRafI=F ISym2E= 1.
 FoFCou: FMM=F IPFlag=           0 FMFlag=      100000 FMFlg1=         800
         NFxFlg=           0 DoJE=F BraDBF=F KetDBF=F FulRan=T
         wScrn=  0.000000 ICntrl=    2127 IOpCl=  0 I1Cent=           0 NGrid=           0
         NMat0=    1 NMatS0=      1 NMatT0=    0 NMatD0=    1 NMtDS0=    0 NMtDT0=    0
 Petite list used in FoFCou.
 Leave Link  703 at Fri Aug 27 00:01:35 2021, MaxMem= 17179869184 cpu:        44.1
 (Enter /public3/home/sc51754/softwares/g09e01/l716.exe)
 Dipole        = 3.59356151D-17 0.00000000D+00-7.94700206D-01
 ***** Axes restored to original set *****
 -------------------------------------------------------------------
 Center     Atomic                   Forces (Hartrees/Bohr)
 Number     Number              X              Y              Z
 -------------------------------------------------------------------
      1        8          -0.000872448   -0.001234485    0.000000000
      2        1           0.002012601   -0.000496831   -0.000000000
      3        1          -0.001140154    0.001731316   -0.000000000
 -------------------------------------------------------------------
 Cartesian Forces:  Max     0.002012601 RMS     0.001099491
 Leave Link  716 at Fri Aug 27 00:01:36 2021, MaxMem= 17179869184 cpu:         0.4
 (Enter /public3/home/sc51754/softwares/g09e01/l103.exe)

 GradGradGradGradGradGradGradGradGradGradGradGradGradGradGradGradGradGrad
 Berny optimization.
 Using GEDIIS/GDIIS optimizer.
 FormGI is forming the generalized inverse of G from B-inverse, IUseBI=4.
 Internal  Forces:  Max     0.001994395 RMS     0.001730088
 Search for a local minimum.
 Step number   2 out of a maximum of   20
 All quantities printed in internal units (Hartrees-Bohrs-Radians)
 RMS Force = .17301D-02 SwitMx=.10000D-02 MixMth= 1
 Mixed Optimization -- RFO/linear search
 Update second derivatives using D2CorX and points    1    2
 DE= -6.33D-04 DEPred=-7.08D-04 R= 8.94D-01
 TightC=F SS=  1.41D+00  RLast= 7.63D-02 DXNew= 5.0454D-01 2.2880D-01
 Trust test= 8.94D-01 RLast= 7.63D-02 DXMaxT set to 3.00D-01
 The second derivative matrix:
                          R1        R2        A1
           R1           0.57775
           R2           0.02301   0.57775
           A1           0.01334   0.01334   0.16673
 ITU=  1  0
 Use linear search instead of GDIIS.
     Eigenvalues ---    0.16591   0.55473   0.60158
 RFO step:  Lambda=-1.04932398D-06 EMin= 1.65913573D-01
 Quartic linear search produced a step of -0.10125.
 Iteration  1 RMS(Cart)=  0.00438069 RMS(Int)=  0.00000702
 Iteration  2 RMS(Cart)=  0.00000468 RMS(Int)=  0.00000000
 Iteration  3 RMS(Cart)=  0.00000000 RMS(Int)=  0.00000000
 ITry= 1 IFail=0 DXMaxC= 4.64D-03 DCOld= 1.00D+10 DXMaxT= 3.00D-01 DXLimC= 3.00D+00 Rises=F
 ClnCor:  largest displacement from symmetrization is 2.29D-15 for atom     3.
 Variable       Old X    -DE/DX   Delta X   Delta X   Delta X     New X
                                 (Linear)    (Quad)   (Total)
    R1        1.78978   0.00199   0.00247   0.00069   0.00316   1.79294
    R2        1.78978   0.00199   0.00247   0.00069   0.00316   1.79294
    A1        1.84259   0.00101   0.00689  -0.00180   0.00509   1.84768
         Item               Value     Threshold  Converged?
 Maximum Force            0.001994     0.000450     NO 
 RMS     Force            0.001730     0.000300     NO 
 Maximum Displacement     0.004639     0.001800     NO 
 RMS     Displacement     0.004382     0.001200     NO 
 Predicted change in Energy=-9.168650D-06
 Lowest energy point so far.  Saving SCF results.
 GradGradGradGradGradGradGradGradGradGradGradGradGradGradGradGradGradGrad

 Leave Link  103 at Fri Aug 27 00:01:36 2021, MaxMem= 17179869184 cpu:        31.3
 (Enter /public3/home/sc51754/softwares/g09e01/l202.exe)
                          Input orientation:                          
 ---------------------------------------------------------------------
 Center     Atomic      Atomic             Coordinates (Angstroms)
 Number     Number       Type             X           Y           Z
 ---------------------------------------------------------------------
      1          8           0        0.032433    0.785972    0.000000
      2          1           0        0.980737    0.816068   -0.000000
      3          1           0       -0.255747    1.689929    0.000000
 ---------------------------------------------------------------------
                    Distance matrix (angstroms):
                    1          2          3
     1  O    0.000000
     2  H    0.948781   0.000000
     3  H    0.948781   1.514109   0.000000
 Stoichiometry    H2O
 Framework group  C2V[C2(O),SGV(H2)]
 Deg. of freedom     2
 Full point group                 C2V     NOp   4
 RotChk:  IX=3 Diff= 2.36D-16
 Largest Abelian subgroup         C2V     NOp   4
 Largest concise Abelian subgroup C2      NOp   2
                         Standard orientation:                         
 ---------------------------------------------------------------------
 Center     Atomic      Atomic             Coordinates (Angstroms)
 Number     Number       Type             X           Y           Z
 ---------------------------------------------------------------------
      1          8           0        0.000000   -0.000000    0.114377
      2          1           0        0.000000   -0.757054   -0.457509
      3          1           0        0.000000    0.757054   -0.457509
 ---------------------------------------------------------------------
 Rotational constants (GHZ):    863.2321508    437.4695294    290.3338779
 Leave Link  202 at Fri Aug 27 00:01:37 2021, MaxMem= 17179869184 cpu:         5.6
 (Enter /public3/home/sc51754/softwares/g09e01/l301.exe)
 Basis read from rwf:  (5D, 7F)
 No pseudopotential information found on rwf file.
 There are    27 symmetry adapted cartesian basis functions of A1  symmetry.
 There are     7 symmetry adapted cartesian basis functions of A2  symmetry.
 There are    12 symmetry adapted cartesian basis functions of B1  symmetry.
 There are    19 symmetry adapted cartesian basis functions of B2  symmetry.
 There are    23 symmetry adapted basis functions of A1  symmetry.
 There are     7 symmetry adapted basis functions of A2  symmetry.
 There are    11 symmetry adapted basis functions of B1  symmetry.
 There are    17 symmetry adapted basis functions of B2  symmetry.
    58 basis functions,    91 primitive gaussians,    65 cartesian basis functions
     5 alpha electrons        5 beta electrons
       nuclear repulsion energy         9.2734046667 Hartrees.
 IExCor=  402 DFT=T Ex+Corr=BHandHLYP ExCW=0 ScaHFX=  0.500000
 ScaDFX=  0.500000  0.500000  1.000000  1.000000 ScalE2=  1.000000  1.000000
 IRadAn=      0 IRanWt=     -1 IRanGd=            0 ICorTp=0 IEmpDi=  4
 NAtoms=    3 NActive=    3 NUniq=    2 SFac= 2.25D+00 NAtFMM=   60 NAOKFM=F Big=F
 Integral buffers will be    131072 words long.
 Raffenetti 2 integral format.
 Two-electron integral symmetry is turned on.
 No density basis found on file   724.
 Leave Link  301 at Fri Aug 27 00:01:37 2021, MaxMem= 17179869184 cpu:         0.9
 (Enter /public3/home/sc51754/softwares/g09e01/l302.exe)
 NPDir=0 NMtPBC=     1 NCelOv=     1 NCel=       1 NClECP=     1 NCelD=      1
         NCelK=      1 NCelE2=     1 NClLst=     1 CellRange=     0.0.
 One-electron integrals computed using PRISM.
 One-electron integral symmetry used in STVInt
 NBasis=    58 RedAO= T EigKep=  5.65D-03  NBF=    23     7    11    17
 NBsUse=    58 1.00D-06 EigRej= -1.00D+00 NBFU=    23     7    11    17
 Precomputing XC quadrature grid using
 IXCGrd= 4 IRadAn=           0 IRanWt=          -1 IRanGd=           0 AccXCQ= 0.00D+00.
 Generated NRdTot=       0 NPtTot=           0 NUsed=           0 NTot=          32
 NSgBfM=    65    65    65    65    65 MxSgAt=     3 MxSgA2=     3.
 Leave Link  302 at Fri Aug 27 00:01:38 2021, MaxMem= 17179869184 cpu:        44.8
 (Enter /public3/home/sc51754/softwares/g09e01/l303.exe)
 DipDrv:  MaxL=1.
 Leave Link  303 at Fri Aug 27 00:01:38 2021, MaxMem= 17179869184 cpu:        14.9
 (Enter /public3/home/sc51754/softwares/g09e01/l401.exe)
 Initial guess from the checkpoint file:  "H2O_BHandHLYP_PC2_OPT_FREQ.chk"
 B after Tr=     0.000000   -0.000000    0.000000
         Rot=    1.000000   -0.000000    0.000000   -0.000000 Ang=   0.00 deg.
 Guess basis will be translated and rotated to current coordinates.
 JPrj=2 DoOrth=T DoCkMO=T.
 Initial guess orbital symmetries:
       Occupied  (A1) (A1) (B2) (A1) (B1)
       Virtual   (A1) (A1) (A1) (A1) (A1) (A1) (A1) (A1) (A1) (A1)
                 (A1) (A1) (A1) (A1) (A1) (A1) (A1) (A1) (A1) (A1)
                 (A2) (A2) (A2) (A2) (A2) (A2) (A2) (B1) (B1) (B1)
                 (B1) (B1) (B1) (B1) (B1) (B1) (B1) (B2) (B2) (B2)
                 (B2) (B2) (B2) (B2) (B2) (B2) (B2) (B2) (B2) (B2)
                 (B2) (B2) (B2)
 The electronic state of the initial guess is 1-A1.
 Leave Link  401 at Fri Aug 27 00:01:38 2021, MaxMem= 17179869184 cpu:        16.5
 (Enter /public3/home/sc51754/softwares/g09e01/l502.exe)
 Closed shell SCF:
 Using DIIS extrapolation, IDIIS=  1040.
 Integral symmetry usage will be decided dynamically.
 Keep R1 ints in memory in symmetry-blocked form, NReq=3467901.
 IVT=       35997 IEndB=       35997 NGot= 17179869184 MDV= 17179451308
 LenX= 17179451308 LenY= 17179446642
 Requested convergence on RMS density matrix=1.00D-08 within 128 cycles.
 Requested convergence on MAX density matrix=1.00D-06.
 Requested convergence on             energy=1.00D-06.
 No special actions if energy rises.
 FoFCou: FMM=F IPFlag=           0 FMFlag=           0 FMFlg1=           0
         NFxFlg=           0 DoJE=F BraDBF=F KetDBF=F FulRan=T
         wScrn=  0.000000 ICntrl=     600 IOpCl=  0 I1Cent=           0 NGrid=           0
         NMat0=    1 NMatS0=   1711 NMatT0=    0 NMatD0=    1 NMtDS0=    0 NMtDT0=    0
 Petite list used in FoFCou.

 Cycle   1  Pass 1  IDiag  1:
 E= -76.4243203328567    
 DIIS: error= 3.72D-04 at cycle   1 NSaved=   1.
 NSaved= 1 IEnMin= 1 EnMin= -76.4243203328567     IErMin= 1 ErrMin= 3.72D-04
 ErrMax= 3.72D-04  0.00D+00 EMaxC= 1.00D-01 BMatC= 4.30D-06 BMatP= 4.30D-06
 IDIUse=3 WtCom= 9.96D-01 WtEn= 3.72D-03
 Coeff-Com:  0.100D+01
 Coeff-En:   0.100D+01
 Coeff:      0.100D+01
 Gap=     1.231 Goal=   None    Shift=    0.000
 RMSDP=2.67D-05 MaxDP=3.83D-04              OVMax= 6.39D-04

 Cycle   2  Pass 1  IDiag  1:
 E= -76.4243227578915     Delta-E=       -0.000002425035 Rises=F Damp=F
 DIIS: error= 1.16D-04 at cycle   2 NSaved=   2.
 NSaved= 2 IEnMin= 2 EnMin= -76.4243227578915     IErMin= 2 ErrMin= 1.16D-04
 ErrMax= 1.16D-04  0.00D+00 EMaxC= 1.00D-01 BMatC= 2.94D-07 BMatP= 4.30D-06
 IDIUse=3 WtCom= 9.99D-01 WtEn= 1.16D-03
 Coeff-Com:  0.825D-01 0.918D+00
 Coeff-En:   0.000D+00 0.100D+01
 Coeff:      0.824D-01 0.918D+00
 Gap=     0.438 Goal=   None    Shift=    0.000
 RMSDP=8.29D-06 MaxDP=1.67D-04 DE=-2.43D-06 OVMax= 2.35D-04

 Cycle   3  Pass 1  IDiag  1:
 E= -76.4243228061373     Delta-E=       -0.000000048246 Rises=F Damp=F
 DIIS: error= 9.46D-05 at cycle   3 NSaved=   3.
 NSaved= 3 IEnMin= 3 EnMin= -76.4243228061373     IErMin= 3 ErrMin= 9.46D-05
 ErrMax= 9.46D-05  0.00D+00 EMaxC= 1.00D-01 BMatC= 2.31D-07 BMatP= 2.94D-07
 IDIUse=1 WtCom= 1.00D+00 WtEn= 0.00D+00
 Coeff-Com: -0.162D-01 0.471D+00 0.545D+00
 Coeff:     -0.162D-01 0.471D+00 0.545D+00
 Gap=     0.438 Goal=   None    Shift=    0.000
 RMSDP=3.59D-06 MaxDP=6.61D-05 DE=-4.82D-08 OVMax= 1.18D-04

 Cycle   4  Pass 1  IDiag  1:
 E= -76.4243229580140     Delta-E=       -0.000000151877 Rises=F Damp=F
 DIIS: error= 5.29D-06 at cycle   4 NSaved=   4.
 NSaved= 4 IEnMin= 4 EnMin= -76.4243229580140     IErMin= 4 ErrMin= 5.29D-06
 ErrMax= 5.29D-06  0.00D+00 EMaxC= 1.00D-01 BMatC= 7.37D-10 BMatP= 2.31D-07
 IDIUse=1 WtCom= 1.00D+00 WtEn= 0.00D+00
 Coeff-Com: -0.452D-02 0.340D-01 0.750D-01 0.896D+00
 Coeff:     -0.452D-02 0.340D-01 0.750D-01 0.896D+00
 Gap=     0.438 Goal=   None    Shift=    0.000
 RMSDP=4.77D-07 MaxDP=8.48D-06 DE=-1.52D-07 OVMax= 1.13D-05

 Cycle   5  Pass 1  IDiag  1:
 E= -76.4243229587308     Delta-E=       -0.000000000717 Rises=F Damp=F
 DIIS: error= 1.23D-06 at cycle   5 NSaved=   5.
 NSaved= 5 IEnMin= 5 EnMin= -76.4243229587308     IErMin= 5 ErrMin= 1.23D-06
 ErrMax= 1.23D-06  0.00D+00 EMaxC= 1.00D-01 BMatC= 2.01D-11 BMatP= 7.37D-10
 IDIUse=1 WtCom= 1.00D+00 WtEn= 0.00D+00
 Coeff-Com:  0.700D-03-0.190D-01-0.200D-01 0.216D-01 0.102D+01
 Coeff:      0.700D-03-0.190D-01-0.200D-01 0.216D-01 0.102D+01
 Gap=     0.438 Goal=   None    Shift=    0.000
 RMSDP=1.08D-07 MaxDP=1.43D-06 DE=-7.17D-10 OVMax= 4.81D-06

 Cycle   6  Pass 1  IDiag  1:
 E= -76.4243229587706     Delta-E=       -0.000000000040 Rises=F Damp=F
 DIIS: error= 1.89D-07 at cycle   6 NSaved=   6.
 NSaved= 6 IEnMin= 6 EnMin= -76.4243229587706     IErMin= 6 ErrMin= 1.89D-07
 ErrMax= 1.89D-07  0.00D+00 EMaxC= 1.00D-01 BMatC= 4.86D-13 BMatP= 2.01D-11
 IDIUse=1 WtCom= 1.00D+00 WtEn= 0.00D+00
 Coeff-Com: -0.364D-04 0.253D-02 0.227D-02-0.228D-01-0.204D+00 0.122D+01
 Coeff:     -0.364D-04 0.253D-02 0.227D-02-0.228D-01-0.204D+00 0.122D+01
 Gap=     0.438 Goal=   None    Shift=    0.000
 RMSDP=2.03D-08 MaxDP=3.51D-07 DE=-3.98D-11 OVMax= 1.07D-06

 Cycle   7  Pass 1  IDiag  1:
 E= -76.4243229587722     Delta-E=       -0.000000000002 Rises=F Damp=F
 DIIS: error= 1.26D-08 at cycle   7 NSaved=   7.
 NSaved= 7 IEnMin= 7 EnMin= -76.4243229587722     IErMin= 7 ErrMin= 1.26D-08
 ErrMax= 1.26D-08  0.00D+00 EMaxC= 1.00D-01 BMatC= 3.52D-15 BMatP= 4.86D-13
 IDIUse=1 WtCom= 1.00D+00 WtEn= 0.00D+00
 Coeff-Com: -0.581D-05-0.901D-04-0.441D-04 0.326D-02 0.166D-01-0.184D+00
 Coeff-Com:  0.116D+01
 Coeff:     -0.581D-05-0.901D-04-0.441D-04 0.326D-02 0.166D-01-0.184D+00
 Coeff:      0.116D+01
 Gap=     0.438 Goal=   None    Shift=    0.000
 RMSDP=3.70D-09 MaxDP=6.82D-08 DE=-1.62D-12 OVMax= 7.56D-08

 SCF Done:  E(RBHandHLYP) =  -76.4243229588     A.U. after    7 cycles
            NFock=  7  Conv=0.37D-08     -V/T= 2.0029
 KE= 7.620378276557D+01 PE=-1.994629119246D+02 EE= 3.756140153349D+01
 Leave Link  502 at Fri Aug 27 00:01:39 2021, MaxMem= 17179869184 cpu:        33.7
 (Enter /public3/home/sc51754/softwares/g09e01/l701.exe)
 Compute integral first derivatives.
 ... and contract with generalized density number  0.
 Leave Link  701 at Fri Aug 27 00:01:40 2021, MaxMem= 17179869184 cpu:        59.5
 (Enter /public3/home/sc51754/softwares/g09e01/l702.exe)
 L702 exits ... SP integral derivatives will be done elsewhere.
 Leave Link  702 at Fri Aug 27 00:01:40 2021, MaxMem= 17179869184 cpu:         0.4
 (Enter /public3/home/sc51754/softwares/g09e01/l703.exe)
 Compute integral first derivatives, UseDBF=F ICtDFT=           0.
 Integral derivatives from FoFJK, PRISM(SPDF).
 Calling FoFJK, ICntrl=      2127 FMM=F ISym2X=1 I1Cent= 0 IOpClX= 0 NMat=1 NMatS=1 NMatT=0.
 FoFJK:  IHMeth= 1 ICntrl=    2127 DoSepK=F KAlg= 0 I1Cent=   0 FoldK=F
 IRaf=         0 NMat=   1 IRICut=       1 DoRegI=T DoRafI=F ISym2E= 1.
 FoFCou: FMM=F IPFlag=           0 FMFlag=      100000 FMFlg1=         800
         NFxFlg=           0 DoJE=F BraDBF=F KetDBF=F FulRan=T
         wScrn=  0.000000 ICntrl=    2127 IOpCl=  0 I1Cent=           0 NGrid=           0
         NMat0=    1 NMatS0=      1 NMatT0=    0 NMatD0=    1 NMtDS0=    0 NMtDT0=    0
 Petite list used in FoFCou.
 Leave Link  703 at Fri Aug 27 00:01:42 2021, MaxMem= 17179869184 cpu:        47.0
 (Enter /public3/home/sc51754/softwares/g09e01/l716.exe)
 Dipole        = 3.63161995D-17 0.00000000D+00-7.93414206D-01
 ***** Axes restored to original set *****
 -------------------------------------------------------------------
 Center     Atomic                   Forces (Hartrees/Bohr)
 Number     Number              X              Y              Z
 -------------------------------------------------------------------
      1        8          -0.000003129   -0.000004428    0.000000000
      2        1           0.000002745    0.000001380   -0.000000000
      3        1           0.000000384    0.000003048   -0.000000000
 -------------------------------------------------------------------
 Cartesian Forces:  Max     0.000004428 RMS     0.000002316
 Leave Link  716 at Fri Aug 27 00:01:42 2021, MaxMem= 17179869184 cpu:         0.3
 (Enter /public3/home/sc51754/softwares/g09e01/l103.exe)

 GradGradGradGradGradGradGradGradGradGradGradGradGradGradGradGradGradGrad
 Berny optimization.
 Using GEDIIS/GDIIS optimizer.
 FormGI is forming the generalized inverse of G from B-inverse, IUseBI=4.
 Internal  Forces:  Max     0.000002787 RMS     0.000002640
 Search for a local minimum.
 Step number   3 out of a maximum of   20
 All quantities printed in internal units (Hartrees-Bohrs-Radians)
 RMS Force = .26396D-05 SwitMx=.10000D-02 MixMth= 2
 Mixed Optimization -- En-DIIS/RFO-DIIS
 Update second derivatives using D2CorX and points    1    2    3
 DE= -8.87D-06 DEPred=-9.17D-06 R= 9.67D-01
 TightC=F SS=  1.41D+00  RLast= 6.78D-03 DXNew= 5.0454D-01 2.0326D-02
 Trust test= 9.67D-01 RLast= 6.78D-03 DXMaxT set to 3.00D-01
 The second derivative matrix:
                          R1        R2        A1
           R1           0.57600
           R2           0.02126   0.57600
           A1           0.02049   0.02049   0.17377
 ITU=  1  1  0
 Use linear search instead of GDIIS.
     Eigenvalues ---    0.17179   0.55473   0.59924
 RFO step:  Lambda= 0.00000000D+00 EMin= 1.71791558D-01
 Quartic linear search produced a step of  0.00033.
 Iteration  1 RMS(Cart)=  0.00000706 RMS(Int)=  0.00000000
 Iteration  2 RMS(Cart)=  0.00000000 RMS(Int)=  0.00000000
 ITry= 1 IFail=0 DXMaxC= 7.35D-06 DCOld= 1.00D+10 DXMaxT= 3.00D-01 DXLimC= 3.00D+00 Rises=F
 ClnCor:  largest displacement from symmetrization is 1.34D-15 for atom     3.
 Variable       Old X    -DE/DX   Delta X   Delta X   Delta X     New X
                                 (Linear)    (Quad)   (Total)
    R1        1.79294   0.00000   0.00000   0.00000   0.00001   1.79294
    R2        1.79294   0.00000   0.00000   0.00000   0.00001   1.79294
    A1        1.84768  -0.00000   0.00000  -0.00002  -0.00001   1.84767
         Item               Value     Threshold  Converged?
 Maximum Force            0.000003     0.000450     YES
 RMS     Force            0.000003     0.000300     YES
 Maximum Displacement     0.000007     0.001800     YES
 RMS     Displacement     0.000007     0.001200     YES
 Predicted change in Energy=-3.124730D-11
 Optimization completed.
    -- Stationary point found.
                           ----------------------------
                           !   Optimized Parameters   !
                           ! (Angstroms and Degrees)  !
 --------------------------                            --------------------------
 ! Name  Definition              Value          Derivative Info.                !
 --------------------------------------------------------------------------------
 ! R1    R(1,2)                  0.9488         -DE/DX =    0.0                 !
 ! R2    R(1,3)                  0.9488         -DE/DX =    0.0                 !
 ! A1    A(2,1,3)              105.8645         -DE/DX =    0.0                 !
 --------------------------------------------------------------------------------
 Lowest energy point so far.  Saving SCF results.
 GradGradGradGradGradGradGradGradGradGradGradGradGradGradGradGradGradGrad

 Largest change from initial coordinates is atom    2       0.030 Angstoms.
 Leave Link  103 at Fri Aug 27 00:01:42 2021, MaxMem= 17179869184 cpu:        24.1
 (Enter /public3/home/sc51754/softwares/g09e01/l202.exe)
                          Input orientation:                          
 ---------------------------------------------------------------------
 Center     Atomic      Atomic             Coordinates (Angstroms)
 Number     Number       Type             X           Y           Z
 ---------------------------------------------------------------------
      1          8           0        0.032433    0.785972    0.000000
      2          1           0        0.980737    0.816068   -0.000000
      3          1           0       -0.255747    1.689929    0.000000
 ---------------------------------------------------------------------
                    Distance matrix (angstroms):
                    1          2          3
     1  O    0.000000
     2  H    0.948781   0.000000
     3  H    0.948781   1.514109   0.000000
 Stoichiometry    H2O
 Framework group  C2V[C2(O),SGV(H2)]
 Deg. of freedom     2
 Full point group                 C2V     NOp   4
 RotChk:  IX=3 Diff= 5.50D-16
 Largest Abelian subgroup         C2V     NOp   4
 Largest concise Abelian subgroup C2      NOp   2
                         Standard orientation:                         
 ---------------------------------------------------------------------
 Center     Atomic      Atomic             Coordinates (Angstroms)
 Number     Number       Type             X           Y           Z
 ---------------------------------------------------------------------
      1          8           0       -0.000000    0.000000    0.114377
      2          1           0        0.000000   -0.757054   -0.457509
      3          1           0        0.000000    0.757054   -0.457509
 ---------------------------------------------------------------------
 Rotational constants (GHZ):    863.2321508    437.4695294    290.3338779
 Leave Link  202 at Fri Aug 27 00:01:42 2021, MaxMem= 17179869184 cpu:         8.5
 (Enter /public3/home/sc51754/softwares/g09e01/l601.exe)
 Copying SCF densities to generalized density rwf, IOpCl= 0 IROHF=0.

 **********************************************************************

            Population analysis using the SCF density.

 **********************************************************************

 Orbital symmetries:
       Occupied  (A1) (A1) (B2) (A1) (B1)
       Virtual   (A1) (B2) (A1) (B2) (B1) (A1) (B2) (A1) (A2) (A1)
                 (B1) (B2) (B2) (A1) (A1) (B2) (B1) (A2) (A1) (A1)
                 (B2) (B1) (A1) (B1) (B2) (A1) (A2) (B2) (B1) (B2)
                 (A1) (A2) (A1) (B2) (B1) (A2) (A1) (B2) (B2) (A1)
                 (B1) (A1) (B1) (B2) (A2) (B1) (A1) (A2) (A1) (A1)
                 (B2) (B2) (A1)
 The electronic state is 1-A1.
 Alpha  occ. eigenvalues --  -19.67966  -1.15557  -0.62002  -0.47299  -0.39990
 Alpha virt. eigenvalues --    0.03805   0.09326   0.32703   0.33080   0.38379
 Alpha virt. eigenvalues --    0.39284   0.50461   0.74089   0.82829   0.86181
 Alpha virt. eigenvalues --    0.93931   1.10505   1.23939   1.28820   1.52811
 Alpha virt. eigenvalues --    1.55550   1.85440   1.92815   1.95583   2.17873
 Alpha virt. eigenvalues --    2.20255   2.40297   3.02908   3.49100   3.52092
 Alpha virt. eigenvalues --    3.63378   3.69061   3.85041   3.91829   3.98350
 Alpha virt. eigenvalues --    4.12728   4.16967   4.41281   4.50633   4.58949
 Alpha virt. eigenvalues --    4.62807   4.77736   4.95868   5.02000   5.07111
 Alpha virt. eigenvalues --    5.12162   5.75332   6.09483   6.17363   6.30118
 Alpha virt. eigenvalues --    6.40995   6.42988   6.51908   6.52134   7.06597
 Alpha virt. eigenvalues --    7.14067   7.60586  15.37121
          Condensed to atoms (all electrons):
               1          2          3
     1  O    7.681531   0.369904   0.369904
     2  H    0.369904   0.445245  -0.025820
     3  H    0.369904  -0.025820   0.445245
 Mulliken charges:
               1
     1  O   -0.421340
     2  H    0.210670
     3  H    0.210670
 Sum of Mulliken charges =  -0.00000
 Mulliken charges with hydrogens summed into heavy atoms:
               1
     1  O   -0.000000
 Electronic spatial extent (au):  <R**2>=             19.4857
 Charge=             -0.0000 electrons
 Dipole moment (field-independent basis, Debye):
    X=              0.0000    Y=              0.0000    Z=             -2.0167  Tot=              2.0167
 Quadrupole moment (field-independent basis, Debye-Ang):
   XX=             -7.5585   YY=             -4.2889   ZZ=             -6.3424
   XY=              0.0000   XZ=             -0.0000   YZ=             -0.0000
 Traceless Quadrupole moment (field-independent basis, Debye-Ang):
   XX=             -1.4952   YY=              1.7743   ZZ=             -0.2791
   XY=              0.0000   XZ=             -0.0000   YZ=             -0.0000
 Octapole moment (field-independent basis, Debye-Ang**2):
  XXX=             -0.0000  YYY=             -0.0000  ZZZ=             -1.3082  XYY=              0.0000
  XXY=              0.0000  XXZ=             -0.3509  XZZ=             -0.0000  YZZ=              0.0000
  YYZ=             -1.3486  XYZ=             -0.0000
 Hexadecapole moment (field-independent basis, Debye-Ang**3):
 XXXX=             -6.7084 YYYY=             -6.0385 ZZZZ=             -7.2379 XXXY=             -0.0000
 XXXZ=              0.0000 YYYX=             -0.0000 YYYZ=             -0.0000 ZZZX=              0.0000
 ZZZY=             -0.0000 XXYY=             -2.4361 XXZZ=             -2.3743 YYZZ=             -1.9068
 XXYZ=              0.0000 YYXZ=             -0.0000 ZZXY=             -0.0000
 N-N= 9.273404666750D+00 E-N=-1.994629118663D+02  KE= 7.620378276557D+01
 Symmetry A1   KE= 6.798490351672D+01
 Symmetry A2   KE=-2.235449726754D-20
 Symmetry B1   KE= 4.540694077602D+00
 Symmetry B2   KE= 3.678185171250D+00
 No NMR shielding tensors so no spin-rotation constants.
 Leave Link  601 at Fri Aug 27 00:01:44 2021, MaxMem= 17179869184 cpu:        75.7
 (Enter /public3/home/sc51754/softwares/g09e01/l9999.exe)
 1\1\GINC-P2607\FOpt\RBHandHLYP\Gen\H2O1\SC51754\27-Aug-2021\0\\#p opt 
 freq BHandHLYP/gen\\H2O_BHandHLYP_PC2_OPT_FREQ\\0,1\O,0.0324334668,0.7
 859721526,0.\H,0.9807372063,0.8160681722,0.\H,-0.2557470552,1.68992886
 58,0.\\Version=EM64L-G09RevE.01\State=1-A1\HF=-76.424323\RMSD=3.700e-0
 9\RMSF=2.316e-06\Dipole=0.4579152,0.647935,0.\Quadrupole=0.8106379,0.3
 010197,-1.1116575,-0.7195587,0.,0.\PG=C02V [C2(O1),SGV(H2)]\\@


 TOM, TOM, THE BURGLAR'S SON
 STOLE A MACHINE AND AWAY HE RUN
 THE JOB WAS NEAT, BUT TOM GOT BEAT
 BY THE TIME HE GOT HOME IT WAS OBSOLETE.
 Leave Link 9999 at Fri Aug 27 00:01:44 2021, MaxMem= 17179869184 cpu:         1.8
 Job cpu time:       0 days  0 hours 18 minutes  9.2 seconds.
 File lengths (MBytes):  RWF=      5 Int=      0 D2E=      0 Chk=      1 Scr=      1
 Normal termination of Gaussian 09 at Fri Aug 27 00:01:44 2021.
 (Enter /public3/home/sc51754/softwares/g09e01/l1.exe)
 Link1:  Proceeding to internal job step number  2.
 ----------------------------------------------------------------------
 #P Geom=AllCheck Guess=TCheck SCRF=Check GenChk RBHandHLYP/ChkBas Freq
 ----------------------------------------------------------------------
 1/10=4,29=7,30=1,38=1,40=1/1,3;
 2/12=2,40=1/2;
 3/5=7,6=2,11=2,14=-4,16=1,25=1,30=1,67=1,70=2,71=2,74=-3,82=7,116=1,140=1/1,2,3;
 4/5=101/1;
 5/5=2,38=6,98=1/2;
 8/6=4,10=90,11=11/1;
 11/6=1,8=1,9=11,15=111,16=1/1,2,10;
 10/6=1/2;
 6/7=2,8=2,9=2,10=2,18=1,28=1/1;
 7/8=1,10=1,25=1/1,2,3,16;
 1/10=4,30=1/3;
 99//99;
 Leave Link    1 at Fri Aug 27 00:01:44 2021, MaxMem= 17179869184 cpu:         1.0
 (Enter /public3/home/sc51754/softwares/g09e01/l101.exe)
 Structure from the checkpoint file:  "H2O_BHandHLYP_PC2_OPT_FREQ.chk"
 --------------------------
 H2O_BHandHLYP_PC2_OPT_FREQ
 --------------------------
 Charge =  0 Multiplicity = 1
 Redundant internal coordinates found in file.
 O,0,0.0324334668,0.7859721526,0.
 H,0,0.9807372063,0.8160681722,0.
 H,0,-0.2557470552,1.6899288658,0.
 Recover connectivity data from disk.
 NAtoms=      3 NQM=        3 NQMF=       0 NMMI=      0 NMMIF=      0
                NMic=       0 NMicF=      0.
                    Isotopes and Nuclear Properties:
 (Nuclear quadrupole moments (NQMom) in fm**2, nuclear magnetic moments (NMagM)
  in nuclear magnetons)

  Atom         1           2           3
 IAtWgt=          16           1           1
 AtmWgt=  15.9949146   1.0078250   1.0078250
 NucSpn=           0           1           1
 AtZEff=  -5.6000000  -1.0000000  -1.0000000
 NQMom=    0.0000000   0.0000000   0.0000000
 NMagM=    0.0000000   2.7928460   2.7928460
 AtZNuc=   8.0000000   1.0000000   1.0000000
 Leave Link  101 at Fri Aug 27 00:01:45 2021, MaxMem= 17179869184 cpu:         7.2
 (Enter /public3/home/sc51754/softwares/g09e01/l103.exe)

 GradGradGradGradGradGradGradGradGradGradGradGradGradGradGradGradGradGrad
 Berny optimization.
 Initialization pass.
                           ----------------------------
                           !    Initial Parameters    !
                           ! (Angstroms and Degrees)  !
 --------------------------                            --------------------------
 ! Name  Definition              Value          Derivative Info.                !
 --------------------------------------------------------------------------------
 ! R1    R(1,2)                  0.9488         calculate D2E/DX2 analytically  !
 ! R2    R(1,3)                  0.9488         calculate D2E/DX2 analytically  !
 ! A1    A(2,1,3)              105.8645         calculate D2E/DX2 analytically  !
 --------------------------------------------------------------------------------
 Trust Radius=3.00D-01 FncErr=1.00D-07 GrdErr=1.00D-07
 Number of steps in this run=      2 maximum allowed number of steps=      2.
 GradGradGradGradGradGradGradGradGradGradGradGradGradGradGradGradGradGrad

 Leave Link  103 at Fri Aug 27 00:01:45 2021, MaxMem= 17179869184 cpu:         0.1
 (Enter /public3/home/sc51754/softwares/g09e01/l202.exe)
                          Input orientation:                          
 ---------------------------------------------------------------------
 Center     Atomic      Atomic             Coordinates (Angstroms)
 Number     Number       Type             X           Y           Z
 ---------------------------------------------------------------------
      1          8           0        0.032433    0.785972    0.000000
      2          1           0        0.980737    0.816068   -0.000000
      3          1           0       -0.255747    1.689929    0.000000
 ---------------------------------------------------------------------
                    Distance matrix (angstroms):
                    1          2          3
     1  O    0.000000
     2  H    0.948781   0.000000
     3  H    0.948781   1.514109   0.000000
 Stoichiometry    H2O
 Framework group  C2V[C2(O),SGV(H2)]
 Deg. of freedom     2
 Full point group                 C2V     NOp   4
 RotChk:  IX=3 Diff= 1.57D-16
 Largest Abelian subgroup         C2V     NOp   4
 Largest concise Abelian subgroup C2      NOp   2
                         Standard orientation:                         
 ---------------------------------------------------------------------
 Center     Atomic      Atomic             Coordinates (Angstroms)
 Number     Number       Type             X           Y           Z
 ---------------------------------------------------------------------
      1          8           0        0.000000   -0.000000    0.114377
      2          1           0        0.000000   -0.757054   -0.457509
      3          1           0        0.000000    0.757054   -0.457509
[...]
      3 vectors produced by pass  6 Test12= 2.94D-15 1.11D-08 XBig12= 4.41D-13 2.31D-07.
 InvSVY:  IOpt=1 It=  1 EMax= 2.22D-16
 Solved reduced A of dimension    56 with     9 vectors.
 FullF1:  Do perturbations    1 to     9.
 Isotropic polarizability for W=    0.000000        7.03 Bohr**3.
 End of Minotr F.D. properties file   721 does not exist.
 End of Minotr F.D. properties file   722 does not exist.
 End of Minotr F.D. properties file   788 does not exist.
 Leave Link 1002 at Fri Aug 27 00:01:51 2021, MaxMem= 17179869184 cpu:        46.8
 (Enter /public3/home/sc51754/softwares/g09e01/l601.exe)
 Copying SCF densities to generalized density rwf, IOpCl= 0 IROHF=0.

 **********************************************************************

            Population analysis using the SCF density.

 **********************************************************************

 Orbital symmetries:
       Occupied  (A1) (A1) (B2) (A1) (B1)
       Virtual   (A1) (B2) (A1) (B2) (B1) (A1) (B2) (A1) (A2) (A1)
                 (B1) (B2) (B2) (A1) (A1) (B2) (B1) (A2) (A1) (A1)
                 (B2) (B1) (A1) (B1) (B2) (A1) (A2) (B2) (B1) (B2)
                 (A1) (A2) (A1) (B2) (B1) (A2) (A1) (B2) (B2) (A1)
                 (B1) (A1) (B1) (B2) (A2) (B1) (A1) (A2) (A1) (A1)
                 (B2) (B2) (A1)
 The electronic state is 1-A1.
 Alpha  occ. eigenvalues --  -19.67966  -1.15557  -0.62002  -0.47299  -0.39990
 Alpha virt. eigenvalues --    0.03805   0.09326   0.32703   0.33080   0.38379
 Alpha virt. eigenvalues --    0.39284   0.50461   0.74089   0.82829   0.86181
 Alpha virt. eigenvalues --    0.93931   1.10505   1.23939   1.28820   1.52811
 Alpha virt. eigenvalues --    1.55550   1.85440   1.92815   1.95583   2.17873
 Alpha virt. eigenvalues --    2.20255   2.40297   3.02908   3.49100   3.52092
 Alpha virt. eigenvalues --    3.63378   3.69061   3.85041   3.91829   3.98350
 Alpha virt. eigenvalues --    4.12728   4.16967   4.41281   4.50633   4.58949
 Alpha virt. eigenvalues --    4.62807   4.77736   4.95868   5.02000   5.07111
 Alpha virt. eigenvalues --    5.12162   5.75332   6.09483   6.17363   6.30118
 Alpha virt. eigenvalues --    6.40995   6.42988   6.51908   6.52134   7.06597
 Alpha virt. eigenvalues --    7.14067   7.60586  15.37121
          Condensed to atoms (all electrons):
               1          2          3
     1  O    7.681531   0.369904   0.369904
     2  H    0.369904   0.445245  -0.025820
     3  H    0.369904  -0.025820   0.445245
 Mulliken charges:
               1
     1  O   -0.421340
     2  H    0.210670
     3  H    0.210670
 Sum of Mulliken charges =   0.00000
 Mulliken charges with hydrogens summed into heavy atoms:
               1
     1  O    0.000000
 APT charges:
               1
     1  O   -0.562226
     2  H    0.281113
     3  H    0.281113
 Sum of APT charges =  -0.00000
 APT charges with hydrogens summed into heavy atoms:
               1
     1  O   -0.000000
 Electronic spatial extent (au):  <R**2>=             19.4857
 Charge=              0.0000 electrons
 Dipole moment (field-independent basis, Debye):
    X=              0.0000    Y=             -0.0000    Z=             -2.0167  Tot=              2.0167
 Quadrupole moment (field-independent basis, Debye-Ang):
   XX=             -7.5585   YY=             -4.2889   ZZ=             -6.3424
   XY=              0.0000   XZ=             -0.0000   YZ=              0.0000
 Traceless Quadrupole moment (field-independent basis, Debye-Ang):
   XX=             -1.4952   YY=              1.7743   ZZ=             -0.2791
   XY=              0.0000   XZ=             -0.0000   YZ=              0.0000
 Octapole moment (field-independent basis, Debye-Ang**2):
  XXX=             -0.0000  YYY=             -0.0000  ZZZ=             -1.3082  XYY=              0.0000
  XXY=              0.0000  XXZ=             -0.3509  XZZ=             -0.0000  YZZ=             -0.0000
  YYZ=             -1.3486  XYZ=             -0.0000
 Hexadecapole moment (field-independent basis, Debye-Ang**3):
 XXXX=             -6.7084 YYYY=             -6.0385 ZZZZ=             -7.2379 XXXY=             -0.0000
 XXXZ=              0.0000 YYYX=             -0.0000 YYYZ=              0.0000 ZZZX=              0.0000
 ZZZY=             -0.0000 XXYY=             -2.4361 XXZZ=             -2.3743 YYZZ=             -1.9068
 XXYZ=             -0.0000 YYXZ=             -0.0000 ZZXY=             -0.0000
 N-N= 9.273404666750D+00 E-N=-1.994629119021D+02  KE= 7.620378278360D+01
 Symmetry A1   KE= 6.798490352387D+01
 Symmetry A2   KE=-1.229740579338D-19
 Symmetry B1   KE= 4.540694078241D+00
 Symmetry B2   KE= 3.678185181491D+00
  Exact polarizability:   5.974   0.000   8.128  -0.000   0.000   7.002
 Approx polarizability:   5.716   0.000   8.715  -0.000  -0.000   7.329
 No NMR shielding tensors so no spin-rotation constants.
 Leave Link  601 at Fri Aug 27 00:01:52 2021, MaxMem= 17179869184 cpu:        79.9
 (Enter /public3/home/sc51754/softwares/g09e01/l701.exe)
 Compute integral second derivatives.
 ... and contract with generalized density number  0.
 Leave Link  701 at Fri Aug 27 00:01:54 2021, MaxMem= 17179869184 cpu:        59.6
 (Enter /public3/home/sc51754/softwares/g09e01/l702.exe)
 L702 exits ... SP integral derivatives will be done elsewhere.
 Leave Link  702 at Fri Aug 27 00:01:54 2021, MaxMem= 17179869184 cpu:         0.3
 (Enter /public3/home/sc51754/softwares/g09e01/l703.exe)
 Compute integral second derivatives, UseDBF=F ICtDFT=           0.
 Integral derivatives from FoFJK, PRISM(SPDF).
 Calling FoFJK, ICntrl=    100127 FMM=F ISym2X=1 I1Cent= 0 IOpClX= 0 NMat=1 NMatS=1 NMatT=0.
 FoFJK:  IHMeth= 1 ICntrl=  100127 DoSepK=F KAlg= 0 I1Cent=   0 FoldK=F
 IRaf=         0 NMat=   1 IRICut=       1 DoRegI=T DoRafI=F ISym2E= 1.
 FoFCou: FMM=F IPFlag=           0 FMFlag=      100000 FMFlg1=         800
         NFxFlg=           0 DoJE=F BraDBF=F KetDBF=F FulRan=T
         wScrn=  0.000000 ICntrl=  100127 IOpCl=  0 I1Cent=           0 NGrid=           0
         NMat0=    1 NMatS0=      1 NMatT0=    0 NMatD0=    1 NMtDS0=    0 NMtDT0=    0
 Petite list used in FoFCou.
 Leave Link  703 at Fri Aug 27 00:01:55 2021, MaxMem= 17179869184 cpu:        62.7
 (Enter /public3/home/sc51754/softwares/g09e01/l716.exe)
 Dipole        = 3.63161997D-17-3.85488082D-16-7.93414208D-01
 Polarizability= 5.97363170D+00 2.18040083D-10 8.12802322D+00
                -1.35179136D-10 9.01825949D-09 7.00198225D+00
 Full mass-weighted force constant matrix:
 Low frequencies ---  -40.7027  -26.7072   -4.3712   -0.0023   -0.0012   -0.0006
 Low frequencies --- 1672.3672 3977.6207 4080.7156
 Diagonal vibrational polarizability:
        0.0000000       0.1203916       0.8198577
 Harmonic frequencies (cm**-1), IR intensities (KM/Mole), Raman scattering
 activities (A**4/AMU), depolarization ratios for plane and unpolarized
 incident light, reduced masses (AMU), force constants (mDyne/A),
 and normal coordinates:
                      1                      2                      3
                     A1                     A1                     B2
 Frequencies --   1672.3672              3977.6207              4080.7156
 Red. masses --      1.0833                 1.0446                 1.0832
 Frc consts  --      1.7852                 9.7370                10.6276
 IR Inten    --     83.0907                11.9647                74.4965
  Atom  AN      X      Y      Z        X      Y      Z        X      Y      Z
     1   8     0.00   0.00  -0.07     0.00   0.00  -0.05    -0.00  -0.07  -0.00
     2   1    -0.00  -0.42   0.56     0.00   0.59   0.39     0.00   0.56   0.43
     3   1    -0.00   0.42   0.56    -0.00  -0.59   0.39     0.00   0.56  -0.43

 -------------------
 - Thermochemistry -
 -------------------
 Temperature   298.150 Kelvin.  Pressure   1.00000 Atm.
 Atom     1 has atomic number  8 and mass  15.99491
 Atom     2 has atomic number  1 and mass   1.00783
 Atom     3 has atomic number  1 and mass   1.00783
 Molecular mass:    18.01056 amu.
 Principal axes and moments of inertia in atomic units:
                           1         2         3
     Eigenvalues --     2.09068   4.12541   6.21609
           X            0.00000  -0.00000   1.00000
           Y            1.00000  -0.00000  -0.00000
           Z            0.00000   1.00000   0.00000
 This molecule is an asymmetric top.
 Rotational symmetry number  2.
 Rotational temperatures (Kelvin)     41.42856    20.99520    13.93381
 Rotational constants (GHZ):         863.23215   437.46953   290.33388
 Zero-point vibrational energy      58202.5 (Joules/Mol)
                                   13.91074 (Kcal/Mol)
 Vibrational temperatures:   2406.16  5722.90  5871.23
          (Kelvin)
 
 Zero-point correction=                           0.022168 (Hartree/Particle)
 Thermal correction to Energy=                    0.025003
 Thermal correction to Enthalpy=                  0.025947
 Thermal correction to Gibbs Free Energy=         0.004568
 Sum of electronic and zero-point Energies=            -76.402155
 Sum of electronic and thermal Energies=               -76.399320
 Sum of electronic and thermal Enthalpies=             -76.398376
 Sum of electronic and thermal Free Energies=          -76.419755
 
                     E (Thermal)             CV                S
                      KCal/Mol        Cal/Mol-Kelvin    Cal/Mol-Kelvin
 Total                   15.690              6.002             44.996
 Electronic               0.000              0.000              0.000
 Translational            0.889              2.981             34.608
 Rotational               0.889              2.981             10.382
 Vibrational             13.912              0.041              0.006
                       Q            Log10(Q)             Ln(Q)
 Total Bot       0.791961D-02         -2.101296         -4.838413
 Total V=0       0.124547D+09          8.095334         18.640196
 Vib (Bot)       0.636071D-10        -10.196495        -23.478296
 Vib (V=0)       0.100031D+01          0.000136          0.000313
 Electronic      0.100000D+01          0.000000          0.000000
 Translational   0.300432D+07          6.477746         14.915562
 Rotational      0.414431D+02          1.617452          3.724321
 
                                                      H2O_BHandHLYP_PC2_OPT_FREQ
                                                             IR Spectrum
 
     4   3                                                                      1                                                    
     0   9                                                                      6                                                    
     8   7                                                                      7                                                    
     1   8                                                                      2                                                    
 
     X   X                                                                      X                                                    
     X   X                                                                      X                                                    
     X   X                                                                      X                                                    
     X                                                                          X                                                    
     X                                                                          X                                                    
     X                                                                          X                                                    
     X                                                                          X                                                    
     X                                                                          X                                                    
     X                                                                          X                                                    
     X                                                                          X                                                    
     X                                                                          X                                                    
     X                                                                          X                                                    
     X                                                                          X                                                    
     X                                                                          X                                                    
     X                                                                          X                                                    
     X                                                                          X                                                    
     X                                                                          X                                                    
     X                                                                          X                                                    
                                                                                X                                                    
                                                                                X                                                    
 
 ***** Axes restored to original set *****
 -------------------------------------------------------------------
 Center     Atomic                   Forces (Hartrees/Bohr)
 Number     Number              X              Y              Z
 -------------------------------------------------------------------
      1        8          -0.000003130   -0.000004428    0.000000000
      2        1           0.000002746    0.000001380    0.000000000
      3        1           0.000000384    0.000003049   -0.000000000
 -------------------------------------------------------------------
 Cartesian Forces:  Max     0.000004428 RMS     0.000002316
 Force constants in Cartesian coordinates: 
                1             2             3             4             5 
      1  0.660912D+00
      2 -0.124115D+00  0.573009D+00
      3  0.000000D+00  0.000000D+00 -0.483190D-04
      4 -0.567898D+00  0.886314D-02  0.000000D+00  0.583924D+00
      5 -0.529134D-01 -0.490628D-01  0.000000D+00  0.444014D-03  0.498043D-01
      6  0.000000D+00  0.000000D+00  0.241595D-04  0.000000D+00  0.000000D+00
      7 -0.930142D-01  0.115252D+00  0.000000D+00 -0.160260D-01  0.524694D-01
      8  0.177028D+00 -0.523946D+00  0.000000D+00 -0.930716D-02 -0.741467D-03
      9  0.000000D+00  0.000000D+00  0.241595D-04  0.000000D+00  0.000000D+00
                6             7             8             9 
      6 -0.436730D-04
      7  0.000000D+00  0.109040D+00
      8  0.000000D+00 -0.167721D+00  0.524688D+00
      9  0.195135D-04  0.000000D+00  0.000000D+00 -0.436730D-04
 FormGI is forming the generalized inverse of G from B-inverse, IUseBI=4.
 Force constants in internal coordinates: 
                1             2             3 
      1  0.583408D+00
      2 -0.451882D-02  0.583408D+00
      3  0.295833D-01  0.295833D-01  0.161743D+00
 Leave Link  716 at Fri Aug 27 00:01:55 2021, MaxMem= 17179869184 cpu:        21.4
 (Enter /public3/home/sc51754/softwares/g09e01/l103.exe)

 GradGradGradGradGradGradGradGradGradGradGradGradGradGradGradGradGradGrad
 Berny optimization.
 Red2BG is reusing G-inverse.
 Internal  Forces:  Max     0.000002788 RMS     0.000002640
 Search for a local minimum.
 Step number   1 out of a maximum of    2
 All quantities printed in internal units (Hartrees-Bohrs-Radians)
 Second derivative matrix not updated -- analytic derivatives used.
 The second derivative matrix:
                          R1        R2        A1
           R1           0.58341
           R2          -0.00452   0.58341
           A1           0.02958   0.02958   0.16174
 ITU=  0
     Eigenvalues ---    0.15759   0.58304   0.58793
 Angle between quadratic step and forces=  33.56 degrees.
 Linear search not attempted -- first point.
 Iteration  1 RMS(Cart)=  0.00000797 RMS(Int)=  0.00000000
 Iteration  2 RMS(Cart)=  0.00000000 RMS(Int)=  0.00000000
 ITry= 1 IFail=0 DXMaxC= 8.24D-06 DCOld= 1.00D+10 DXMaxT= 3.00D-01 DXLimC= 3.00D+00 Rises=F
 ClnCor:  largest displacement from symmetrization is 6.01D-15 for atom     3.
 Variable       Old X    -DE/DX   Delta X   Delta X   Delta X     New X
                                 (Linear)    (Quad)   (Total)
    R1        1.79294   0.00000   0.00000   0.00001   0.00001   1.79294
    R2        1.79294   0.00000   0.00000   0.00001   0.00001   1.79294
    A1        1.84768  -0.00000   0.00000  -0.00002  -0.00002   1.84767
         Item               Value     Threshold  Converged?
 Maximum Force            0.000003     0.000450     YES
 RMS     Force            0.000003     0.000300     YES
 Maximum Displacement     0.000008     0.001800     YES
 RMS     Displacement     0.000008     0.001200     YES
 Predicted change in Energy=-3.474625D-11
 Optimization completed.
    -- Stationary point found.
                           ----------------------------
                           !   Optimized Parameters   !
                           ! (Angstroms and Degrees)  !
 --------------------------                            --------------------------
 ! Name  Definition              Value          Derivative Info.                !
 --------------------------------------------------------------------------------
 ! R1    R(1,2)                  0.9488         -DE/DX =    0.0                 !
 ! R2    R(1,3)                  0.9488         -DE/DX =    0.0                 !
 ! A1    A(2,1,3)              105.8645         -DE/DX =    0.0                 !
 --------------------------------------------------------------------------------
 GradGradGradGradGradGradGradGradGradGradGradGradGradGradGradGradGradGrad

 Leave Link  103 at Fri Aug 27 00:01:56 2021, MaxMem= 17179869184 cpu:        20.5
 (Enter /public3/home/sc51754/softwares/g09e01/l9999.exe)
 1\1\GINC-P2607\Freq\RBHandHLYP\Gen\H2O1\SC51754\27-Aug-2021\0\\#P Geom
 =AllCheck Guess=TCheck SCRF=Check GenChk RBHandHLYP/ChkBas Freq\\H2O_B
 HandHLYP_PC2_OPT_FREQ\\0,1\O,0.0324334668,0.7859721526,0.\H,0.98073720
 63,0.8160681722,0.\H,-0.2557470552,1.6899288658,0.\\Version=EM64L-G09R
 evE.01\State=1-A1\HF=-76.424323\RMSD=2.250e-10\RMSF=2.316e-06\ZeroPoin
 t=0.0221682\Thermal=0.0250031\Dipole=0.4579152,0.647935,0.\DipoleDeriv
 =-0.5002796,0.0678429,0.,0.0678429,-0.4522307,0.,0.,0.,-0.7341679,0.19
 06993,-0.0477979,0.,-0.062143,0.2855558,0.,0.,0.,0.367084,0.3095802,-0
 .020045,0.,-0.0056999,0.1666749,0.,0.,0.,0.367084\Polar=7.7529428,-0.5
 307265,7.3770626,0.,0.,5.9736317\PG=C02V [C2(O1),SGV(H2)]\NImag=0\\0.6
 6091184,-0.12411481,0.57300912,0.,0.,-0.00004832,-0.56789767,0.0088631
 4,0.,0.58392368,-0.05291339,-0.04906281,0.,0.00044401,0.04980428,0.,0.
 ,0.00002416,0.,0.,-0.00004367,-0.09301417,0.11525167,0.,-0.01602601,0.
 05246938,0.,0.10904018,0.17702820,-0.52394631,0.,-0.00930716,-0.000741
 47,0.,-0.16772104,0.52468778,0.,0.,0.00002416,0.,0.,0.00001951,0.,0.,-
 0.00004367\\0.00000313,0.00000443,0.,-0.00000275,-0.00000138,0.,-0.000
 00038,-0.00000305,0.\\\@


 SUCCESS-- IF YOU HAVE TRIED TO DO SOMETHING AND FAILED
           YOU ARE BETTER OFF THAN IF YOU HAD TRIED TO DO
           NOTHING AND SUCCEEDED.

                   -- FROM THE BACK OF A SUGAR PACKET
 Job cpu time:       0 days  0 hours 10 minutes 14.2 seconds.
 File lengths (MBytes):  RWF=      5 Int=      0 D2E=      0 Chk=      1 Scr=      1
 Normal termination of Gaussian 09 at Fri Aug 27 00:01:56 2021.
