 Entering Gaussian System, Link 0=g09
 AtFile(1): pc-2.gbs
            -H     0
            S    4   1.00
                  0.754230D+02           0.240650D-02
                  0.113500D+02           0.184870D-01
                  0.259930D+01           0.897420D-01
                  0.735130D+00           0.281110D+00
            S    1   1.00
                  0.231670D+00           0.100000D+01
            S    1   1.00
                  0.741470D-01           0.100000D+01
            P    1   1.00
                  0.160000D+01           0.100000D+01
            P    1   1.00
                  0.450000D+00           0.100000D+01
            D    1   1.00
                  0.125000D+01           0.100000D+01
            ****
            -C     0
            S    7   1.00
                  0.785710D+04           0.568250D-03
                  0.117870D+04           0.439150D-02
                  0.268320D+03           0.225040D-01
                  0.759480D+02           0.866530D-01
                  0.245590D+02           0.244050D+00
                  0.862120D+01           0.441480D+00
                  0.312780D+01           0.353320D+00
            S    7   1.00
                  0.117870D+04          -0.594920D-06
                  0.268320D+03          -0.627480D-04
                  0.759480D+02          -0.757730D-03
                  0.245590D+02          -0.733080D-02
                  0.862120D+01          -0.389320D-01
                  0.312780D+01          -0.889080D-01
                  0.822020D+00           0.216890D+00
            S    1   1.00
                  0.330170D+00           0.100000D+01
            S    1   1.00
                  0.114630D+00           0.100000D+01
            P    4   1.00
                  0.337750D+02           0.602940D-02
                  0.767660D+01           0.432280D-01
                  0.223570D+01           0.163010D+00
                  0.764470D+00           0.365040D+00
            P    1   1.00
                  0.262320D+00           0.100000D+01
            P    1   1.00
                  0.846380D-01           0.100000D+01
            D    1   1.00
                  0.140000D+01           0.100000D+01
            D    1   1.00
                  0.450000D+00           0.100000D+01
            F    1   1.00
                  0.950000D+00           0.100000D+01
            ****
            -N     0
            S    7   1.00
                  0.111010D+05           0.545700D-03
                  0.166530D+04           0.421810D-02
                  0.379080D+03           0.216450D-01
                  0.107300D+03           0.837760D-01
                  0.347470D+02           0.238810D+00
                  0.122490D+02           0.439940D+00
                  0.447430D+01           0.363640D+00
            S    7   1.00
                  0.166530D+04          -0.150060D-05
                  0.379080D+03          -0.587530D-04
                  0.107300D+03          -0.774530D-03
                  0.347470D+02          -0.721610D-02
                  0.122490D+02          -0.393380D-01
                  0.447430D+01          -0.906110D-01
                  0.124040D+01           0.198820D+00
            S    1   1.00
                  0.487430D+00           0.100000D+01
            S    1   1.00
                  0.164840D+00           0.100000D+01
            P    4   1.00
                  0.479340D+02           0.617060D-02
                  0.109990D+02           0.442600D-01
                  0.324720D+01           0.168250D+00
                  0.111140D+01           0.368480D+00
            P    1   1.00
                  0.379880D+00           0.100000D+01
            P    1   1.00
                  0.120680D+00           0.100000D+01
            D    1   1.00
                  0.180000D+01           0.100000D+01
            D    1   1.00
                  0.550000D+00           0.100000D+01
            F    1   1.00
                  0.102000D+01           0.100000D+01
            ****
            -O     0
            S    7   1.00
                  0.147820D+05           0.535190D-03
                  0.221730D+04           0.413750D-02
                  0.504740D+03           0.212450D-01
                  0.142870D+03           0.824530D-01
                  0.463000D+02           0.236710D+00
                  0.163370D+02           0.440390D+00
                  0.598280D+01           0.364650D+00
            S    7   1.00
                  0.221730D+04          -0.192750D-05
                  0.504740D+03          -0.579640D-04
                  0.142870D+03          -0.794940D-03
                  0.463000D+02          -0.731250D-02
                  0.163370D+02          -0.405740D-01
                  0.598280D+01          -0.915940D-01
                  0.167180D+01           0.209400D+00
            S    1   1.00
                  0.646620D+00           0.100000D+01
            S    1   1.00
                  0.216690D+00           0.100000D+01
            P    4   1.00
                  0.604240D+02           0.689490D-02
                  0.139350D+02           0.490050D-01
                  0.415310D+01           0.182550D+00
                  0.141580D+01           0.376330D+00
            P    1   1.00
                  0.475490D+00           0.100000D+01
            P    1   1.00
                  0.145290D+00           0.100000D+01
            D    1   1.00
                  0.220000D+01           0.100000D+01
            D    1   1.00
                  0.650000D+00           0.100000D+01
            F    1   1.00
                  0.110000D+01           0.100000D+01
            ****
 Initial command:
 /public3/home/sc51754/softwares/g09e01/l1.exe "./Gau-26818.inp" -scrdir="./"
 Entering Link 1 = /public3/home/sc51754/softwares/g09e01/l1.exe PID=     26819.
  
 Copyright (c) 1988,1990,1992,1993,1995,1998,2003,2009,2015,
            Gaussian, Inc.  All Rights Reserved.
  
 This is part of the Gaussian(R) 09 program.  It is based on
 the Gaussian(R) 03 system (copyright 2003, Gaussian, Inc.),
 the Gaussian(R) 98 system (copyright 1998, Gaussian, Inc.),
 the Gaussian(R) 94 system (copyright 1995, Gaussian, Inc.),
 the Gaussian 92(TM) system (copyright 1992, Gaussian, Inc.),
 the Gaussian 90(TM) system (copyright 1990, Gaussian, Inc.),
 the Gaussian 88(TM) system (copyright 1988, Gaussian, Inc.),
 the Gaussian 86(TM) system (copyright 1986, Carnegie Mellon
 University), and the Gaussian 82(TM) system (copyright 1983,
 Carnegie Mellon University). Gaussian is a federally registered
 trademark of Gaussian, Inc.
  
 This software contains proprietary and confidential information,
 including trade secrets, belonging to Gaussian, Inc.
  
 This software is provided under written license and may be
 used, copied, transmitted, or stored only in accord with that
 written license.
  
 The following legend is applicable only to US Government
 contracts under FAR:
  
                    RESTRICTED RIGHTS LEGEND
  
 Use, reproduction and disclosure by the US Government is
 subject to restrictions as set forth in subparagraphs (a)
 and (c) of the Commercial Computer Software - Restricted
 Rights clause in FAR 52.227-19.
  
 Gaussian, Inc.
 340 Quinnipiac St., Bldg. 40, Wallingford CT 06492
  
  
 ---------------------------------------------------------------
 Warning -- This program may not be used in any manner that
 competes with the business of Gaussian, Inc. or will provide
 assistance to any competitor of Gaussian, Inc.  The licensee
 of this program is prohibited from giving any competitor of
 Gaussian, Inc. access to this program.  By using this program,
 the user acknowledges that Gaussian, Inc. is engaged in the
 business of creating and licensing software in the field of
 computational chemistry and represents and warrants to the
 licensee that it is not a competitor of Gaussian, Inc. and that
 it will not use this program in any manner prohibited above.
 ---------------------------------------------------------------
  

 Cite this work as:
 Gaussian 09, Revision E.01,
 M. J. Frisch, G. W. Trucks, H. B. Schlegel, G. E. Scuseria, 
 M. A. Robb, J. R. Cheeseman, G. Scalmani, V. Barone, B. Mennucci, 
 G. A. Petersson, H. Nakatsuji, M. Caricato, X. Li, H. P. Hratchian, 
 A. F. Izmaylov, J. Bloino, G. Zheng, J. L. Sonnenberg, M. Hada, 
 M. Ehara, K. Toyota, R. Fukuda, J. Hasegawa, M. Ishida, T. Nakajima, 
 Y. Honda, O. Kitao, H. Nakai, T. Vreven, J. A. Montgomery, Jr., 
 J. E. Peralta, F. Ogliaro, M. Bearpark, J. J. Heyd, E. Brothers, 
 K. N. Kudin, V. N. Staroverov, T. Keith, R. Kobayashi, J. Normand, 
 K. Raghavachari, A. Rendell, J. C. Burant, S. S. Iyengar, J. Tomasi, 
 M. Cossi, N. Rega, J. M. Millam, M. Klene, J. E. Knox, J. B. Cross, 
 V. Bakken, C. Adamo, J. Jaramillo, R. Gomperts, R. E. Stratmann, 
 O. Yazyev, A. J. Austin, R. Cammi, C. Pomelli, J. W. Ochterski, 
 R. L. Martin, K. Morokuma, V. G. Zakrzewski, G. A. Voth, 
 P. Salvador, J. J. Dannenberg, S. Dapprich, A. D. Daniels, 
 O. Farkas, J. B. Foresman, J. V. Ortiz, J. Cioslowski, 
 and D. J. Fox, Gaussian, Inc., Wallingford CT, 2013.
 
 ******************************************
 Gaussian 09:  EM64L-G09RevE.01 30-Nov-2015
                27-Aug-2021 
 ******************************************
 %nprocshared=64
 Will use up to   64 processors via shared memory.
 %mem=128GB
 %chk=H2O_wB97_PC2_OPT_FREQ.chk
 --------------------
 #p opt freq wB97/gen
 --------------------
 1/14=-1,18=20,19=15,26=3,38=1/1,3;
 2/9=110,12=2,17=6,18=5,40=1/2;
 3/5=7,11=2,16=1,25=1,30=1,71=1,74=-56/1,2,3;
 4//1;
 5/5=2,38=5/2;
 6/7=2,8=2,9=2,10=2,28=1/1;
 7//1,2,3,16;
 1/14=-1,18=20,19=15,26=3/3(2);
 2/9=110/2;
 99//99;
 2/9=110/2;
 3/5=7,6=1,11=2,16=1,25=1,30=1,71=1,74=-56,82=7/1,2,3;
 4/5=5,16=3,69=1/1;
 5/5=2,38=5/2;
 7//1,2,3,16;
 1/14=-1,18=20,19=15,26=3/3(-5);
 2/9=110/2;
 6/7=2,8=2,9=2,10=2,19=2,28=1/1;
 99/9=1/99;
 Leave Link    1 at Fri Aug 27 00:03:07 2021, MaxMem= 17179869184 cpu:         3.1
 (Enter /public3/home/sc51754/softwares/g09e01/l101.exe)
 ---------------------
 H2O_wB97_PC2_OPT_FREQ
 ---------------------
 Symbolic Z-matrix:
 Charge =  0 Multiplicity = 1
 O                     0.03922   0.79557   0. 
 H                     0.99922   0.79581   0. 
 H                    -0.28101   1.70059   0. 
 
 NAtoms=      3 NQM=        3 NQMF=       0 NMMI=      0 NMMIF=      0
                NMic=       0 NMicF=      0.
                    Isotopes and Nuclear Properties:
 (Nuclear quadrupole moments (NQMom) in fm**2, nuclear magnetic moments (NMagM)
  in nuclear magnetons)

  Atom         1           2           3
 IAtWgt=          16           1           1
 AtmWgt=  15.9949146   1.0078250   1.0078250
 NucSpn=           0           1           1
 AtZEff=   0.0000000   0.0000000   0.0000000
 NQMom=    0.0000000   0.0000000   0.0000000
 NMagM=    0.0000000   2.7928460   2.7928460
 AtZNuc=   8.0000000   1.0000000   1.0000000
 Leave Link  101 at Fri Aug 27 00:03:08 2021, MaxMem= 17179869184 cpu:         7.9
 (Enter /public3/home/sc51754/softwares/g09e01/l103.exe)

 GradGradGradGradGradGradGradGradGradGradGradGradGradGradGradGradGradGrad
 Berny optimization.
 Initialization pass.
                           ----------------------------
                           !    Initial Parameters    !
                           ! (Angstroms and Degrees)  !
 --------------------------                            --------------------------
 ! Name  Definition              Value          Derivative Info.                !
 --------------------------------------------------------------------------------
 ! R1    R(1,2)                  0.96           estimate D2E/DX2                !
 ! R2    R(1,3)                  0.96           estimate D2E/DX2                !
 ! A1    A(2,1,3)              109.4712         estimate D2E/DX2                !
 --------------------------------------------------------------------------------
 Trust Radius=3.00D-01 FncErr=1.00D-07 GrdErr=1.00D-06
 Number of steps in this run=     20 maximum allowed number of steps=    100.
 GradGradGradGradGradGradGradGradGradGradGradGradGradGradGradGradGradGrad

 Leave Link  103 at Fri Aug 27 00:03:08 2021, MaxMem= 17179869184 cpu:         0.2
 (Enter /public3/home/sc51754/softwares/g09e01/l202.exe)
                          Input orientation:                          
 ---------------------------------------------------------------------
 Center     Atomic      Atomic             Coordinates (Angstroms)
 Number     Number       Type             X           Y           Z
 ---------------------------------------------------------------------
      1          8           0        0.039217    0.795571    0.000000
      2          1           0        0.999217    0.795812    0.000000
      3          1           0       -0.281010    1.700587    0.000000
 ---------------------------------------------------------------------
                    Distance matrix (angstroms):
                    1          2          3
     1  O    0.000000
     2  H    0.960000   0.000000
     3  H    0.960000   1.567673   0.000000
 Stoichiometry    H2O
 Framework group  C2V[C2(O),SGV(H2)]
 Deg. of freedom     2
 Full point group                 C2V     NOp   4
 Largest Abelian subgroup         C2V     NOp   4
 Largest concise Abelian subgroup C2      NOp   2
                         Standard orientation:                         
 ---------------------------------------------------------------------
 Center     Atomic      Atomic             Coordinates (Angstroms)
 Number     Number       Type             X           Y           Z
 ---------------------------------------------------------------------
      1          8           0        0.000000   -0.000000    0.110851
      2          1           0       -0.000000   -0.783837   -0.443405
      3          1           0        0.000000    0.783837   -0.443405
 ---------------------------------------------------------------------
 Rotational constants (GHZ):    919.0227056    408.0852078    282.5991526
 Leave Link  202 at Fri Aug 27 00:03:08 2021, MaxMem= 17179869184 cpu:         5.3
 (Enter /public3/home/sc51754/softwares/g09e01/l301.exe)
 General basis read from cards:  (5D, 7F)
 Centers:       2      3
 S 4 1.00
     Exponent=  7.5423000000D+01 Coefficients=  2.4065000000D-03
     Exponent=  1.1350000000D+01 Coefficients=  1.8487000000D-02
     Exponent=  2.5993000000D+00 Coefficients=  8.9742000000D-02
     Exponent=  7.3513000000D-01 Coefficients=  2.8111000000D-01
 S 1 1.00
     Exponent=  2.3167000000D-01 Coefficients=  1.0000000000D+00
 S 1 1.00
     Exponent=  7.4147000000D-02 Coefficients=  1.0000000000D+00
 P 1 1.00
     Exponent=  1.6000000000D+00 Coefficients=  1.0000000000D+00
 P 1 1.00
     Exponent=  4.5000000000D-01 Coefficients=  1.0000000000D+00
 D 1 1.00
     Exponent=  1.2500000000D+00 Coefficients=  1.0000000000D+00
 ****
 Centers:       1
 S 7 1.00
     Exponent=  1.4782000000D+04 Coefficients=  5.3519000000D-04
     Exponent=  2.2173000000D+03 Coefficients=  4.1375000000D-03
     Exponent=  5.0474000000D+02 Coefficients=  2.1245000000D-02
     Exponent=  1.4287000000D+02 Coefficients=  8.2453000000D-02
     Exponent=  4.6300000000D+01 Coefficients=  2.3671000000D-01
     Exponent=  1.6337000000D+01 Coefficients=  4.4039000000D-01
     Exponent=  5.9828000000D+00 Coefficients=  3.6465000000D-01
 S 7 1.00
     Exponent=  2.2173000000D+03 Coefficients= -1.9275000000D-06
     Exponent=  5.0474000000D+02 Coefficients= -5.7964000000D-05
     Exponent=  1.4287000000D+02 Coefficients= -7.9494000000D-04
     Exponent=  4.6300000000D+01 Coefficients= -7.3125000000D-03
     Exponent=  1.6337000000D+01 Coefficients= -4.0574000000D-02
     Exponent=  5.9828000000D+00 Coefficients= -9.1594000000D-02
     Exponent=  1.6718000000D+00 Coefficients=  2.0940000000D-01
 S 1 1.00
     Exponent=  6.4662000000D-01 Coefficients=  1.0000000000D+00
 S 1 1.00
     Exponent=  2.1669000000D-01 Coefficients=  1.0000000000D+00
 P 4 1.00
     Exponent=  6.0424000000D+01 Coefficients=  6.8949000000D-03
     Exponent=  1.3935000000D+01 Coefficients=  4.9005000000D-02
     Exponent=  4.1531000000D+00 Coefficients=  1.8255000000D-01
     Exponent=  1.4158000000D+00 Coefficients=  3.7633000000D-01
 P 1 1.00
     Exponent=  4.7549000000D-01 Coefficients=  1.0000000000D+00
 P 1 1.00
     Exponent=  1.4529000000D-01 Coefficients=  1.0000000000D+00
 D 1 1.00
     Exponent=  2.2000000000D+00 Coefficients=  1.0000000000D+00
 D 1 1.00
     Exponent=  6.5000000000D-01 Coefficients=  1.0000000000D+00
 F 1 1.00
     Exponent=  1.1000000000D+00 Coefficients=  1.0000000000D+00
 ****
 Ernie: Thresh=  0.10000D-02 Tol=  0.10000D-05 Strict=F.
 Ernie:  1 primitive shells out of 43 were deleted.
 There are    27 symmetry adapted cartesian basis functions of A1  symmetry.
 There are     7 symmetry adapted cartesian basis functions of A2  symmetry.
 There are    12 symmetry adapted cartesian basis functions of B1  symmetry.
 There are    19 symmetry adapted cartesian basis functions of B2  symmetry.
 There are    23 symmetry adapted basis functions of A1  symmetry.
 There are     7 symmetry adapted basis functions of A2  symmetry.
 There are    11 symmetry adapted basis functions of B1  symmetry.
 There are    17 symmetry adapted basis functions of B2  symmetry.
    58 basis functions,    91 primitive gaussians,    65 cartesian basis functions
     5 alpha electrons        5 beta electrons
       nuclear repulsion energy         9.1571759018 Hartrees.
 IExCor= 4437 DFT=T Ex+Corr=wB97 ExCW=0 ScaHFX=  1.000000
 ScaDFX=  1.000000  1.000000  1.000000  1.000000 ScalE2=  1.000000  1.000000
 IRadAn=      0 IRanWt=     -1 IRanGd=            0 ICorTp=0 IEmpDi=  4
  HFx wShort=  0.000000 wLong=  0.400000 cFull=  0.000000 cShort=  0.000000 cLong=  1.000000
  DFx wShort=  0.000000 wLong=  0.400000 cFull=  0.000000 cShort=  0.000000 cLong=  1.000000
 NAtoms=    3 NActive=    3 NUniq=    2 SFac= 2.25D+00 NAtFMM=   60 NAOKFM=F Big=F
 Integral buffers will be    131072 words long.
 Raffenetti 2 integral format.
 Two-electron integral symmetry is turned on.
 Leave Link  301 at Fri Aug 27 00:03:08 2021, MaxMem= 17179869184 cpu:         1.5
 (Enter /public3/home/sc51754/softwares/g09e01/l302.exe)
 NPDir=0 NMtPBC=     1 NCelOv=     1 NCel=       1 NClECP=     1 NCelD=      1
         NCelK=      1 NCelE2=     1 NClLst=     1 CellRange=     0.0.
 One-electron integrals computed using PRISM.
 One-electron integral symmetry used in STVInt
 NBasis=    58 RedAO= T EigKep=  5.81D-03  NBF=    23     7    11    17
 NBsUse=    58 1.00D-06 EigRej= -1.00D+00 NBFU=    23     7    11    17
 Precomputing XC quadrature grid using
 IXCGrd= 4 IRadAn=           0 IRanWt=          -1 IRanGd=           0 AccXCQ= 0.00D+00.
 Generated NRdTot=       0 NPtTot=           0 NUsed=           0 NTot=          32
 NSgBfM=    65    65    65    65    65 MxSgAt=     3 MxSgA2=     3.
 Leave Link  302 at Fri Aug 27 00:03:09 2021, MaxMem= 17179869184 cpu:        44.6
 (Enter /public3/home/sc51754/softwares/g09e01/l303.exe)
 DipDrv:  MaxL=1.
 Leave Link  303 at Fri Aug 27 00:03:09 2021, MaxMem= 17179869184 cpu:         5.8
 (Enter /public3/home/sc51754/softwares/g09e01/l401.exe)
 ExpMin= 7.41D-02 ExpMax= 1.48D+04 ExpMxC= 5.05D+02 IAcc=2 IRadAn=         4 AccDes= 0.00D+00
 Harris functional with IExCor= 4437 and IRadAn=       4 diagonalized for initial guess.
 HarFok:  IExCor= 4437 AccDes= 0.00D+00 IRadAn=         4 IDoV= 1 UseB2=F ITyADJ=14
 ICtDFT=  3500011 ScaDFX=  1.000000  1.000000  1.000000  1.000000
 FoFCou: FMM=F IPFlag=           0 FMFlag=      100000 FMFlg1=           0
         NFxFlg=           0 DoJE=T BraDBF=F KetDBF=T FulRan=T
         wScrn=  0.000000 ICntrl=     500 IOpCl=  0 I1Cent=   200000004 NGrid=           0
         NMat0=    1 NMatS0=      1 NMatT0=    0 NMatD0=    1 NMtDS0=    0 NMtDT0=    0
 Petite list used in FoFCou.
 Harris En= -74.4359154643312    
 JPrj=0 DoOrth=F DoCkMO=F.
 Initial guess orbital symmetries:
       Occupied  (A1) (A1) (B2) (A1) (B1)
       Virtual   (A1) (B2) (A1) (B2) (B1) (A1) (B2) (A1) (A2) (A1)
                 (B1) (B2) (B2) (A1) (A1) (B2) (B1) (A1) (A2) (B2)
                 (A1) (B1) (A1) (B2) (B1) (A1) (A2) (B2) (B1) (B2)
                 (A1) (A2) (A1) (B2) (B1) (A2) (A1) (B2) (B2) (A1)
                 (B1) (A1) (B1) (B2) (A2) (B1) (A1) (A1) (A2) (A1)
                 (B2) (B2) (A1)
 The electronic state of the initial guess is 1-A1.
 Leave Link  401 at Fri Aug 27 00:03:10 2021, MaxMem= 17179869184 cpu:        48.0
 (Enter /public3/home/sc51754/softwares/g09e01/l502.exe)
 Closed shell SCF:
 Using DIIS extrapolation, IDIIS=  1040.
 Integral symmetry usage will be decided dynamically.
 Keep R1 ints in memory in symmetry-blocked form, NReq=4932517.
 IVT=       35997 IEndB=       35997 NGot= 17179869184 MDV= 17179451308
 LenX= 17179451308 LenY= 17179446642
 Requested convergence on RMS density matrix=1.00D-08 within 128 cycles.
 Requested convergence on MAX density matrix=1.00D-06.
 Requested convergence on             energy=1.00D-06.
 No special actions if energy rises.
 FoFCou: FMM=F IPFlag=           0 FMFlag=           0 FMFlg1=           0
         NFxFlg=           0 DoJE=F BraDBF=F KetDBF=F FulRan=T
         wScrn=  0.000000 ICntrl=     600 IOpCl=  0 I1Cent=           0 NGrid=           0
         NMat0=    1 NMatS0=   1711 NMatT0=    0 NMatD0=    1 NMtDS0=    0 NMtDT0=    0
 Petite list used in FoFCou.
 Integral accuracy reduced to 1.0D-05 until final iterations.

 Cycle   1  Pass 0  IDiag  1:
 E= -76.4167138838456    
 DIIS: error= 4.26D-02 at cycle   1 NSaved=   1.
 NSaved= 1 IEnMin= 1 EnMin= -76.4167138838456     IErMin= 1 ErrMin= 4.26D-02
 ErrMax= 4.26D-02  0.00D+00 EMaxC= 1.00D-01 BMatC= 4.82D-02 BMatP= 4.82D-02
 IDIUse=3 WtCom= 5.74D-01 WtEn= 4.26D-01
 Coeff-Com:  0.100D+01
 Coeff-En:   0.100D+01
 Coeff:      0.100D+01
 Gap=     0.441 Goal=   None    Shift=    0.000
 GapD=    0.441 DampG=2.000 DampE=0.500 DampFc=1.0000 IDamp=-1.
 RMSDP=3.25D-03 MaxDP=6.70D-02              OVMax= 9.43D-02

 Cycle   2  Pass 0  IDiag  1:
 E= -76.4171717510505     Delta-E=       -0.000457867205 Rises=F Damp=F
 DIIS: error= 4.70D-02 at cycle   2 NSaved=   2.
 NSaved= 2 IEnMin= 2 EnMin= -76.4171717510505     IErMin= 1 ErrMin= 4.26D-02
 ErrMax= 4.70D-02  0.00D+00 EMaxC= 1.00D-01 BMatC= 5.07D-02 BMatP= 4.82D-02
 IDIUse=3 WtCom= 5.30D-01 WtEn= 4.70D-01
 Coeff-Com:  0.506D+00 0.494D+00
 Coeff-En:   0.496D+00 0.504D+00
 Coeff:      0.502D+00 0.498D+00
 Gap=     0.536 Goal=   None    Shift=    0.000
 RMSDP=1.62D-03 MaxDP=3.50D-02 DE=-4.58D-04 OVMax= 4.75D-02

 Cycle   3  Pass 0  IDiag  1:
 E= -76.4496895356785     Delta-E=       -0.032517784628 Rises=F Damp=F
 DIIS: error= 1.66D-03 at cycle   3 NSaved=   3.
 NSaved= 3 IEnMin= 3 EnMin= -76.4496895356785     IErMin= 3 ErrMin= 1.66D-03
 ErrMax= 1.66D-03  0.00D+00 EMaxC= 1.00D-01 BMatC= 3.85D-05 BMatP= 4.82D-02
 IDIUse=3 WtCom= 9.83D-01 WtEn= 1.66D-02
 Coeff-Com:  0.363D-02 0.192D-01 0.977D+00
 Coeff-En:   0.000D+00 0.000D+00 0.100D+01
 Coeff:      0.357D-02 0.189D-01 0.978D+00
 Gap=     0.538 Goal=   None    Shift=    0.000
 RMSDP=1.34D-04 MaxDP=1.92D-03 DE=-3.25D-02 OVMax= 2.13D-03

 Cycle   4  Pass 0  IDiag  1:
 E= -76.4497324599501     Delta-E=       -0.000042924272 Rises=F Damp=F
 DIIS: error= 3.03D-04 at cycle   4 NSaved=   4.
 NSaved= 4 IEnMin= 4 EnMin= -76.4497324599501     IErMin= 4 ErrMin= 3.03D-04
 ErrMax= 3.03D-04  0.00D+00 EMaxC= 1.00D-01 BMatC= 2.04D-06 BMatP= 3.85D-05
 IDIUse=3 WtCom= 9.97D-01 WtEn= 3.03D-03
 Coeff-Com: -0.129D-01-0.120D-01 0.567D-01 0.968D+00
 Coeff-En:   0.000D+00 0.000D+00 0.000D+00 0.100D+01
 Coeff:     -0.129D-01-0.120D-01 0.565D-01 0.968D+00
 Gap=     0.538 Goal=   None    Shift=    0.000
 RMSDP=4.78D-05 MaxDP=7.42D-04 DE=-4.29D-05 OVMax= 5.94D-04

 Cycle   5  Pass 0  IDiag  1:
 E= -76.4497349838411     Delta-E=       -0.000002523891 Rises=F Damp=F
 DIIS: error= 4.38D-05 at cycle   5 NSaved=   5.
 NSaved= 5 IEnMin= 5 EnMin= -76.4497349838411     IErMin= 5 ErrMin= 4.38D-05
 ErrMax= 4.38D-05  0.00D+00 EMaxC= 1.00D-01 BMatC= 7.31D-08 BMatP= 2.04D-06
 IDIUse=1 WtCom= 1.00D+00 WtEn= 0.00D+00
 Coeff-Com:  0.711D-03 0.698D-03-0.353D-01-0.929D-01 0.113D+01
 Coeff:      0.711D-03 0.698D-03-0.353D-01-0.929D-01 0.113D+01
 Gap=     0.538 Goal=   None    Shift=    0.000
 RMSDP=1.51D-05 MaxDP=2.53D-04 DE=-2.52D-06 OVMax= 2.10D-04

 Cycle   6  Pass 0  IDiag  1:
 E= -76.4497351479188     Delta-E=       -0.000000164078 Rises=F Damp=F
 DIIS: error= 9.65D-06 at cycle   6 NSaved=   6.
 NSaved= 6 IEnMin= 6 EnMin= -76.4497351479188     IErMin= 6 ErrMin= 9.65D-06
 ErrMax= 9.65D-06  0.00D+00 EMaxC= 1.00D-01 BMatC= 2.07D-09 BMatP= 7.31D-08
 IDIUse=1 WtCom= 1.00D+00 WtEn= 0.00D+00
 Coeff-Com: -0.485D-04 0.266D-04 0.578D-02 0.101D-01-0.265D+00 0.125D+01
 Coeff:     -0.485D-04 0.266D-04 0.578D-02 0.101D-01-0.265D+00 0.125D+01
 Gap=     0.538 Goal=   None    Shift=    0.000
 RMSDP=2.91D-06 MaxDP=5.42D-05 DE=-1.64D-07 OVMax= 5.35D-05

 Initial convergence to 1.0D-05 achieved.  Increase integral accuracy.
 Cycle   7  Pass 1  IDiag  1:
 E= -76.4496868760192     Delta-E=        0.000048271900 Rises=F Damp=F
 DIIS: error= 5.93D-05 at cycle   1 NSaved=   1.
 NSaved= 1 IEnMin= 1 EnMin= -76.4496868760192     IErMin= 1 ErrMin= 5.93D-05
 ErrMax= 5.93D-05  0.00D+00 EMaxC= 1.00D-01 BMatC= 9.51D-08 BMatP= 9.51D-08
 IDIUse=1 WtCom= 1.00D+00 WtEn= 0.00D+00
 Coeff-Com:  0.100D+01
 Coeff:      0.100D+01
 Gap=     0.538 Goal=   None    Shift=    0.000
 RMSDP=2.91D-06 MaxDP=5.42D-05 DE= 4.83D-05 OVMax= 4.76D-05

 Cycle   8  Pass 1  IDiag  1:
 E= -76.4496869111982     Delta-E=       -0.000000035179 Rises=F Damp=F
 DIIS: error= 9.40D-06 at cycle   2 NSaved=   2.
 NSaved= 2 IEnMin= 2 EnMin= -76.4496869111982     IErMin= 2 ErrMin= 9.40D-06
 ErrMax= 9.40D-06  0.00D+00 EMaxC= 1.00D-01 BMatC= 2.64D-09 BMatP= 9.51D-08
 IDIUse=1 WtCom= 1.00D+00 WtEn= 0.00D+00
 Coeff-Com: -0.364D-01 0.104D+01
 Coeff:     -0.364D-01 0.104D+01
 Gap=     0.538 Goal=   None    Shift=    0.000
 RMSDP=7.41D-07 MaxDP=1.36D-05 DE=-3.52D-08 OVMax= 2.00D-05

 Cycle   9  Pass 1  IDiag  1:
 E= -76.4496869114501     Delta-E=       -0.000000000252 Rises=F Damp=F
 DIIS: error= 9.11D-06 at cycle   3 NSaved=   3.
 NSaved= 3 IEnMin= 3 EnMin= -76.4496869114501     IErMin= 3 ErrMin= 9.11D-06
 ErrMax= 9.11D-06  0.00D+00 EMaxC= 1.00D-01 BMatC= 2.15D-09 BMatP= 2.64D-09
 IDIUse=1 WtCom= 1.00D+00 WtEn= 0.00D+00
 Coeff-Com: -0.434D-01 0.509D+00 0.534D+00
 Coeff:     -0.434D-01 0.509D+00 0.534D+00
 Gap=     0.538 Goal=   None    Shift=    0.000
 RMSDP=3.26D-07 MaxDP=7.30D-06 DE=-2.52D-10 OVMax= 9.24D-06

 Cycle  10  Pass 1  IDiag  1:
 E= -76.4496869127767     Delta-E=       -0.000000001327 Rises=F Damp=F
 DIIS: error= 4.12D-07 at cycle   4 NSaved=   4.
 NSaved= 4 IEnMin= 4 EnMin= -76.4496869127767     IErMin= 4 ErrMin= 4.12D-07
 ErrMax= 4.12D-07  0.00D+00 EMaxC= 1.00D-01 BMatC= 5.99D-12 BMatP= 2.15D-09
 IDIUse=1 WtCom= 1.00D+00 WtEn= 0.00D+00
 Coeff-Com: -0.596D-02 0.540D-01 0.794D-01 0.873D+00
 Coeff:     -0.596D-02 0.540D-01 0.794D-01 0.873D+00
 Gap=     0.538 Goal=   None    Shift=    0.000
 RMSDP=2.55D-08 MaxDP=3.27D-07 DE=-1.33D-09 OVMax= 1.18D-06

 Cycle  11  Pass 1  IDiag  1:
 E= -76.4496869127820     Delta-E=       -0.000000000005 Rises=F Damp=F
 DIIS: error= 8.73D-08 at cycle   5 NSaved=   5.
 NSaved= 5 IEnMin= 5 EnMin= -76.4496869127820     IErMin= 5 ErrMin= 8.73D-08
 ErrMax= 8.73D-08  0.00D+00 EMaxC= 1.00D-01 BMatC= 2.16D-13 BMatP= 5.99D-12
 IDIUse=1 WtCom= 1.00D+00 WtEn= 0.00D+00
 Coeff-Com:  0.141D-02-0.169D-01-0.204D-01-0.453D-02 0.104D+01
 Coeff:      0.141D-02-0.169D-01-0.204D-01-0.453D-02 0.104D+01
 Gap=     0.538 Goal=   None    Shift=    0.000
 RMSDP=1.12D-08 MaxDP=1.75D-07 DE=-5.30D-12 OVMax= 5.41D-07

 Cycle  12  Pass 1  IDiag  1:
 E= -76.4496869127826     Delta-E=       -0.000000000001 Rises=F Damp=F
 DIIS: error= 3.60D-08 at cycle   6 NSaved=   6.
 NSaved= 6 IEnMin= 6 EnMin= -76.4496869127826     IErMin= 6 ErrMin= 3.60D-08
 ErrMax= 3.60D-08  0.00D+00 EMaxC= 1.00D-01 BMatC= 1.24D-14 BMatP= 2.16D-13
 IDIUse=1 WtCom= 1.00D+00 WtEn= 0.00D+00
 Coeff-Com: -0.181D-03 0.285D-02 0.366D-02-0.155D-01-0.384D+00 0.139D+01
 Coeff:     -0.181D-03 0.285D-02 0.366D-02-0.155D-01-0.384D+00 0.139D+01
 Gap=     0.538 Goal=   None    Shift=    0.000
 RMSDP=4.77D-09 MaxDP=7.53D-08 DE=-5.83D-13 OVMax= 2.46D-07

 SCF Done:  E(RwB97) =  -76.4496869128     A.U. after   12 cycles
            NFock= 12  Conv=0.48D-08     -V/T= 2.0041
 KE= 7.614003393631D+01 PE=-1.991275025200D+02 EE= 3.738060576906D+01
 Leave Link  502 at Fri Aug 27 00:03:11 2021, MaxMem= 17179869184 cpu:        48.6
 (Enter /public3/home/sc51754/softwares/g09e01/l601.exe)
 Copying SCF densities to generalized density rwf, IOpCl= 0 IROHF=0.

 **********************************************************************

            Population analysis using the SCF density.

 **********************************************************************

 Orbital symmetries:
       Occupied  (A1) (A1) (B2) (A1) (B1)
       Virtual   (A1) (B2) (A1) (B2) (A1) (B1) (B2) (A1) (A2) (A1)
                 (B1) (B2) (B2) (A1) (A1) (B2) (B1) (A2) (A1) (B2)
                 (A1) (B1) (A1) (B2) (B1) (A1) (A2) (B2) (B1) (B2)
                 (A1) (A2) (A1) (B2) (B1) (A2) (A1) (B2) (B2) (A1)
                 (B1) (A1) (B1) (B2) (A1) (A2) (B1) (A2) (A1) (A1)
                 (B2) (B2) (A1)
 The electronic state is 1-A1.
 Alpha  occ. eigenvalues --  -18.99704  -1.14481  -0.66505  -0.50462  -0.43706
 Alpha virt. eigenvalues --    0.10087   0.14913   0.38334   0.39152   0.44420
 Alpha virt. eigenvalues --    0.44988   0.55228   0.80144   0.86959   0.91408
 Alpha virt. eigenvalues --    1.00352   1.15861   1.27554   1.31508   1.55187
 Alpha virt. eigenvalues --    1.59203   1.86492   1.96205   1.96610   2.20067
 Alpha virt. eigenvalues --    2.21918   2.39774   2.99528   3.49017   3.51730
 Alpha virt. eigenvalues --    3.65629   3.66087   3.83850   3.90611   3.92159
 Alpha virt. eigenvalues --    4.15694   4.16084   4.36739   4.51399   4.58777
 Alpha virt. eigenvalues --    4.62358   4.75179   4.92769   4.94945   4.99343
 Alpha virt. eigenvalues --    5.07523   5.73945   6.05466   6.18647   6.25702
 Alpha virt. eigenvalues --    6.26209   6.29010   6.39581   6.40661   6.97906
 Alpha virt. eigenvalues --    6.99270   7.44353  15.22527
          Condensed to atoms (all electrons):
               1          2          3
     1  O    7.698888   0.364868   0.364868
     2  H    0.364868   0.446523  -0.025703
     3  H    0.364868  -0.025703   0.446523
 Mulliken charges:
               1
     1  O   -0.428624
     2  H    0.214312
     3  H    0.214312
 Sum of Mulliken charges =  -0.00000
 Mulliken charges with hydrogens summed into heavy atoms:
               1
     1  O   -0.000000
 Electronic spatial extent (au):  <R**2>=             19.8106
 Charge=             -0.0000 electrons
 Dipole moment (field-independent basis, Debye):
    X=              0.0000    Y=             -0.0000    Z=             -1.9509  Tot=              1.9509
 Quadrupole moment (field-independent basis, Debye-Ang):
   XX=             -7.6651   YY=             -4.1915   ZZ=             -6.5263
   XY=              0.0000   XZ=             -0.0000   YZ=              0.0000
 Traceless Quadrupole moment (field-independent basis, Debye-Ang):
   XX=             -1.5375   YY=              1.9361   ZZ=             -0.3987
   XY=              0.0000   XZ=             -0.0000   YZ=              0.0000
 Octapole moment (field-independent basis, Debye-Ang**2):
  XXX=             -0.0000  YYY=             -0.0000  ZZZ=             -1.2762  XYY=              0.0000
  XXY=              0.0000  XXZ=             -0.3536  XZZ=             -0.0000  YZZ=             -0.0000
  YYZ=             -1.3803  XYZ=             -0.0000
 Hexadecapole moment (field-independent basis, Debye-Ang**3):
 XXXX=             -6.9752 YYYY=             -6.1126 ZZZZ=             -7.4621 XXXY=             -0.0000
 XXXZ=              0.0000 YYYX=             -0.0000 YYYZ=              0.0000 ZZZX=              0.0000
 ZZZY=             -0.0000 XXYY=             -2.5364 XXZZ=             -2.4497 YYZZ=             -2.0031
 XXYZ=             -0.0000 YYXZ=             -0.0000 ZZXY=             -0.0000
 N-N= 9.157175901845D+00 E-N=-1.991275024325D+02  KE= 7.614003393631D+01
 Symmetry A1   KE= 6.794583294903D+01
 Symmetry A2   KE=-2.442875648205D-20
 Symmetry B1   KE= 4.532007517127D+00
 Symmetry B2   KE= 3.662193470149D+00
 No NMR shielding tensors so no spin-rotation constants.
 Leave Link  601 at Fri Aug 27 00:03:12 2021, MaxMem= 17179869184 cpu:        75.6
 (Enter /public3/home/sc51754/softwares/g09e01/l701.exe)
 Compute integral first derivatives.
 ... and contract with generalized density number  0.
 Leave Link  701 at Fri Aug 27 00:03:14 2021, MaxMem= 17179869184 cpu:        59.5
 (Enter /public3/home/sc51754/softwares/g09e01/l702.exe)
 L702 exits ... SP integral derivatives will be done elsewhere.
 Leave Link  702 at Fri Aug 27 00:03:14 2021, MaxMem= 17179869184 cpu:         0.3
 (Enter /public3/home/sc51754/softwares/g09e01/l703.exe)
 Compute integral first derivatives, UseDBF=F ICtDFT=           0.
 Integral derivatives from FoFJK, PRISM(SPDF).
 Calling FoFJK, ICntrl=      2127 FMM=F ISym2X=1 I1Cent= 0 IOpClX= 0 NMat=1 NMatS=1 NMatT=0.
 FoFJK:  IHMeth= 1 ICntrl=    2127 DoSepK=T KAlg= 0 I1Cent=   0 FoldK=F
 IRaf=         1 NMat=   1 IRICut=       1 DoRegI=T DoRafI=F ISym2E= 1.
 FoFCou: FMM=F IPFlag=           0 FMFlag=      100000 FMFlg1=         800
         NFxFlg=           0 DoJE=F BraDBF=F KetDBF=F FulRan=T
         wScrn=  0.000000 ICntrl=    2527 IOpCl=  0 I1Cent=           0 NGrid=           0
         NMat0=    1 NMatS0=      1 NMatT0=    0 NMatD0=    1 NMtDS0=    0 NMtDT0=    0
 Petite list used in FoFCou.
 Leave Link  703 at Fri Aug 27 00:03:15 2021, MaxMem= 17179869184 cpu:        63.2
 (Enter /public3/home/sc51754/softwares/g09e01/l716.exe)
 Dipole        = 3.84397737D-17-2.22044605D-16-7.67560326D-01
 ***** Axes restored to original set *****
 -------------------------------------------------------------------
 Center     Atomic                   Forces (Hartrees/Bohr)
 Number     Number              X              Y              Z
 -------------------------------------------------------------------
      1        8          -0.002765112   -0.003912543    0.000000000
      2        1          -0.004497260    0.006111714   -0.000000000
      3        1           0.007262372   -0.002199172   -0.000000000
 -------------------------------------------------------------------
 Cartesian Forces:  Max     0.007262372 RMS     0.003917349
 Leave Link  716 at Fri Aug 27 00:03:15 2021, MaxMem= 17179869184 cpu:         0.3
 (Enter /public3/home/sc51754/softwares/g09e01/l103.exe)

 GradGradGradGradGradGradGradGradGradGradGradGradGradGradGradGradGradGrad
 Berny optimization.
 FormGI is forming the generalized inverse of G from B-inverse, IUseBI=4.
 Internal  Forces:  Max     0.011089536 RMS     0.007380174
 Search for a local minimum.
 Step number   1 out of a maximum of   20
 All quantities printed in internal units (Hartrees-Bohrs-Radians)
 RMS Force = .73802D-02 SwitMx=.10000D-02 MixMth= 1
 Mixed Optimization -- RFO/linear search
 Second derivative matrix not updated -- first step.
 The second derivative matrix:
                          R1        R2        A1
           R1           0.55473
           R2           0.00000   0.55473
           A1           0.00000   0.00000   0.16000
 ITU=  0
     Eigenvalues ---    0.16000   0.55473   0.55473
 RFO step:  Lambda=-8.37369278D-04 EMin= 1.60000000D-01
 Linear search not attempted -- first point.
 Iteration  1 RMS(Cart)=  0.04113042 RMS(Int)=  0.00089720
 Iteration  2 RMS(Cart)=  0.00072021 RMS(Int)=  0.00000008
 Iteration  3 RMS(Cart)=  0.00000008 RMS(Int)=  0.00000000
 ITry= 1 IFail=0 DXMaxC= 4.42D-02 DCOld= 1.00D+10 DXMaxT= 3.00D-01 DXLimC= 3.00D+00 Rises=F
 ClnCor:  largest displacement from symmetrization is 8.62D-15 for atom     3.
 Variable       Old X    -DE/DX   Delta X   Delta X   Delta X     New X
                                 (Linear)    (Quad)   (Total)
    R1        1.81414  -0.00450   0.00000  -0.00809  -0.00809   1.80605
    R2        1.81414  -0.00450   0.00000  -0.00809  -0.00809   1.80605
    A1        1.91063  -0.01109   0.00000  -0.06895  -0.06895   1.84168
         Item               Value     Threshold  Converged?
 Maximum Force            0.011090     0.000450     NO 
 RMS     Force            0.007380     0.000300     NO 
 Maximum Displacement     0.044221     0.001800     NO 
 RMS     Displacement     0.041447     0.001200     NO 
 Predicted change in Energy=-4.207298D-04
 Lowest energy point so far.  Saving SCF results.
 GradGradGradGradGradGradGradGradGradGradGradGradGradGradGradGradGradGrad

 Leave Link  103 at Fri Aug 27 00:03:16 2021, MaxMem= 17179869184 cpu:        17.1
 (Enter /public3/home/sc51754/softwares/g09e01/l202.exe)
                          Input orientation:                          
 ---------------------------------------------------------------------
 Center     Atomic      Atomic             Coordinates (Angstroms)
 Number     Number       Type             X           Y           Z
 ---------------------------------------------------------------------
      1          8           0        0.029946    0.782452    0.000000
      2          1           0        0.985087    0.815633   -0.000000
      3          1           0       -0.257609    1.693884    0.000000
 ---------------------------------------------------------------------
                    Distance matrix (angstroms):
                    1          2          3
     1  O    0.000000
     2  H    0.955718   0.000000
     3  H    0.955718   1.521716   0.000000
 Stoichiometry    H2O
 Framework group  C2V[C2(O),SGV(H2)]
 Deg. of freedom     2
 Full point group                 C2V     NOp   4
 RotChk:  IX=3 Diff= 5.07D-16
 Largest Abelian subgroup         C2V     NOp   4
 Largest concise Abelian subgroup C2      NOp   2
                         Standard orientation:                         
 ---------------------------------------------------------------------
 Center     Atomic      Atomic             Coordinates (Angstroms)
 Number     Number       Type             X           Y           Z
 ---------------------------------------------------------------------
      1          8           0        0.000000   -0.000000    0.115671
      2          1           0        0.000000   -0.760858   -0.462682
      3          1           0        0.000000    0.760858   -0.462682
 ---------------------------------------------------------------------
 Rotational constants (GHZ):    844.0383603    433.1065683    286.2310686
 Leave Link  202 at Fri Aug 27 00:03:16 2021, MaxMem= 17179869184 cpu:         7.2
 (Enter /public3/home/sc51754/softwares/g09e01/l301.exe)
 Basis read from rwf:  (5D, 7F)
 No pseudopotential information found on rwf file.
 There are    27 symmetry adapted cartesian basis functions of A1  symmetry.
 There are     7 symmetry adapted cartesian basis functions of A2  symmetry.
 There are    12 symmetry adapted cartesian basis functions of B1  symmetry.
 There are    19 symmetry adapted cartesian basis functions of B2  symmetry.
 There are    23 symmetry adapted basis functions of A1  symmetry.
 There are     7 symmetry adapted basis functions of A2  symmetry.
 There are    11 symmetry adapted basis functions of B1  symmetry.
 There are    17 symmetry adapted basis functions of B2  symmetry.
    58 basis functions,    91 primitive gaussians,    65 cartesian basis functions
     5 alpha electrons        5 beta electrons
       nuclear repulsion energy         9.2068871594 Hartrees.
 IExCor= 4437 DFT=T Ex+Corr=wB97 ExCW=0 ScaHFX=  1.000000
 ScaDFX=  1.000000  1.000000  1.000000  1.000000 ScalE2=  1.000000  1.000000
 IRadAn=      0 IRanWt=     -1 IRanGd=            0 ICorTp=0 IEmpDi=  4
  HFx wShort=  0.000000 wLong=  0.400000 cFull=  0.000000 cShort=  0.000000 cLong=  1.000000
  DFx wShort=  0.000000 wLong=  0.400000 cFull=  0.000000 cShort=  0.000000 cLong=  1.000000
 NAtoms=    3 NActive=    3 NUniq=    2 SFac= 2.25D+00 NAtFMM=   60 NAOKFM=F Big=F
 Integral buffers will be    131072 words long.
 Raffenetti 2 integral format.
 Two-electron integral symmetry is turned on.
 No density basis found on file   724.
 Leave Link  301 at Fri Aug 27 00:03:16 2021, MaxMem= 17179869184 cpu:         1.5
 (Enter /public3/home/sc51754/softwares/g09e01/l302.exe)
 NPDir=0 NMtPBC=     1 NCelOv=     1 NCel=       1 NClECP=     1 NCelD=      1
         NCelK=      1 NCelE2=     1 NClLst=     1 CellRange=     0.0.
 One-electron integrals computed using PRISM.
 One-electron integral symmetry used in STVInt
 NBasis=    58 RedAO= T EigKep=  5.75D-03  NBF=    23     7    11    17
 NBsUse=    58 1.00D-06 EigRej= -1.00D+00 NBFU=    23     7    11    17
 Precomputing XC quadrature grid using
 IXCGrd= 4 IRadAn=           0 IRanWt=          -1 IRanGd=           0 AccXCQ= 0.00D+00.
 Generated NRdTot=       0 NPtTot=           0 NUsed=           0 NTot=          32
 NSgBfM=    65    65    65    65    65 MxSgAt=     3 MxSgA2=     3.
 Leave Link  302 at Fri Aug 27 00:03:17 2021, MaxMem= 17179869184 cpu:        43.9
 (Enter /public3/home/sc51754/softwares/g09e01/l303.exe)
 DipDrv:  MaxL=1.
 Leave Link  303 at Fri Aug 27 00:03:17 2021, MaxMem= 17179869184 cpu:        10.5
 (Enter /public3/home/sc51754/softwares/g09e01/l401.exe)
 Initial guess from the checkpoint file:  "H2O_wB97_PC2_OPT_FREQ.chk"
 B after Tr=    -0.000000   -0.000000    0.000000
         Rot=    1.000000   -0.000000   -0.000000   -0.000000 Ang=   0.00 deg.
 Guess basis will be translated and rotated to current coordinates.
 JPrj=2 DoOrth=T DoCkMO=T.
 Initial guess orbital symmetries:
       Occupied  (A1) (A1) (B2) (A1) (B1)
       Virtual   (A1) (A1) (A1) (A1) (A1) (A1) (A1) (A1) (A1) (A1)
                 (A1) (A1) (A1) (A1) (A1) (A1) (A1) (A1) (A1) (A1)
                 (A2) (A2) (A2) (A2) (A2) (A2) (A2) (B1) (B1) (B1)
                 (B1) (B1) (B1) (B1) (B1) (B1) (B1) (B2) (B2) (B2)
                 (B2) (B2) (B2) (B2) (B2) (B2) (B2) (B2) (B2) (B2)
                 (B2) (B2) (B2)
 The electronic state of the initial guess is 1-A1.
 Generating alternative initial guess.
 ExpMin= 7.41D-02 ExpMax= 1.48D+04 ExpMxC= 5.05D+02 IAcc=2 IRadAn=         4 AccDes= 0.00D+00
 Harris functional with IExCor= 4437 and IRadAn=       4 diagonalized for initial guess.
 HarFok:  IExCor= 4437 AccDes= 0.00D+00 IRadAn=         4 IDoV= 1 UseB2=F ITyADJ=14
 ICtDFT=  3500011 ScaDFX=  1.000000  1.000000  1.000000  1.000000
 FoFCou: FMM=F IPFlag=           0 FMFlag=      100000 FMFlg1=           0
         NFxFlg=           0 DoJE=T BraDBF=F KetDBF=T FulRan=T
         wScrn=  0.000000 ICntrl=     500 IOpCl=  0 I1Cent=   200000004 NGrid=           0
         NMat0=    1 NMatS0=      1 NMatT0=    0 NMatD0=    1 NMtDS0=    0 NMtDT0=    0
 Petite list used in FoFCou.
 Harris En= -74.4358352409925    
 Leave Link  401 at Fri Aug 27 00:03:18 2021, MaxMem= 17179869184 cpu:        58.7
 (Enter /public3/home/sc51754/softwares/g09e01/l502.exe)
 Closed shell SCF:
 Using DIIS extrapolation, IDIIS=  1040.
 Integral symmetry usage will be decided dynamically.
 Keep R1 ints in memory in symmetry-blocked form, NReq=4932517.
 IVT=       35997 IEndB=       35997 NGot= 17179869184 MDV= 17179451308
 LenX= 17179451308 LenY= 17179446642
 Requested convergence on RMS density matrix=1.00D-08 within 128 cycles.
 Requested convergence on MAX density matrix=1.00D-06.
 Requested convergence on             energy=1.00D-06.
 No special actions if energy rises.
 FoFCou: FMM=F IPFlag=           0 FMFlag=           0 FMFlg1=           0
         NFxFlg=           0 DoJE=F BraDBF=F KetDBF=F FulRan=T
         wScrn=  0.000000 ICntrl=     600 IOpCl=  0 I1Cent=           0 NGrid=           0
         NMat0=    1 NMatS0=   1711 NMatT0=    0 NMatD0=    1 NMtDS0=    0 NMtDT0=    0
 Petite list used in FoFCou.
 Integral accuracy reduced to 1.0D-05 until final iterations.

 Cycle   1  Pass 0  IDiag  1:
 E= -76.4499494546366    
 DIIS: error= 2.21D-03 at cycle   1 NSaved=   1.
 NSaved= 1 IEnMin= 1 EnMin= -76.4499494546366     IErMin= 1 ErrMin= 2.21D-03
 ErrMax= 2.21D-03  0.00D+00 EMaxC= 1.00D-01 BMatC= 2.56D-04 BMatP= 2.56D-04
 IDIUse=3 WtCom= 9.78D-01 WtEn= 2.21D-02
 Coeff-Com:  0.100D+01
 Coeff-En:   0.100D+01
 Coeff:      0.100D+01
 Gap=     1.380 Goal=   None    Shift=    0.000
 GapD=    1.380 DampG=2.000 DampE=1.000 DampFc=2.0000 IDamp=-1.
 RMSDP=2.57D-04 MaxDP=3.42D-03              OVMax= 5.29D-03

 Cycle   2  Pass 0  IDiag  1:
 E= -76.4501393617145     Delta-E=       -0.000189907078 Rises=F Damp=F
 DIIS: error= 3.84D-04 at cycle   2 NSaved=   2.
 NSaved= 2 IEnMin= 2 EnMin= -76.4501393617145     IErMin= 2 ErrMin= 3.84D-04
 ErrMax= 3.84D-04  0.00D+00 EMaxC= 1.00D-01 BMatC= 5.24D-06 BMatP= 2.56D-04
 IDIUse=3 WtCom= 9.96D-01 WtEn= 3.84D-03
 Coeff-Com: -0.830D-01 0.108D+01
 Coeff-En:   0.000D+00 0.100D+01
 Coeff:     -0.827D-01 0.108D+01
 Gap=     0.538 Goal=   None    Shift=    0.000
 RMSDP=7.44D-05 MaxDP=1.31D-03 DE=-1.90D-04 OVMax= 1.41D-03

 Cycle   3  Pass 0  IDiag  1:
 E= -76.4501460775674     Delta-E=       -0.000006715853 Rises=F Damp=F
 DIIS: error= 2.53D-04 at cycle   3 NSaved=   3.
 NSaved= 3 IEnMin= 3 EnMin= -76.4501460775674     IErMin= 3 ErrMin= 2.53D-04
 ErrMax= 2.53D-04  0.00D+00 EMaxC= 1.00D-01 BMatC= 1.73D-06 BMatP= 5.24D-06
 IDIUse=3 WtCom= 9.97D-01 WtEn= 2.53D-03
 Coeff-Com: -0.426D-01 0.404D+00 0.638D+00
 Coeff-En:   0.000D+00 0.000D+00 0.100D+01
 Coeff:     -0.425D-01 0.403D+00 0.639D+00
 Gap=     0.539 Goal=   None    Shift=    0.000
 RMSDP=1.65D-05 MaxDP=2.74D-04 DE=-6.72D-06 OVMax= 3.94D-04

 Cycle   4  Pass 0  IDiag  1:
 E= -76.4501472478524     Delta-E=       -0.000001170285 Rises=F Damp=F
 DIIS: error= 7.47D-05 at cycle   4 NSaved=   4.
 NSaved= 4 IEnMin= 4 EnMin= -76.4501472478524     IErMin= 4 ErrMin= 7.47D-05
 ErrMax= 7.47D-05  0.00D+00 EMaxC= 1.00D-01 BMatC= 1.53D-07 BMatP= 1.73D-06
 IDIUse=1 WtCom= 1.00D+00 WtEn= 0.00D+00
 Coeff-Com:  0.756D-02-0.132D+00 0.142D+00 0.982D+00
 Coeff:      0.756D-02-0.132D+00 0.142D+00 0.982D+00
 Gap=     0.539 Goal=   None    Shift=    0.000
 RMSDP=1.41D-05 MaxDP=2.55D-04 DE=-1.17D-06 OVMax= 2.10D-04

 Cycle   5  Pass 0  IDiag  1:
 E= -76.4501474105752     Delta-E=       -0.000000162723 Rises=F Damp=F
 DIIS: error= 6.03D-06 at cycle   5 NSaved=   5.
 NSaved= 5 IEnMin= 5 EnMin= -76.4501474105752     IErMin= 5 ErrMin= 6.03D-06
 ErrMax= 6.03D-06  0.00D+00 EMaxC= 1.00D-01 BMatC= 8.19D-10 BMatP= 1.53D-07
 IDIUse=1 WtCom= 1.00D+00 WtEn= 0.00D+00
 Coeff-Com:  0.551D-03-0.162D-02-0.229D-01-0.512D-01 0.108D+01
 Coeff:      0.551D-03-0.162D-02-0.229D-01-0.512D-01 0.108D+01
 Gap=     0.539 Goal=   None    Shift=    0.000
 RMSDP=2.45D-06 MaxDP=4.28D-05 DE=-1.63D-07 OVMax= 3.44D-05

 Initial convergence to 1.0D-05 achieved.  Increase integral accuracy.
 Cycle   6  Pass 1  IDiag  1:
 E= -76.4501088442724     Delta-E=        0.000038566303 Rises=F Damp=F
 DIIS: error= 7.92D-05 at cycle   1 NSaved=   1.
 NSaved= 1 IEnMin= 1 EnMin= -76.4501088442724     IErMin= 1 ErrMin= 7.92D-05
 ErrMax= 7.92D-05  0.00D+00 EMaxC= 1.00D-01 BMatC= 1.40D-07 BMatP= 1.40D-07
 IDIUse=1 WtCom= 1.00D+00 WtEn= 0.00D+00
 Coeff-Com:  0.100D+01
 Coeff:      0.100D+01
 Gap=     0.539 Goal=   None    Shift=    0.000
 RMSDP=2.45D-06 MaxDP=4.28D-05 DE= 3.86D-05 OVMax= 5.22D-05

 Cycle   7  Pass 1  IDiag  1:
 E= -76.4501088967566     Delta-E=       -0.000000052484 Rises=F Damp=F
 DIIS: error= 8.15D-06 at cycle   2 NSaved=   2.
 NSaved= 2 IEnMin= 2 EnMin= -76.4501088967566     IErMin= 2 ErrMin= 8.15D-06
 ErrMax= 8.15D-06  0.00D+00 EMaxC= 1.00D-01 BMatC= 2.30D-09 BMatP= 1.40D-07
 IDIUse=1 WtCom= 1.00D+00 WtEn= 0.00D+00
 Coeff-Com: -0.684D-01 0.107D+01
 Coeff:     -0.684D-01 0.107D+01
 Gap=     0.539 Goal=   None    Shift=    0.000
 RMSDP=6.96D-07 MaxDP=1.29D-05 DE=-5.25D-08 OVMax= 1.52D-05

 Cycle   8  Pass 1  IDiag  1:
 E= -76.4501088971792     Delta-E=       -0.000000000423 Rises=F Damp=F
 DIIS: error= 6.99D-06 at cycle   3 NSaved=   3.
 NSaved= 3 IEnMin= 3 EnMin= -76.4501088971792     IErMin= 3 ErrMin= 6.99D-06
 ErrMax= 6.99D-06  0.00D+00 EMaxC= 1.00D-01 BMatC= 1.31D-09 BMatP= 2.30D-09
 IDIUse=1 WtCom= 1.00D+00 WtEn= 0.00D+00
 Coeff-Com: -0.428D-01 0.500D+00 0.543D+00
 Coeff:     -0.428D-01 0.500D+00 0.543D+00
 Gap=     0.539 Goal=   None    Shift=    0.000
 RMSDP=2.64D-07 MaxDP=5.85D-06 DE=-4.23D-10 OVMax= 7.51D-06

 Cycle   9  Pass 1  IDiag  1:
 E= -76.4501088979835     Delta-E=       -0.000000000804 Rises=F Damp=F
 DIIS: error= 6.11D-07 at cycle   4 NSaved=   4.
 NSaved= 4 IEnMin= 4 EnMin= -76.4501088979835     IErMin= 4 ErrMin= 6.11D-07
 ErrMax= 6.11D-07  0.00D+00 EMaxC= 1.00D-01 BMatC= 1.16D-11 BMatP= 1.31D-09
 IDIUse=1 WtCom= 1.00D+00 WtEn= 0.00D+00
 Coeff-Com: -0.648D-02 0.622D-01 0.119D+00 0.825D+00
 Coeff:     -0.648D-02 0.622D-01 0.119D+00 0.825D+00
 Gap=     0.539 Goal=   None    Shift=    0.000
 RMSDP=3.01D-08 MaxDP=4.69D-07 DE=-8.04D-10 OVMax= 1.02D-06

 Cycle  10  Pass 1  IDiag  1:
 E= -76.4501088979913     Delta-E=       -0.000000000008 Rises=F Damp=F
 DIIS: error= 6.47D-08 at cycle   5 NSaved=   5.
 NSaved= 5 IEnMin= 5 EnMin= -76.4501088979913     IErMin= 5 ErrMin= 6.47D-08
 ErrMax= 6.47D-08  0.00D+00 EMaxC= 1.00D-01 BMatC= 1.61D-13 BMatP= 1.16D-11
 IDIUse=1 WtCom= 1.00D+00 WtEn= 0.00D+00
 Coeff-Com:  0.111D-02-0.136D-01-0.163D-01 0.907D-02 0.102D+01
 Coeff:      0.111D-02-0.136D-01-0.163D-01 0.907D-02 0.102D+01
 Gap=     0.539 Goal=   None    Shift=    0.000
 RMSDP=1.00D-08 MaxDP=1.59D-07 DE=-7.87D-12 OVMax= 3.90D-07

 Cycle  11  Pass 1  IDiag  1:
 E= -76.4501088979917     Delta-E=       -0.000000000000 Rises=F Damp=F
 DIIS: error= 2.33D-08 at cycle   6 NSaved=   6.
 NSaved= 6 IEnMin= 6 EnMin= -76.4501088979917     IErMin= 6 ErrMin= 2.33D-08
 ErrMax= 2.33D-08  0.00D+00 EMaxC= 1.00D-01 BMatC= 7.21D-15 BMatP= 1.61D-13
 IDIUse=1 WtCom= 1.00D+00 WtEn= 0.00D+00
 Coeff-Com: -0.130D-03 0.202D-02 0.240D-02-0.131D-01-0.323D+00 0.133D+01
 Coeff:     -0.130D-03 0.202D-02 0.240D-02-0.131D-01-0.323D+00 0.133D+01
 Gap=     0.539 Goal=   None    Shift=    0.000
 RMSDP=3.67D-09 MaxDP=5.50D-08 DE=-3.98D-13 OVMax= 1.72D-07

 SCF Done:  E(RwB97) =  -76.4501088980     A.U. after   11 cycles
            NFock= 11  Conv=0.37D-08     -V/T= 2.0038
 KE= 7.616248017513D+01 PE=-1.992294144284D+02 EE= 3.740993819594D+01
 Leave Link  502 at Fri Aug 27 00:03:19 2021, MaxMem= 17179869184 cpu:        44.9
 (Enter /public3/home/sc51754/softwares/g09e01/l701.exe)
 Compute integral first derivatives.
 ... and contract with generalized density number  0.
 Leave Link  701 at Fri Aug 27 00:03:20 2021, MaxMem= 17179869184 cpu:        59.8
 (Enter /public3/home/sc51754/softwares/g09e01/l702.exe)
 L702 exits ... SP integral derivatives will be done elsewhere.
 Leave Link  702 at Fri Aug 27 00:03:20 2021, MaxMem= 17179869184 cpu:         0.3
 (Enter /public3/home/sc51754/softwares/g09e01/l703.exe)
 Compute integral first derivatives, UseDBF=F ICtDFT=           0.
 Integral derivatives from FoFJK, PRISM(SPDF).
 Calling FoFJK, ICntrl=      2127 FMM=F ISym2X=1 I1Cent= 0 IOpClX= 0 NMat=1 NMatS=1 NMatT=0.
 FoFJK:  IHMeth= 1 ICntrl=    2127 DoSepK=T KAlg= 0 I1Cent=   0 FoldK=F
 IRaf=         1 NMat=   1 IRICut=       1 DoRegI=T DoRafI=F ISym2E= 1.
 FoFCou: FMM=F IPFlag=           0 FMFlag=      100000 FMFlg1=         800
         NFxFlg=           0 DoJE=F BraDBF=F KetDBF=F FulRan=T
         wScrn=  0.000000 ICntrl=    2527 IOpCl=  0 I1Cent=           0 NGrid=           0
         NMat0=    1 NMatS0=      1 NMatT0=    0 NMatD0=    1 NMtDS0=    0 NMtDT0=    0
 Petite list used in FoFCou.
 Leave Link  703 at Fri Aug 27 00:03:22 2021, MaxMem= 17179869184 cpu:        66.2
 (Enter /public3/home/sc51754/softwares/g09e01/l716.exe)
 Dipole        = 3.60557396D-17-1.11022302D-15-7.90145394D-01
 ***** Axes restored to original set *****
 -------------------------------------------------------------------
 Center     Atomic                   Forces (Hartrees/Bohr)
 Number     Number              X              Y              Z
 -------------------------------------------------------------------
      1        8          -0.001519773   -0.002150429    0.000000000
      2        1           0.001891598    0.000275400   -0.000000000
      3        1          -0.000371825    0.001875029   -0.000000000
 -------------------------------------------------------------------
 Cartesian Forces:  Max     0.002150429 RMS     0.001257954
 Leave Link  716 at Fri Aug 27 00:03:22 2021, MaxMem= 17179869184 cpu:         0.3
 (Enter /public3/home/sc51754/softwares/g09e01/l103.exe)

 GradGradGradGradGradGradGradGradGradGradGradGradGradGradGradGradGradGrad
 Berny optimization.
 Using GEDIIS/GDIIS optimizer.
 FormGI is forming the generalized inverse of G from B-inverse, IUseBI=4.
 Internal  Forces:  Max     0.001900019 RMS     0.001566672
 Search for a local minimum.
 Step number   2 out of a maximum of   20
 All quantities printed in internal units (Hartrees-Bohrs-Radians)
 RMS Force = .15667D-02 SwitMx=.10000D-02 MixMth= 1
 Mixed Optimization -- RFO/linear search
 Update second derivatives using D2CorX and points    1    2
 DE= -4.22D-04 DEPred=-4.21D-04 R= 1.00D+00
 TightC=F SS=  1.41D+00  RLast= 6.99D-02 DXNew= 5.0454D-01 2.0968D-01
 Trust test= 1.00D+00 RLast= 6.99D-02 DXMaxT set to 3.00D-01
 The second derivative matrix:
                          R1        R2        A1
           R1           0.57913
           R2           0.02440   0.57913
           A1           0.02193   0.02193   0.15020
 ITU=  1  0
 Use linear search instead of GDIIS.
     Eigenvalues ---    0.14809   0.55473   0.60564
 RFO step:  Lambda=-1.37486560D-05 EMin= 1.48089311D-01
 Quartic linear search produced a step of -0.00531.
 Iteration  1 RMS(Cart)=  0.00219312 RMS(Int)=  0.00000429
 Iteration  2 RMS(Cart)=  0.00000481 RMS(Int)=  0.00000000
 Iteration  3 RMS(Cart)=  0.00000000 RMS(Int)=  0.00000000
 ITry= 1 IFail=0 DXMaxC= 2.45D-03 DCOld= 1.00D+10 DXMaxT= 3.00D-01 DXLimC= 3.00D+00 Rises=F
 ClnCor:  largest displacement from symmetrization is 2.01D-15 for atom     2.
 Variable       Old X    -DE/DX   Delta X   Delta X   Delta X     New X
                                 (Linear)    (Quad)   (Total)
    R1        1.80605   0.00190   0.00004   0.00323   0.00327   1.80932
    R2        1.80605   0.00190   0.00004   0.00323   0.00327   1.80932
    A1        1.84168  -0.00038   0.00037  -0.00386  -0.00349   1.83819
         Item               Value     Threshold  Converged?
 Maximum Force            0.001900     0.000450     NO 
 RMS     Force            0.001567     0.000300     NO 
 Maximum Displacement     0.002447     0.001800     NO 
 RMS     Displacement     0.002193     0.001200     NO 
 Predicted change in Energy=-6.879311D-06
 Lowest energy point so far.  Saving SCF results.
 GradGradGradGradGradGradGradGradGradGradGradGradGradGradGradGradGradGrad

 Leave Link  103 at Fri Aug 27 00:03:22 2021, MaxMem= 17179869184 cpu:        21.1
 (Enter /public3/home/sc51754/softwares/g09e01/l202.exe)
                          Input orientation:                          
 ---------------------------------------------------------------------
 Center     Atomic      Atomic             Coordinates (Angstroms)
 Number     Number       Type             X           Y           Z
 ---------------------------------------------------------------------
      1          8           0        0.029030    0.781157    0.000000
      2          1           0        0.985844    0.816069   -0.000000
      3          1           0       -0.257451    1.694743    0.000000
 ---------------------------------------------------------------------
                    Distance matrix (angstroms):
                    1          2          3
     1  O    0.000000
     2  H    0.957451   0.000000
     3  H    0.957451   1.522449   0.000000
 Stoichiometry    H2O
 Framework group  C2V[C2(O),SGV(H2)]
 Deg. of freedom     2
 Full point group                 C2V     NOp   4
 RotChk:  IX=3 Diff= 1.58D-15
 Largest Abelian subgroup         C2V     NOp   4
 Largest concise Abelian subgroup C2      NOp   2
                         Standard orientation:                         
 ---------------------------------------------------------------------
 Center     Atomic      Atomic             Coordinates (Angstroms)
 Number     Number       Type             X           Y           Z
 ---------------------------------------------------------------------
      1          8           0        0.000000   -0.000000    0.116146
      2          1           0       -0.000000   -0.761225   -0.464585
      3          1           0        0.000000    0.761225   -0.464585
 ---------------------------------------------------------------------
 Rotational constants (GHZ):    837.1379314    432.6895395    285.2520002
 Leave Link  202 at Fri Aug 27 00:03:22 2021, MaxMem= 17179869184 cpu:         5.3
 (Enter /public3/home/sc51754/softwares/g09e01/l301.exe)
 Basis read from rwf:  (5D, 7F)
 No pseudopotential information found on rwf file.
 There are    27 symmetry adapted cartesian basis functions of A1  symmetry.
 There are     7 symmetry adapted cartesian basis functions of A2  symmetry.
 There are    12 symmetry adapted cartesian basis functions of B1  symmetry.
 There are    19 symmetry adapted cartesian basis functions of B2  symmetry.
 There are    23 symmetry adapted basis functions of A1  symmetry.
 There are     7 symmetry adapted basis functions of A2  symmetry.
 There are    11 symmetry adapted basis functions of B1  symmetry.
 There are    17 symmetry adapted basis functions of B2  symmetry.
    58 basis functions,    91 primitive gaussians,    65 cartesian basis functions
     5 alpha electrons        5 beta electrons
       nuclear repulsion energy         9.1906864331 Hartrees.
 IExCor= 4437 DFT=T Ex+Corr=wB97 ExCW=0 ScaHFX=  1.000000
 ScaDFX=  1.000000  1.000000  1.000000  1.000000 ScalE2=  1.000000  1.000000
 IRadAn=      0 IRanWt=     -1 IRanGd=            0 ICorTp=0 IEmpDi=  4
  HFx wShort=  0.000000 wLong=  0.400000 cFull=  0.000000 cShort=  0.000000 cLong=  1.000000
  DFx wShort=  0.000000 wLong=  0.400000 cFull=  0.000000 cShort=  0.000000 cLong=  1.000000
 NAtoms=    3 NActive=    3 NUniq=    2 SFac= 2.25D+00 NAtFMM=   60 NAOKFM=F Big=F
 Integral buffers will be    131072 words long.
 Raffenetti 2 integral format.
 Two-electron integral symmetry is turned on.
 No density basis found on file   724.
 Leave Link  301 at Fri Aug 27 00:03:22 2021, MaxMem= 17179869184 cpu:         1.5
 (Enter /public3/home/sc51754/softwares/g09e01/l302.exe)
 NPDir=0 NMtPBC=     1 NCelOv=     1 NCel=       1 NClECP=     1 NCelD=      1
         NCelK=      1 NCelE2=     1 NClLst=     1 CellRange=     0.0.
 One-electron integrals computed using PRISM.
 One-electron integral symmetry used in STVInt
 NBasis=    58 RedAO= T EigKep=  5.77D-03  NBF=    23     7    11    17
 NBsUse=    58 1.00D-06 EigRej= -1.00D+00 NBFU=    23     7    11    17
 Precomputing XC quadrature grid using
 IXCGrd= 4 IRadAn=           0 IRanWt=          -1 IRanGd=           0 AccXCQ= 0.00D+00.
 Generated NRdTot=       0 NPtTot=           0 NUsed=           0 NTot=          32
 NSgBfM=    65    65    65    65    65 MxSgAt=     3 MxSgA2=     3.
 Leave Link  302 at Fri Aug 27 00:03:23 2021, MaxMem= 17179869184 cpu:        33.8
 (Enter /public3/home/sc51754/softwares/g09e01/l303.exe)
 DipDrv:  MaxL=1.
 Leave Link  303 at Fri Aug 27 00:03:24 2021, MaxMem= 17179869184 cpu:        13.2
 (Enter /public3/home/sc51754/softwares/g09e01/l401.exe)
 Initial guess from the checkpoint file:  "H2O_wB97_PC2_OPT_FREQ.chk"
 B after Tr=     0.000000   -0.000000    0.000000
         Rot=    1.000000    0.000000   -0.000000    0.000000 Ang=   0.00 deg.
 Guess basis will be translated and rotated to current coordinates.
 JPrj=2 DoOrth=T DoCkMO=T.
 Initial guess orbital symmetries:
       Occupied  (A1) (A1) (B2) (A1) (B1)
       Virtual   (A1) (A1) (A1) (A1) (A1) (A1) (A1) (A1) (A1) (A1)
                 (A1) (A1) (A1) (A1) (A1) (A1) (A1) (A1) (A1) (A1)
                 (A2) (A2) (A2) (A2) (A2) (A2) (A2) (B1) (B1) (B1)
                 (B1) (B1) (B1) (B1) (B1) (B1) (B1) (B2) (B2) (B2)
                 (B2) (B2) (B2) (B2) (B2) (B2) (B2) (B2) (B2) (B2)
                 (B2) (B2) (B2)
 The electronic state of the initial guess is 1-A1.
 Leave Link  401 at Fri Aug 27 00:03:24 2021, MaxMem= 17179869184 cpu:        31.2
 (Enter /public3/home/sc51754/softwares/g09e01/l502.exe)
 Closed shell SCF:
 Using DIIS extrapolation, IDIIS=  1040.
 Integral symmetry usage will be decided dynamically.
 Keep R1 ints in memory in symmetry-blocked form, NReq=4932517.
 IVT=       35997 IEndB=       35997 NGot= 17179869184 MDV= 17179451308
 LenX= 17179451308 LenY= 17179446642
 Requested convergence on RMS density matrix=1.00D-08 within 128 cycles.
 Requested convergence on MAX density matrix=1.00D-06.
 Requested convergence on             energy=1.00D-06.
 No special actions if energy rises.
 FoFCou: FMM=F IPFlag=           0 FMFlag=           0 FMFlg1=           0
         NFxFlg=           0 DoJE=F BraDBF=F KetDBF=F FulRan=T
         wScrn=  0.000000 ICntrl=     600 IOpCl=  0 I1Cent=           0 NGrid=           0
         NMat0=    1 NMatS0=   1711 NMatT0=    0 NMatD0=    1 NMtDS0=    0 NMtDT0=    0
 Petite list used in FoFCou.

 Cycle   1  Pass 1  IDiag  1:
 E= -76.4501138604701    
 DIIS: error= 4.07D-04 at cycle   1 NSaved=   1.
 NSaved= 1 IEnMin= 1 EnMin= -76.4501138604701     IErMin= 1 ErrMin= 4.07D-04
 ErrMax= 4.07D-04  0.00D+00 EMaxC= 1.00D-01 BMatC= 3.58D-06 BMatP= 3.58D-06
 IDIUse=3 WtCom= 9.96D-01 WtEn= 4.07D-03
 Coeff-Com:  0.100D+01
 Coeff-En:   0.100D+01
 Coeff:      0.100D+01
 Gap=     1.376 Goal=   None    Shift=    0.000
 RMSDP=2.55D-05 MaxDP=3.95D-04              OVMax= 5.72D-04

 Cycle   2  Pass 1  IDiag  1:
 E= -76.4501161777263     Delta-E=       -0.000002317256 Rises=F Damp=F
 DIIS: error= 1.03D-04 at cycle   2 NSaved=   2.
 NSaved= 2 IEnMin= 2 EnMin= -76.4501161777263     IErMin= 2 ErrMin= 1.03D-04
 ErrMax= 1.03D-04  0.00D+00 EMaxC= 1.00D-01 BMatC= 2.73D-07 BMatP= 3.58D-06
 IDIUse=3 WtCom= 9.99D-01 WtEn= 1.03D-03
 Coeff-Com:  0.579D-01 0.942D+00
 Coeff-En:   0.000D+00 0.100D+01
 Coeff:      0.579D-01 0.942D+00
 Gap=     0.539 Goal=   None    Shift=    0.000
 RMSDP=7.78D-06 MaxDP=1.91D-04 DE=-2.32D-06 OVMax= 1.92D-04

 Cycle   3  Pass 1  IDiag  1:
 E= -76.4501163023564     Delta-E=       -0.000000124630 Rises=F Damp=F
 DIIS: error= 7.55D-05 at cycle   3 NSaved=   3.
 NSaved= 3 IEnMin= 3 EnMin= -76.4501163023564     IErMin= 3 ErrMin= 7.55D-05
 ErrMax= 7.55D-05  0.00D+00 EMaxC= 1.00D-01 BMatC= 1.51D-07 BMatP= 2.73D-07
 IDIUse=1 WtCom= 1.00D+00 WtEn= 0.00D+00
 Coeff-Com: -0.360D-01 0.426D+00 0.610D+00
 Coeff:     -0.360D-01 0.426D+00 0.610D+00
 Gap=     0.539 Goal=   None    Shift=    0.000
 RMSDP=3.37D-06 MaxDP=5.99D-05 DE=-1.25D-07 OVMax= 1.08D-04

 Cycle   4  Pass 1  IDiag  1:
 E= -76.4501164050237     Delta-E=       -0.000000102667 Rises=F Damp=F
 DIIS: error= 1.03D-05 at cycle   4 NSaved=   4.
 NSaved= 4 IEnMin= 4 EnMin= -76.4501164050237     IErMin= 4 ErrMin= 1.03D-05
 ErrMax= 1.03D-05  0.00D+00 EMaxC= 1.00D-01 BMatC= 2.98D-09 BMatP= 1.51D-07
 IDIUse=1 WtCom= 1.00D+00 WtEn= 0.00D+00
 Coeff-Com: -0.457D-02-0.495D-01 0.506D-01 0.100D+01
 Coeff:     -0.457D-02-0.495D-01 0.506D-01 0.100D+01
 Gap=     0.539 Goal=   None    Shift=    0.000
 RMSDP=1.28D-06 MaxDP=1.75D-05 DE=-1.03D-07 OVMax= 4.26D-05

 Cycle   5  Pass 1  IDiag  1:
 E= -76.4501164099111     Delta-E=       -0.000000004887 Rises=F Damp=F
 DIIS: error= 3.67D-06 at cycle   5 NSaved=   5.
 NSaved= 5 IEnMin= 5 EnMin= -76.4501164099111     IErMin= 5 ErrMin= 3.67D-06
 ErrMax= 3.67D-06  0.00D+00 EMaxC= 1.00D-01 BMatC= 1.50D-10 BMatP= 2.98D-09
 IDIUse=1 WtCom= 1.00D+00 WtEn= 0.00D+00
 Coeff-Com:  0.289D-02-0.362D-01-0.491D-01-0.107D-01 0.109D+01
 Coeff:      0.289D-02-0.362D-01-0.491D-01-0.107D-01 0.109D+01
 Gap=     0.539 Goal=   None    Shift=    0.000
 RMSDP=5.63D-07 MaxDP=9.84D-06 DE=-4.89D-09 OVMax= 1.83D-05

 Cycle   6  Pass 1  IDiag  1:
 E= -76.4501164103444     Delta-E=       -0.000000000433 Rises=F Damp=F
 DIIS: error= 5.47D-07 at cycle   6 NSaved=   6.
 NSaved= 6 IEnMin= 6 EnMin= -76.4501164103444     IErMin= 6 ErrMin= 5.47D-07
 ErrMax= 5.47D-07  0.00D+00 EMaxC= 1.00D-01 BMatC= 3.41D-12 BMatP= 1.50D-10
 IDIUse=1 WtCom= 1.00D+00 WtEn= 0.00D+00
 Coeff-Com: -0.403D-03 0.842D-02 0.791D-02-0.223D-01-0.252D+00 0.126D+01
 Coeff:     -0.403D-03 0.842D-02 0.791D-02-0.223D-01-0.252D+00 0.126D+01
 Gap=     0.539 Goal=   None    Shift=    0.000
 RMSDP=1.12D-07 MaxDP=2.38D-06 DE=-4.33D-10 OVMax= 3.85D-06

 Cycle   7  Pass 1  IDiag  1:
 E= -76.4501164103596     Delta-E=       -0.000000000015 Rises=F Damp=F
 DIIS: error= 5.32D-08 at cycle   7 NSaved=   7.
 NSaved= 7 IEnMin= 7 EnMin= -76.4501164103596     IErMin= 7 ErrMin= 5.32D-08
 ErrMax= 5.32D-08  0.00D+00 EMaxC= 1.00D-01 BMatC= 6.40D-14 BMatP= 3.41D-12
 IDIUse=1 WtCom= 1.00D+00 WtEn= 0.00D+00
 Coeff-Com:  0.307D-04-0.107D-02-0.688D-03 0.299D-02 0.375D-01-0.288D+00
 Coeff-Com:  0.125D+01
 Coeff:      0.307D-04-0.107D-02-0.688D-03 0.299D-02 0.375D-01-0.288D+00
 Coeff:      0.125D+01
 Gap=     0.539 Goal=   None    Shift=    0.000
 RMSDP=1.08D-08 MaxDP=1.52D-07 DE=-1.52D-11 OVMax= 4.59D-07

 Cycle   8  Pass 1  IDiag  1:
 E= -76.4501164103601     Delta-E=       -0.000000000000 Rises=F Damp=F
 DIIS: error= 4.10D-09 at cycle   8 NSaved=   8.
 NSaved= 8 IEnMin= 8 EnMin= -76.4501164103601     IErMin= 8 ErrMin= 4.10D-09
 ErrMax= 4.10D-09  0.00D+00 EMaxC= 1.00D-01 BMatC= 5.92D-16 BMatP= 6.40D-14
 IDIUse=1 WtCom= 1.00D+00 WtEn= 0.00D+00
 Coeff-Com:  0.116D-05 0.675D-04 0.252D-04-0.791D-04-0.378D-02 0.372D-01
 Coeff-Com: -0.231D+00 0.120D+01
 Coeff:      0.116D-05 0.675D-04 0.252D-04-0.791D-04-0.378D-02 0.372D-01
 Coeff:     -0.231D+00 0.120D+01
 Gap=     0.539 Goal=   None    Shift=    0.000
 RMSDP=2.12D-09 MaxDP=3.59D-08 DE=-4.69D-13 OVMax= 2.76D-08

 SCF Done:  E(RwB97) =  -76.4501164104     A.U. after    8 cycles
            NFock=  8  Conv=0.21D-08     -V/T= 2.0039
 KE= 7.615668876075D+01 PE=-1.991946927971D+02 EE= 3.739720119283D+01
 Leave Link  502 at Fri Aug 27 00:03:25 2021, MaxMem= 17179869184 cpu:        45.8
 (Enter /public3/home/sc51754/softwares/g09e01/l701.exe)
 Compute integral first derivatives.
 ... and contract with generalized density number  0.
 Leave Link  701 at Fri Aug 27 00:03:27 2021, MaxMem= 17179869184 cpu:        61.9
 (Enter /public3/home/sc51754/softwares/g09e01/l702.exe)
 L702 exits ... SP integral derivatives will be done elsewhere.
 Leave Link  702 at Fri Aug 27 00:03:27 2021, MaxMem= 17179869184 cpu:         0.3
 (Enter /public3/home/sc51754/softwares/g09e01/l703.exe)
 Compute integral first derivatives, UseDBF=F ICtDFT=           0.
 Integral derivatives from FoFJK, PRISM(SPDF).
 Calling FoFJK, ICntrl=      2127 FMM=F ISym2X=1 I1Cent= 0 IOpClX= 0 NMat=1 NMatS=1 NMatT=0.
 FoFJK:  IHMeth= 1 ICntrl=    2127 DoSepK=T KAlg= 0 I1Cent=   0 FoldK=F
 IRaf=         1 NMat=   1 IRICut=       1 DoRegI=T DoRafI=F ISym2E= 1.
 FoFCou: FMM=F IPFlag=           0 FMFlag=      100000 FMFlg1=         800
         NFxFlg=           0 DoJE=F BraDBF=F KetDBF=F FulRan=T
         wScrn=  0.000000 ICntrl=    2527 IOpCl=  0 I1Cent=           0 NGrid=           0
         NMat0=    1 NMatS0=      1 NMatT0=    0 NMatD0=    1 NMtDS0=    0 NMtDT0=    0
 Petite list used in FoFCou.
 Leave Link  703 at Fri Aug 27 00:03:28 2021, MaxMem= 17179869184 cpu:        62.0
 (Enter /public3/home/sc51754/softwares/g09e01/l716.exe)
 Dipole        = 3.62394239D-17-4.44089210D-16-7.91765637D-01
 ***** Axes restored to original set *****
 -------------------------------------------------------------------
 Center     Atomic                   Forces (Hartrees/Bohr)
 Number     Number              X              Y              Z
 -------------------------------------------------------------------
      1        8          -0.000140931   -0.000199412    0.000000000
      2        1           0.000179808    0.000022431   -0.000000000
      3        1          -0.000038877    0.000176982   -0.000000000
 -------------------------------------------------------------------
 Cartesian Forces:  Max     0.000199412 RMS     0.000117990
 Leave Link  716 at Fri Aug 27 00:03:28 2021, MaxMem= 17179869184 cpu:         0.4
 (Enter /public3/home/sc51754/softwares/g09e01/l103.exe)

 GradGradGradGradGradGradGradGradGradGradGradGradGradGradGradGradGradGrad
 Berny optimization.
 Using GEDIIS/GDIIS optimizer.
 FormGI is forming the generalized inverse of G from B-inverse, IUseBI=4.
 Internal  Forces:  Max     0.000180506 RMS     0.000148311
 Search for a local minimum.
 Step number   3 out of a maximum of   20
 All quantities printed in internal units (Hartrees-Bohrs-Radians)
 RMS Force = .14831D-03 SwitMx=.10000D-02 MixMth= 2
 Mixed Optimization -- En-DIIS/RFO-DIIS
 Update second derivatives using D2CorX and points    1    2    3
 DE= -7.51D-06 DEPred=-6.88D-06 R= 1.09D+00
 TightC=F SS=  1.41D+00  RLast= 5.80D-03 DXNew= 5.0454D-01 1.7401D-02
 Trust test= 1.09D+00 RLast= 5.80D-03 DXMaxT set to 3.00D-01
 The second derivative matrix:
                          R1        R2        A1
           R1           0.55400
           R2          -0.00073   0.55400
           A1           0.02639   0.02639   0.14964
 ITU=  1  1  0
 Use linear search instead of GDIIS.
     Eigenvalues ---    0.14622   0.55473   0.55669
 RFO step:  Lambda= 0.00000000D+00 EMin= 1.46221985D-01
 Quartic linear search produced a step of  0.10335.
 Iteration  1 RMS(Cart)=  0.00022086 RMS(Int)=  0.00000004
 Iteration  2 RMS(Cart)=  0.00000004 RMS(Int)=  0.00000000
 ITry= 1 IFail=0 DXMaxC= 2.38D-04 DCOld= 1.00D+10 DXMaxT= 3.00D-01 DXLimC= 3.00D+00 Rises=F
 ClnCor:  largest displacement from symmetrization is 1.35D-15 for atom     3.
 Variable       Old X    -DE/DX   Delta X   Delta X   Delta X     New X
                                 (Linear)    (Quad)   (Total)
    R1        1.80932   0.00018   0.00034   0.00000   0.00034   1.80966
    R2        1.80932   0.00018   0.00034   0.00000   0.00034   1.80966
    A1        1.83819  -0.00003  -0.00036   0.00004  -0.00032   1.83787
         Item               Value     Threshold  Converged?
 Maximum Force            0.000181     0.000450     YES
 RMS     Force            0.000148     0.000300     YES
 Maximum Displacement     0.000238     0.001800     YES
 RMS     Displacement     0.000221     0.001200     YES
 Predicted change in Energy=-6.605165D-08
 Optimization completed.
    -- Stationary point found.
                           ----------------------------
                           !   Optimized Parameters   !
                           ! (Angstroms and Degrees)  !
 --------------------------                            --------------------------
 ! Name  Definition              Value          Derivative Info.                !
 --------------------------------------------------------------------------------
 ! R1    R(1,2)                  0.9575         -DE/DX =    0.0002              !
 ! R2    R(1,3)                  0.9575         -DE/DX =    0.0002              !
 ! A1    A(2,1,3)              105.3206         -DE/DX =    0.0                 !
 --------------------------------------------------------------------------------
 Lowest energy point so far.  Saving SCF results.
 GradGradGradGradGradGradGradGradGradGradGradGradGradGradGradGradGradGrad

 Largest change from initial coordinates is atom    3       0.031 Angstoms.
 Leave Link  103 at Fri Aug 27 00:03:28 2021, MaxMem= 17179869184 cpu:        16.3
 (Enter /public3/home/sc51754/softwares/g09e01/l202.exe)
                          Input orientation:                          
 ---------------------------------------------------------------------
 Center     Atomic      Atomic             Coordinates (Angstroms)
 Number     Number       Type             X           Y           Z
 ---------------------------------------------------------------------
      1          8           0        0.029030    0.781157    0.000000
      2          1           0        0.985844    0.816069   -0.000000
      3          1           0       -0.257451    1.694743    0.000000
 ---------------------------------------------------------------------
                    Distance matrix (angstroms):
                    1          2          3
     1  O    0.000000
     2  H    0.957451   0.000000
     3  H    0.957451   1.522449   0.000000
 Stoichiometry    H2O
 Framework group  C2V[C2(O),SGV(H2)]
 Deg. of freedom     2
 Full point group                 C2V     NOp   4
 RotChk:  IX=3 Diff= 6.47D-16
 Largest Abelian subgroup         C2V     NOp   4
 Largest concise Abelian subgroup C2      NOp   2
                         Standard orientation:                         
 ---------------------------------------------------------------------
 Center     Atomic      Atomic             Coordinates (Angstroms)
 Number     Number       Type             X           Y           Z
 ---------------------------------------------------------------------
      1          8           0       -0.000000   -0.000000    0.116146
      2          1           0        0.000000   -0.761225   -0.464585
      3          1           0        0.000000    0.761225   -0.464585
 ---------------------------------------------------------------------
 Rotational constants (GHZ):    837.1379314    432.6895395    285.2520002
 Leave Link  202 at Fri Aug 27 00:03:29 2021, MaxMem= 17179869184 cpu:         9.8
 (Enter /public3/home/sc51754/softwares/g09e01/l601.exe)
 Copying SCF densities to generalized density rwf, IOpCl= 0 IROHF=0.

 **********************************************************************

            Population analysis using the SCF density.

 **********************************************************************

 Orbital symmetries:
       Occupied  (A1) (A1) (B2) (A1) (B1)
       Virtual   (A1) (B2) (B2) (A1) (A1) (B1) (B2) (A1) (A2) (A1)
                 (B1) (B2) (B2) (A1) (A1) (B2) (B1) (A2) (A1) (A1)
                 (B2) (B1) (A1) (B1) (B2) (A1) (A2) (B2) (B1) (B2)
                 (A1) (A2) (A1) (B2) (B1) (A2) (A1) (B2) (B2) (A1)
                 (B1) (A1) (B1) (B2) (A2) (B1) (A1) (A2) (A1) (A1)
                 (B2) (B2) (A1)
 The electronic state is 1-A1.
 Alpha  occ. eigenvalues --  -18.99826  -1.14871  -0.65884  -0.51243  -0.43808
 Alpha virt. eigenvalues --    0.10048   0.14992   0.38632   0.39046   0.44598
 Alpha virt. eigenvalues --    0.44982   0.55418   0.78948   0.87934   0.90819
 Alpha virt. eigenvalues --    0.98644   1.15736   1.28392   1.32863   1.55837
 Alpha virt. eigenvalues --    1.58893   1.88512   1.95198   1.97681   2.18172
 Alpha virt. eigenvalues --    2.20967   2.39819   3.01637   3.49042   3.50152
 Alpha virt. eigenvalues --    3.63073   3.68003   3.81978   3.89942   3.96127
 Alpha virt. eigenvalues --    4.12995   4.17202   4.37884   4.48753   4.58547
 Alpha virt. eigenvalues --    4.62316   4.75973   4.93442   5.00815   5.01545
 Alpha virt. eigenvalues --    5.08423   5.74087   6.06107   6.10773   6.26059
 Alpha virt. eigenvalues --    6.30110   6.38740   6.40166   6.43384   6.93553
 Alpha virt. eigenvalues --    7.03106   7.49849  15.08274
          Condensed to atoms (all electrons):
               1          2          3
     1  O    7.689377   0.361999   0.361999
     2  H    0.361999   0.456721  -0.025407
     3  H    0.361999  -0.025407   0.456721
 Mulliken charges:
               1
     1  O   -0.413374
     2  H    0.206687
     3  H    0.206687
 Sum of Mulliken charges =  -0.00000
 Mulliken charges with hydrogens summed into heavy atoms:
               1
     1  O   -0.000000
 Electronic spatial extent (au):  <R**2>=             19.7632
 Charge=              0.0000 electrons
 Dipole moment (field-independent basis, Debye):
    X=              0.0000    Y=              0.0000    Z=             -2.0125  Tot=              2.0125
 Quadrupole moment (field-independent basis, Debye-Ang):
   XX=             -7.6496   YY=             -4.3719   ZZ=             -6.4024
   XY=              0.0000   XZ=             -0.0000   YZ=              0.0000
 Traceless Quadrupole moment (field-independent basis, Debye-Ang):
   XX=             -1.5083   YY=              1.7694   ZZ=             -0.2611
   XY=              0.0000   XZ=             -0.0000   YZ=              0.0000
 Octapole moment (field-independent basis, Debye-Ang**2):
  XXX=             -0.0000  YYY=             -0.0000  ZZZ=             -1.3492  XYY=              0.0000
  XXY=              0.0000  XXZ=             -0.3654  XZZ=             -0.0000  YZZ=             -0.0000
  YYZ=             -1.3641  XYZ=             -0.0000
 Hexadecapole moment (field-independent basis, Debye-Ang**3):
 XXXX=             -6.9398 YYYY=             -6.2304 ZZZZ=             -7.4494 XXXY=             -0.0000
 XXXZ=              0.0000 YYYX=             -0.0000 YYYZ=              0.0000 ZZZX=              0.0000
 ZZZY=              0.0000 XXYY=             -2.5082 XXZZ=             -2.4504 YYZZ=             -1.9645
 XXYZ=             -0.0000 YYXZ=             -0.0000 ZZXY=             -0.0000
 N-N= 9.190686433130D+00 E-N=-1.991946927838D+02  KE= 7.615668876075D+01
 Symmetry A1   KE= 6.793643243765D+01
 Symmetry A2   KE= 1.161407156693D-32
 Symmetry B1   KE= 4.535398568844D+00
 Symmetry B2   KE= 3.684857754255D+00
 No NMR shielding tensors so no spin-rotation constants.
 Leave Link  601 at Fri Aug 27 00:03:30 2021, MaxMem= 17179869184 cpu:        86.1
 (Enter /public3/home/sc51754/softwares/g09e01/l9999.exe)
 1\1\GINC-P2607\FOpt\RwB97\Gen\H2O1\SC51754\27-Aug-2021\0\\#p opt freq 
 wB97/gen\\H2O_wB97_PC2_OPT_FREQ\\0,1\O,0.0290303598,0.7811568675,0.\H,
 0.9858442897,0.8160690241,0.\H,-0.2574510315,1.6947432989,0.\\Version=
 EM64L-G09RevE.01\State=1-A1\HF=-76.4501164\RMSD=2.121e-09\RMSF=1.180e-
 04\Dipole=0.4569637,0.6465887,0.\Quadrupole=0.8126567,0.3087375,-1.121
 3943,-0.711512,0.,0.\PG=C02V [C2(O1),SGV(H2)]\\@


 Money is a good servant but a bad master.
                        -- French Proverb
 Leave Link 9999 at Fri Aug 27 00:03:31 2021, MaxMem= 17179869184 cpu:         2.3
 Job cpu time:       0 days  0 hours 20 minutes 11.6 seconds.
 File lengths (MBytes):  RWF=      5 Int=      0 D2E=      0 Chk=      1 Scr=      1
 Normal termination of Gaussian 09 at Fri Aug 27 00:03:31 2021.
 (Enter /public3/home/sc51754/softwares/g09e01/l1.exe)
 Link1:  Proceeding to internal job step number  2.
 -----------------------------------------------------------------
 #P Geom=AllCheck Guess=TCheck SCRF=Check GenChk RwB97/ChkBas Freq
 -----------------------------------------------------------------
 1/10=4,29=7,30=1,38=1,40=1/1,3;
 2/12=2,40=1/2;
 3/5=7,6=2,11=2,14=-4,16=1,25=1,30=1,67=1,70=2,71=2,74=-56,82=7,116=1,140=1/1,2,3;
 4/5=101/1;
 5/5=2,38=6,98=1/2;
 8/6=4,10=90,11=11/1;
 11/6=1,8=1,9=11,15=111,16=1/1,2,10;
 10/6=1/2;
 6/7=2,8=2,9=2,10=2,18=1,28=1/1;
 7/8=1,10=1,25=1/1,2,3,16;
 1/10=4,30=1/3;
 99//99;
 Leave Link    1 at Fri Aug 27 00:03:31 2021, MaxMem= 17179869184 cpu:         1.7
 (Enter /public3/home/sc51754/softwares/g09e01/l101.exe)
 Structure from the checkpoint file:  "H2O_wB97_PC2_OPT_FREQ.chk"
 ---------------------
 H2O_wB97_PC2_OPT_FREQ
 ---------------------
 Charge =  0 Multiplicity = 1
 Redundant internal coordinates found in file.
 O,0,0.0290303598,0.7811568675,0.
 H,0,0.9858442897,0.8160690241,0.
 H,0,-0.2574510315,1.6947432989,0.
 Recover connectivity data from disk.
 NAtoms=      3 NQM=        3 NQMF=       0 NMMI=      0 NMMIF=      0
                NMic=       0 NMicF=      0.
                    Isotopes and Nuclear Properties:
 (Nuclear quadrupole moments (NQMom) in fm**2, nuclear magnetic moments (NMagM)
  in nuclear magnetons)

[...]
      5 vectors produced by pass  6 Test12= 2.94D-15 1.11D-08 XBig12= 7.88D-12 8.02D-07.
      2 vectors produced by pass  7 Test12= 2.94D-15 1.11D-08 XBig12= 2.03D-14 6.89D-08.
 InvSVY:  IOpt=1 It=  1 EMax= 4.44D-16
 Solved reduced A of dimension    61 with     9 vectors.
 FullF1:  Do perturbations    1 to     9.
 Isotropic polarizability for W=    0.000000        7.33 Bohr**3.
 End of Minotr F.D. properties file   721 does not exist.
 End of Minotr F.D. properties file   722 does not exist.
 End of Minotr F.D. properties file   788 does not exist.
 Leave Link 1002 at Fri Aug 27 00:03:38 2021, MaxMem= 17179869184 cpu:        68.2
 (Enter /public3/home/sc51754/softwares/g09e01/l601.exe)
 Copying SCF densities to generalized density rwf, IOpCl= 0 IROHF=0.

 **********************************************************************

            Population analysis using the SCF density.

 **********************************************************************

 Orbital symmetries:
       Occupied  (A1) (A1) (B2) (A1) (B1)
       Virtual   (A1) (B2) (B2) (A1) (A1) (B1) (B2) (A1) (A2) (A1)
                 (B1) (B2) (B2) (A1) (A1) (B2) (B1) (A2) (A1) (A1)
                 (B2) (B1) (A1) (B1) (B2) (A1) (A2) (B2) (B1) (B2)
                 (A1) (A2) (A1) (B2) (B1) (A2) (A1) (B2) (B2) (A1)
                 (B1) (A1) (B1) (B2) (A2) (B1) (A1) (A2) (A1) (A1)
                 (B2) (B2) (A1)
 The electronic state is 1-A1.
 Alpha  occ. eigenvalues --  -18.99826  -1.14871  -0.65884  -0.51243  -0.43808
 Alpha virt. eigenvalues --    0.10048   0.14992   0.38632   0.39046   0.44598
 Alpha virt. eigenvalues --    0.44982   0.55418   0.78948   0.87934   0.90819
 Alpha virt. eigenvalues --    0.98644   1.15736   1.28392   1.32863   1.55837
 Alpha virt. eigenvalues --    1.58893   1.88512   1.95198   1.97681   2.18172
 Alpha virt. eigenvalues --    2.20967   2.39819   3.01637   3.49042   3.50152
 Alpha virt. eigenvalues --    3.63073   3.68003   3.81978   3.89942   3.96127
 Alpha virt. eigenvalues --    4.12995   4.17202   4.37884   4.48753   4.58547
 Alpha virt. eigenvalues --    4.62316   4.75973   4.93442   5.00815   5.01545
 Alpha virt. eigenvalues --    5.08423   5.74087   6.06107   6.10773   6.26059
 Alpha virt. eigenvalues --    6.30110   6.38740   6.40166   6.43384   6.93553
 Alpha virt. eigenvalues --    7.03106   7.49849  15.08274
          Condensed to atoms (all electrons):
               1          2          3
     1  O    7.689377   0.361999   0.361999
     2  H    0.361999   0.456721  -0.025407
     3  H    0.361999  -0.025407   0.456721
 Mulliken charges:
               1
     1  O   -0.413374
     2  H    0.206687
     3  H    0.206687
 Sum of Mulliken charges =   0.00000
 Mulliken charges with hydrogens summed into heavy atoms:
               1
     1  O    0.000000
 APT charges:
               1
     1  O   -0.542425
     2  H    0.271213
     3  H    0.271213
 Sum of APT charges =   0.00000
 APT charges with hydrogens summed into heavy atoms:
               1
     1  O    0.000000
 Electronic spatial extent (au):  <R**2>=             19.7632
 Charge=              0.0000 electrons
 Dipole moment (field-independent basis, Debye):
    X=              0.0000    Y=              0.0000    Z=             -2.0125  Tot=              2.0125
 Quadrupole moment (field-independent basis, Debye-Ang):
   XX=             -7.6496   YY=             -4.3719   ZZ=             -6.4024
   XY=              0.0000   XZ=             -0.0000   YZ=             -0.0000
 Traceless Quadrupole moment (field-independent basis, Debye-Ang):
   XX=             -1.5083   YY=              1.7694   ZZ=             -0.2611
   XY=              0.0000   XZ=             -0.0000   YZ=             -0.0000
 Octapole moment (field-independent basis, Debye-Ang**2):
  XXX=             -0.0000  YYY=              0.0000  ZZZ=             -1.3492  XYY=              0.0000
  XXY=             -0.0000  XXZ=             -0.3654  XZZ=             -0.0000  YZZ=              0.0000
  YYZ=             -1.3641  XYZ=             -0.0000
 Hexadecapole moment (field-independent basis, Debye-Ang**3):
 XXXX=             -6.9398 YYYY=             -6.2304 ZZZZ=             -7.4494 XXXY=             -0.0000
 XXXZ=              0.0000 YYYX=             -0.0000 YYYZ=             -0.0000 ZZZX=              0.0000
 ZZZY=              0.0000 XXYY=             -2.5082 XXZZ=             -2.4504 YYZZ=             -1.9645
 XXYZ=              0.0000 YYXZ=             -0.0000 ZZXY=             -0.0000
 N-N= 9.190686433130D+00 E-N=-1.991946928067D+02  KE= 7.615668877300D+01
 Symmetry A1   KE= 6.793643243961D+01
 Symmetry A2   KE=-5.376240733116D-21
 Symmetry B1   KE= 4.535398571018D+00
 Symmetry B2   KE= 3.684857762374D+00
  Exact polarizability:   6.286  -0.000   8.396  -0.000   0.000   7.319
 Approx polarizability:   5.257   0.000   7.954  -0.000  -0.000   6.710
 No NMR shielding tensors so no spin-rotation constants.
 Leave Link  601 at Fri Aug 27 00:03:40 2021, MaxMem= 17179869184 cpu:        87.4
 (Enter /public3/home/sc51754/softwares/g09e01/l701.exe)
 Compute integral second derivatives.
 ... and contract with generalized density number  0.
 Leave Link  701 at Fri Aug 27 00:03:41 2021, MaxMem= 17179869184 cpu:        57.7
 (Enter /public3/home/sc51754/softwares/g09e01/l702.exe)
 L702 exits ... SP integral derivatives will be done elsewhere.
 Leave Link  702 at Fri Aug 27 00:03:41 2021, MaxMem= 17179869184 cpu:         0.3
 (Enter /public3/home/sc51754/softwares/g09e01/l703.exe)
 Compute integral second derivatives, UseDBF=F ICtDFT=           0.
 Integral derivatives from FoFJK, PRISM(SPDF).
 Calling FoFJK, ICntrl=    100127 FMM=F ISym2X=1 I1Cent= 0 IOpClX= 0 NMat=1 NMatS=1 NMatT=0.
 FoFJK:  IHMeth= 1 ICntrl=  100127 DoSepK=T KAlg= 0 I1Cent=   0 FoldK=F
 IRaf=         1 NMat=   1 IRICut=       1 DoRegI=T DoRafI=F ISym2E= 1.
 FoFCou: FMM=F IPFlag=           0 FMFlag=      100000 FMFlg1=         800
         NFxFlg=           0 DoJE=F BraDBF=F KetDBF=F FulRan=T
         wScrn=  0.000000 ICntrl=  100527 IOpCl=  0 I1Cent=           0 NGrid=           0
         NMat0=    1 NMatS0=      1 NMatT0=    0 NMatD0=    1 NMtDS0=    0 NMtDT0=    0
 Petite list used in FoFCou.
 Leave Link  703 at Fri Aug 27 00:03:43 2021, MaxMem= 17179869184 cpu:       100.3
 (Enter /public3/home/sc51754/softwares/g09e01/l716.exe)
 Dipole        = 3.62394243D-17 3.16573482D-16-7.91765641D-01
 Polarizability= 6.28617379D+00-1.65628619D-10 8.39578232D+00
                -3.71505329D-10 4.23664033D-09 7.31933189D+00
 Full mass-weighted force constant matrix:
 Low frequencies ---  -80.8500  -78.9876  -78.9723   -0.0016   -0.0015   -0.0009
 Low frequencies --- 1621.4747 3889.2735 3995.3783
 Diagonal vibrational polarizability:
        0.0000000       0.1116230       0.7731092
 Harmonic frequencies (cm**-1), IR intensities (KM/Mole), Raman scattering
 activities (A**4/AMU), depolarization ratios for plane and unpolarized
 incident light, reduced masses (AMU), force constants (mDyne/A),
 and normal coordinates:
                      1                      2                      3
                     A1                     A1                     B2
 Frequencies --   1621.4747              3889.2735              3995.3783
 Red. masses --      1.0830                 1.0449                 1.0827
 Frc consts  --      1.6777                 9.3120                10.1827
 IR Inten    --     73.8600                 9.6167                66.2120
  Atom  AN      X      Y      Z        X      Y      Z        X      Y      Z
     1   8     0.00  -0.00  -0.07     0.00  -0.00  -0.05    -0.00  -0.07   0.00
     2   1    -0.00  -0.43   0.56     0.00   0.59   0.39    -0.00   0.56   0.43
     3   1    -0.00   0.43   0.56    -0.00  -0.59   0.39     0.00   0.56  -0.43

 -------------------
 - Thermochemistry -
 -------------------
 Temperature   298.150 Kelvin.  Pressure   1.00000 Atm.
 Atom     1 has atomic number  8 and mass  15.99491
 Atom     2 has atomic number  1 and mass   1.00783
 Atom     3 has atomic number  1 and mass   1.00783
 Molecular mass:    18.01056 amu.
 Principal axes and moments of inertia in atomic units:
                           1         2         3
     Eigenvalues --     2.15585   4.17098   6.32683
           X            0.00000  -0.00000   1.00000
           Y            1.00000   0.00000  -0.00000
           Z           -0.00000   1.00000   0.00000
 This molecule is an asymmetric top.
 Rotational symmetry number  2.
 Rotational temperatures (Kelvin)     40.17624    20.76580    13.68992
 Rotational constants (GHZ):         837.13793   432.68954   285.25200
 Zero-point vibrational energy      56859.3 (Joules/Mol)
                                   13.58969 (Kcal/Mol)
 Vibrational temperatures:   2332.94  5595.79  5748.45
          (Kelvin)
 
 Zero-point correction=                           0.021657 (Hartree/Particle)
 Thermal correction to Energy=                    0.024492
 Thermal correction to Enthalpy=                  0.025436
 Thermal correction to Gibbs Free Energy=         0.004029
 Sum of electronic and zero-point Energies=            -76.428460
 Sum of electronic and thermal Energies=               -76.425624
 Sum of electronic and thermal Enthalpies=             -76.424680
 Sum of electronic and thermal Free Energies=          -76.446088
 
                     E (Thermal)             CV                S
                      KCal/Mol        Cal/Mol-Kelvin    Cal/Mol-Kelvin
 Total                   15.369              6.010             45.056
 Electronic               0.000              0.000              0.000
 Translational            0.889              2.981             34.608
 Rotational               0.889              2.981             10.441
 Vibrational             13.592              0.049              0.007
                       Q            Log10(Q)             Ln(Q)
 Total Bot       0.140268D-01         -1.853042         -4.266788
 Total V=0       0.128309D+09          8.108258         18.669953
 Vib (Bot)       0.109364D-09         -9.961126        -22.936341
 Vib (V=0)       0.100040D+01          0.000174          0.000400
 Electronic      0.100000D+01          0.000000          0.000000
 Translational   0.300432D+07          6.477746         14.915562
 Rotational      0.426911D+02          1.630338          3.753991
 
                                                        H2O_wB97_PC2_OPT_FREQ
                                                             IR Spectrum
 
     3   3                                                                       1                                                   
     9   8                                                                       6                                                   
     9   8                                                                       2                                                   
     5   9                                                                       1                                                   
 
     X   X                                                                       X                                                   
     X   X                                                                       X                                                   
     X   X                                                                       X                                                   
     X                                                                           X                                                   
     X                                                                           X                                                   
     X                                                                           X                                                   
     X                                                                           X                                                   
     X                                                                           X                                                   
     X                                                                           X                                                   
     X                                                                           X                                                   
     X                                                                           X                                                   
     X                                                                           X                                                   
     X                                                                           X                                                   
     X                                                                           X                                                   
     X                                                                           X                                                   
     X                                                                           X                                                   
     X                                                                           X                                                   
     X                                                                           X                                                   
                                                                                 X                                                   
                                                                                 X                                                   
 
 ***** Axes restored to original set *****
 -------------------------------------------------------------------
 Center     Atomic                   Forces (Hartrees/Bohr)
 Number     Number              X              Y              Z
 -------------------------------------------------------------------
      1        8          -0.000140931   -0.000199413    0.000000000
      2        1           0.000179808    0.000022431    0.000000000
      3        1          -0.000038877    0.000176982   -0.000000000
 -------------------------------------------------------------------
 Cartesian Forces:  Max     0.000199413 RMS     0.000117990
 Force constants in Cartesian coordinates: 
                1             2             3             4             5 
      1  0.630034D+00
      2 -0.117163D+00  0.547055D+00
      3  0.000000D+00  0.000000D+00 -0.422484D-03
      4 -0.543373D+00  0.749396D-02  0.000000D+00  0.559035D+00
      5 -0.520613D-01 -0.451716D-01  0.000000D+00  0.242205D-02  0.467663D-01
      6  0.000000D+00  0.000000D+00  0.211242D-03  0.000000D+00  0.000000D+00
      7 -0.866611D-01  0.109669D+00  0.000000D+00 -0.156614D-01  0.496393D-01
      8  0.169224D+00 -0.501884D+00  0.000000D+00 -0.991600D-02 -0.159468D-02
      9  0.000000D+00  0.000000D+00  0.211242D-03  0.000000D+00  0.000000D+00
                6             7             8             9 
      6 -0.224598D-03
      7  0.000000D+00  0.102323D+00
      8  0.000000D+00 -0.159308D+00  0.503478D+00
      9  0.133563D-04  0.000000D+00  0.000000D+00 -0.224598D-03
 FormGI is forming the generalized inverse of G from B-inverse, IUseBI=4.
 Force constants in internal coordinates: 
                1             2             3 
      1  0.558547D+00
      2 -0.538696D-02  0.558547D+00
      3  0.293555D-01  0.293555D-01  0.155302D+00
 Leave Link  716 at Fri Aug 27 00:03:43 2021, MaxMem= 17179869184 cpu:        18.1
 (Enter /public3/home/sc51754/softwares/g09e01/l103.exe)

 GradGradGradGradGradGradGradGradGradGradGradGradGradGradGradGradGradGrad
 Berny optimization.
 Red2BG is reusing G-inverse.
 Internal  Forces:  Max     0.000180506 RMS     0.000148311
 Search for a local minimum.
 Step number   1 out of a maximum of    2
 All quantities printed in internal units (Hartrees-Bohrs-Radians)
 Second derivative matrix not updated -- analytic derivatives used.
 The second derivative matrix:
                          R1        R2        A1
           R1           0.55855
           R2          -0.00539   0.55855
           A1           0.02936   0.02936   0.15530
 ITU=  0
     Eigenvalues ---    0.15102   0.55745   0.56393
 Angle between quadratic step and forces=  26.54 degrees.
 Linear search not attempted -- first point.
 Iteration  1 RMS(Cart)=  0.00022042 RMS(Int)=  0.00000004
 Iteration  2 RMS(Cart)=  0.00000004 RMS(Int)=  0.00000000
 ITry= 1 IFail=0 DXMaxC= 2.36D-04 DCOld= 1.00D+10 DXMaxT= 3.00D-01 DXLimC= 3.00D+00 Rises=F
 ClnCor:  largest displacement from symmetrization is 2.64D-14 for atom     3.
 Variable       Old X    -DE/DX   Delta X   Delta X   Delta X     New X
                                 (Linear)    (Quad)   (Total)
    R1        1.80932   0.00018   0.00000   0.00034   0.00034   1.80966
    R2        1.80932   0.00018   0.00000   0.00034   0.00034   1.80966
    A1        1.83819  -0.00003   0.00000  -0.00031  -0.00031   1.83788
         Item               Value     Threshold  Converged?
 Maximum Force            0.000181     0.000450     YES
 RMS     Force            0.000148     0.000300     YES
 Maximum Displacement     0.000236     0.001800     YES
 RMS     Displacement     0.000220     0.001200     YES
 Predicted change in Energy=-6.642583D-08
 Optimization completed.
    -- Stationary point found.
                           ----------------------------
                           !   Optimized Parameters   !
                           ! (Angstroms and Degrees)  !
 --------------------------                            --------------------------
 ! Name  Definition              Value          Derivative Info.                !
 --------------------------------------------------------------------------------
 ! R1    R(1,2)                  0.9575         -DE/DX =    0.0002              !
 ! R2    R(1,3)                  0.9575         -DE/DX =    0.0002              !
 ! A1    A(2,1,3)              105.3206         -DE/DX =    0.0                 !
 --------------------------------------------------------------------------------
 GradGradGradGradGradGradGradGradGradGradGradGradGradGradGradGradGradGrad

 Leave Link  103 at Fri Aug 27 00:03:44 2021, MaxMem= 17179869184 cpu:        21.0
 (Enter /public3/home/sc51754/softwares/g09e01/l9999.exe)
 1\1\GINC-P2607\Freq\RwB97\Gen\H2O1\SC51754\27-Aug-2021\0\\#P Geom=AllC
 heck Guess=TCheck SCRF=Check GenChk RwB97/ChkBas Freq\\H2O_wB97_PC2_OP
 T_FREQ\\0,1\O,0.0290303598,0.7811568675,0.\H,0.9858442897,0.8160690241
 ,0.\H,-0.2574510315,1.6947432989,0.\\Version=EM64L-G09RevE.01\State=1-
 A1\HF=-76.4501164\RMSD=2.073e-10\RMSF=1.180e-04\ZeroPoint=0.0216565\Th
 ermal=0.0244921\Dipole=0.4569637,0.6465887,0.\DipoleDeriv=-0.4784014,0
 .0717402,0.,0.0717402,-0.4275923,0.,0.,0.,-0.7212816,0.1780317,-0.0488
 711,0.,-0.0661913,0.2749652,0.,0.,0.,0.3606408,0.3003697,-0.0228691,0.
 ,-0.0055489,0.1526272,0.,0.,0.,0.3606408\Polar=8.0372204,-0.5073534,7.
 6778938,0.,0.,6.2861738\PG=C02V [C2(O1),SGV(H2)]\NImag=0\\0.63003420,-
 0.11716282,0.54705514,0.,0.,-0.00042248,-0.54337309,0.00749396,0.,0.55
 903452,-0.05206132,-0.04517158,0.,0.00242205,0.04676626,0.,0.,0.000211
 24,0.,0.,-0.00022460,-0.08666111,0.10966887,0.,-0.01566142,0.04963927,
 0.,0.10232253,0.16922414,-0.50188356,0.,-0.00991600,-0.00159468,0.,-0.
 15930814,0.50347824,0.,0.,0.00021124,0.,0.,0.00001336,0.,0.,-0.0002246
 0\\0.00014093,0.00019941,0.,-0.00017981,-0.00002243,0.,0.00003888,-0.0
 0017698,0.\\\@


 SCIENCE AT ITS BEST PROVIDES US WITH BETTER QUESTIONS, 
 NOT ABSOLUTE ANSWERS

                                    -- NORMAN COUSINS, 1976
 Job cpu time:       0 days  0 hours 11 minutes 40.2 seconds.
 File lengths (MBytes):  RWF=      5 Int=      0 D2E=      0 Chk=      1 Scr=      1
 Normal termination of Gaussian 09 at Fri Aug 27 00:03:44 2021.
