 Entering Gaussian System, Link 0=g09
 AtFile(1): pc-2.gbs
            -H     0
            S    4   1.00
                  0.754230D+02           0.240650D-02
                  0.113500D+02           0.184870D-01
                  0.259930D+01           0.897420D-01
                  0.735130D+00           0.281110D+00
            S    1   1.00
                  0.231670D+00           0.100000D+01
            S    1   1.00
                  0.741470D-01           0.100000D+01
            P    1   1.00
                  0.160000D+01           0.100000D+01
            P    1   1.00
                  0.450000D+00           0.100000D+01
            D    1   1.00
                  0.125000D+01           0.100000D+01
            ****
            -C     0
            S    7   1.00
                  0.785710D+04           0.568250D-03
                  0.117870D+04           0.439150D-02
                  0.268320D+03           0.225040D-01
                  0.759480D+02           0.866530D-01
                  0.245590D+02           0.244050D+00
                  0.862120D+01           0.441480D+00
                  0.312780D+01           0.353320D+00
            S    7   1.00
                  0.117870D+04          -0.594920D-06
                  0.268320D+03          -0.627480D-04
                  0.759480D+02          -0.757730D-03
                  0.245590D+02          -0.733080D-02
                  0.862120D+01          -0.389320D-01
                  0.312780D+01          -0.889080D-01
                  0.822020D+00           0.216890D+00
            S    1   1.00
                  0.330170D+00           0.100000D+01
            S    1   1.00
                  0.114630D+00           0.100000D+01
            P    4   1.00
                  0.337750D+02           0.602940D-02
                  0.767660D+01           0.432280D-01
                  0.223570D+01           0.163010D+00
                  0.764470D+00           0.365040D+00
            P    1   1.00
                  0.262320D+00           0.100000D+01
            P    1   1.00
                  0.846380D-01           0.100000D+01
            D    1   1.00
                  0.140000D+01           0.100000D+01
            D    1   1.00
                  0.450000D+00           0.100000D+01
            F    1   1.00
                  0.950000D+00           0.100000D+01
            ****
            -N     0
            S    7   1.00
                  0.111010D+05           0.545700D-03
                  0.166530D+04           0.421810D-02
                  0.379080D+03           0.216450D-01
                  0.107300D+03           0.837760D-01
                  0.347470D+02           0.238810D+00
                  0.122490D+02           0.439940D+00
                  0.447430D+01           0.363640D+00
            S    7   1.00
                  0.166530D+04          -0.150060D-05
                  0.379080D+03          -0.587530D-04
                  0.107300D+03          -0.774530D-03
                  0.347470D+02          -0.721610D-02
                  0.122490D+02          -0.393380D-01
                  0.447430D+01          -0.906110D-01
                  0.124040D+01           0.198820D+00
            S    1   1.00
                  0.487430D+00           0.100000D+01
            S    1   1.00
                  0.164840D+00           0.100000D+01
            P    4   1.00
                  0.479340D+02           0.617060D-02
                  0.109990D+02           0.442600D-01
                  0.324720D+01           0.168250D+00
                  0.111140D+01           0.368480D+00
            P    1   1.00
                  0.379880D+00           0.100000D+01
            P    1   1.00
                  0.120680D+00           0.100000D+01
            D    1   1.00
                  0.180000D+01           0.100000D+01
            D    1   1.00
                  0.550000D+00           0.100000D+01
            F    1   1.00
                  0.102000D+01           0.100000D+01
            ****
            -O     0
            S    7   1.00
                  0.147820D+05           0.535190D-03
                  0.221730D+04           0.413750D-02
                  0.504740D+03           0.212450D-01
                  0.142870D+03           0.824530D-01
                  0.463000D+02           0.236710D+00
                  0.163370D+02           0.440390D+00
                  0.598280D+01           0.364650D+00
            S    7   1.00
                  0.221730D+04          -0.192750D-05
                  0.504740D+03          -0.579640D-04
                  0.142870D+03          -0.794940D-03
                  0.463000D+02          -0.731250D-02
                  0.163370D+02          -0.405740D-01
                  0.598280D+01          -0.915940D-01
                  0.167180D+01           0.209400D+00
            S    1   1.00
                  0.646620D+00           0.100000D+01
            S    1   1.00
                  0.216690D+00           0.100000D+01
            P    4   1.00
                  0.604240D+02           0.689490D-02
                  0.139350D+02           0.490050D-01
                  0.415310D+01           0.182550D+00
                  0.141580D+01           0.376330D+00
            P    1   1.00
                  0.475490D+00           0.100000D+01
            P    1   1.00
                  0.145290D+00           0.100000D+01
            D    1   1.00
                  0.220000D+01           0.100000D+01
            D    1   1.00
                  0.650000D+00           0.100000D+01
            F    1   1.00
                  0.110000D+01           0.100000D+01
            ****
 Initial command:
 /public3/home/sc51754/softwares/g09e01/l1.exe "./Gau-19000.inp" -scrdir="./"
 Entering Link 1 = /public3/home/sc51754/softwares/g09e01/l1.exe PID=     19001.
  
 Copyright (c) 1988,1990,1992,1993,1995,1998,2003,2009,2015,
            Gaussian, Inc.  All Rights Reserved.
  
 This is part of the Gaussian(R) 09 program.  It is based on
 the Gaussian(R) 03 system (copyright 2003, Gaussian, Inc.),
 the Gaussian(R) 98 system (copyright 1998, Gaussian, Inc.),
 the Gaussian(R) 94 system (copyright 1995, Gaussian, Inc.),
 the Gaussian 92(TM) system (copyright 1992, Gaussian, Inc.),
 the Gaussian 90(TM) system (copyright 1990, Gaussian, Inc.),
 the Gaussian 88(TM) system (copyright 1988, Gaussian, Inc.),
 the Gaussian 86(TM) system (copyright 1986, Carnegie Mellon
 University), and the Gaussian 82(TM) system (copyright 1983,
 Carnegie Mellon University). Gaussian is a federally registered
 trademark of Gaussian, Inc.
  
 This software contains proprietary and confidential information,
 including trade secrets, belonging to Gaussian, Inc.
  
 This software is provided under written license and may be
 used, copied, transmitted, or stored only in accord with that
 written license.
  
 The following legend is applicable only to US Government
 contracts under FAR:
  
                    RESTRICTED RIGHTS LEGEND
  
 Use, reproduction and disclosure by the US Government is
 subject to restrictions as set forth in subparagraphs (a)
 and (c) of the Commercial Computer Software - Restricted
 Rights clause in FAR 52.227-19.
  
 Gaussian, Inc.
 340 Quinnipiac St., Bldg. 40, Wallingford CT 06492
  
  
 ---------------------------------------------------------------
 Warning -- This program may not be used in any manner that
 competes with the business of Gaussian, Inc. or will provide
 assistance to any competitor of Gaussian, Inc.  The licensee
 of this program is prohibited from giving any competitor of
 Gaussian, Inc. access to this program.  By using this program,
 the user acknowledges that Gaussian, Inc. is engaged in the
 business of creating and licensing software in the field of
 computational chemistry and represents and warrants to the
 licensee that it is not a competitor of Gaussian, Inc. and that
 it will not use this program in any manner prohibited above.
 ---------------------------------------------------------------
  

 Cite this work as:
 Gaussian 09, Revision E.01,
 M. J. Frisch, G. W. Trucks, H. B. Schlegel, G. E. Scuseria, 
 M. A. Robb, J. R. Cheeseman, G. Scalmani, V. Barone, B. Mennucci, 
 G. A. Petersson, H. Nakatsuji, M. Caricato, X. Li, H. P. Hratchian, 
 A. F. Izmaylov, J. Bloino, G. Zheng, J. L. Sonnenberg, M. Hada, 
 M. Ehara, K. Toyota, R. Fukuda, J. Hasegawa, M. Ishida, T. Nakajima, 
 Y. Honda, O. Kitao, H. Nakai, T. Vreven, J. A. Montgomery, Jr., 
 J. E. Peralta, F. Ogliaro, M. Bearpark, J. J. Heyd, E. Brothers, 
 K. N. Kudin, V. N. Staroverov, T. Keith, R. Kobayashi, J. Normand, 
 K. Raghavachari, A. Rendell, J. C. Burant, S. S. Iyengar, J. Tomasi, 
 M. Cossi, N. Rega, J. M. Millam, M. Klene, J. E. Knox, J. B. Cross, 
 V. Bakken, C. Adamo, J. Jaramillo, R. Gomperts, R. E. Stratmann, 
 O. Yazyev, A. J. Austin, R. Cammi, C. Pomelli, J. W. Ochterski, 
 R. L. Martin, K. Morokuma, V. G. Zakrzewski, G. A. Voth, 
 P. Salvador, J. J. Dannenberg, S. Dapprich, A. D. Daniels, 
 O. Farkas, J. B. Foresman, J. V. Ortiz, J. Cioslowski, 
 and D. J. Fox, Gaussian, Inc., Wallingford CT, 2013.
 
 ******************************************
 Gaussian 09:  EM64L-G09RevE.01 30-Nov-2015
                27-Aug-2021 
 ******************************************
 %nprocshared=64
 Will use up to   64 processors via shared memory.
 %mem=128GB
 %chk=H2O_CAM-B3LYP_PC2_OPT_FREQ.chk
 -------------------------
 #p opt freq CAM-B3LYP/gen
 -------------------------
 1/14=-1,18=20,19=15,26=3,38=1/1,3;
 2/9=110,12=2,17=6,18=5,40=1/2;
 3/5=7,11=2,16=1,25=1,30=1,71=1,74=-40/1,2,3;
 4//1;
 5/5=2,38=5/2;
 6/7=2,8=2,9=2,10=2,28=1/1;
 7//1,2,3,16;
 1/14=-1,18=20,19=15,26=3/3(2);
 2/9=110/2;
 99//99;
 2/9=110/2;
 3/5=7,6=1,11=2,16=1,25=1,30=1,71=1,74=-40,82=7/1,2,3;
 4/5=5,16=3,69=1/1;
 5/5=2,38=5/2;
 7//1,2,3,16;
 1/14=-1,18=20,19=15,26=3/3(-5);
 2/9=110/2;
 6/7=2,8=2,9=2,10=2,19=2,28=1/1;
 99/9=1/99;
 Leave Link    1 at Fri Aug 27 00:01:56 2021, MaxMem= 17179869184 cpu:         2.9
 (Enter /public3/home/sc51754/softwares/g09e01/l101.exe)
 --------------------------
 H2O_CAM-B3LYP_PC2_OPT_FREQ
 --------------------------
 Symbolic Z-matrix:
 Charge =  0 Multiplicity = 1
 O                     0.03922   0.79557   0. 
 H                     0.99922   0.79581   0. 
 H                    -0.28101   1.70059   0. 
 
 NAtoms=      3 NQM=        3 NQMF=       0 NMMI=      0 NMMIF=      0
                NMic=       0 NMicF=      0.
                    Isotopes and Nuclear Properties:
 (Nuclear quadrupole moments (NQMom) in fm**2, nuclear magnetic moments (NMagM)
  in nuclear magnetons)

  Atom         1           2           3
 IAtWgt=          16           1           1
 AtmWgt=  15.9949146   1.0078250   1.0078250
 NucSpn=           0           1           1
 AtZEff=   0.0000000   0.0000000   0.0000000
 NQMom=    0.0000000   0.0000000   0.0000000
 NMagM=    0.0000000   2.7928460   2.7928460
 AtZNuc=   8.0000000   1.0000000   1.0000000
 Leave Link  101 at Fri Aug 27 00:01:57 2021, MaxMem= 17179869184 cpu:        11.6
 (Enter /public3/home/sc51754/softwares/g09e01/l103.exe)

 GradGradGradGradGradGradGradGradGradGradGradGradGradGradGradGradGradGrad
 Berny optimization.
 Initialization pass.
                           ----------------------------
                           !    Initial Parameters    !
                           ! (Angstroms and Degrees)  !
 --------------------------                            --------------------------
 ! Name  Definition              Value          Derivative Info.                !
 --------------------------------------------------------------------------------
 ! R1    R(1,2)                  0.96           estimate D2E/DX2                !
 ! R2    R(1,3)                  0.96           estimate D2E/DX2                !
 ! A1    A(2,1,3)              109.4712         estimate D2E/DX2                !
 --------------------------------------------------------------------------------
 Trust Radius=3.00D-01 FncErr=1.00D-07 GrdErr=1.00D-06
 Number of steps in this run=     20 maximum allowed number of steps=    100.
 GradGradGradGradGradGradGradGradGradGradGradGradGradGradGradGradGradGrad

 Leave Link  103 at Fri Aug 27 00:01:57 2021, MaxMem= 17179869184 cpu:         0.1
 (Enter /public3/home/sc51754/softwares/g09e01/l202.exe)
                          Input orientation:                          
 ---------------------------------------------------------------------
 Center     Atomic      Atomic             Coordinates (Angstroms)
 Number     Number       Type             X           Y           Z
 ---------------------------------------------------------------------
      1          8           0        0.039217    0.795571    0.000000
      2          1           0        0.999217    0.795812    0.000000
      3          1           0       -0.281010    1.700587    0.000000
 ---------------------------------------------------------------------
                    Distance matrix (angstroms):
                    1          2          3
     1  O    0.000000
     2  H    0.960000   0.000000
     3  H    0.960000   1.567673   0.000000
 Stoichiometry    H2O
 Framework group  C2V[C2(O),SGV(H2)]
 Deg. of freedom     2
 Full point group                 C2V     NOp   4
 Largest Abelian subgroup         C2V     NOp   4
 Largest concise Abelian subgroup C2      NOp   2
                         Standard orientation:                         
 ---------------------------------------------------------------------
 Center     Atomic      Atomic             Coordinates (Angstroms)
 Number     Number       Type             X           Y           Z
 ---------------------------------------------------------------------
      1          8           0        0.000000   -0.000000    0.110851
      2          1           0       -0.000000   -0.783837   -0.443405
      3          1           0        0.000000    0.783837   -0.443405
 ---------------------------------------------------------------------
 Rotational constants (GHZ):    919.0227056    408.0852078    282.5991526
 Leave Link  202 at Fri Aug 27 00:01:57 2021, MaxMem= 17179869184 cpu:         6.8
 (Enter /public3/home/sc51754/softwares/g09e01/l301.exe)
 General basis read from cards:  (5D, 7F)
 Centers:       2      3
 S 4 1.00
     Exponent=  7.5423000000D+01 Coefficients=  2.4065000000D-03
     Exponent=  1.1350000000D+01 Coefficients=  1.8487000000D-02
     Exponent=  2.5993000000D+00 Coefficients=  8.9742000000D-02
     Exponent=  7.3513000000D-01 Coefficients=  2.8111000000D-01
 S 1 1.00
     Exponent=  2.3167000000D-01 Coefficients=  1.0000000000D+00
 S 1 1.00
     Exponent=  7.4147000000D-02 Coefficients=  1.0000000000D+00
 P 1 1.00
     Exponent=  1.6000000000D+00 Coefficients=  1.0000000000D+00
 P 1 1.00
     Exponent=  4.5000000000D-01 Coefficients=  1.0000000000D+00
 D 1 1.00
     Exponent=  1.2500000000D+00 Coefficients=  1.0000000000D+00
 ****
 Centers:       1
 S 7 1.00
     Exponent=  1.4782000000D+04 Coefficients=  5.3519000000D-04
     Exponent=  2.2173000000D+03 Coefficients=  4.1375000000D-03
     Exponent=  5.0474000000D+02 Coefficients=  2.1245000000D-02
     Exponent=  1.4287000000D+02 Coefficients=  8.2453000000D-02
     Exponent=  4.6300000000D+01 Coefficients=  2.3671000000D-01
     Exponent=  1.6337000000D+01 Coefficients=  4.4039000000D-01
     Exponent=  5.9828000000D+00 Coefficients=  3.6465000000D-01
 S 7 1.00
     Exponent=  2.2173000000D+03 Coefficients= -1.9275000000D-06
     Exponent=  5.0474000000D+02 Coefficients= -5.7964000000D-05
     Exponent=  1.4287000000D+02 Coefficients= -7.9494000000D-04
     Exponent=  4.6300000000D+01 Coefficients= -7.3125000000D-03
     Exponent=  1.6337000000D+01 Coefficients= -4.0574000000D-02
     Exponent=  5.9828000000D+00 Coefficients= -9.1594000000D-02
     Exponent=  1.6718000000D+00 Coefficients=  2.0940000000D-01
 S 1 1.00
     Exponent=  6.4662000000D-01 Coefficients=  1.0000000000D+00
 S 1 1.00
     Exponent=  2.1669000000D-01 Coefficients=  1.0000000000D+00
 P 4 1.00
     Exponent=  6.0424000000D+01 Coefficients=  6.8949000000D-03
     Exponent=  1.3935000000D+01 Coefficients=  4.9005000000D-02
     Exponent=  4.1531000000D+00 Coefficients=  1.8255000000D-01
     Exponent=  1.4158000000D+00 Coefficients=  3.7633000000D-01
 P 1 1.00
     Exponent=  4.7549000000D-01 Coefficients=  1.0000000000D+00
 P 1 1.00
     Exponent=  1.4529000000D-01 Coefficients=  1.0000000000D+00
 D 1 1.00
     Exponent=  2.2000000000D+00 Coefficients=  1.0000000000D+00
 D 1 1.00
     Exponent=  6.5000000000D-01 Coefficients=  1.0000000000D+00
 F 1 1.00
     Exponent=  1.1000000000D+00 Coefficients=  1.0000000000D+00
 ****
 Ernie: Thresh=  0.10000D-02 Tol=  0.10000D-05 Strict=F.
 Ernie:  1 primitive shells out of 43 were deleted.
 There are    27 symmetry adapted cartesian basis functions of A1  symmetry.
 There are     7 symmetry adapted cartesian basis functions of A2  symmetry.
 There are    12 symmetry adapted cartesian basis functions of B1  symmetry.
 There are    19 symmetry adapted cartesian basis functions of B2  symmetry.
 There are    23 symmetry adapted basis functions of A1  symmetry.
 There are     7 symmetry adapted basis functions of A2  symmetry.
 There are    11 symmetry adapted basis functions of B1  symmetry.
 There are    17 symmetry adapted basis functions of B2  symmetry.
    58 basis functions,    91 primitive gaussians,    65 cartesian basis functions
     5 alpha electrons        5 beta electrons
       nuclear repulsion energy         9.1571759018 Hartrees.
 IExCor=20419 DFT=T Ex+Corr=CAM-B3LYP ExCW=0 ScaHFX=  1.000000
 ScaDFX=  1.000000  1.000000  1.000000  0.810000 ScalE2=  1.000000  1.000000
 IRadAn=      0 IRanWt=     -1 IRanGd=            0 ICorTp=0 IEmpDi=  4
  HFx wShort=  0.000000 wLong=  0.330000 cFull=  0.190000 cShort=  0.000000 cLong=  0.460000
  DFx wShort=  0.000000 wLong=  0.330000 cFull=  0.190000 cShort=  0.000000 cLong=  0.460000
 NAtoms=    3 NActive=    3 NUniq=    2 SFac= 2.25D+00 NAtFMM=   60 NAOKFM=F Big=F
 Integral buffers will be    131072 words long.
 Raffenetti 2 integral format.
 Two-electron integral symmetry is turned on.
 Leave Link  301 at Fri Aug 27 00:01:57 2021, MaxMem= 17179869184 cpu:         2.5
 (Enter /public3/home/sc51754/softwares/g09e01/l302.exe)
 NPDir=0 NMtPBC=     1 NCelOv=     1 NCel=       1 NClECP=     1 NCelD=      1
         NCelK=      1 NCelE2=     1 NClLst=     1 CellRange=     0.0.
 One-electron integrals computed using PRISM.
 One-electron integral symmetry used in STVInt
 NBasis=    58 RedAO= T EigKep=  5.81D-03  NBF=    23     7    11    17
 NBsUse=    58 1.00D-06 EigRej= -1.00D+00 NBFU=    23     7    11    17
 Precomputing XC quadrature grid using
 IXCGrd= 4 IRadAn=           0 IRanWt=          -1 IRanGd=           0 AccXCQ= 0.00D+00.
 Generated NRdTot=       0 NPtTot=           0 NUsed=           0 NTot=          32
 NSgBfM=    65    65    65    65    65 MxSgAt=     3 MxSgA2=     3.
 Leave Link  302 at Fri Aug 27 00:01:58 2021, MaxMem= 17179869184 cpu:        44.3
 (Enter /public3/home/sc51754/softwares/g09e01/l303.exe)
 DipDrv:  MaxL=1.
 Leave Link  303 at Fri Aug 27 00:01:59 2021, MaxMem= 17179869184 cpu:        13.4
 (Enter /public3/home/sc51754/softwares/g09e01/l401.exe)
 ExpMin= 7.41D-02 ExpMax= 1.48D+04 ExpMxC= 5.05D+02 IAcc=2 IRadAn=         4 AccDes= 0.00D+00
 Harris functional with IExCor=20419 and IRadAn=       4 diagonalized for initial guess.
 HarFok:  IExCor=20419 AccDes= 0.00D+00 IRadAn=         4 IDoV= 1 UseB2=F ITyADJ=14
 ICtDFT=  3500011 ScaDFX=  1.000000  1.000000  1.000000  1.000000
 FoFCou: FMM=F IPFlag=           0 FMFlag=      100000 FMFlg1=           0
         NFxFlg=           0 DoJE=T BraDBF=F KetDBF=T FulRan=T
         wScrn=  0.000000 ICntrl=     500 IOpCl=  0 I1Cent=   200000004 NGrid=           0
         NMat0=    1 NMatS0=      1 NMatT0=    0 NMatD0=    1 NMtDS0=    0 NMtDT0=    0
 Petite list used in FoFCou.
 Harris En= -73.9263629925937    
 JPrj=0 DoOrth=F DoCkMO=F.
 Initial guess orbital symmetries:
       Occupied  (A1) (A1) (B2) (A1) (B1)
       Virtual   (A1) (B2) (A1) (B2) (B1) (A1) (B2) (A1) (A2) (A1)
                 (B1) (B2) (B2) (A1) (A1) (B2) (B1) (A1) (A2) (B2)
                 (A1) (B1) (A1) (B2) (B1) (A1) (A2) (B2) (B1) (B2)
                 (A2) (A1) (A1) (B2) (B1) (A2) (A1) (B2) (B2) (A1)
                 (B1) (A1) (B1) (B2) (A2) (B1) (A1) (A1) (A2) (A1)
                 (B2) (B2) (A1)
 The electronic state of the initial guess is 1-A1.
 Leave Link  401 at Fri Aug 27 00:02:00 2021, MaxMem= 17179869184 cpu:        47.5
 (Enter /public3/home/sc51754/softwares/g09e01/l502.exe)
 Closed shell SCF:
 Using DIIS extrapolation, IDIIS=  1040.
 Integral symmetry usage will be decided dynamically.
 Keep R1 ints in memory in symmetry-blocked form, NReq=4932517.
 IVT=       35997 IEndB=       35997 NGot= 17179869184 MDV= 17179451308
 LenX= 17179451308 LenY= 17179446642
 Requested convergence on RMS density matrix=1.00D-08 within 128 cycles.
 Requested convergence on MAX density matrix=1.00D-06.
 Requested convergence on             energy=1.00D-06.
 No special actions if energy rises.
 FoFCou: FMM=F IPFlag=           0 FMFlag=           0 FMFlg1=           0
         NFxFlg=           0 DoJE=F BraDBF=F KetDBF=F FulRan=T
         wScrn=  0.000000 ICntrl=     600 IOpCl=  0 I1Cent=           0 NGrid=           0
         NMat0=    1 NMatS0=   1711 NMatT0=    0 NMatD0=    1 NMtDS0=    0 NMtDT0=    0
 Petite list used in FoFCou.
 Integral accuracy reduced to 1.0D-05 until final iterations.

 Cycle   1  Pass 0  IDiag  1:
 E= -76.4336903523405    
 DIIS: error= 2.42D-02 at cycle   1 NSaved=   1.
 NSaved= 1 IEnMin= 1 EnMin= -76.4336903523405     IErMin= 1 ErrMin= 2.42D-02
 ErrMax= 2.42D-02  0.00D+00 EMaxC= 1.00D-01 BMatC= 1.72D-02 BMatP= 1.72D-02
 IDIUse=3 WtCom= 7.58D-01 WtEn= 2.42D-01
 Coeff-Com:  0.100D+01
 Coeff-En:   0.100D+01
 Coeff:      0.100D+01
 Gap=     0.431 Goal=   None    Shift=    0.000
 GapD=    0.431 DampG=2.000 DampE=0.500 DampFc=1.0000 IDamp=-1.
 RMSDP=1.73D-03 MaxDP=2.29D-02              OVMax= 3.27D-02

 Cycle   2  Pass 0  IDiag  1:
 E= -76.4403629447744     Delta-E=       -0.006672592434 Rises=F Damp=F
 DIIS: error= 4.23D-03 at cycle   2 NSaved=   2.
 NSaved= 2 IEnMin= 2 EnMin= -76.4403629447744     IErMin= 2 ErrMin= 4.23D-03
 ErrMax= 4.23D-03  0.00D+00 EMaxC= 1.00D-01 BMatC= 3.18D-04 BMatP= 1.72D-02
 IDIUse=3 WtCom= 9.58D-01 WtEn= 4.23D-02
 Coeff-Com:  0.578D-01 0.942D+00
 Coeff-En:   0.000D+00 0.100D+01
 Coeff:      0.553D-01 0.945D+00
 Gap=     0.431 Goal=   None    Shift=    0.000
 RMSDP=1.76D-04 MaxDP=2.16D-03 DE=-6.67D-03 OVMax= 6.47D-03

 Cycle   3  Pass 0  IDiag  1:
 E= -76.4406048057862     Delta-E=       -0.000241861012 Rises=F Damp=F
 DIIS: error= 1.07D-03 at cycle   3 NSaved=   3.
 NSaved= 3 IEnMin= 3 EnMin= -76.4406048057862     IErMin= 3 ErrMin= 1.07D-03
 ErrMax= 1.07D-03  0.00D+00 EMaxC= 1.00D-01 BMatC= 2.88D-05 BMatP= 3.18D-04
 IDIUse=3 WtCom= 9.89D-01 WtEn= 1.07D-02
 Coeff-Com: -0.999D-03 0.205D+00 0.796D+00
 Coeff-En:   0.000D+00 0.000D+00 0.100D+01
 Coeff:     -0.988D-03 0.203D+00 0.798D+00
 Gap=     0.432 Goal=   None    Shift=    0.000
 RMSDP=6.79D-05 MaxDP=9.11D-04 DE=-2.42D-04 OVMax= 1.64D-03

 Cycle   4  Pass 0  IDiag  1:
 E= -76.4406209586102     Delta-E=       -0.000016152824 Rises=F Damp=F
 DIIS: error= 3.69D-04 at cycle   4 NSaved=   4.
 NSaved= 4 IEnMin= 4 EnMin= -76.4406209586102     IErMin= 4 ErrMin= 3.69D-04
 ErrMax= 3.69D-04  0.00D+00 EMaxC= 1.00D-01 BMatC= 3.23D-06 BMatP= 2.88D-05
 IDIUse=3 WtCom= 9.96D-01 WtEn= 3.69D-03
 Coeff-Com: -0.594D-03 0.586D-01 0.276D+00 0.666D+00
 Coeff-En:   0.000D+00 0.000D+00 0.000D+00 0.100D+01
 Coeff:     -0.591D-03 0.584D-01 0.275D+00 0.667D+00
 Gap=     0.432 Goal=   None    Shift=    0.000
 RMSDP=2.43D-05 MaxDP=4.62D-04 DE=-1.62D-05 OVMax= 7.33D-04

 Cycle   5  Pass 0  IDiag  1:
 E= -76.4406229598883     Delta-E=       -0.000002001278 Rises=F Damp=F
 DIIS: error= 2.16D-04 at cycle   5 NSaved=   5.
 NSaved= 5 IEnMin= 5 EnMin= -76.4406229598883     IErMin= 5 ErrMin= 2.16D-04
 ErrMax= 2.16D-04  0.00D+00 EMaxC= 1.00D-01 BMatC= 7.60D-07 BMatP= 3.23D-06
 IDIUse=3 WtCom= 9.98D-01 WtEn= 2.16D-03
 Coeff-Com: -0.221D-03-0.216D-01-0.826D-01 0.305D+00 0.799D+00
 Coeff-En:   0.000D+00 0.000D+00 0.000D+00 0.709D-01 0.929D+00
 Coeff:     -0.220D-03-0.216D-01-0.824D-01 0.305D+00 0.800D+00
 Gap=     0.432 Goal=   None    Shift=    0.000
 RMSDP=1.24D-05 MaxDP=1.73D-04 DE=-2.00D-06 OVMax= 3.02D-04

 Cycle   6  Pass 0  IDiag  1:
 E= -76.4406235622543     Delta-E=       -0.000000602366 Rises=F Damp=F
 DIIS: error= 1.01D-05 at cycle   6 NSaved=   6.
 NSaved= 6 IEnMin= 6 EnMin= -76.4406235622543     IErMin= 6 ErrMin= 1.01D-05
 ErrMax= 1.01D-05  0.00D+00 EMaxC= 1.00D-01 BMatC= 1.52D-09 BMatP= 7.60D-07
 IDIUse=1 WtCom= 1.00D+00 WtEn= 0.00D+00
 Coeff-Com:  0.591D-04 0.176D-02 0.653D-02-0.543D-01-0.143D+00 0.119D+01
 Coeff:      0.591D-04 0.176D-02 0.653D-02-0.543D-01-0.143D+00 0.119D+01
 Gap=     0.432 Goal=   None    Shift=    0.000
 RMSDP=2.11D-06 MaxDP=3.89D-05 DE=-6.02D-07 OVMax= 7.18D-05

 Initial convergence to 1.0D-05 achieved.  Increase integral accuracy.
 Cycle   7  Pass 1  IDiag  1:
 E= -76.4406160635043     Delta-E=        0.000007498750 Rises=F Damp=F
 DIIS: error= 3.75D-06 at cycle   1 NSaved=   1.
 NSaved= 1 IEnMin= 1 EnMin= -76.4406160635043     IErMin= 1 ErrMin= 3.75D-06
 ErrMax= 3.75D-06  0.00D+00 EMaxC= 1.00D-01 BMatC= 7.36D-10 BMatP= 7.36D-10
 IDIUse=1 WtCom= 1.00D+00 WtEn= 0.00D+00
 Coeff-Com:  0.100D+01
 Coeff:      0.100D+01
 Gap=     0.432 Goal=   None    Shift=    0.000
 RMSDP=2.11D-06 MaxDP=3.89D-05 DE= 7.50D-06 OVMax= 7.33D-06

 Cycle   8  Pass 1  IDiag  1:
 E= -76.4406160638548     Delta-E=       -0.000000000351 Rises=F Damp=F
 DIIS: error= 6.39D-07 at cycle   2 NSaved=   2.
 NSaved= 2 IEnMin= 2 EnMin= -76.4406160638548     IErMin= 2 ErrMin= 6.39D-07
 ErrMax= 6.39D-07  0.00D+00 EMaxC= 1.00D-01 BMatC= 6.85D-12 BMatP= 7.36D-10
 IDIUse=1 WtCom= 1.00D+00 WtEn= 0.00D+00
 Coeff-Com: -0.444D-01 0.104D+01
 Coeff:     -0.444D-01 0.104D+01
 Gap=     0.432 Goal=   None    Shift=    0.000
 RMSDP=5.66D-08 MaxDP=9.62D-07 DE=-3.51D-10 OVMax= 1.72D-06

 Cycle   9  Pass 1  IDiag  1:
 E= -76.4406160638633     Delta-E=       -0.000000000009 Rises=F Damp=F
 DIIS: error= 3.51D-07 at cycle   3 NSaved=   3.
 NSaved= 3 IEnMin= 3 EnMin= -76.4406160638633     IErMin= 3 ErrMin= 3.51D-07
 ErrMax= 3.51D-07  0.00D+00 EMaxC= 1.00D-01 BMatC= 3.95D-12 BMatP= 6.85D-12
 IDIUse=1 WtCom= 1.00D+00 WtEn= 0.00D+00
 Coeff-Com: -0.282D-01 0.469D+00 0.559D+00
 Coeff:     -0.282D-01 0.469D+00 0.559D+00
 Gap=     0.432 Goal=   None    Shift=    0.000
 RMSDP=1.82D-08 MaxDP=3.90D-07 DE=-8.51D-12 OVMax= 7.67D-07

 Cycle  10  Pass 1  IDiag  1:
 E= -76.4406160638663     Delta-E=       -0.000000000003 Rises=F Damp=F
 DIIS: error= 1.28D-07 at cycle   4 NSaved=   4.
 NSaved= 4 IEnMin= 4 EnMin= -76.4406160638663     IErMin= 4 ErrMin= 1.28D-07
 ErrMax= 1.28D-07  0.00D+00 EMaxC= 1.00D-01 BMatC= 3.01D-13 BMatP= 3.95D-12
 IDIUse=1 WtCom= 1.00D+00 WtEn= 0.00D+00
 Coeff-Com:  0.696D-02-0.159D+00 0.127D+00 0.102D+01
 Coeff:      0.696D-02-0.159D+00 0.127D+00 0.102D+01
 Gap=     0.432 Goal=   None    Shift=    0.000
 RMSDP=9.07D-09 MaxDP=1.34D-07 DE=-2.98D-12 OVMax= 3.71D-07

 SCF Done:  E(RCAM-B3LYP) =  -76.4406160639     A.U. after   10 cycles
            NFock= 10  Conv=0.91D-08     -V/T= 2.0034
 KE= 7.618312013734D+01 PE=-1.992075821839D+02 EE= 3.742667008086D+01
 Leave Link  502 at Fri Aug 27 00:02:01 2021, MaxMem= 17179869184 cpu:        52.8
 (Enter /public3/home/sc51754/softwares/g09e01/l601.exe)
 Copying SCF densities to generalized density rwf, IOpCl= 0 IROHF=0.

 **********************************************************************

            Population analysis using the SCF density.

 **********************************************************************

 Orbital symmetries:
       Occupied  (A1) (A1) (B2) (A1) (B1)
       Virtual   (A1) (B2) (A1) (B2) (A1) (B1) (B2) (A1) (A2) (A1)
                 (B1) (B2) (B2) (A1) (A1) (B2) (B1) (A2) (A1) (B2)
                 (A1) (B1) (A1) (B2) (B1) (A1) (A2) (B2) (B1) (B2)
                 (A1) (A2) (A1) (B2) (B1) (A2) (A1) (B2) (B2) (A1)
                 (B1) (A1) (B1) (B2) (A1) (A2) (B1) (A2) (A1) (A1)
                 (B2) (B2) (A1)
 The electronic state is 1-A1.
 Alpha  occ. eigenvalues --  -19.20061  -1.09376  -0.61428  -0.45525  -0.38893
 Alpha virt. eigenvalues --    0.04295   0.09705   0.32527   0.33347   0.38346
 Alpha virt. eigenvalues --    0.38776   0.49502   0.74537   0.81324   0.85801
 Alpha virt. eigenvalues --    0.94641   1.09831   1.21871   1.25839   1.49375
 Alpha virt. eigenvalues --    1.53356   1.80771   1.90658   1.90706   2.13670
 Alpha virt. eigenvalues --    2.16269   2.33059   2.94008   3.43791   3.46719
 Alpha virt. eigenvalues --    3.60623   3.61807   3.80085   3.86506   3.87376
 Alpha virt. eigenvalues --    4.10698   4.10926   4.32431   4.46684   4.53689
 Alpha virt. eigenvalues --    4.57352   4.70533   4.87911   4.90091   4.95046
 Alpha virt. eigenvalues --    5.03225   5.69823   6.01856   6.15134   6.22547
 Alpha virt. eigenvalues --    6.23541   6.27966   6.37742   6.39385   6.96498
 Alpha virt. eigenvalues --    6.96550   7.42214  15.23149
          Condensed to atoms (all electrons):
               1          2          3
     1  O    7.695346   0.366980   0.366980
     2  H    0.366980   0.447076  -0.028708
     3  H    0.366980  -0.028708   0.447076
 Mulliken charges:
               1
     1  O   -0.429305
     2  H    0.214653
     3  H    0.214653
 Sum of Mulliken charges =   0.00000
 Mulliken charges with hydrogens summed into heavy atoms:
               1
     1  O    0.000000
 Electronic spatial extent (au):  <R**2>=             19.8609
 Charge=              0.0000 electrons
 Dipole moment (field-independent basis, Debye):
    X=              0.0000    Y=             -0.0000    Z=             -1.9584  Tot=              1.9584
 Quadrupole moment (field-independent basis, Debye-Ang):
   XX=             -7.6884   YY=             -4.2087   ZZ=             -6.5535
   XY=              0.0000   XZ=             -0.0000   YZ=              0.0000
 Traceless Quadrupole moment (field-independent basis, Debye-Ang):
   XX=             -1.5382   YY=              1.9415   ZZ=             -0.4033
   XY=              0.0000   XZ=             -0.0000   YZ=              0.0000
 Octapole moment (field-independent basis, Debye-Ang**2):
  XXX=             -0.0000  YYY=             -0.0000  ZZZ=             -1.2402  XYY=              0.0000
  XXY=              0.0000  XXZ=             -0.3399  XZZ=             -0.0000  YZZ=             -0.0000
  YYZ=             -1.3694  XYZ=             -0.0000
 Hexadecapole moment (field-independent basis, Debye-Ang**3):
 XXXX=             -7.0484 YYYY=             -6.2637 ZZZZ=             -7.5801 XXXY=             -0.0000
 XXXZ=              0.0000 YYYX=             -0.0000 YYYZ=              0.0000 ZZZX=              0.0000
 ZZZY=             -0.0000 XXYY=             -2.5743 XXZZ=             -2.4816 YYZZ=             -2.0458
 XXYZ=             -0.0000 YYXZ=             -0.0000 ZZXY=             -0.0000
 N-N= 9.157175901845D+00 E-N=-1.992075850542D+02  KE= 7.618312013734D+01
 Symmetry A1   KE= 6.795862616626D+01
 Symmetry A2   KE=-7.813464699946D-21
 Symmetry B1   KE= 4.548433156704D+00
 Symmetry B2   KE= 3.676060814380D+00
 No NMR shielding tensors so no spin-rotation constants.
 Leave Link  601 at Fri Aug 27 00:02:02 2021, MaxMem= 17179869184 cpu:        72.9
 (Enter /public3/home/sc51754/softwares/g09e01/l701.exe)
 Compute integral first derivatives.
 ... and contract with generalized density number  0.
 Leave Link  701 at Fri Aug 27 00:02:03 2021, MaxMem= 17179869184 cpu:        45.1
 (Enter /public3/home/sc51754/softwares/g09e01/l702.exe)
 L702 exits ... SP integral derivatives will be done elsewhere.
 Leave Link  702 at Fri Aug 27 00:02:03 2021, MaxMem= 17179869184 cpu:         0.2
 (Enter /public3/home/sc51754/softwares/g09e01/l703.exe)
 Compute integral first derivatives, UseDBF=F ICtDFT=           0.
 Integral derivatives from FoFJK, PRISM(SPDF).
 Calling FoFJK, ICntrl=      2127 FMM=F ISym2X=1 I1Cent= 0 IOpClX= 0 NMat=1 NMatS=1 NMatT=0.
 FoFJK:  IHMeth= 1 ICntrl=    2127 DoSepK=T KAlg= 0 I1Cent=   0 FoldK=F
 IRaf=         1 NMat=   1 IRICut=       1 DoRegI=T DoRafI=F ISym2E= 1.
 FoFCou: FMM=F IPFlag=           0 FMFlag=      100000 FMFlg1=         800
         NFxFlg=           0 DoJE=F BraDBF=F KetDBF=F FulRan=T
         wScrn=  0.000000 ICntrl=    2527 IOpCl=  0 I1Cent=           0 NGrid=           0
         NMat0=    1 NMatS0=      1 NMatT0=    0 NMatD0=    1 NMtDS0=    0 NMtDT0=    0
 Petite list used in FoFCou.
 Leave Link  703 at Fri Aug 27 00:02:04 2021, MaxMem= 17179869184 cpu:        66.7
 (Enter /public3/home/sc51754/softwares/g09e01/l716.exe)
 Dipole        = 3.83957143D-17-2.22044605D-16-7.70475997D-01
 ***** Axes restored to original set *****
 -------------------------------------------------------------------
 Center     Atomic                   Forces (Hartrees/Bohr)
 Number     Number              X              Y              Z
 -------------------------------------------------------------------
      1        8          -0.003207264   -0.004538173    0.000000000
      2        1          -0.003110976    0.005601042   -0.000000000
      3        1           0.006318239   -0.001062869   -0.000000000
 -------------------------------------------------------------------
 Cartesian Forces:  Max     0.006318239 RMS     0.003543088
 Leave Link  716 at Fri Aug 27 00:02:04 2021, MaxMem= 17179869184 cpu:         0.4
 (Enter /public3/home/sc51754/softwares/g09e01/l103.exe)

 GradGradGradGradGradGradGradGradGradGradGradGradGradGradGradGradGradGrad
 Berny optimization.
 FormGI is forming the generalized inverse of G from B-inverse, IUseBI=4.
 Internal  Forces:  Max     0.010162474 RMS     0.006393088
 Search for a local minimum.
 Step number   1 out of a maximum of   20
 All quantities printed in internal units (Hartrees-Bohrs-Radians)
 RMS Force = .63931D-02 SwitMx=.10000D-02 MixMth= 1
 Mixed Optimization -- RFO/linear search
 Second derivative matrix not updated -- first step.
 The second derivative matrix:
                          R1        R2        A1
           R1           0.55473
           R2           0.00000   0.55473
           A1           0.00000   0.00000   0.16000
 ITU=  0
     Eigenvalues ---    0.16000   0.55473   0.55473
 RFO step:  Lambda=-6.77571304D-04 EMin= 1.60000000D-01
 Linear search not attempted -- first point.
 Iteration  1 RMS(Cart)=  0.03698833 RMS(Int)=  0.00074876
 Iteration  2 RMS(Cart)=  0.00061507 RMS(Int)=  0.00000004
 Iteration  3 RMS(Cart)=  0.00000004 RMS(Int)=  0.00000000
 ITry= 1 IFail=0 DXMaxC= 3.96D-02 DCOld= 1.00D+10 DXMaxT= 3.00D-01 DXLimC= 3.00D+00 Rises=F
 ClnCor:  largest displacement from symmetrization is 8.52D-15 for atom     3.
 Variable       Old X    -DE/DX   Delta X   Delta X   Delta X     New X
                                 (Linear)    (Quad)   (Total)
    R1        1.81414  -0.00311   0.00000  -0.00560  -0.00560   1.80854
    R2        1.81414  -0.00311   0.00000  -0.00560  -0.00560   1.80854
    A1        1.91063  -0.01016   0.00000  -0.06325  -0.06325   1.84739
         Item               Value     Threshold  Converged?
 Maximum Force            0.010162     0.000450     NO 
 RMS     Force            0.006393     0.000300     NO 
 Maximum Displacement     0.039557     0.001800     NO 
 RMS     Displacement     0.037267     0.001200     NO 
 Predicted change in Energy=-3.401621D-04
 Lowest energy point so far.  Saving SCF results.
 GradGradGradGradGradGradGradGradGradGradGradGradGradGradGradGradGradGrad

 Leave Link  103 at Fri Aug 27 00:02:05 2021, MaxMem= 17179869184 cpu:        21.7
 (Enter /public3/home/sc51754/softwares/g09e01/l202.exe)
                          Input orientation:                          
 ---------------------------------------------------------------------
 Center     Atomic      Atomic             Coordinates (Angstroms)
 Number     Number       Type             X           Y           Z
 ---------------------------------------------------------------------
      1          8           0        0.030475    0.783201    0.000000
      2          1           0        0.987026    0.813701   -0.000000
      3          1           0       -0.260077    1.695067    0.000000
 ---------------------------------------------------------------------
                    Distance matrix (angstroms):
                    1          2          3
     1  O    0.000000
     2  H    0.957037   0.000000
     3  H    0.957037   1.527113   0.000000
 Stoichiometry    H2O
 Framework group  C2V[C2(O),SGV(H2)]
 Deg. of freedom     2
 Full point group                 C2V     NOp   4
 RotChk:  IX=3 Diff= 5.07D-16
 Largest Abelian subgroup         C2V     NOp   4
 Largest concise Abelian subgroup C2      NOp   2
                         Standard orientation:                         
 ---------------------------------------------------------------------
 Center     Atomic      Atomic             Coordinates (Angstroms)
 Number     Number       Type             X           Y           Z
 ---------------------------------------------------------------------
      1          8           0        0.000000   -0.000000    0.115395
      2          1           0        0.000000   -0.763556   -0.461581
      3          1           0        0.000000    0.763556   -0.461581
 ---------------------------------------------------------------------
 Rotational constants (GHZ):    848.0682447    430.0509702    285.3509807
 Leave Link  202 at Fri Aug 27 00:02:05 2021, MaxMem= 17179869184 cpu:         7.1
 (Enter /public3/home/sc51754/softwares/g09e01/l301.exe)
 Basis read from rwf:  (5D, 7F)
 No pseudopotential information found on rwf file.
 There are    27 symmetry adapted cartesian basis functions of A1  symmetry.
 There are     7 symmetry adapted cartesian basis functions of A2  symmetry.
 There are    12 symmetry adapted cartesian basis functions of B1  symmetry.
 There are    19 symmetry adapted cartesian basis functions of B2  symmetry.
 There are    23 symmetry adapted basis functions of A1  symmetry.
 There are     7 symmetry adapted basis functions of A2  symmetry.
 There are    11 symmetry adapted basis functions of B1  symmetry.
 There are    17 symmetry adapted basis functions of B2  symmetry.
    58 basis functions,    91 primitive gaussians,    65 cartesian basis functions
     5 alpha electrons        5 beta electrons
       nuclear repulsion energy         9.1934443545 Hartrees.
 IExCor=20419 DFT=T Ex+Corr=CAM-B3LYP ExCW=0 ScaHFX=  1.000000
 ScaDFX=  1.000000  1.000000  1.000000  0.810000 ScalE2=  1.000000  1.000000
 IRadAn=      0 IRanWt=     -1 IRanGd=            0 ICorTp=0 IEmpDi=  4
  HFx wShort=  0.000000 wLong=  0.330000 cFull=  0.190000 cShort=  0.000000 cLong=  0.460000
  DFx wShort=  0.000000 wLong=  0.330000 cFull=  0.190000 cShort=  0.000000 cLong=  0.460000
 NAtoms=    3 NActive=    3 NUniq=    2 SFac= 2.25D+00 NAtFMM=   60 NAOKFM=F Big=F
 Integral buffers will be    131072 words long.
 Raffenetti 2 integral format.
 Two-electron integral symmetry is turned on.
 No density basis found on file   724.
 Leave Link  301 at Fri Aug 27 00:02:05 2021, MaxMem= 17179869184 cpu:         1.1
 (Enter /public3/home/sc51754/softwares/g09e01/l302.exe)
 NPDir=0 NMtPBC=     1 NCelOv=     1 NCel=       1 NClECP=     1 NCelD=      1
         NCelK=      1 NCelE2=     1 NClLst=     1 CellRange=     0.0.
 One-electron integrals computed using PRISM.
 One-electron integral symmetry used in STVInt
 NBasis=    58 RedAO= T EigKep=  5.77D-03  NBF=    23     7    11    17
 NBsUse=    58 1.00D-06 EigRej= -1.00D+00 NBFU=    23     7    11    17
 Precomputing XC quadrature grid using
 IXCGrd= 4 IRadAn=           0 IRanWt=          -1 IRanGd=           0 AccXCQ= 0.00D+00.
 Generated NRdTot=       0 NPtTot=           0 NUsed=           0 NTot=          32
 NSgBfM=    65    65    65    65    65 MxSgAt=     3 MxSgA2=     3.
 Leave Link  302 at Fri Aug 27 00:02:06 2021, MaxMem= 17179869184 cpu:        42.8
 (Enter /public3/home/sc51754/softwares/g09e01/l303.exe)
 DipDrv:  MaxL=1.
 Leave Link  303 at Fri Aug 27 00:02:06 2021, MaxMem= 17179869184 cpu:         8.9
 (Enter /public3/home/sc51754/softwares/g09e01/l401.exe)
 Initial guess from the checkpoint file:  "H2O_CAM-B3LYP_PC2_OPT_FREQ.chk"
 B after Tr=    -0.000000   -0.000000    0.000000
         Rot=    1.000000    0.000000   -0.000000   -0.000000 Ang=   0.00 deg.
 Guess basis will be translated and rotated to current coordinates.
 JPrj=2 DoOrth=T DoCkMO=T.
 Initial guess orbital symmetries:
       Occupied  (A1) (A1) (B2) (A1) (B1)
       Virtual   (A1) (A1) (A1) (A1) (A1) (A1) (A1) (A1) (A1) (A1)
                 (A1) (A1) (A1) (A1) (A1) (A1) (A1) (A1) (A1) (A1)
                 (A2) (A2) (A2) (A2) (A2) (A2) (A2) (B1) (B1) (B1)
                 (B1) (B1) (B1) (B1) (B1) (B1) (B1) (B2) (B2) (B2)
                 (B2) (B2) (B2) (B2) (B2) (B2) (B2) (B2) (B2) (B2)
                 (B2) (B2) (B2)
 The electronic state of the initial guess is 1-A1.
 Generating alternative initial guess.
 ExpMin= 7.41D-02 ExpMax= 1.48D+04 ExpMxC= 5.05D+02 IAcc=2 IRadAn=         4 AccDes= 0.00D+00
 Harris functional with IExCor=20419 and IRadAn=       4 diagonalized for initial guess.
 HarFok:  IExCor=20419 AccDes= 0.00D+00 IRadAn=         4 IDoV= 1 UseB2=F ITyADJ=14
 ICtDFT=  3500011 ScaDFX=  1.000000  1.000000  1.000000  1.000000
 FoFCou: FMM=F IPFlag=           0 FMFlag=      100000 FMFlg1=           0
         NFxFlg=           0 DoJE=T BraDBF=F KetDBF=T FulRan=T
         wScrn=  0.000000 ICntrl=     500 IOpCl=  0 I1Cent=   200000004 NGrid=           0
         NMat0=    1 NMatS0=      1 NMatT0=    0 NMatD0=    1 NMtDS0=    0 NMtDT0=    0
 Petite list used in FoFCou.
 Harris En= -73.9258364413239    
 Leave Link  401 at Fri Aug 27 00:02:08 2021, MaxMem= 17179869184 cpu:        70.8
 (Enter /public3/home/sc51754/softwares/g09e01/l502.exe)
 Closed shell SCF:
 Using DIIS extrapolation, IDIIS=  1040.
 Integral symmetry usage will be decided dynamically.
 Keep R1 ints in memory in symmetry-blocked form, NReq=4932517.
 IVT=       35997 IEndB=       35997 NGot= 17179869184 MDV= 17179451308
 LenX= 17179451308 LenY= 17179446642
 Requested convergence on RMS density matrix=1.00D-08 within 128 cycles.
 Requested convergence on MAX density matrix=1.00D-06.
 Requested convergence on             energy=1.00D-06.
 No special actions if energy rises.
 FoFCou: FMM=F IPFlag=           0 FMFlag=           0 FMFlg1=           0
         NFxFlg=           0 DoJE=F BraDBF=F KetDBF=F FulRan=T
         wScrn=  0.000000 ICntrl=     600 IOpCl=  0 I1Cent=           0 NGrid=           0
         NMat0=    1 NMatS0=   1711 NMatT0=    0 NMatD0=    1 NMtDS0=    0 NMtDT0=    0
 Petite list used in FoFCou.
 Integral accuracy reduced to 1.0D-05 until final iterations.

 Cycle   1  Pass 0  IDiag  1:
 E= -76.4408007105049    
 DIIS: error= 1.98D-03 at cycle   1 NSaved=   1.
 NSaved= 1 IEnMin= 1 EnMin= -76.4408007105049     IErMin= 1 ErrMin= 1.98D-03
 ErrMax= 1.98D-03  0.00D+00 EMaxC= 1.00D-01 BMatC= 2.02D-04 BMatP= 2.02D-04
 IDIUse=3 WtCom= 9.80D-01 WtEn= 1.98D-02
 Coeff-Com:  0.100D+01
 Coeff-En:   0.100D+01
 Coeff:      0.100D+01
 Gap=     1.268 Goal=   None    Shift=    0.000
 GapD=    1.268 DampG=2.000 DampE=1.000 DampFc=2.0000 IDamp=-1.
 RMSDP=2.57D-04 MaxDP=3.67D-03              OVMax= 5.24D-03

 Cycle   2  Pass 0  IDiag  1:
 E= -76.4409636055978     Delta-E=       -0.000162895093 Rises=F Damp=F
 DIIS: error= 2.46D-04 at cycle   2 NSaved=   2.
 NSaved= 2 IEnMin= 2 EnMin= -76.4409636055978     IErMin= 2 ErrMin= 2.46D-04
 ErrMax= 2.46D-04  0.00D+00 EMaxC= 1.00D-01 BMatC= 2.31D-06 BMatP= 2.02D-04
 IDIUse=3 WtCom= 9.98D-01 WtEn= 2.46D-03
 Coeff-Com: -0.568D-01 0.106D+01
 Coeff-En:   0.000D+00 0.100D+01
 Coeff:     -0.567D-01 0.106D+01
 Gap=     0.432 Goal=   None    Shift=    0.000
 RMSDP=5.66D-05 MaxDP=9.90D-04 DE=-1.63D-04 OVMax= 9.88D-04

 Cycle   3  Pass 0  IDiag  1:
 E= -76.4409662736416     Delta-E=       -0.000002668044 Rises=F Damp=F
 DIIS: error= 2.19D-04 at cycle   3 NSaved=   3.
 NSaved= 3 IEnMin= 3 EnMin= -76.4409662736416     IErMin= 3 ErrMin= 2.19D-04
 ErrMax= 2.19D-04  0.00D+00 EMaxC= 1.00D-01 BMatC= 1.16D-06 BMatP= 2.31D-06
 IDIUse=3 WtCom= 9.98D-01 WtEn= 2.19D-03
 Coeff-Com: -0.318D-01 0.462D+00 0.569D+00
 Coeff-En:   0.000D+00 0.000D+00 0.100D+01
 Coeff:     -0.317D-01 0.461D+00 0.570D+00
 Gap=     0.433 Goal=   None    Shift=    0.000
 RMSDP=1.10D-05 MaxDP=2.11D-04 DE=-2.67D-06 OVMax= 2.94D-04

 Cycle   4  Pass 0  IDiag  1:
 E= -76.4409669855780     Delta-E=       -0.000000711936 Rises=F Damp=F
 DIIS: error= 6.11D-05 at cycle   4 NSaved=   4.
 NSaved= 4 IEnMin= 4 EnMin= -76.4409669855780     IErMin= 4 ErrMin= 6.11D-05
 ErrMax= 6.11D-05  0.00D+00 EMaxC= 1.00D-01 BMatC= 9.11D-08 BMatP= 1.16D-06
 IDIUse=1 WtCom= 1.00D+00 WtEn= 0.00D+00
 Coeff-Com:  0.118D-02-0.676D-01 0.189D+00 0.878D+00
 Coeff:      0.118D-02-0.676D-01 0.189D+00 0.878D+00
 Gap=     0.433 Goal=   None    Shift=    0.000
 RMSDP=6.87D-06 MaxDP=1.30D-04 DE=-7.12D-07 OVMax= 1.10D-04

 Initial convergence to 1.0D-05 achieved.  Increase integral accuracy.
 Cycle   5  Pass 1  IDiag  1:
 E= -76.4409631302402     Delta-E=        0.000003855338 Rises=F Damp=F
 DIIS: error= 4.01D-06 at cycle   1 NSaved=   1.
 NSaved= 1 IEnMin= 1 EnMin= -76.4409631302402     IErMin= 1 ErrMin= 4.01D-06
 ErrMax= 4.01D-06  0.00D+00 EMaxC= 1.00D-01 BMatC= 9.01D-10 BMatP= 9.01D-10
 IDIUse=1 WtCom= 1.00D+00 WtEn= 0.00D+00
 Coeff-Com:  0.100D+01
 Coeff:      0.100D+01
 Gap=     0.433 Goal=   None    Shift=    0.000
 RMSDP=6.87D-06 MaxDP=1.30D-04 DE= 3.86D-06 OVMax= 1.35D-05

 Cycle   6  Pass 1  IDiag  1:
 E= -76.4409631308840     Delta-E=       -0.000000000644 Rises=F Damp=F
 DIIS: error= 1.45D-06 at cycle   2 NSaved=   2.
 NSaved= 2 IEnMin= 2 EnMin= -76.4409631308840     IErMin= 2 ErrMin= 1.45D-06
 ErrMax= 1.45D-06  0.00D+00 EMaxC= 1.00D-01 BMatC= 5.56D-11 BMatP= 9.01D-10
 IDIUse=1 WtCom= 1.00D+00 WtEn= 0.00D+00
 Coeff-Com:  0.266D-01 0.973D+00
 Coeff:      0.266D-01 0.973D+00
 Gap=     0.433 Goal=   None    Shift=    0.000
 RMSDP=2.16D-07 MaxDP=4.44D-06 DE=-6.44D-10 OVMax= 5.23D-06

 Cycle   7  Pass 1  IDiag  1:
 E= -76.4409631309024     Delta-E=       -0.000000000018 Rises=F Damp=F
 DIIS: error= 1.61D-06 at cycle   3 NSaved=   3.
 NSaved= 3 IEnMin= 3 EnMin= -76.4409631309024     IErMin= 2 ErrMin= 1.45D-06
 ErrMax= 1.61D-06  0.00D+00 EMaxC= 1.00D-01 BMatC= 5.82D-11 BMatP= 5.56D-11
 IDIUse=1 WtCom= 1.00D+00 WtEn= 0.00D+00
 Coeff-Com: -0.389D-01 0.524D+00 0.515D+00
 Coeff:     -0.389D-01 0.524D+00 0.515D+00
 Gap=     0.433 Goal=   None    Shift=    0.000
 RMSDP=6.30D-08 MaxDP=1.28D-06 DE=-1.84D-11 OVMax= 1.81D-06

 Cycle   8  Pass 1  IDiag  1:
 E= -76.4409631309394     Delta-E=       -0.000000000037 Rises=F Damp=F
 DIIS: error= 1.45D-07 at cycle   4 NSaved=   4.
 NSaved= 4 IEnMin= 4 EnMin= -76.4409631309394     IErMin= 4 ErrMin= 1.45D-07
 ErrMax= 1.45D-07  0.00D+00 EMaxC= 1.00D-01 BMatC= 4.54D-13 BMatP= 5.56D-11
 IDIUse=1 WtCom= 1.00D+00 WtEn= 0.00D+00
 Coeff-Com: -0.570D-02 0.638D-02 0.640D-01 0.935D+00
 Coeff:     -0.570D-02 0.638D-02 0.640D-01 0.935D+00
 Gap=     0.433 Goal=   None    Shift=    0.000
 RMSDP=2.18D-08 MaxDP=4.28D-07 DE=-3.70D-11 OVMax= 6.42D-07

 Cycle   9  Pass 1  IDiag  1:
 E= -76.4409631309406     Delta-E=       -0.000000000001 Rises=F Damp=F
 DIIS: error= 3.73D-08 at cycle   5 NSaved=   5.
 NSaved= 5 IEnMin= 5 EnMin= -76.4409631309406     IErMin= 5 ErrMin= 3.73D-08
 ErrMax= 3.73D-08  0.00D+00 EMaxC= 1.00D-01 BMatC= 2.88D-14 BMatP= 4.54D-13
 IDIUse=1 WtCom= 1.00D+00 WtEn= 0.00D+00
 Coeff-Com:  0.265D-02-0.403D-01-0.413D-01 0.288D-01 0.105D+01
 Coeff:      0.265D-02-0.403D-01-0.413D-01 0.288D-01 0.105D+01
 Gap=     0.433 Goal=   None    Shift=    0.000
 RMSDP=7.61D-09 MaxDP=1.47D-07 DE=-1.14D-12 OVMax= 2.17D-07

 SCF Done:  E(RCAM-B3LYP) =  -76.4409631309     A.U. after    9 cycles
            NFock=  9  Conv=0.76D-08     -V/T= 2.0032
 KE= 7.620052315221D+01 PE=-1.992810222120D+02 EE= 3.744609157431D+01
 Leave Link  502 at Fri Aug 27 00:02:08 2021, MaxMem= 17179869184 cpu:        42.8
 (Enter /public3/home/sc51754/softwares/g09e01/l701.exe)
 Compute integral first derivatives.
 ... and contract with generalized density number  0.
 Leave Link  701 at Fri Aug 27 00:02:09 2021, MaxMem= 17179869184 cpu:        59.3
 (Enter /public3/home/sc51754/softwares/g09e01/l702.exe)
 L702 exits ... SP integral derivatives will be done elsewhere.
 Leave Link  702 at Fri Aug 27 00:02:10 2021, MaxMem= 17179869184 cpu:         0.3
 (Enter /public3/home/sc51754/softwares/g09e01/l703.exe)
 Compute integral first derivatives, UseDBF=F ICtDFT=           0.
 Integral derivatives from FoFJK, PRISM(SPDF).
 Calling FoFJK, ICntrl=      2127 FMM=F ISym2X=1 I1Cent= 0 IOpClX= 0 NMat=1 NMatS=1 NMatT=0.
 FoFJK:  IHMeth= 1 ICntrl=    2127 DoSepK=T KAlg= 0 I1Cent=   0 FoldK=F
 IRaf=         1 NMat=   1 IRICut=       1 DoRegI=T DoRafI=F ISym2E= 1.
 FoFCou: FMM=F IPFlag=           0 FMFlag=      100000 FMFlg1=         800
         NFxFlg=           0 DoJE=F BraDBF=F KetDBF=F FulRan=T
         wScrn=  0.000000 ICntrl=    2527 IOpCl=  0 I1Cent=           0 NGrid=           0
         NMat0=    1 NMatS0=      1 NMatT0=    0 NMatD0=    1 NMtDS0=    0 NMtDT0=    0
 Petite list used in FoFCou.
 Leave Link  703 at Fri Aug 27 00:02:11 2021, MaxMem= 17179869184 cpu:        53.4
 (Enter /public3/home/sc51754/softwares/g09e01/l716.exe)
 Dipole        = 3.63729956D-17-4.44089210D-16-7.92124543D-01
 ***** Axes restored to original set *****
 -------------------------------------------------------------------
 Center     Atomic                   Forces (Hartrees/Bohr)
 Number     Number              X              Y              Z
 -------------------------------------------------------------------
      1        8          -0.001417017   -0.002005032    0.000000000
      2        1           0.001710426    0.000294431   -0.000000000
      3        1          -0.000293409    0.001710602   -0.000000000
 -------------------------------------------------------------------
 Cartesian Forces:  Max     0.002005032 RMS     0.001157228
 Leave Link  716 at Fri Aug 27 00:02:11 2021, MaxMem= 17179869184 cpu:         0.3
 (Enter /public3/home/sc51754/softwares/g09e01/l103.exe)

 GradGradGradGradGradGradGradGradGradGradGradGradGradGradGradGradGradGrad
 Berny optimization.
 Using GEDIIS/GDIIS optimizer.
 FormGI is forming the generalized inverse of G from B-inverse, IUseBI=4.
 Internal  Forces:  Max     0.001718941 RMS     0.001425664
 Search for a local minimum.
 Step number   2 out of a maximum of   20
 All quantities printed in internal units (Hartrees-Bohrs-Radians)
 RMS Force = .14257D-02 SwitMx=.10000D-02 MixMth= 1
 Mixed Optimization -- RFO/linear search
 Update second derivatives using D2CorX and points    1    2
 DE= -3.47D-04 DEPred=-3.40D-04 R= 1.02D+00
 TightC=F SS=  1.41D+00  RLast= 6.37D-02 DXNew= 5.0454D-01 1.9122D-01
 Trust test= 1.02D+00 RLast= 6.37D-02 DXMaxT set to 3.00D-01
 The second derivative matrix:
                          R1        R2        A1
           R1           0.57527
           R2           0.02054   0.57527
           A1           0.02360   0.02360   0.14964
 ITU=  1  0
 Use linear search instead of GDIIS.
     Eigenvalues ---    0.14716   0.55473   0.59829
 RFO step:  Lambda=-1.19921326D-05 EMin= 1.47159531D-01
 Quartic linear search produced a step of  0.01177.
 Iteration  1 RMS(Cart)=  0.00218136 RMS(Int)=  0.00000458
 Iteration  2 RMS(Cart)=  0.00000517 RMS(Int)=  0.00000000
 Iteration  3 RMS(Cart)=  0.00000000 RMS(Int)=  0.00000000
 ITry= 1 IFail=0 DXMaxC= 2.50D-03 DCOld= 1.00D+10 DXMaxT= 3.00D-01 DXLimC= 3.00D+00 Rises=F
 ClnCor:  largest displacement from symmetrization is 2.70D-15 for atom     1.
 Variable       Old X    -DE/DX   Delta X   Delta X   Delta X     New X
                                 (Linear)    (Quad)   (Total)
    R1        1.80854   0.00172  -0.00007   0.00310   0.00304   1.81158
    R2        1.80854   0.00172  -0.00007   0.00310   0.00304   1.81158
    A1        1.84739  -0.00043  -0.00074  -0.00308  -0.00382   1.84356
         Item               Value     Threshold  Converged?
 Maximum Force            0.001719     0.000450     NO 
 RMS     Force            0.001426     0.000300     NO 
 Maximum Displacement     0.002500     0.001800     NO 
 RMS     Displacement     0.002182     0.001200     NO 
 Predicted change in Energy=-6.057836D-06
 Lowest energy point so far.  Saving SCF results.
 GradGradGradGradGradGradGradGradGradGradGradGradGradGradGradGradGradGrad

 Leave Link  103 at Fri Aug 27 00:02:11 2021, MaxMem= 17179869184 cpu:        28.9
 (Enter /public3/home/sc51754/softwares/g09e01/l202.exe)
                          Input orientation:                          
 ---------------------------------------------------------------------
 Center     Atomic      Atomic             Coordinates (Angstroms)
 Number     Number       Type             X           Y           Z
 ---------------------------------------------------------------------
      1          8           0        0.029540    0.781878    0.000000
      2          1           0        0.987637    0.814261   -0.000000
      3          1           0       -0.259753    1.695830    0.000000
 ---------------------------------------------------------------------
                    Distance matrix (angstroms):
                    1          2          3
     1  O    0.000000
     2  H    0.958645   0.000000
     3  H    0.958645   1.527464   0.000000
 Stoichiometry    H2O
 Framework group  C2V[C2(O),SGV(H2)]
 Deg. of freedom     2
 Full point group                 C2V     NOp   4
 RotChk:  IX=3 Diff= 7.02D-16
 Largest Abelian subgroup         C2V     NOp   4
 Largest concise Abelian subgroup C2      NOp   2
                         Standard orientation:                         
 ---------------------------------------------------------------------
 Center     Atomic      Atomic             Coordinates (Angstroms)
 Number     Number       Type             X           Y           Z
 ---------------------------------------------------------------------
      1          8           0        0.000000   -0.000000    0.115881
      2          1           0        0.000000   -0.763732   -0.463526
      3          1           0        0.000000    0.763732   -0.463526
 ---------------------------------------------------------------------
 Rotational constants (GHZ):    840.9685634    429.8530291    284.4560452
 Leave Link  202 at Fri Aug 27 00:02:12 2021, MaxMem= 17179869184 cpu:         6.8
 (Enter /public3/home/sc51754/softwares/g09e01/l301.exe)
 Basis read from rwf:  (5D, 7F)
 No pseudopotential information found on rwf file.
 There are    27 symmetry adapted cartesian basis functions of A1  symmetry.
 There are     7 symmetry adapted cartesian basis functions of A2  symmetry.
 There are    12 symmetry adapted cartesian basis functions of B1  symmetry.
 There are    19 symmetry adapted cartesian basis functions of B2  symmetry.
 There are    23 symmetry adapted basis functions of A1  symmetry.
 There are     7 symmetry adapted basis functions of A2  symmetry.
 There are    11 symmetry adapted basis functions of B1  symmetry.
 There are    17 symmetry adapted basis functions of B2  symmetry.
    58 basis functions,    91 primitive gaussians,    65 cartesian basis functions
     5 alpha electrons        5 beta electrons
       nuclear repulsion energy         9.1785322550 Hartrees.
 IExCor=20419 DFT=T Ex+Corr=CAM-B3LYP ExCW=0 ScaHFX=  1.000000
 ScaDFX=  1.000000  1.000000  1.000000  0.810000 ScalE2=  1.000000  1.000000
 IRadAn=      0 IRanWt=     -1 IRanGd=            0 ICorTp=0 IEmpDi=  4
  HFx wShort=  0.000000 wLong=  0.330000 cFull=  0.190000 cShort=  0.000000 cLong=  0.460000
  DFx wShort=  0.000000 wLong=  0.330000 cFull=  0.190000 cShort=  0.000000 cLong=  0.460000
 NAtoms=    3 NActive=    3 NUniq=    2 SFac= 2.25D+00 NAtFMM=   60 NAOKFM=F Big=F
 Integral buffers will be    131072 words long.
 Raffenetti 2 integral format.
 Two-electron integral symmetry is turned on.
 No density basis found on file   724.
 Leave Link  301 at Fri Aug 27 00:02:12 2021, MaxMem= 17179869184 cpu:         1.1
 (Enter /public3/home/sc51754/softwares/g09e01/l302.exe)
 NPDir=0 NMtPBC=     1 NCelOv=     1 NCel=       1 NClECP=     1 NCelD=      1
         NCelK=      1 NCelE2=     1 NClLst=     1 CellRange=     0.0.
 One-electron integrals computed using PRISM.
 One-electron integral symmetry used in STVInt
 NBasis=    58 RedAO= T EigKep=  5.79D-03  NBF=    23     7    11    17
 NBsUse=    58 1.00D-06 EigRej= -1.00D+00 NBFU=    23     7    11    17
 Precomputing XC quadrature grid using
 IXCGrd= 4 IRadAn=           0 IRanWt=          -1 IRanGd=           0 AccXCQ= 0.00D+00.
 Generated NRdTot=       0 NPtTot=           0 NUsed=           0 NTot=          32
 NSgBfM=    65    65    65    65    65 MxSgAt=     3 MxSgA2=     3.
 Leave Link  302 at Fri Aug 27 00:02:12 2021, MaxMem= 17179869184 cpu:        36.6
 (Enter /public3/home/sc51754/softwares/g09e01/l303.exe)
 DipDrv:  MaxL=1.
 Leave Link  303 at Fri Aug 27 00:02:13 2021, MaxMem= 17179869184 cpu:        10.6
 (Enter /public3/home/sc51754/softwares/g09e01/l401.exe)
 Initial guess from the checkpoint file:  "H2O_CAM-B3LYP_PC2_OPT_FREQ.chk"
 B after Tr=     0.000000    0.000000    0.000000
         Rot=    1.000000   -0.000000   -0.000000   -0.000000 Ang=   0.00 deg.
 Guess basis will be translated and rotated to current coordinates.
 JPrj=2 DoOrth=T DoCkMO=T.
 Initial guess orbital symmetries:
       Occupied  (A1) (A1) (B2) (A1) (B1)
       Virtual   (A1) (A1) (A1) (A1) (A1) (A1) (A1) (A1) (A1) (A1)
                 (A1) (A1) (A1) (A1) (A1) (A1) (A1) (A1) (A1) (A1)
                 (A2) (A2) (A2) (A2) (A2) (A2) (A2) (B1) (B1) (B1)
                 (B1) (B1) (B1) (B1) (B1) (B1) (B1) (B2) (B2) (B2)
                 (B2) (B2) (B2) (B2) (B2) (B2) (B2) (B2) (B2) (B2)
                 (B2) (B2) (B2)
 The electronic state of the initial guess is 1-A1.
 Leave Link  401 at Fri Aug 27 00:02:14 2021, MaxMem= 17179869184 cpu:        33.7
 (Enter /public3/home/sc51754/softwares/g09e01/l502.exe)
 Closed shell SCF:
 Using DIIS extrapolation, IDIIS=  1040.
 Integral symmetry usage will be decided dynamically.
 Keep R1 ints in memory in symmetry-blocked form, NReq=4932517.
 IVT=       35997 IEndB=       35997 NGot= 17179869184 MDV= 17179451308
 LenX= 17179451308 LenY= 17179446642
 Requested convergence on RMS density matrix=1.00D-08 within 128 cycles.
 Requested convergence on MAX density matrix=1.00D-06.
 Requested convergence on             energy=1.00D-06.
 No special actions if energy rises.
 FoFCou: FMM=F IPFlag=           0 FMFlag=           0 FMFlg1=           0
         NFxFlg=           0 DoJE=F BraDBF=F KetDBF=F FulRan=T
         wScrn=  0.000000 ICntrl=     600 IOpCl=  0 I1Cent=           0 NGrid=           0
         NMat0=    1 NMatS0=   1711 NMatT0=    0 NMatD0=    1 NMtDS0=    0 NMtDT0=    0
 Petite list used in FoFCou.

 Cycle   1  Pass 1  IDiag  1:
 E= -76.4409672920371    
 DIIS: error= 3.94D-04 at cycle   1 NSaved=   1.
 NSaved= 1 IEnMin= 1 EnMin= -76.4409672920371     IErMin= 1 ErrMin= 3.94D-04
 ErrMax= 3.94D-04  0.00D+00 EMaxC= 1.00D-01 BMatC= 3.24D-06 BMatP= 3.24D-06
 IDIUse=3 WtCom= 9.96D-01 WtEn= 3.94D-03
 Coeff-Com:  0.100D+01
 Coeff-En:   0.100D+01
 Coeff:      0.100D+01
 Gap=     1.264 Goal=   None    Shift=    0.000
 RMSDP=2.77D-05 MaxDP=4.42D-04              OVMax= 6.27D-04

 Cycle   2  Pass 1  IDiag  1:
 E= -76.4409694763396     Delta-E=       -0.000002184302 Rises=F Damp=F
 DIIS: error= 1.28D-04 at cycle   2 NSaved=   2.
 NSaved= 2 IEnMin= 2 EnMin= -76.4409694763396     IErMin= 2 ErrMin= 1.28D-04
 ErrMax= 1.28D-04  0.00D+00 EMaxC= 1.00D-01 BMatC= 3.63D-07 BMatP= 3.24D-06
 IDIUse=3 WtCom= 9.99D-01 WtEn= 1.28D-03
 Coeff-Com:  0.118D+00 0.882D+00
 Coeff-En:   0.000D+00 0.100D+01
 Coeff:      0.118D+00 0.882D+00
 Gap=     0.432 Goal=   None    Shift=    0.000
 RMSDP=9.08D-06 MaxDP=2.05D-04 DE=-2.18D-06 OVMax= 2.55D-04

 Cycle   3  Pass 1  IDiag  1:
 E= -76.4409695468170     Delta-E=       -0.000000070477 Rises=F Damp=F
 DIIS: error= 1.05D-04 at cycle   3 NSaved=   3.
 NSaved= 3 IEnMin= 3 EnMin= -76.4409695468170     IErMin= 3 ErrMin= 1.05D-04
 ErrMax= 1.05D-04  0.00D+00 EMaxC= 1.00D-01 BMatC= 2.89D-07 BMatP= 3.63D-07
 IDIUse=3 WtCom= 9.99D-01 WtEn= 1.05D-03
 Coeff-Com: -0.282D-01 0.476D+00 0.553D+00
 Coeff-En:   0.000D+00 0.414D+00 0.586D+00
 Coeff:     -0.282D-01 0.475D+00 0.553D+00
 Gap=     0.432 Goal=   None    Shift=    0.000
 RMSDP=4.27D-06 MaxDP=7.66D-05 DE=-7.05D-08 OVMax= 1.35D-04

 Cycle   4  Pass 1  IDiag  1:
 E= -76.4409697359175     Delta-E=       -0.000000189101 Rises=F Damp=F
 DIIS: error= 8.47D-06 at cycle   4 NSaved=   4.
 NSaved= 4 IEnMin= 4 EnMin= -76.4409697359175     IErMin= 4 ErrMin= 8.47D-06
 ErrMax= 8.47D-06  0.00D+00 EMaxC= 1.00D-01 BMatC= 2.04D-09 BMatP= 2.89D-07
 IDIUse=1 WtCom= 1.00D+00 WtEn= 0.00D+00
 Coeff-Com: -0.883D-02 0.347D-01 0.985D-01 0.876D+00
 Coeff:     -0.883D-02 0.347D-01 0.985D-01 0.876D+00
 Gap=     0.432 Goal=   None    Shift=    0.000
 RMSDP=7.16D-07 MaxDP=1.04D-05 DE=-1.89D-07 OVMax= 2.27D-05

 Cycle   5  Pass 1  IDiag  1:
 E= -76.4409697380975     Delta-E=       -0.000000002180 Rises=F Damp=F
 DIIS: error= 2.05D-06 at cycle   5 NSaved=   5.
 NSaved= 5 IEnMin= 5 EnMin= -76.4409697380975     IErMin= 5 ErrMin= 2.05D-06
 ErrMax= 2.05D-06  0.00D+00 EMaxC= 1.00D-01 BMatC= 5.91D-11 BMatP= 2.04D-09
 IDIUse=1 WtCom= 1.00D+00 WtEn= 0.00D+00
 Coeff-Com:  0.159D-02-0.298D-01-0.314D-01-0.217D-03 0.106D+01
 Coeff:      0.159D-02-0.298D-01-0.314D-01-0.217D-03 0.106D+01
 Gap=     0.432 Goal=   None    Shift=    0.000
 RMSDP=3.17D-07 MaxDP=5.72D-06 DE=-2.18D-09 OVMax= 9.97D-06

 Cycle   6  Pass 1  IDiag  1:
 E= -76.4409697382281     Delta-E=       -0.000000000131 Rises=F Damp=F
 DIIS: error= 2.21D-07 at cycle   6 NSaved=   6.
 NSaved= 6 IEnMin= 6 EnMin= -76.4409697382281     IErMin= 6 ErrMin= 2.21D-07
 ErrMax= 2.21D-07  0.00D+00 EMaxC= 1.00D-01 BMatC= 5.73D-13 BMatP= 5.91D-11
 IDIUse=1 WtCom= 1.00D+00 WtEn= 0.00D+00
 Coeff-Com: -0.132D-04 0.241D-02 0.223D-02-0.946D-02-0.140D+00 0.114D+01
 Coeff:     -0.132D-04 0.241D-02 0.223D-02-0.946D-02-0.140D+00 0.114D+01
 Gap=     0.432 Goal=   None    Shift=    0.000
 RMSDP=3.85D-08 MaxDP=7.51D-07 DE=-1.31D-10 OVMax= 1.49D-06

 Cycle   7  Pass 1  IDiag  1:
 E= -76.4409697382308     Delta-E=       -0.000000000003 Rises=F Damp=F
 DIIS: error= 2.68D-08 at cycle   7 NSaved=   7.
 NSaved= 7 IEnMin= 7 EnMin= -76.4409697382308     IErMin= 7 ErrMin= 2.68D-08
 ErrMax= 2.68D-08  0.00D+00 EMaxC= 1.00D-01 BMatC= 9.75D-15 BMatP= 5.73D-13
 IDIUse=1 WtCom= 1.00D+00 WtEn= 0.00D+00
 Coeff-Com: -0.200D-04 0.140D-03 0.178D-03 0.173D-03 0.387D-02-0.164D+00
 Coeff-Com:  0.116D+01
 Coeff:     -0.200D-04 0.140D-03 0.178D-03 0.173D-03 0.387D-02-0.164D+00
 Coeff:      0.116D+01
 Gap=     0.432 Goal=   None    Shift=    0.000
 RMSDP=3.83D-09 MaxDP=5.03D-08 DE=-2.69D-12 OVMax= 1.76D-07

 SCF Done:  E(RCAM-B3LYP) =  -76.4409697382     A.U. after    7 cycles
            NFock=  7  Conv=0.38D-08     -V/T= 2.0032
 KE= 7.619530597048D+01 PE=-1.992491202767D+02 EE= 3.743431231294D+01
 Leave Link  502 at Fri Aug 27 00:02:14 2021, MaxMem= 17179869184 cpu:        41.2
 (Enter /public3/home/sc51754/softwares/g09e01/l701.exe)
 Compute integral first derivatives.
 ... and contract with generalized density number  0.
 Leave Link  701 at Fri Aug 27 00:02:15 2021, MaxMem= 17179869184 cpu:        51.7
 (Enter /public3/home/sc51754/softwares/g09e01/l702.exe)
 L702 exits ... SP integral derivatives will be done elsewhere.
 Leave Link  702 at Fri Aug 27 00:02:15 2021, MaxMem= 17179869184 cpu:         0.4
 (Enter /public3/home/sc51754/softwares/g09e01/l703.exe)
 Compute integral first derivatives, UseDBF=F ICtDFT=           0.
 Integral derivatives from FoFJK, PRISM(SPDF).
 Calling FoFJK, ICntrl=      2127 FMM=F ISym2X=1 I1Cent= 0 IOpClX= 0 NMat=1 NMatS=1 NMatT=0.
 FoFJK:  IHMeth= 1 ICntrl=    2127 DoSepK=T KAlg= 0 I1Cent=   0 FoldK=F
 IRaf=         1 NMat=   1 IRICut=       1 DoRegI=T DoRafI=F ISym2E= 1.
 FoFCou: FMM=F IPFlag=           0 FMFlag=      100000 FMFlg1=         800
         NFxFlg=           0 DoJE=F BraDBF=F KetDBF=F FulRan=T
         wScrn=  0.000000 ICntrl=    2527 IOpCl=  0 I1Cent=           0 NGrid=           0
         NMat0=    1 NMatS0=      1 NMatT0=    0 NMatD0=    1 NMtDS0=    0 NMtDT0=    0
 Petite list used in FoFCou.
 Leave Link  703 at Fri Aug 27 00:02:17 2021, MaxMem= 17179869184 cpu:        63.5
 (Enter /public3/home/sc51754/softwares/g09e01/l716.exe)
 Dipole        = 3.65298894D-17 0.00000000D+00-7.93853757D-01
 ***** Axes restored to original set *****
 -------------------------------------------------------------------
 Center     Atomic                   Forces (Hartrees/Bohr)
 Number     Number              X              Y              Z
 -------------------------------------------------------------------
      1        8          -0.000131381   -0.000185899    0.000000000
      2        1           0.000172919    0.000017168   -0.000000000
      3        1          -0.000041539    0.000168732   -0.000000000
 -------------------------------------------------------------------
 Cartesian Forces:  Max     0.000185899 RMS     0.000111660
 Leave Link  716 at Fri Aug 27 00:02:17 2021, MaxMem= 17179869184 cpu:         0.3
 (Enter /public3/home/sc51754/softwares/g09e01/l103.exe)

 GradGradGradGradGradGradGradGradGradGradGradGradGradGradGradGradGradGrad
 Berny optimization.
 Using GEDIIS/GDIIS optimizer.
 FormGI is forming the generalized inverse of G from B-inverse, IUseBI=4.
 Internal  Forces:  Max     0.000173401 RMS     0.000142075
 Search for a local minimum.
 Step number   3 out of a maximum of   20
 All quantities printed in internal units (Hartrees-Bohrs-Radians)
 RMS Force = .14207D-03 SwitMx=.10000D-02 MixMth= 2
 Mixed Optimization -- En-DIIS/RFO-DIIS
 Update second derivatives using D2CorX and points    1    2    3
 DE= -6.61D-06 DEPred=-6.06D-06 R= 1.09D+00
 TightC=F SS=  1.41D+00  RLast= 5.75D-03 DXNew= 5.0454D-01 1.7253D-02
 Trust test= 1.09D+00 RLast= 5.75D-03 DXMaxT set to 3.00D-01
 The second derivative matrix:
                          R1        R2        A1
           R1           0.54869
           R2          -0.00604   0.54869
           A1           0.02683   0.02683   0.15064
 ITU=  1  1  0
 Use linear search instead of GDIIS.
     Eigenvalues ---    0.14700   0.54629   0.55473
 RFO step:  Lambda= 0.00000000D+00 EMin= 1.47003256D-01
 Quartic linear search produced a step of  0.10371.
 Iteration  1 RMS(Cart)=  0.00020915 RMS(Int)=  0.00000003
 Iteration  2 RMS(Cart)=  0.00000003 RMS(Int)=  0.00000000
 ITry= 1 IFail=0 DXMaxC= 2.12D-04 DCOld= 1.00D+10 DXMaxT= 3.00D-01 DXLimC= 3.00D+00 Rises=F
 ClnCor:  largest displacement from symmetrization is 1.00D-14 for atom     3.
 Variable       Old X    -DE/DX   Delta X   Delta X   Delta X     New X
                                 (Linear)    (Quad)   (Total)
    R1        1.81158   0.00017   0.00031   0.00002   0.00033   1.81191
    R2        1.81158   0.00017   0.00031   0.00002   0.00033   1.81191
    A1        1.84356  -0.00002  -0.00040   0.00014  -0.00026   1.84330
         Item               Value     Threshold  Converged?
 Maximum Force            0.000173     0.000450     YES
 RMS     Force            0.000142     0.000300     YES
 Maximum Displacement     0.000212     0.001800     YES
 RMS     Displacement     0.000209     0.001200     YES
 Predicted change in Energy=-6.019519D-08
 Optimization completed.
    -- Stationary point found.
                           ----------------------------
                           !   Optimized Parameters   !
                           ! (Angstroms and Degrees)  !
 --------------------------                            --------------------------
 ! Name  Definition              Value          Derivative Info.                !
 --------------------------------------------------------------------------------
 ! R1    R(1,2)                  0.9586         -DE/DX =    0.0002              !
 ! R2    R(1,3)                  0.9586         -DE/DX =    0.0002              !
 ! A1    A(2,1,3)              105.6283         -DE/DX =    0.0                 !
 --------------------------------------------------------------------------------
 Lowest energy point so far.  Saving SCF results.
 GradGradGradGradGradGradGradGradGradGradGradGradGradGradGradGradGradGrad

 Largest change from initial coordinates is atom    2       0.028 Angstoms.
 Leave Link  103 at Fri Aug 27 00:02:17 2021, MaxMem= 17179869184 cpu:        20.8
 (Enter /public3/home/sc51754/softwares/g09e01/l202.exe)
                          Input orientation:                          
 ---------------------------------------------------------------------
 Center     Atomic      Atomic             Coordinates (Angstroms)
 Number     Number       Type             X           Y           Z
 ---------------------------------------------------------------------
      1          8           0        0.029540    0.781878    0.000000
      2          1           0        0.987637    0.814261   -0.000000
      3          1           0       -0.259753    1.695830    0.000000
 ---------------------------------------------------------------------
                    Distance matrix (angstroms):
                    1          2          3
     1  O    0.000000
     2  H    0.958645   0.000000
     3  H    0.958645   1.527464   0.000000
 Stoichiometry    H2O
 Framework group  C2V[C2(O),SGV(H2)]
 Deg. of freedom     2
 Full point group                 C2V     NOp   4
 RotChk:  IX=3 Diff= 9.55D-16
 Largest Abelian subgroup         C2V     NOp   4
 Largest concise Abelian subgroup C2      NOp   2
                         Standard orientation:                         
 ---------------------------------------------------------------------
 Center     Atomic      Atomic             Coordinates (Angstroms)
 Number     Number       Type             X           Y           Z
 ---------------------------------------------------------------------
      1          8           0        0.000000   -0.000000    0.115881
      2          1           0       -0.000000   -0.763732   -0.463526
      3          1           0        0.000000    0.763732   -0.463526
 ---------------------------------------------------------------------
 Rotational constants (GHZ):    840.9685634    429.8530291    284.4560452
 Leave Link  202 at Fri Aug 27 00:02:18 2021, MaxMem= 17179869184 cpu:         5.3
 (Enter /public3/home/sc51754/softwares/g09e01/l601.exe)
 Copying SCF densities to generalized density rwf, IOpCl= 0 IROHF=0.

 **********************************************************************

            Population analysis using the SCF density.

 **********************************************************************

 Orbital symmetries:
       Occupied  (A1) (A1) (B2) (A1) (B1)
       Virtual   (A1) (B2) (B2) (A1) (A1) (B1) (B2) (A1) (A2) (A1)
                 (B1) (B2) (B2) (A1) (A1) (B2) (B1) (A2) (A1) (A1)
                 (B2) (B1) (A1) (B1) (B2) (A1) (A2) (B2) (B1) (B2)
                 (A1) (A2) (A1) (B2) (B1) (A2) (A1) (B2) (B2) (A1)
                 (B1) (A1) (B1) (B2) (A2) (B1) (A1) (A2) (A1) (A1)
                 (B2) (B2) (A1)
 The electronic state is 1-A1.
 Alpha  occ. eigenvalues --  -19.20194  -1.09704  -0.60819  -0.46238  -0.38986
 Alpha virt. eigenvalues --    0.04243   0.09773   0.32825   0.33088   0.38546
 Alpha virt. eigenvalues --    0.38753   0.49638   0.73392   0.82200   0.85251
 Alpha virt. eigenvalues --    0.93051   1.09770   1.22578   1.27115   1.49851
 Alpha virt. eigenvalues --    1.52932   1.82628   1.89670   1.91687   2.12744
 Alpha virt. eigenvalues --    2.14464   2.33090   2.95902   3.44177   3.44743
 Alpha virt. eigenvalues --    3.58265   3.63626   3.77981   3.85881   3.90984
 Alpha virt. eigenvalues --    4.08114   4.11793   4.33275   4.44140   4.53381
 Alpha virt. eigenvalues --    4.57138   4.71073   4.88542   4.95077   4.96824
 Alpha virt. eigenvalues --    5.03887   5.69995   6.02248   6.07450   6.23789
 Alpha virt. eigenvalues --    6.28867   6.34945   6.37626   6.41534   6.92024
 Alpha virt. eigenvalues --    6.99556   7.47040  15.08714
          Condensed to atoms (all electrons):
               1          2          3
     1  O    7.689036   0.363946   0.363946
     2  H    0.363946   0.456232  -0.028641
     3  H    0.363946  -0.028641   0.456232
 Mulliken charges:
               1
     1  O   -0.416928
     2  H    0.208464
     3  H    0.208464
 Sum of Mulliken charges =  -0.00000
 Mulliken charges with hydrogens summed into heavy atoms:
               1
     1  O   -0.000000
 Electronic spatial extent (au):  <R**2>=             19.8321
 Charge=             -0.0000 electrons
 Dipole moment (field-independent basis, Debye):
    X=              0.0000    Y=             -0.0000    Z=             -2.0178  Tot=              2.0178
 Quadrupole moment (field-independent basis, Debye-Ang):
   XX=             -7.6766   YY=             -4.3753   ZZ=             -6.4397
   XY=              0.0000   XZ=             -0.0000   YZ=              0.0000
 Traceless Quadrupole moment (field-independent basis, Debye-Ang):
   XX=             -1.5128   YY=              1.7886   ZZ=             -0.2758
   XY=              0.0000   XZ=             -0.0000   YZ=              0.0000
 Octapole moment (field-independent basis, Debye-Ang**2):
  XXX=             -0.0000  YYY=             -0.0000  ZZZ=             -1.3087  XYY=              0.0000
  XXY=             -0.0000  XXZ=             -0.3510  XZZ=             -0.0000  YZZ=             -0.0000
  YYZ=             -1.3575  XYZ=             -0.0000
 Hexadecapole moment (field-independent basis, Debye-Ang**3):
 XXXX=             -7.0197 YYYY=             -6.3825 ZZZZ=             -7.5780 XXXY=             -0.0000
 XXXZ=              0.0000 YYYX=             -0.0000 YYYZ=              0.0000 ZZZX=              0.0000
 ZZZY=              0.0000 XXYY=             -2.5514 XXZZ=             -2.4847 YYZZ=             -2.0118
 XXYZ=             -0.0000 YYXZ=             -0.0000 ZZXY=             -0.0000
 N-N= 9.178532255046D+00 E-N=-1.992491204056D+02  KE= 7.619530597048D+01
 Symmetry A1   KE= 6.794918557848D+01
 Symmetry A2   KE= 3.437689715514D-33
 Symmetry B1   KE= 4.551917131313D+00
 Symmetry B2   KE= 3.694203260690D+00
 No NMR shielding tensors so no spin-rotation constants.
 Leave Link  601 at Fri Aug 27 00:02:19 2021, MaxMem= 17179869184 cpu:        54.1
 (Enter /public3/home/sc51754/softwares/g09e01/l9999.exe)
 1\1\GINC-P2607\FOpt\RCAM-B3LYP\Gen\H2O1\SC51754\27-Aug-2021\0\\#p opt 
 freq CAM-B3LYP/gen\\H2O_CAM-B3LYP_PC2_OPT_FREQ\\0,1\O,0.0295398374,0.7
 818777617,0.\H,0.9876372399,0.8142614135,0.\H,-0.2597534593,1.69583001
 53,0.\\Version=EM64L-G09RevE.01\State=1-A1\HF=-76.4409697\RMSD=3.825e-
 09\RMSF=1.117e-04\Dipole=0.4581689,0.648294,0.\Quadrupole=0.8185161,0.
 3061898,-1.1247059,-0.7233826,0.,0.\PG=C02V [C2(O1),SGV(H2)]\\@


 E PUR SI MUOVE    -- GALILEO GALILEI
 Leave Link 9999 at Fri Aug 27 00:02:19 2021, MaxMem= 17179869184 cpu:         2.3
 Job cpu time:       0 days  0 hours 19 minutes 45.3 seconds.
 File lengths (MBytes):  RWF=      5 Int=      0 D2E=      0 Chk=      1 Scr=      1
 Normal termination of Gaussian 09 at Fri Aug 27 00:02:19 2021.
 (Enter /public3/home/sc51754/softwares/g09e01/l1.exe)
 Link1:  Proceeding to internal job step number  2.
 ----------------------------------------------------------------------
 #P Geom=AllCheck Guess=TCheck SCRF=Check GenChk RCAM-B3LYP/ChkBas Freq
 ----------------------------------------------------------------------
 1/10=4,29=7,30=1,38=1,40=1/1,3;
 2/12=2,40=1/2;
 3/5=7,6=2,11=2,14=-4,16=1,25=1,30=1,67=1,70=2,71=2,74=-40,82=7,116=1,140=1/1,2,3;
 4/5=101/1;
 5/5=2,38=6,98=1/2;
 8/6=4,10=90,11=11/1;
 11/6=1,8=1,9=11,15=111,16=1/1,2,10;
 10/6=1/2;
 6/7=2,8=2,9=2,10=2,18=1,28=1/1;
 7/8=1,10=1,25=1/1,2,3,16;
 1/10=4,30=1/3;
 99//99;
 Leave Link    1 at Fri Aug 27 00:02:19 2021, MaxMem= 17179869184 cpu:         1.1
 (Enter /public3/home/sc51754/softwares/g09e01/l101.exe)
 Structure from the checkpoint file:  "H2O_CAM-B3LYP_PC2_OPT_FREQ.chk"
 --------------------------
 H2O_CAM-B3LYP_PC2_OPT_FREQ
 --------------------------
 Charge =  0 Multiplicity = 1
 Redundant internal coordinates found in file.
 O,0,0.0295398374,0.7818777617,0.
 H,0,0.9876372399,0.8142614135,0.
 H,0,-0.2597534593,1.6958300153,0.
 Recover connectivity data from disk.
 NAtoms=      3 NQM=        3 NQMF=       0 NMMI=      0 NMMIF=      0
                NMic=       0 NMicF=      0.
                    Isotopes and Nuclear Properties:
 (Nuclear quadrupole moments (NQMom) in fm**2, nuclear magnetic moments (NMagM)
  in nuclear magnetons)

  Atom         1           2           3
 IAtWgt=          16           1           1
 AtmWgt=  15.9949146   1.0078250   1.0078250
 NucSpn=           0           1           1
 AtZEff=  -5.6000000  -1.0000000  -1.0000000
 NQMom=    0.0000000   0.0000000   0.0000000
 NMagM=    0.0000000   2.7928460   2.7928460
 AtZNuc=   8.0000000   1.0000000   1.0000000
 Leave Link  101 at Fri Aug 27 00:02:19 2021, MaxMem= 17179869184 cpu:         4.5
 (Enter /public3/home/sc51754/softwares/g09e01/l103.exe)

 GradGradGradGradGradGradGradGradGradGradGradGradGradGradGradGradGradGrad
 Berny optimization.
 Initialization pass.
                           ----------------------------
                           !    Initial Parameters    !
                           ! (Angstroms and Degrees)  !
 --------------------------                            --------------------------
 ! Name  Definition              Value          Derivative Info.                !
 --------------------------------------------------------------------------------
 ! R1    R(1,2)                  0.9586         calculate D2E/DX2 analytically  !
 ! R2    R(1,3)                  0.9586         calculate D2E/DX2 analytically  !
 ! A1    A(2,1,3)              105.6283         calculate D2E/DX2 analytically  !
 --------------------------------------------------------------------------------
 Trust Radius=3.00D-01 FncErr=1.00D-07 GrdErr=1.00D-07
 Number of steps in this run=      2 maximum allowed number of steps=      2.
 GradGradGradGradGradGradGradGradGradGradGradGradGradGradGradGradGradGrad

 Leave Link  103 at Fri Aug 27 00:02:19 2021, MaxMem= 17179869184 cpu:         0.1
 (Enter /public3/home/sc51754/softwares/g09e01/l202.exe)
                          Input orientation:                          
 ---------------------------------------------------------------------
 Center     Atomic      Atomic             Coordinates (Angstroms)
 Number     Number       Type             X           Y           Z
 ---------------------------------------------------------------------
      1          8           0        0.029540    0.781878    0.000000
      2          1           0        0.987637    0.814261   -0.000000
      3          1           0       -0.259753    1.695830    0.000000
 ---------------------------------------------------------------------
                    Distance matrix (angstroms):
                    1          2          3
     1  O    0.000000
     2  H    0.958645   0.000000
     3  H    0.958645   1.527464   0.000000
 Stoichiometry    H2O
 Framework group  C2V[C2(O),SGV(H2)]
 Deg. of freedom     2
 Full point group                 C2V     NOp   4
 RotChk:  IX=3 Diff= 3.14D-16
 Largest Abelian subgroup         C2V     NOp   4
 Largest concise Abelian subgroup C2      NOp   2
                         Standard orientation:                         
[...]
      4 vectors produced by pass  6 Test12= 2.94D-15 1.11D-08 XBig12= 1.47D-12 4.83D-07.
      2 vectors produced by pass  7 Test12= 2.94D-15 1.11D-08 XBig12= 3.23D-15 1.93D-08.
 InvSVY:  IOpt=1 It=  1 EMax= 2.22D-16
 Solved reduced A of dimension    59 with     9 vectors.
 FullF1:  Do perturbations    1 to     9.
 Isotropic polarizability for W=    0.000000        7.38 Bohr**3.
 End of Minotr F.D. properties file   721 does not exist.
 End of Minotr F.D. properties file   722 does not exist.
 End of Minotr F.D. properties file   788 does not exist.
 Leave Link 1002 at Fri Aug 27 00:02:26 2021, MaxMem= 17179869184 cpu:        69.7
 (Enter /public3/home/sc51754/softwares/g09e01/l601.exe)
 Copying SCF densities to generalized density rwf, IOpCl= 0 IROHF=0.

 **********************************************************************

            Population analysis using the SCF density.

 **********************************************************************

 Orbital symmetries:
       Occupied  (A1) (A1) (B2) (A1) (B1)
       Virtual   (A1) (B2) (B2) (A1) (A1) (B1) (B2) (A1) (A2) (A1)
                 (B1) (B2) (B2) (A1) (A1) (B2) (B1) (A2) (A1) (A1)
                 (B2) (B1) (A1) (B1) (B2) (A1) (A2) (B2) (B1) (B2)
                 (A1) (A2) (A1) (B2) (B1) (A2) (A1) (B2) (B2) (A1)
                 (B1) (A1) (B1) (B2) (A2) (B1) (A1) (A2) (A1) (A1)
                 (B2) (B2) (A1)
 The electronic state is 1-A1.
 Alpha  occ. eigenvalues --  -19.20194  -1.09704  -0.60819  -0.46238  -0.38986
 Alpha virt. eigenvalues --    0.04243   0.09773   0.32825   0.33088   0.38546
 Alpha virt. eigenvalues --    0.38753   0.49638   0.73392   0.82200   0.85251
 Alpha virt. eigenvalues --    0.93051   1.09770   1.22578   1.27115   1.49851
 Alpha virt. eigenvalues --    1.52932   1.82628   1.89670   1.91687   2.12744
 Alpha virt. eigenvalues --    2.14464   2.33090   2.95902   3.44177   3.44743
 Alpha virt. eigenvalues --    3.58265   3.63626   3.77981   3.85881   3.90984
 Alpha virt. eigenvalues --    4.08114   4.11793   4.33275   4.44140   4.53381
 Alpha virt. eigenvalues --    4.57138   4.71073   4.88542   4.95077   4.96824
 Alpha virt. eigenvalues --    5.03887   5.69995   6.02248   6.07450   6.23789
 Alpha virt. eigenvalues --    6.28867   6.34945   6.37626   6.41534   6.92024
 Alpha virt. eigenvalues --    6.99556   7.47040  15.08714
          Condensed to atoms (all electrons):
               1          2          3
     1  O    7.689036   0.363946   0.363946
     2  H    0.363946   0.456232  -0.028641
     3  H    0.363946  -0.028641   0.456232
 Mulliken charges:
               1
     1  O   -0.416928
     2  H    0.208464
     3  H    0.208464
 Sum of Mulliken charges =  -0.00000
 Mulliken charges with hydrogens summed into heavy atoms:
               1
     1  O   -0.000000
 APT charges:
               1
     1  O   -0.547047
     2  H    0.273523
     3  H    0.273523
 Sum of APT charges =  -0.00000
 APT charges with hydrogens summed into heavy atoms:
               1
     1  O   -0.000000
 Electronic spatial extent (au):  <R**2>=             19.8321
 Charge=             -0.0000 electrons
 Dipole moment (field-independent basis, Debye):
    X=              0.0000    Y=              0.0000    Z=             -2.0178  Tot=              2.0178
 Quadrupole moment (field-independent basis, Debye-Ang):
   XX=             -7.6766   YY=             -4.3753   ZZ=             -6.4397
   XY=              0.0000   XZ=             -0.0000   YZ=              0.0000
 Traceless Quadrupole moment (field-independent basis, Debye-Ang):
   XX=             -1.5128   YY=              1.7886   ZZ=             -0.2758
   XY=              0.0000   XZ=             -0.0000   YZ=              0.0000
 Octapole moment (field-independent basis, Debye-Ang**2):
  XXX=             -0.0000  YYY=              0.0000  ZZZ=             -1.3087  XYY=              0.0000
  XXY=              0.0000  XXZ=             -0.3510  XZZ=             -0.0000  YZZ=              0.0000
  YYZ=             -1.3575  XYZ=             -0.0000
 Hexadecapole moment (field-independent basis, Debye-Ang**3):
 XXXX=             -7.0197 YYYY=             -6.3825 ZZZZ=             -7.5780 XXXY=             -0.0000
 XXXZ=              0.0000 YYYX=             -0.0000 YYYZ=             -0.0000 ZZZX=              0.0000
 ZZZY=              0.0000 XXYY=             -2.5514 XXZZ=             -2.4847 YYZZ=             -2.0118
 XXYZ=              0.0000 YYXZ=             -0.0000 ZZXY=             -0.0000
 N-N= 9.178532255046D+00 E-N=-1.992491203366D+02  KE= 7.619530593545D+01
 Symmetry A1   KE= 6.794918554270D+01
 Symmetry A2   KE= 1.030423909889D-20
 Symmetry B1   KE= 4.551917115837D+00
 Symmetry B2   KE= 3.694203276920D+00
  Exact polarizability:   6.317   0.000   8.470   0.000   0.000   7.365
 Approx polarizability:   5.915   0.000   9.132  -0.000   0.000   7.675
 No NMR shielding tensors so no spin-rotation constants.
 Leave Link  601 at Fri Aug 27 00:02:27 2021, MaxMem= 17179869184 cpu:        63.1
 (Enter /public3/home/sc51754/softwares/g09e01/l701.exe)
 Compute integral second derivatives.
 ... and contract with generalized density number  0.
 Leave Link  701 at Fri Aug 27 00:02:28 2021, MaxMem= 17179869184 cpu:        55.2
 (Enter /public3/home/sc51754/softwares/g09e01/l702.exe)
 L702 exits ... SP integral derivatives will be done elsewhere.
 Leave Link  702 at Fri Aug 27 00:02:28 2021, MaxMem= 17179869184 cpu:         0.2
 (Enter /public3/home/sc51754/softwares/g09e01/l703.exe)
 Compute integral second derivatives, UseDBF=F ICtDFT=           0.
 Integral derivatives from FoFJK, PRISM(SPDF).
 Calling FoFJK, ICntrl=    100127 FMM=F ISym2X=1 I1Cent= 0 IOpClX= 0 NMat=1 NMatS=1 NMatT=0.
 FoFJK:  IHMeth= 1 ICntrl=  100127 DoSepK=T KAlg= 0 I1Cent=   0 FoldK=F
 IRaf=         1 NMat=   1 IRICut=       1 DoRegI=T DoRafI=F ISym2E= 1.
 FoFCou: FMM=F IPFlag=           0 FMFlag=      100000 FMFlg1=         800
         NFxFlg=           0 DoJE=F BraDBF=F KetDBF=F FulRan=T
         wScrn=  0.000000 ICntrl=  100527 IOpCl=  0 I1Cent=           0 NGrid=           0
         NMat0=    1 NMatS0=      1 NMatT0=    0 NMatD0=    1 NMtDS0=    0 NMtDT0=    0
 Petite list used in FoFCou.
 Leave Link  703 at Fri Aug 27 00:02:30 2021, MaxMem= 17179869184 cpu:       105.5
 (Enter /public3/home/sc51754/softwares/g09e01/l716.exe)
 Dipole        = 3.65298892D-17 7.78592685D-18-7.93853751D-01
 Polarizability= 6.31724250D+00 8.35952229D-11 8.46986122D+00
                 4.00703156D-10 2.71982130D-09 7.36530102D+00
 Full mass-weighted force constant matrix:
 Low frequencies ---  -59.9984  -58.5907  -48.6388    0.0006    0.0007    0.0021
 Low frequencies --- 1617.8462 3852.7742 3955.7410
 Diagonal vibrational polarizability:
        0.0000000       0.1160732       0.8247563
 Harmonic frequencies (cm**-1), IR intensities (KM/Mole), Raman scattering
 activities (A**4/AMU), depolarization ratios for plane and unpolarized
 incident light, reduced masses (AMU), force constants (mDyne/A),
 and normal coordinates:
                      1                      2                      3
                     A1                     A1                     B2
 Frequencies --   1617.8462              3852.7742              3955.7409
 Red. masses --      1.0835                 1.0444                 1.0830
 Frc consts  --      1.6709                 9.1341                 9.9845
 IR Inten    --     78.6255                 9.0261                67.4923
  Atom  AN      X      Y      Z        X      Y      Z        X      Y      Z
     1   8     0.00   0.00  -0.07     0.00  -0.00  -0.05    -0.00  -0.07   0.00
     2   1    -0.00  -0.42   0.56     0.00   0.59   0.39    -0.00   0.56   0.43
     3   1    -0.00   0.42   0.56    -0.00  -0.59   0.39     0.00   0.56  -0.43

 -------------------
 - Thermochemistry -
 -------------------
 Temperature   298.150 Kelvin.  Pressure   1.00000 Atm.
 Atom     1 has atomic number  8 and mass  15.99491
 Atom     2 has atomic number  1 and mass   1.00783
 Atom     3 has atomic number  1 and mass   1.00783
 Molecular mass:    18.01056 amu.
 Principal axes and moments of inertia in atomic units:
                           1         2         3
     Eigenvalues --     2.14603   4.19851   6.34453
           X            0.00000   0.00000   1.00000
           Y            1.00000   0.00000  -0.00000
           Z           -0.00000   1.00000  -0.00000
 This molecule is an asymmetric top.
 Rotational symmetry number  2.
 Rotational temperatures (Kelvin)     40.36008    20.62967    13.65172
 Rotational constants (GHZ):         840.96856   429.85303   284.45605
 Zero-point vibrational energy      56382.2 (Joules/Mol)
                                   13.47566 (Kcal/Mol)
 Vibrational temperatures:   2327.72  5543.28  5691.42
          (Kelvin)
 
 Zero-point correction=                           0.021475 (Hartree/Particle)
 Thermal correction to Energy=                    0.024310
 Thermal correction to Enthalpy=                  0.025255
 Thermal correction to Gibbs Free Energy=         0.003845
 Sum of electronic and zero-point Energies=            -76.419495
 Sum of electronic and thermal Energies=               -76.416659
 Sum of electronic and thermal Enthalpies=             -76.415715
 Sum of electronic and thermal Free Energies=          -76.437125
 
                     E (Thermal)             CV                S
                      KCal/Mol        Cal/Mol-Kelvin    Cal/Mol-Kelvin
 Total                   15.255              6.011             45.061
 Electronic               0.000              0.000              0.000
 Translational            0.889              2.981             34.608
 Rotational               0.889              2.981             10.446
 Vibrational             13.478              0.049              0.007
                       Q            Log10(Q)             Ln(Q)
 Total Bot       0.170447D-01         -1.768411         -4.071917
 Total V=0       0.128619D+09          8.109304         18.672363
 Vib (Bot)       0.132575D-09         -9.877539        -22.743874
 Vib (V=0)       0.100041D+01          0.000177          0.000407
 Electronic      0.100000D+01          0.000000          0.000000
 Translational   0.300432D+07          6.477746         14.915562
 Rotational      0.427938D+02          1.631381          3.756394
 
                                                      H2O_CAM-B3LYP_PC2_OPT_FREQ
                                                             IR Spectrum
 
     3   3                                                                       1                                                   
     9   8                                                                       6                                                   
     5   5                                                                       1                                                   
     6   3                                                                       8                                                   
 
     X   X                                                                       X                                                   
     X   X                                                                       X                                                   
     X                                                                           X                                                   
     X                                                                           X                                                   
     X                                                                           X                                                   
     X                                                                           X                                                   
     X                                                                           X                                                   
     X                                                                           X                                                   
     X                                                                           X                                                   
     X                                                                           X                                                   
     X                                                                           X                                                   
     X                                                                           X                                                   
     X                                                                           X                                                   
     X                                                                           X                                                   
     X                                                                           X                                                   
     X                                                                           X                                                   
     X                                                                           X                                                   
                                                                                 X                                                   
                                                                                 X                                                   
                                                                                 X                                                   
 
 ***** Axes restored to original set *****
 -------------------------------------------------------------------
 Center     Atomic                   Forces (Hartrees/Bohr)
 Number     Number              X              Y              Z
 -------------------------------------------------------------------
      1        8          -0.000131380   -0.000185899    0.000000000
      2        1           0.000172919    0.000017167    0.000000000
      3        1          -0.000041539    0.000168731   -0.000000000
 -------------------------------------------------------------------
 Cartesian Forces:  Max     0.000185899 RMS     0.000111660
 Force constants in Cartesian coordinates: 
                1             2             3             4             5 
      1  0.618920D+00
      2 -0.116617D+00  0.536327D+00
      3  0.000000D+00  0.000000D+00 -0.232552D-03
      4 -0.532581D+00  0.874227D-02  0.000000D+00  0.548322D+00
      5 -0.501481D-01 -0.450424D-01  0.000000D+00  0.708771D-03  0.466230D-01
      6  0.000000D+00  0.000000D+00  0.116276D-03  0.000000D+00  0.000000D+00
      7 -0.863386D-01  0.107875D+00  0.000000D+00 -0.157412D-01  0.494393D-01
      8  0.166765D+00 -0.491285D+00  0.000000D+00 -0.945104D-02 -0.158058D-02
      9  0.000000D+00  0.000000D+00  0.116276D-03  0.000000D+00  0.000000D+00
                6             7             8             9 
      6 -0.126786D-03
      7  0.000000D+00  0.102080D+00
      8  0.000000D+00 -0.157314D+00  0.492866D+00
      9  0.105099D-04  0.000000D+00  0.000000D+00 -0.126786D-03
 FormGI is forming the generalized inverse of G from B-inverse, IUseBI=4.
 Force constants in internal coordinates: 
                1             2             3 
      1  0.547783D+00
      2 -0.479821D-02  0.547783D+00
      3  0.294474D-01  0.294474D-01  0.155028D+00
 Leave Link  716 at Fri Aug 27 00:02:31 2021, MaxMem= 17179869184 cpu:        23.5
 (Enter /public3/home/sc51754/softwares/g09e01/l103.exe)

 GradGradGradGradGradGradGradGradGradGradGradGradGradGradGradGradGradGrad
 Berny optimization.
 Red2BG is reusing G-inverse.
 Internal  Forces:  Max     0.000173400 RMS     0.000142075
 Search for a local minimum.
 Step number   1 out of a maximum of    2
 All quantities printed in internal units (Hartrees-Bohrs-Radians)
 Second derivative matrix not updated -- analytic derivatives used.
 The second derivative matrix:
                          R1        R2        A1
           R1           0.54778
           R2          -0.00480   0.54778
           A1           0.02945   0.02945   0.15503
 ITU=  0
     Eigenvalues ---    0.15061   0.54741   0.55258
 Angle between quadratic step and forces=  23.99 degrees.
 Linear search not attempted -- first point.
 Iteration  1 RMS(Cart)=  0.00020914 RMS(Int)=  0.00000003
 Iteration  2 RMS(Cart)=  0.00000003 RMS(Int)=  0.00000000
 ITry= 1 IFail=0 DXMaxC= 2.11D-04 DCOld= 1.00D+10 DXMaxT= 3.00D-01 DXLimC= 3.00D+00 Rises=F
 ClnCor:  largest displacement from symmetrization is 3.30D-15 for atom     3.
 Variable       Old X    -DE/DX   Delta X   Delta X   Delta X     New X
                                 (Linear)    (Quad)   (Total)
    R1        1.81158   0.00017   0.00000   0.00033   0.00033   1.81191
    R2        1.81158   0.00017   0.00000   0.00033   0.00033   1.81191
    A1        1.84356  -0.00002   0.00000  -0.00026  -0.00026   1.84330
         Item               Value     Threshold  Converged?
 Maximum Force            0.000173     0.000450     YES
 RMS     Force            0.000142     0.000300     YES
 Maximum Displacement     0.000211     0.001800     YES
 RMS     Displacement     0.000209     0.001200     YES
 Predicted change in Energy=-6.046299D-08
 Optimization completed.
    -- Stationary point found.
                           ----------------------------
                           !   Optimized Parameters   !
                           ! (Angstroms and Degrees)  !
 --------------------------                            --------------------------
 ! Name  Definition              Value          Derivative Info.                !
 --------------------------------------------------------------------------------
 ! R1    R(1,2)                  0.9586         -DE/DX =    0.0002              !
 ! R2    R(1,3)                  0.9586         -DE/DX =    0.0002              !
 ! A1    A(2,1,3)              105.6283         -DE/DX =    0.0                 !
 --------------------------------------------------------------------------------
 GradGradGradGradGradGradGradGradGradGradGradGradGradGradGradGradGradGrad

 Leave Link  103 at Fri Aug 27 00:02:31 2021, MaxMem= 17179869184 cpu:        16.0
 (Enter /public3/home/sc51754/softwares/g09e01/l9999.exe)
 1\1\GINC-P2607\Freq\RCAM-B3LYP\Gen\H2O1\SC51754\27-Aug-2021\0\\#P Geom
 =AllCheck Guess=TCheck SCRF=Check GenChk RCAM-B3LYP/ChkBas Freq\\H2O_C
 AM-B3LYP_PC2_OPT_FREQ\\0,1\O,0.0295398374,0.7818777617,0.\H,0.98763723
 99,0.8142614135,0.\H,-0.2597534593,1.6958300153,0.\\Version=EM64L-G09R
 evE.01\State=1-A1\HF=-76.4409697\RMSD=4.539e-10\RMSF=1.117e-04\ZeroPoi
 nt=0.0214748\Thermal=0.0243104\Dipole=0.4581689,0.648294,0.\DipoleDeri
 v=-0.4826091,0.0693436,0.,0.0693436,-0.4334974,0.,0.,0.,-0.7250333,0.1
 780886,-0.0507512,0.,-0.0633643,0.2799647,0.,0.,0.,0.3625166,0.3045205
 ,-0.0185924,0.,-0.0059793,0.1535327,0.,0.,0.,0.3625166\Polar=8.101936,
 -0.5206021,7.7332262,0.,0.,6.3172425\PG=C02V [C2(O1),SGV(H2)]\NImag=0\
 \0.61891994,-0.11661697,0.53632747,0.,0.,-0.00023255,-0.53258132,0.008
 74227,0.,0.54832250,-0.05014811,-0.04504239,0.,0.00070877,0.04662298,0
 .,0.,0.00011628,0.,0.,-0.00012679,-0.08633863,0.10787470,0.,-0.0157411
 8,0.04943934,0.,0.10207981,0.16676509,-0.49128508,0.,-0.00945104,-0.00
 158058,0.,-0.15731405,0.49286567,0.,0.,0.00011628,0.,0.,0.00001051,0.,
 0.,-0.00012679\\0.00013138,0.00018590,0.,-0.00017292,-0.00001717,0.,0.
 00004154,-0.00016873,0.\\\@


 NO HUMAN INVESTIGATION CAN BECOME REAL SCIENCE
 WITHOUT GOING THROUGH MATHEMATICAL PEOPLE.
 -- LEONARDO DA VINCI, IN "PENSIERI" CA. 1492
 Job cpu time:       0 days  0 hours 11 minutes  8.2 seconds.
 File lengths (MBytes):  RWF=      5 Int=      0 D2E=      0 Chk=      1 Scr=      1
 Normal termination of Gaussian 09 at Fri Aug 27 00:02:31 2021.
