 Entering Gaussian System, Link 0=g09
 AtFile(1): pc-2.gbs
            -H     0
            S    4   1.00
                  0.754230D+02           0.240650D-02
                  0.113500D+02           0.184870D-01
                  0.259930D+01           0.897420D-01
                  0.735130D+00           0.281110D+00
            S    1   1.00
                  0.231670D+00           0.100000D+01
            S    1   1.00
                  0.741470D-01           0.100000D+01
            P    1   1.00
                  0.160000D+01           0.100000D+01
            P    1   1.00
                  0.450000D+00           0.100000D+01
            D    1   1.00
                  0.125000D+01           0.100000D+01
            ****
            -C     0
            S    7   1.00
                  0.785710D+04           0.568250D-03
                  0.117870D+04           0.439150D-02
                  0.268320D+03           0.225040D-01
                  0.759480D+02           0.866530D-01
                  0.245590D+02           0.244050D+00
                  0.862120D+01           0.441480D+00
                  0.312780D+01           0.353320D+00
            S    7   1.00
                  0.117870D+04          -0.594920D-06
                  0.268320D+03          -0.627480D-04
                  0.759480D+02          -0.757730D-03
                  0.245590D+02          -0.733080D-02
                  0.862120D+01          -0.389320D-01
                  0.312780D+01          -0.889080D-01
                  0.822020D+00           0.216890D+00
            S    1   1.00
                  0.330170D+00           0.100000D+01
            S    1   1.00
                  0.114630D+00           0.100000D+01
            P    4   1.00
                  0.337750D+02           0.602940D-02
                  0.767660D+01           0.432280D-01
                  0.223570D+01           0.163010D+00
                  0.764470D+00           0.365040D+00
            P    1   1.00
                  0.262320D+00           0.100000D+01
            P    1   1.00
                  0.846380D-01           0.100000D+01
            D    1   1.00
                  0.140000D+01           0.100000D+01
            D    1   1.00
                  0.450000D+00           0.100000D+01
            F    1   1.00
                  0.950000D+00           0.100000D+01
            ****
            -N     0
            S    7   1.00
                  0.111010D+05           0.545700D-03
                  0.166530D+04           0.421810D-02
                  0.379080D+03           0.216450D-01
                  0.107300D+03           0.837760D-01
                  0.347470D+02           0.238810D+00
                  0.122490D+02           0.439940D+00
                  0.447430D+01           0.363640D+00
            S    7   1.00
                  0.166530D+04          -0.150060D-05
                  0.379080D+03          -0.587530D-04
                  0.107300D+03          -0.774530D-03
                  0.347470D+02          -0.721610D-02
                  0.122490D+02          -0.393380D-01
                  0.447430D+01          -0.906110D-01
                  0.124040D+01           0.198820D+00
            S    1   1.00
                  0.487430D+00           0.100000D+01
            S    1   1.00
                  0.164840D+00           0.100000D+01
            P    4   1.00
                  0.479340D+02           0.617060D-02
                  0.109990D+02           0.442600D-01
                  0.324720D+01           0.168250D+00
                  0.111140D+01           0.368480D+00
            P    1   1.00
                  0.379880D+00           0.100000D+01
            P    1   1.00
                  0.120680D+00           0.100000D+01
            D    1   1.00
                  0.180000D+01           0.100000D+01
            D    1   1.00
                  0.550000D+00           0.100000D+01
            F    1   1.00
                  0.102000D+01           0.100000D+01
            ****
            -O     0
            S    7   1.00
                  0.147820D+05           0.535190D-03
                  0.221730D+04           0.413750D-02
                  0.504740D+03           0.212450D-01
                  0.142870D+03           0.824530D-01
                  0.463000D+02           0.236710D+00
                  0.163370D+02           0.440390D+00
                  0.598280D+01           0.364650D+00
            S    7   1.00
                  0.221730D+04          -0.192750D-05
                  0.504740D+03          -0.579640D-04
                  0.142870D+03          -0.794940D-03
                  0.463000D+02          -0.731250D-02
                  0.163370D+02          -0.405740D-01
                  0.598280D+01          -0.915940D-01
                  0.167180D+01           0.209400D+00
            S    1   1.00
                  0.646620D+00           0.100000D+01
            S    1   1.00
                  0.216690D+00           0.100000D+01
            P    4   1.00
                  0.604240D+02           0.689490D-02
                  0.139350D+02           0.490050D-01
                  0.415310D+01           0.182550D+00
                  0.141580D+01           0.376330D+00
            P    1   1.00
                  0.475490D+00           0.100000D+01
            P    1   1.00
                  0.145290D+00           0.100000D+01
            D    1   1.00
                  0.220000D+01           0.100000D+01
            D    1   1.00
                  0.650000D+00           0.100000D+01
            F    1   1.00
                  0.110000D+01           0.100000D+01
            ****
 Initial command:
 /public3/home/sc51754/softwares/g09e01/l1.exe "./Gau-798.inp" -scrdir="./"
 Entering Link 1 = /public3/home/sc51754/softwares/g09e01/l1.exe PID=       799.
  
 Copyright (c) 1988,1990,1992,1993,1995,1998,2003,2009,2015,
            Gaussian, Inc.  All Rights Reserved.
  
 This is part of the Gaussian(R) 09 program.  It is based on
 the Gaussian(R) 03 system (copyright 2003, Gaussian, Inc.),
 the Gaussian(R) 98 system (copyright 1998, Gaussian, Inc.),
 the Gaussian(R) 94 system (copyright 1995, Gaussian, Inc.),
 the Gaussian 92(TM) system (copyright 1992, Gaussian, Inc.),
 the Gaussian 90(TM) system (copyright 1990, Gaussian, Inc.),
 the Gaussian 88(TM) system (copyright 1988, Gaussian, Inc.),
 the Gaussian 86(TM) system (copyright 1986, Carnegie Mellon
 University), and the Gaussian 82(TM) system (copyright 1983,
 Carnegie Mellon University). Gaussian is a federally registered
 trademark of Gaussian, Inc.
  
 This software contains proprietary and confidential information,
 including trade secrets, belonging to Gaussian, Inc.
  
 This software is provided under written license and may be
 used, copied, transmitted, or stored only in accord with that
 written license.
  
 The following legend is applicable only to US Government
 contracts under FAR:
  
                    RESTRICTED RIGHTS LEGEND
  
 Use, reproduction and disclosure by the US Government is
 subject to restrictions as set forth in subparagraphs (a)
 and (c) of the Commercial Computer Software - Restricted
 Rights clause in FAR 52.227-19.
  
 Gaussian, Inc.
 340 Quinnipiac St., Bldg. 40, Wallingford CT 06492
  
  
 ---------------------------------------------------------------
 Warning -- This program may not be used in any manner that
 competes with the business of Gaussian, Inc. or will provide
 assistance to any competitor of Gaussian, Inc.  The licensee
 of this program is prohibited from giving any competitor of
 Gaussian, Inc. access to this program.  By using this program,
 the user acknowledges that Gaussian, Inc. is engaged in the
 business of creating and licensing software in the field of
 computational chemistry and represents and warrants to the
 licensee that it is not a competitor of Gaussian, Inc. and that
 it will not use this program in any manner prohibited above.
 ---------------------------------------------------------------
  

 Cite this work as:
 Gaussian 09, Revision E.01,
 M. J. Frisch, G. W. Trucks, H. B. Schlegel, G. E. Scuseria, 
 M. A. Robb, J. R. Cheeseman, G. Scalmani, V. Barone, B. Mennucci, 
 G. A. Petersson, H. Nakatsuji, M. Caricato, X. Li, H. P. Hratchian, 
 A. F. Izmaylov, J. Bloino, G. Zheng, J. L. Sonnenberg, M. Hada, 
 M. Ehara, K. Toyota, R. Fukuda, J. Hasegawa, M. Ishida, T. Nakajima, 
 Y. Honda, O. Kitao, H. Nakai, T. Vreven, J. A. Montgomery, Jr., 
 J. E. Peralta, F. Ogliaro, M. Bearpark, J. J. Heyd, E. Brothers, 
 K. N. Kudin, V. N. Staroverov, T. Keith, R. Kobayashi, J. Normand, 
 K. Raghavachari, A. Rendell, J. C. Burant, S. S. Iyengar, J. Tomasi, 
 M. Cossi, N. Rega, J. M. Millam, M. Klene, J. E. Knox, J. B. Cross, 
 V. Bakken, C. Adamo, J. Jaramillo, R. Gomperts, R. E. Stratmann, 
 O. Yazyev, A. J. Austin, R. Cammi, C. Pomelli, J. W. Ochterski, 
 R. L. Martin, K. Morokuma, V. G. Zakrzewski, G. A. Voth, 
 P. Salvador, J. J. Dannenberg, S. Dapprich, A. D. Daniels, 
 O. Farkas, J. B. Foresman, J. V. Ortiz, J. Cioslowski, 
 and D. J. Fox, Gaussian, Inc., Wallingford CT, 2013.
 
 ******************************************
 Gaussian 09:  EM64L-G09RevE.01 30-Nov-2015
                26-Aug-2021 
 ******************************************
 %nprocshared=64
 Will use up to   64 processors via shared memory.
 %mem=128GB
 %chk=H2O_TPSSTPSS_PC2_OPT_FREQ.chk
 ------------------------
 #p opt freq TPSSTPSS/gen
 ------------------------
 1/14=-1,18=20,19=15,26=3,38=1/1,3;
 2/9=110,12=2,17=6,18=5,40=1/2;
 3/5=7,11=2,16=1,25=1,30=1,71=1,74=2523/1,2,3;
 4//1;
 5/5=2,38=5/2;
 6/7=2,8=2,9=2,10=2,28=1/1;
 7//1,2,3,16;
 1/14=-1,18=20,19=15,26=3/3(2);
 2/9=110/2;
 99//99;
 2/9=110/2;
 3/5=7,6=1,11=2,16=1,25=1,30=1,71=1,74=2523,82=7/1,2,3;
 4/5=5,16=3,69=1/1;
 5/5=2,38=5/2;
 7//1,2,3,16;
 1/14=-1,18=20,19=15,26=3/3(-5);
 2/9=110/2;
 6/7=2,8=2,9=2,10=2,19=2,28=1/1;
 99/9=1/99;
 Leave Link    1 at Thu Aug 26 23:59:32 2021, MaxMem= 17179869184 cpu:         5.3
 (Enter /public3/home/sc51754/softwares/g09e01/l101.exe)
 -------------------------
 H2O_TPSSTPSS_PC2_OPT_FREQ
 -------------------------
 Symbolic Z-matrix:
 Charge =  0 Multiplicity = 1
 O                     0.03922   0.79557   0. 
 H                     0.99922   0.79581   0. 
 H                    -0.28101   1.70059   0. 
 
 NAtoms=      3 NQM=        3 NQMF=       0 NMMI=      0 NMMIF=      0
                NMic=       0 NMicF=      0.
                    Isotopes and Nuclear Properties:
 (Nuclear quadrupole moments (NQMom) in fm**2, nuclear magnetic moments (NMagM)
  in nuclear magnetons)

  Atom         1           2           3
 IAtWgt=          16           1           1
 AtmWgt=  15.9949146   1.0078250   1.0078250
 NucSpn=           0           1           1
 AtZEff=   0.0000000   0.0000000   0.0000000
 NQMom=    0.0000000   0.0000000   0.0000000
 NMagM=    0.0000000   2.7928460   2.7928460
 AtZNuc=   8.0000000   1.0000000   1.0000000
 Leave Link  101 at Thu Aug 26 23:59:32 2021, MaxMem= 17179869184 cpu:        11.4
 (Enter /public3/home/sc51754/softwares/g09e01/l103.exe)

 GradGradGradGradGradGradGradGradGradGradGradGradGradGradGradGradGradGrad
 Berny optimization.
 Initialization pass.
                           ----------------------------
                           !    Initial Parameters    !
                           ! (Angstroms and Degrees)  !
 --------------------------                            --------------------------
 ! Name  Definition              Value          Derivative Info.                !
 --------------------------------------------------------------------------------
 ! R1    R(1,2)                  0.96           estimate D2E/DX2                !
 ! R2    R(1,3)                  0.96           estimate D2E/DX2                !
 ! A1    A(2,1,3)              109.4712         estimate D2E/DX2                !
 --------------------------------------------------------------------------------
 Trust Radius=3.00D-01 FncErr=1.00D-07 GrdErr=1.00D-06
 Number of steps in this run=     20 maximum allowed number of steps=    100.
 GradGradGradGradGradGradGradGradGradGradGradGradGradGradGradGradGradGrad

 Leave Link  103 at Thu Aug 26 23:59:32 2021, MaxMem= 17179869184 cpu:         0.1
 (Enter /public3/home/sc51754/softwares/g09e01/l202.exe)
                          Input orientation:                          
 ---------------------------------------------------------------------
 Center     Atomic      Atomic             Coordinates (Angstroms)
 Number     Number       Type             X           Y           Z
 ---------------------------------------------------------------------
      1          8           0        0.039217    0.795571    0.000000
      2          1           0        0.999217    0.795812    0.000000
      3          1           0       -0.281010    1.700587    0.000000
 ---------------------------------------------------------------------
                    Distance matrix (angstroms):
                    1          2          3
     1  O    0.000000
     2  H    0.960000   0.000000
     3  H    0.960000   1.567673   0.000000
 Stoichiometry    H2O
 Framework group  C2V[C2(O),SGV(H2)]
 Deg. of freedom     2
 Full point group                 C2V     NOp   4
 Largest Abelian subgroup         C2V     NOp   4
 Largest concise Abelian subgroup C2      NOp   2
                         Standard orientation:                         
 ---------------------------------------------------------------------
 Center     Atomic      Atomic             Coordinates (Angstroms)
 Number     Number       Type             X           Y           Z
 ---------------------------------------------------------------------
      1          8           0        0.000000   -0.000000    0.110851
      2          1           0       -0.000000   -0.783837   -0.443405
      3          1           0        0.000000    0.783837   -0.443405
 ---------------------------------------------------------------------
 Rotational constants (GHZ):    919.0227056    408.0852078    282.5991526
 Leave Link  202 at Thu Aug 26 23:59:32 2021, MaxMem= 17179869184 cpu:         8.5
 (Enter /public3/home/sc51754/softwares/g09e01/l301.exe)
 General basis read from cards:  (5D, 7F)
 Centers:       2      3
 S 4 1.00
     Exponent=  7.5423000000D+01 Coefficients=  2.4065000000D-03
     Exponent=  1.1350000000D+01 Coefficients=  1.8487000000D-02
     Exponent=  2.5993000000D+00 Coefficients=  8.9742000000D-02
     Exponent=  7.3513000000D-01 Coefficients=  2.8111000000D-01
 S 1 1.00
     Exponent=  2.3167000000D-01 Coefficients=  1.0000000000D+00
 S 1 1.00
     Exponent=  7.4147000000D-02 Coefficients=  1.0000000000D+00
 P 1 1.00
     Exponent=  1.6000000000D+00 Coefficients=  1.0000000000D+00
 P 1 1.00
     Exponent=  4.5000000000D-01 Coefficients=  1.0000000000D+00
 D 1 1.00
     Exponent=  1.2500000000D+00 Coefficients=  1.0000000000D+00
 ****
 Centers:       1
 S 7 1.00
     Exponent=  1.4782000000D+04 Coefficients=  5.3519000000D-04
     Exponent=  2.2173000000D+03 Coefficients=  4.1375000000D-03
     Exponent=  5.0474000000D+02 Coefficients=  2.1245000000D-02
     Exponent=  1.4287000000D+02 Coefficients=  8.2453000000D-02
     Exponent=  4.6300000000D+01 Coefficients=  2.3671000000D-01
     Exponent=  1.6337000000D+01 Coefficients=  4.4039000000D-01
     Exponent=  5.9828000000D+00 Coefficients=  3.6465000000D-01
 S 7 1.00
     Exponent=  2.2173000000D+03 Coefficients= -1.9275000000D-06
     Exponent=  5.0474000000D+02 Coefficients= -5.7964000000D-05
     Exponent=  1.4287000000D+02 Coefficients= -7.9494000000D-04
     Exponent=  4.6300000000D+01 Coefficients= -7.3125000000D-03
     Exponent=  1.6337000000D+01 Coefficients= -4.0574000000D-02
     Exponent=  5.9828000000D+00 Coefficients= -9.1594000000D-02
     Exponent=  1.6718000000D+00 Coefficients=  2.0940000000D-01
 S 1 1.00
     Exponent=  6.4662000000D-01 Coefficients=  1.0000000000D+00
 S 1 1.00
     Exponent=  2.1669000000D-01 Coefficients=  1.0000000000D+00
 P 4 1.00
     Exponent=  6.0424000000D+01 Coefficients=  6.8949000000D-03
     Exponent=  1.3935000000D+01 Coefficients=  4.9005000000D-02
     Exponent=  4.1531000000D+00 Coefficients=  1.8255000000D-01
     Exponent=  1.4158000000D+00 Coefficients=  3.7633000000D-01
 P 1 1.00
     Exponent=  4.7549000000D-01 Coefficients=  1.0000000000D+00
 P 1 1.00
     Exponent=  1.4529000000D-01 Coefficients=  1.0000000000D+00
 D 1 1.00
     Exponent=  2.2000000000D+00 Coefficients=  1.0000000000D+00
 D 1 1.00
     Exponent=  6.5000000000D-01 Coefficients=  1.0000000000D+00
 F 1 1.00
     Exponent=  1.1000000000D+00 Coefficients=  1.0000000000D+00
 ****
 Ernie: Thresh=  0.10000D-02 Tol=  0.10000D-05 Strict=F.
 Ernie:  1 primitive shells out of 43 were deleted.
 There are    27 symmetry adapted cartesian basis functions of A1  symmetry.
 There are     7 symmetry adapted cartesian basis functions of A2  symmetry.
 There are    12 symmetry adapted cartesian basis functions of B1  symmetry.
 There are    19 symmetry adapted cartesian basis functions of B2  symmetry.
 There are    23 symmetry adapted basis functions of A1  symmetry.
 There are     7 symmetry adapted basis functions of A2  symmetry.
 There are    11 symmetry adapted basis functions of B1  symmetry.
 There are    17 symmetry adapted basis functions of B2  symmetry.
    58 basis functions,    91 primitive gaussians,    65 cartesian basis functions
     5 alpha electrons        5 beta electrons
       nuclear repulsion energy         9.1571759018 Hartrees.
 IExCor= 2523 DFT=T Ex=TPSS Corr=TPSS ExCW=0 ScaHFX=  0.000000
 ScaDFX=  1.000000  1.000000  1.000000  1.000000 ScalE2=  1.000000  1.000000
 IRadAn=      0 IRanWt=     -1 IRanGd=            0 ICorTp=0 IEmpDi=  4
 NAtoms=    3 NActive=    3 NUniq=    2 SFac= 2.25D+00 NAtFMM=   60 NAOKFM=F Big=F
 Integral buffers will be    131072 words long.
 Raffenetti 2 integral format.
 Two-electron integral symmetry is turned on.
 Leave Link  301 at Thu Aug 26 23:59:33 2021, MaxMem= 17179869184 cpu:         1.2
 (Enter /public3/home/sc51754/softwares/g09e01/l302.exe)
 NPDir=0 NMtPBC=     1 NCelOv=     1 NCel=       1 NClECP=     1 NCelD=      1
         NCelK=      1 NCelE2=     1 NClLst=     1 CellRange=     0.0.
 One-electron integrals computed using PRISM.
 One-electron integral symmetry used in STVInt
 NBasis=    58 RedAO= T EigKep=  5.81D-03  NBF=    23     7    11    17
 NBsUse=    58 1.00D-06 EigRej= -1.00D+00 NBFU=    23     7    11    17
 Precomputing XC quadrature grid using
 IXCGrd= 4 IRadAn=           0 IRanWt=          -1 IRanGd=           0 AccXCQ= 0.00D+00.
 Generated NRdTot=       0 NPtTot=           0 NUsed=           0 NTot=          32
 NSgBfM=    65    65    65    65    65 MxSgAt=     3 MxSgA2=     3.
 Leave Link  302 at Thu Aug 26 23:59:33 2021, MaxMem= 17179869184 cpu:        38.2
 (Enter /public3/home/sc51754/softwares/g09e01/l303.exe)
 DipDrv:  MaxL=1.
 Leave Link  303 at Thu Aug 26 23:59:34 2021, MaxMem= 17179869184 cpu:        11.6
 (Enter /public3/home/sc51754/softwares/g09e01/l401.exe)
 ExpMin= 7.41D-02 ExpMax= 1.48D+04 ExpMxC= 5.05D+02 IAcc=2 IRadAn=         4 AccDes= 0.00D+00
 Harris functional with IExCor= 1009 and IRadAn=       4 diagonalized for initial guess.
 HarFok:  IExCor= 1009 AccDes= 0.00D+00 IRadAn=         4 IDoV= 1 UseB2=F ITyADJ=14
 ICtDFT=  3500011 ScaDFX=  1.000000  1.000000  1.000000  1.000000
 FoFCou: FMM=F IPFlag=           0 FMFlag=      100000 FMFlg1=           0
         NFxFlg=           0 DoJE=T BraDBF=F KetDBF=T FulRan=T
         wScrn=  0.000000 ICntrl=     500 IOpCl=  0 I1Cent=   200000004 NGrid=           0
         NMat0=    1 NMatS0=      1 NMatT0=    0 NMatD0=    1 NMtDS0=    0 NMtDT0=    0
 Petite list used in FoFCou.
 Harris En= -76.4282148740560    
 JPrj=0 DoOrth=F DoCkMO=F.
 Initial guess orbital symmetries:
       Occupied  (A1) (A1) (B2) (A1) (B1)
       Virtual   (A1) (B2) (B2) (A1) (A1) (B1) (B2) (A1) (A2) (A1)
                 (B1) (B2) (B2) (A1) (A1) (B2) (B1) (A1) (A2) (B2)
                 (A1) (B1) (A1) (B2) (B1) (A1) (A2) (B2) (B1) (B2)
                 (A2) (A1) (A1) (B2) (B1) (A2) (A1) (B2) (B2) (A1)
                 (B1) (A1) (B1) (B2) (A2) (B1) (A1) (A1) (A2) (A1)
                 (B2) (B2) (A1)
 The electronic state of the initial guess is 1-A1.
 Leave Link  401 at Thu Aug 26 23:59:34 2021, MaxMem= 17179869184 cpu:        33.0
 (Enter /public3/home/sc51754/softwares/g09e01/l502.exe)
 Closed shell SCF:
 Using DIIS extrapolation, IDIIS=  1040.
 Integral symmetry usage will be decided dynamically.
 Keep J ints in memory in symmetry-blocked form, NReq=3467901.
 IVT=       35997 IEndB=       35997 NGot= 17179869184 MDV= 17179451308
 LenX= 17179451308 LenY= 17179446642
 Requested convergence on RMS density matrix=1.00D-08 within 128 cycles.
 Requested convergence on MAX density matrix=1.00D-06.
 Requested convergence on             energy=1.00D-06.
 No special actions if energy rises.
 FoFCou: FMM=F IPFlag=           0 FMFlag=           0 FMFlg1=           0
         NFxFlg=           0 DoJE=F BraDBF=F KetDBF=F FulRan=T
         wScrn=  0.000000 ICntrl=     600 IOpCl=  0 I1Cent=           0 NGrid=           0
         NMat0=    1 NMatS0=   1711 NMatT0=    0 NMatD0=    1 NMtDS0=    0 NMtDT0=    0
 Petite list used in FoFCou.
 Integral accuracy reduced to 1.0D-05 until final iterations.

 Cycle   1  Pass 0  IDiag  1:
 E= -76.3912520844253    
 DIIS: error= 6.56D-02 at cycle   1 NSaved=   1.
 NSaved= 1 IEnMin= 1 EnMin= -76.3912520844253     IErMin= 1 ErrMin= 6.56D-02
 ErrMax= 6.56D-02  0.00D+00 EMaxC= 1.00D-01 BMatC= 1.05D-01 BMatP= 1.05D-01
 IDIUse=3 WtCom= 3.44D-01 WtEn= 6.56D-01
 Coeff-Com:  0.100D+01
 Coeff-En:   0.100D+01
 Coeff:      0.100D+01
 Gap=     0.101 Goal=   None    Shift=    0.000
 GapD=    0.101 DampG=1.000 DampE=0.500 DampFc=0.5000 IDamp=-1.
 Damping current iteration by 5.00D-01
 RMSDP=7.83D-03 MaxDP=1.40D-01              OVMax= 2.46D-01

 Cycle   2  Pass 0  IDiag  1:
 E= -76.3921036631186     Delta-E=       -0.000851578693 Rises=F Damp=T
 DIIS: error= 3.39D-02 at cycle   2 NSaved=   2.
 NSaved= 2 IEnMin= 2 EnMin= -76.3921036631186     IErMin= 2 ErrMin= 3.39D-02
 ErrMax= 3.39D-02  0.00D+00 EMaxC= 1.00D-01 BMatC= 2.57D-02 BMatP= 1.05D-01
 IDIUse=3 WtCom= 6.61D-01 WtEn= 3.39D-01
 Coeff-Com:  0.324D+00 0.676D+00
 Coeff-En:   0.496D+00 0.504D+00
 Coeff:      0.382D+00 0.618D+00
 Gap=     0.239 Goal=   None    Shift=    0.000
 RMSDP=1.19D-03 MaxDP=3.05D-02 DE=-8.52D-04 OVMax= 1.57D-01

 Cycle   3  Pass 0  IDiag  1:
 E= -76.4668806822260     Delta-E=       -0.074777019107 Rises=F Damp=F
 DIIS: error= 9.40D-03 at cycle   3 NSaved=   3.
 NSaved= 3 IEnMin= 3 EnMin= -76.4668806822260     IErMin= 3 ErrMin= 9.40D-03
 ErrMax= 9.40D-03  0.00D+00 EMaxC= 1.00D-01 BMatC= 2.16D-03 BMatP= 2.57D-02
 IDIUse=3 WtCom= 9.06D-01 WtEn= 9.40D-02
 Coeff-Com:  0.888D-01-0.126D+00 0.104D+01
 Coeff-En:   0.000D+00 0.000D+00 0.100D+01
 Coeff:      0.804D-01-0.114D+00 0.103D+01
 Gap=     0.262 Goal=   None    Shift=    0.000
 RMSDP=3.58D-04 MaxDP=6.21D-03 DE=-7.48D-02 OVMax= 1.11D-02

 Cycle   4  Pass 0  IDiag  1:
 E= -76.4682948496391     Delta-E=       -0.001414167413 Rises=F Damp=F
 DIIS: error= 6.80D-04 at cycle   4 NSaved=   4.
 NSaved= 4 IEnMin= 4 EnMin= -76.4682948496391     IErMin= 4 ErrMin= 6.80D-04
 ErrMax= 6.80D-04  0.00D+00 EMaxC= 1.00D-01 BMatC= 1.22D-05 BMatP= 2.16D-03
 IDIUse=3 WtCom= 9.93D-01 WtEn= 6.80D-03
 Coeff-Com:  0.159D-01-0.352D-01 0.269D+00 0.750D+00
 Coeff-En:   0.000D+00 0.000D+00 0.000D+00 0.100D+01
 Coeff:      0.158D-01-0.349D-01 0.267D+00 0.752D+00
 Gap=     0.261 Goal=   None    Shift=    0.000
 RMSDP=3.36D-05 MaxDP=5.02D-04 DE=-1.41D-03 OVMax= 1.15D-03

 Cycle   5  Pass 0  IDiag  1:
 E= -76.4683019750190     Delta-E=       -0.000007125380 Rises=F Damp=F
 DIIS: error= 2.28D-04 at cycle   5 NSaved=   5.
 NSaved= 5 IEnMin= 5 EnMin= -76.4683019750190     IErMin= 5 ErrMin= 2.28D-04
 ErrMax= 2.28D-04  0.00D+00 EMaxC= 1.00D-01 BMatC= 1.25D-06 BMatP= 1.22D-05
 IDIUse=3 WtCom= 9.98D-01 WtEn= 2.28D-03
 Coeff-Com:  0.351D-02-0.566D-02 0.310D-01 0.135D+00 0.836D+00
 Coeff-En:   0.000D+00 0.000D+00 0.000D+00 0.000D+00 0.100D+01
 Coeff:      0.350D-02-0.565D-02 0.309D-01 0.135D+00 0.837D+00
 Gap=     0.261 Goal=   None    Shift=    0.000
 RMSDP=1.00D-05 MaxDP=1.38D-04 DE=-7.13D-06 OVMax= 2.96D-04

 Initial convergence to 1.0D-05 achieved.  Increase integral accuracy.
 Cycle   6  Pass 1  IDiag  1:
 E= -76.4682856671866     Delta-E=        0.000016307832 Rises=F Damp=F
 DIIS: error= 3.20D-05 at cycle   1 NSaved=   1.
 NSaved= 1 IEnMin= 1 EnMin= -76.4682856671866     IErMin= 1 ErrMin= 3.20D-05
 ErrMax= 3.20D-05  0.00D+00 EMaxC= 1.00D-01 BMatC= 4.78D-08 BMatP= 4.78D-08
 IDIUse=1 WtCom= 1.00D+00 WtEn= 0.00D+00
 Coeff-Com:  0.100D+01
 Coeff:      0.100D+01
 Gap=     0.262 Goal=   None    Shift=    0.000
 RMSDP=1.00D-05 MaxDP=1.38D-04 DE= 1.63D-05 OVMax= 6.37D-05

 Cycle   7  Pass 1  IDiag  1:
 E= -76.4682856772860     Delta-E=       -0.000000010099 Rises=F Damp=F
 DIIS: error= 2.66D-05 at cycle   2 NSaved=   2.
 NSaved= 2 IEnMin= 2 EnMin= -76.4682856772860     IErMin= 2 ErrMin= 2.66D-05
 ErrMax= 2.66D-05  0.00D+00 EMaxC= 1.00D-01 BMatC= 1.65D-08 BMatP= 4.78D-08
 IDIUse=1 WtCom= 1.00D+00 WtEn= 0.00D+00
 Coeff-Com:  0.301D+00 0.699D+00
 Coeff:      0.301D+00 0.699D+00
 Gap=     0.261 Goal=   None    Shift=    0.000
 RMSDP=1.90D-06 MaxDP=3.28D-05 DE=-1.01D-08 OVMax= 5.91D-05

 Cycle   8  Pass 1  IDiag  1:
 E= -76.4682856776219     Delta-E=       -0.000000000336 Rises=F Damp=F
 DIIS: error= 2.64D-05 at cycle   3 NSaved=   3.
 NSaved= 3 IEnMin= 3 EnMin= -76.4682856776219     IErMin= 3 ErrMin= 2.64D-05
 ErrMax= 2.64D-05  0.00D+00 EMaxC= 1.00D-01 BMatC= 1.59D-08 BMatP= 1.65D-08
 IDIUse=1 WtCom= 1.00D+00 WtEn= 0.00D+00
 Coeff-Com: -0.236D-01 0.501D+00 0.523D+00
 Coeff:     -0.236D-01 0.501D+00 0.523D+00
 Gap=     0.262 Goal=   None    Shift=    0.000
 RMSDP=9.77D-07 MaxDP=1.61D-05 DE=-3.36D-10 OVMax= 2.99D-05

 Cycle   9  Pass 1  IDiag  1:
 E= -76.4682856884418     Delta-E=       -0.000000010820 Rises=F Damp=F
 DIIS: error= 7.79D-07 at cycle   4 NSaved=   4.
 NSaved= 4 IEnMin= 4 EnMin= -76.4682856884418     IErMin= 4 ErrMin= 7.79D-07
 ErrMax= 7.79D-07  0.00D+00 EMaxC= 1.00D-01 BMatC= 9.75D-12 BMatP= 1.59D-08
 IDIUse=1 WtCom= 1.00D+00 WtEn= 0.00D+00
 Coeff-Com: -0.849D-02 0.145D+00 0.157D+00 0.707D+00
 Coeff:     -0.849D-02 0.145D+00 0.157D+00 0.707D+00
 Gap=     0.262 Goal=   None    Shift=    0.000
 RMSDP=3.06D-08 MaxDP=4.46D-07 DE=-1.08D-08 OVMax= 9.21D-07

 Cycle  10  Pass 1  IDiag  1:
 E= -76.4682856884491     Delta-E=       -0.000000000007 Rises=F Damp=F
 DIIS: error= 5.74D-08 at cycle   5 NSaved=   5.
 NSaved= 5 IEnMin= 5 EnMin= -76.4682856884491     IErMin= 5 ErrMin= 5.74D-08
 ErrMax= 5.74D-08  0.00D+00 EMaxC= 1.00D-01 BMatC= 6.69D-14 BMatP= 9.75D-12
 IDIUse=1 WtCom= 1.00D+00 WtEn= 0.00D+00
 Coeff-Com: -0.616D-03 0.654D-02 0.744D-02 0.916D-01 0.895D+00
 Coeff:     -0.616D-03 0.654D-02 0.744D-02 0.916D-01 0.895D+00
 Gap=     0.262 Goal=   None    Shift=    0.000
 RMSDP=1.67D-09 MaxDP=2.45D-08 DE=-7.36D-12 OVMax= 5.47D-08

 SCF Done:  E(RTPSS-TPSS) =  -76.4682856884     A.U. after   10 cycles
            NFock= 10  Conv=0.17D-08     -V/T= 2.0035
 KE= 7.619824436672D+01 PE=-1.992153813925D+02 EE= 3.739167543544D+01
 Leave Link  502 at Thu Aug 26 23:59:35 2021, MaxMem= 17179869184 cpu:        47.1
 (Enter /public3/home/sc51754/softwares/g09e01/l601.exe)
 Copying SCF densities to generalized density rwf, IOpCl= 0 IROHF=0.

 **********************************************************************

            Population analysis using the SCF density.

 **********************************************************************

 Orbital symmetries:
       Occupied  (A1) (A1) (B2) (A1) (B1)
       Virtual   (A1) (B2) (A1) (B2) (A1) (B1) (B2) (A1) (A2) (A1)
                 (B1) (B2) (B2) (A1) (A1) (B2) (B1) (A1) (A2) (B2)
                 (A1) (B1) (A1) (B2) (B1) (A1) (A2) (B2) (B1) (B2)
                 (A2) (A1) (A1) (B2) (B1) (A2) (A1) (B2) (B2) (A1)
                 (B1) (A1) (B1) (B2) (A2) (B1) (A1) (A1) (A2) (A1)
                 (B2) (B2) (A1)
 The electronic state is 1-A1.
 Alpha  occ. eigenvalues --  -18.88291  -0.94551  -0.49523  -0.33392  -0.26455
 Alpha virt. eigenvalues --   -0.00303   0.05787   0.26564   0.26593   0.31394
 Alpha virt. eigenvalues --    0.32579   0.43205   0.66572   0.73133   0.77817
 Alpha virt. eigenvalues --    0.86318   1.02224   1.13952   1.17698   1.40241
 Alpha virt. eigenvalues --    1.44854   1.70778   1.80510   1.80800   2.03377
 Alpha virt. eigenvalues --    2.06668   2.22077   2.85515   3.36175   3.38914
 Alpha virt. eigenvalues --    3.52962   3.55524   3.74261   3.80219   3.80892
 Alpha virt. eigenvalues --    4.04627   4.04670   4.25633   4.40467   4.47313
 Alpha virt. eigenvalues --    4.50603   4.63961   4.81716   4.84254   4.88858
 Alpha virt. eigenvalues --    4.96958   5.64656   5.98802   6.12044   6.16676
 Alpha virt. eigenvalues --    6.17625   6.20656   6.28955   6.31930   6.88213
 Alpha virt. eigenvalues --    6.93947   7.37504  15.23617
          Condensed to atoms (all electrons):
               1          2          3
     1  O    7.710392   0.363574   0.363574
     2  H    0.363574   0.444614  -0.026959
     3  H    0.363574  -0.026959   0.444614
 Mulliken charges:
               1
     1  O   -0.437541
     2  H    0.218771
     3  H    0.218771
 Sum of Mulliken charges =  -0.00000
 Mulliken charges with hydrogens summed into heavy atoms:
               1
     1  O   -0.000000
 Electronic spatial extent (au):  <R**2>=             19.8125
 Charge=             -0.0000 electrons
 Dipole moment (field-independent basis, Debye):
    X=              0.0000    Y=             -0.0000    Z=             -1.8763  Tot=              1.8763
 Quadrupole moment (field-independent basis, Debye-Ang):
   XX=             -7.6394   YY=             -4.2209   ZZ=             -6.5251
   XY=              0.0000   XZ=             -0.0000   YZ=              0.0000
 Traceless Quadrupole moment (field-independent basis, Debye-Ang):
   XX=             -1.5109   YY=              1.9075   ZZ=             -0.3966
   XY=              0.0000   XZ=             -0.0000   YZ=              0.0000
 Octapole moment (field-independent basis, Debye-Ang**2):
  XXX=             -0.0000  YYY=             -0.0000  ZZZ=             -1.1309  XYY=              0.0000
  XXY=              0.0000  XXZ=             -0.3144  XZZ=             -0.0000  YZZ=             -0.0000
  YYZ=             -1.2880  XYZ=             -0.0000
 Hexadecapole moment (field-independent basis, Debye-Ang**3):
 XXXX=             -6.9371 YYYY=             -6.2497 ZZZZ=             -7.4738 XXXY=             -0.0000
 XXXZ=              0.0000 YYYX=             -0.0000 YYYZ=              0.0000 ZZZX=              0.0000
 ZZZY=             -0.0000 XXYY=             -2.5424 XXZZ=             -2.4433 YYZZ=             -2.0451
 XXYZ=             -0.0000 YYXZ=             -0.0000 ZZXY=             -0.0000
 N-N= 9.157175901845D+00 E-N=-1.992153813314D+02  KE= 7.619824436672D+01
 Symmetry A1   KE= 6.800502568976D+01
 Symmetry A2   KE=-8.670635009715D-21
 Symmetry B1   KE= 4.535797083993D+00
 Symmetry B2   KE= 3.657421592967D+00
 No NMR shielding tensors so no spin-rotation constants.
 Leave Link  601 at Thu Aug 26 23:59:37 2021, MaxMem= 17179869184 cpu:        81.8
 (Enter /public3/home/sc51754/softwares/g09e01/l701.exe)
 Compute integral first derivatives.
 ... and contract with generalized density number  0.
 Leave Link  701 at Thu Aug 26 23:59:38 2021, MaxMem= 17179869184 cpu:        66.9
 (Enter /public3/home/sc51754/softwares/g09e01/l702.exe)
 L702 exits ... SP integral derivatives will be done elsewhere.
 Leave Link  702 at Thu Aug 26 23:59:38 2021, MaxMem= 17179869184 cpu:         0.2
 (Enter /public3/home/sc51754/softwares/g09e01/l703.exe)
 Compute integral first derivatives, UseDBF=F ICtDFT=           0.
 Integral derivatives from FoFJK, PRISM(SPDF).
 Calling FoFJK, ICntrl=      2527 FMM=F ISym2X=1 I1Cent= 0 IOpClX= 0 NMat=1 NMatS=1 NMatT=0.
 FoFJK:  IHMeth= 1 ICntrl=    2527 DoSepK=F KAlg= 0 I1Cent=   0 FoldK=F
 IRaf=         0 NMat=   1 IRICut=       1 DoRegI=T DoRafI=F ISym2E= 1.
 FoFCou: FMM=F IPFlag=           0 FMFlag=      100000 FMFlg1=         800
         NFxFlg=           0 DoJE=F BraDBF=F KetDBF=F FulRan=T
         wScrn=  0.000000 ICntrl=    2527 IOpCl=  0 I1Cent=           0 NGrid=           0
         NMat0=    1 NMatS0=      1 NMatT0=    0 NMatD0=    1 NMtDS0=    0 NMtDT0=    0
 Petite list used in FoFCou.
 Leave Link  703 at Thu Aug 26 23:59:39 2021, MaxMem= 17179869184 cpu:        47.5
 (Enter /public3/home/sc51754/softwares/g09e01/l716.exe)
 Dipole        = 3.86406886D-17-4.44089210D-16-7.38198300D-01
 ***** Axes restored to original set *****
 -------------------------------------------------------------------
 Center     Atomic                   Forces (Hartrees/Bohr)
 Number     Number              X              Y              Z
 -------------------------------------------------------------------
      1        8          -0.009677540   -0.013693403    0.000000000
      2        1           0.004539305    0.007058342   -0.000000000
      3        1           0.005138235    0.006635060   -0.000000000
 -------------------------------------------------------------------
 Cartesian Forces:  Max     0.013693403 RMS     0.006847668
 Leave Link  716 at Thu Aug 26 23:59:40 2021, MaxMem= 17179869184 cpu:         0.4
 (Enter /public3/home/sc51754/softwares/g09e01/l103.exe)

 GradGradGradGradGradGradGradGradGradGradGradGradGradGradGradGradGradGrad
 Berny optimization.
 FormGI is forming the generalized inverse of G from B-inverse, IUseBI=4.
 Internal  Forces:  Max     0.012802732 RMS     0.008269476
 Search for a local minimum.
 Step number   1 out of a maximum of   20
 All quantities printed in internal units (Hartrees-Bohrs-Radians)
 RMS Force = .82695D-02 SwitMx=.10000D-02 MixMth= 1
 Mixed Optimization -- RFO/linear search
 Second derivative matrix not updated -- first step.
 The second derivative matrix:
                          R1        R2        A1
           R1           0.55473
           R2           0.00000   0.55473
           A1           0.00000   0.00000   0.16000
 ITU=  0
     Eigenvalues ---    0.16000   0.55473   0.55473
 RFO step:  Lambda=-1.09169589D-03 EMin= 1.60000000D-01
 Linear search not attempted -- first point.
 Iteration  1 RMS(Cart)=  0.04138325 RMS(Int)=  0.00118620
 Iteration  2 RMS(Cart)=  0.00113669 RMS(Int)=  0.00000018
 Iteration  3 RMS(Cart)=  0.00000016 RMS(Int)=  0.00000000
 ITry= 1 IFail=0 DXMaxC= 4.18D-02 DCOld= 1.00D+10 DXMaxT= 3.00D-01 DXLimC= 3.00D+00 Rises=F
 ClnCor:  largest displacement from symmetrization is 9.37D-15 for atom     3.
 Variable       Old X    -DE/DX   Delta X   Delta X   Delta X     New X
                                 (Linear)    (Quad)   (Total)
    R1        1.81414   0.00454   0.00000   0.00817   0.00817   1.82231
    R2        1.81414   0.00454   0.00000   0.00817   0.00817   1.82231
    A1        1.91063  -0.01280   0.00000  -0.07947  -0.07947   1.83116
         Item               Value     Threshold  Converged?
 Maximum Force            0.012803     0.000450     NO 
 RMS     Force            0.008269     0.000300     NO 
 Maximum Displacement     0.041764     0.001800     NO 
 RMS     Displacement     0.041957     0.001200     NO 
 Predicted change in Energy=-5.493684D-04
 Lowest energy point so far.  Saving SCF results.
 GradGradGradGradGradGradGradGradGradGradGradGradGradGradGradGradGradGrad

 Leave Link  103 at Thu Aug 26 23:59:40 2021, MaxMem= 17179869184 cpu:        31.1
 (Enter /public3/home/sc51754/softwares/g09e01/l202.exe)
                          Input orientation:                          
 ---------------------------------------------------------------------
 Center     Atomic      Atomic             Coordinates (Angstroms)
 Number     Number       Type             X           Y           Z
 ---------------------------------------------------------------------
      1          8           0        0.026390    0.777421    0.000000
      2          1           0        0.989943    0.815973   -0.000000
      3          1           0       -0.258910    1.698575    0.000000
 ---------------------------------------------------------------------
                    Distance matrix (angstroms):
                    1          2          3
     1  O    0.000000
     2  H    0.964323   0.000000
     3  H    0.964323   1.529254   0.000000
 Stoichiometry    H2O
 Framework group  C2V[C2(O),SGV(H2)]
 Deg. of freedom     2
 Full point group                 C2V     NOp   4
 RotChk:  IX=3 Diff= 4.28D-16
 Largest Abelian subgroup         C2V     NOp   4
 Largest concise Abelian subgroup C2      NOp   2
                         Standard orientation:                         
 ---------------------------------------------------------------------
 Center     Atomic      Atomic             Coordinates (Angstroms)
 Number     Number       Type             X           Y           Z
 ---------------------------------------------------------------------
      1          8           0       -0.000000   -0.000000    0.117519
      2          1           0        0.000000   -0.764627   -0.470074
      3          1           0        0.000000    0.764627   -0.470074
 ---------------------------------------------------------------------
 Rotational constants (GHZ):    817.7017855    428.8473224    281.3119989
 Leave Link  202 at Thu Aug 26 23:59:41 2021, MaxMem= 17179869184 cpu:         8.4
 (Enter /public3/home/sc51754/softwares/g09e01/l301.exe)
 Basis read from rwf:  (5D, 7F)
 No pseudopotential information found on rwf file.
 There are    27 symmetry adapted cartesian basis functions of A1  symmetry.
 There are     7 symmetry adapted cartesian basis functions of A2  symmetry.
 There are    12 symmetry adapted cartesian basis functions of B1  symmetry.
 There are    19 symmetry adapted cartesian basis functions of B2  symmetry.
 There are    23 symmetry adapted basis functions of A1  symmetry.
 There are     7 symmetry adapted basis functions of A2  symmetry.
 There are    11 symmetry adapted basis functions of B1  symmetry.
 There are    17 symmetry adapted basis functions of B2  symmetry.
    58 basis functions,    91 primitive gaussians,    65 cartesian basis functions
     5 alpha electrons        5 beta electrons
       nuclear repulsion energy         9.1261151853 Hartrees.
 IExCor= 2523 DFT=T Ex=TPSS Corr=TPSS ExCW=0 ScaHFX=  0.000000
 ScaDFX=  1.000000  1.000000  1.000000  1.000000 ScalE2=  1.000000  1.000000
 IRadAn=      0 IRanWt=     -1 IRanGd=            0 ICorTp=0 IEmpDi=  4
 NAtoms=    3 NActive=    3 NUniq=    2 SFac= 2.25D+00 NAtFMM=   60 NAOKFM=F Big=F
 Integral buffers will be    131072 words long.
 Raffenetti 2 integral format.
 Two-electron integral symmetry is turned on.
 No density basis found on file   724.
 Leave Link  301 at Thu Aug 26 23:59:41 2021, MaxMem= 17179869184 cpu:         1.3
 (Enter /public3/home/sc51754/softwares/g09e01/l302.exe)
 NPDir=0 NMtPBC=     1 NCelOv=     1 NCel=       1 NClECP=     1 NCelD=      1
         NCelK=      1 NCelE2=     1 NClLst=     1 CellRange=     0.0.
 One-electron integrals computed using PRISM.
 One-electron integral symmetry used in STVInt
 NBasis=    58 RedAO= T EigKep=  5.87D-03  NBF=    23     7    11    17
 NBsUse=    58 1.00D-06 EigRej= -1.00D+00 NBFU=    23     7    11    17
 Precomputing XC quadrature grid using
 IXCGrd= 4 IRadAn=           0 IRanWt=          -1 IRanGd=           0 AccXCQ= 0.00D+00.
 Generated NRdTot=       0 NPtTot=           0 NUsed=           0 NTot=          32
 NSgBfM=    65    65    65    65    65 MxSgAt=     3 MxSgA2=     3.
 Leave Link  302 at Thu Aug 26 23:59:42 2021, MaxMem= 17179869184 cpu:        39.2
 (Enter /public3/home/sc51754/softwares/g09e01/l303.exe)
 DipDrv:  MaxL=1.
 Leave Link  303 at Thu Aug 26 23:59:42 2021, MaxMem= 17179869184 cpu:        13.6
 (Enter /public3/home/sc51754/softwares/g09e01/l401.exe)
 Initial guess from the checkpoint file:  "H2O_TPSSTPSS_PC2_OPT_FREQ.chk"
 B after Tr=    -0.000000   -0.000000    0.000000
         Rot=    1.000000   -0.000000   -0.000000   -0.000000 Ang=   0.00 deg.
 Guess basis will be translated and rotated to current coordinates.
 JPrj=2 DoOrth=T DoCkMO=T.
 Initial guess orbital symmetries:
       Occupied  (A1) (A1) (B2) (A1) (B1)
       Virtual   (A1) (A1) (A1) (A1) (A1) (A1) (A1) (A1) (A1) (A1)
                 (A1) (A1) (A1) (A1) (A1) (A1) (A1) (A1) (A1) (A1)
                 (A2) (A2) (A2) (A2) (A2) (A2) (A2) (B1) (B1) (B1)
                 (B1) (B1) (B1) (B1) (B1) (B1) (B1) (B2) (B2) (B2)
                 (B2) (B2) (B2) (B2) (B2) (B2) (B2) (B2) (B2) (B2)
                 (B2) (B2) (B2)
 The electronic state of the initial guess is 1-A1.
 Generating alternative initial guess.
 ExpMin= 7.41D-02 ExpMax= 1.48D+04 ExpMxC= 5.05D+02 IAcc=2 IRadAn=         4 AccDes= 0.00D+00
 Harris functional with IExCor= 1009 and IRadAn=       4 diagonalized for initial guess.
 HarFok:  IExCor= 1009 AccDes= 0.00D+00 IRadAn=         4 IDoV= 1 UseB2=F ITyADJ=14
 ICtDFT=  3500011 ScaDFX=  1.000000  1.000000  1.000000  1.000000
 FoFCou: FMM=F IPFlag=           0 FMFlag=      100000 FMFlg1=           0
         NFxFlg=           0 DoJE=T BraDBF=F KetDBF=T FulRan=T
         wScrn=  0.000000 ICntrl=     500 IOpCl=  0 I1Cent=   200000004 NGrid=           0
         NMat0=    1 NMatS0=      1 NMatT0=    0 NMatD0=    1 NMtDS0=    0 NMtDT0=    0
 Petite list used in FoFCou.
 Harris En= -76.4277524933521    
 Leave Link  401 at Thu Aug 26 23:59:43 2021, MaxMem= 17179869184 cpu:        70.0
 (Enter /public3/home/sc51754/softwares/g09e01/l502.exe)
 Closed shell SCF:
 Using DIIS extrapolation, IDIIS=  1040.
 Integral symmetry usage will be decided dynamically.
 Keep J ints in memory in symmetry-blocked form, NReq=3467901.
 IVT=       35997 IEndB=       35997 NGot= 17179869184 MDV= 17179451308
 LenX= 17179451308 LenY= 17179446642
 Requested convergence on RMS density matrix=1.00D-08 within 128 cycles.
 Requested convergence on MAX density matrix=1.00D-06.
 Requested convergence on             energy=1.00D-06.
 No special actions if energy rises.
 FoFCou: FMM=F IPFlag=           0 FMFlag=           0 FMFlg1=           0
         NFxFlg=           0 DoJE=F BraDBF=F KetDBF=F FulRan=T
         wScrn=  0.000000 ICntrl=     600 IOpCl=  0 I1Cent=           0 NGrid=           0
         NMat0=    1 NMatS0=   1711 NMatT0=    0 NMatD0=    1 NMtDS0=    0 NMtDT0=    0
 Petite list used in FoFCou.
 Integral accuracy reduced to 1.0D-05 until final iterations.

 Cycle   1  Pass 0  IDiag  1:
 E= -76.4686403195771    
 DIIS: error= 3.00D-03 at cycle   1 NSaved=   1.
 NSaved= 1 IEnMin= 1 EnMin= -76.4686403195771     IErMin= 1 ErrMin= 3.00D-03
 ErrMax= 3.00D-03  0.00D+00 EMaxC= 1.00D-01 BMatC= 3.12D-04 BMatP= 3.12D-04
 IDIUse=3 WtCom= 9.70D-01 WtEn= 3.00D-02
 Coeff-Com:  0.100D+01
 Coeff-En:   0.100D+01
 Coeff:      0.100D+01
 Gap=     1.060 Goal=   None    Shift=    0.000
 GapD=    1.060 DampG=2.000 DampE=1.000 DampFc=2.0000 IDamp=-1.
 RMSDP=4.15D-04 MaxDP=6.78D-03              OVMax= 9.07D-03

 Cycle   2  Pass 0  IDiag  1:
 E= -76.4689154197964     Delta-E=       -0.000275100219 Rises=F Damp=F
 DIIS: error= 6.91D-04 at cycle   2 NSaved=   2.
 NSaved= 2 IEnMin= 2 EnMin= -76.4689154197964     IErMin= 2 ErrMin= 6.91D-04
 ErrMax= 6.91D-04  0.00D+00 EMaxC= 1.00D-01 BMatC= 1.19D-05 BMatP= 3.12D-04
 IDIUse=3 WtCom= 9.93D-01 WtEn= 6.91D-03
 Coeff-Com:  0.532D-01 0.947D+00
 Coeff-En:   0.000D+00 0.100D+01
 Coeff:      0.528D-01 0.947D+00
 Gap=     0.262 Goal=   None    Shift=    0.000
 RMSDP=6.92D-05 MaxDP=1.13D-03 DE=-2.75D-04 OVMax= 2.28D-03

 Cycle   3  Pass 0  IDiag  1:
 E= -76.4689023447155     Delta-E=        0.000013075081 Rises=F Damp=F
 DIIS: error= 1.16D-03 at cycle   3 NSaved=   3.
 NSaved= 3 IEnMin= 2 EnMin= -76.4689154197964     IErMin= 2 ErrMin= 6.91D-04
 ErrMax= 1.16D-03  0.00D+00 EMaxC= 1.00D-01 BMatC= 3.11D-05 BMatP= 1.19D-05
 IDIUse=3 WtCom= 2.27D-01 WtEn= 7.73D-01
 Coeff-Com:  0.332D-02 0.619D+00 0.377D+00
 Coeff-En:   0.000D+00 0.687D+00 0.313D+00
 Coeff:      0.752D-03 0.672D+00 0.327D+00
 Gap=     0.261 Goal=   None    Shift=    0.000
 RMSDP=3.70D-05 MaxDP=6.25D-04 DE= 1.31D-05 OVMax= 1.13D-03

 Cycle   4  Pass 0  IDiag  1:
 E= -76.4689232647797     Delta-E=       -0.000020920064 Rises=F Damp=F
 DIIS: error= 1.45D-04 at cycle   4 NSaved=   4.
 NSaved= 4 IEnMin= 4 EnMin= -76.4689232647797     IErMin= 4 ErrMin= 1.45D-04
 ErrMax= 1.45D-04  0.00D+00 EMaxC= 1.00D-01 BMatC= 5.02D-07 BMatP= 1.19D-05
 IDIUse=3 WtCom= 9.99D-01 WtEn= 1.45D-03
 Coeff-Com: -0.154D-03 0.120D+00-0.433D-01 0.923D+00
 Coeff-En:   0.000D+00 0.000D+00 0.000D+00 0.100D+01
 Coeff:     -0.154D-03 0.120D+00-0.432D-01 0.924D+00
 Gap=     0.261 Goal=   None    Shift=    0.000
 RMSDP=5.16D-06 MaxDP=8.94D-05 DE=-2.09D-05 OVMax= 1.66D-04

 Initial convergence to 1.0D-05 achieved.  Increase integral accuracy.
 Cycle   5  Pass 1  IDiag  1:
 E= -76.4689072602759     Delta-E=        0.000016004504 Rises=F Damp=F
 DIIS: error= 2.53D-05 at cycle   1 NSaved=   1.
 NSaved= 1 IEnMin= 1 EnMin= -76.4689072602759     IErMin= 1 ErrMin= 2.53D-05
 ErrMax= 2.53D-05  0.00D+00 EMaxC= 1.00D-01 BMatC= 3.33D-08 BMatP= 3.33D-08
 IDIUse=1 WtCom= 1.00D+00 WtEn= 0.00D+00
 Coeff-Com:  0.100D+01
 Coeff:      0.100D+01
 Gap=     0.261 Goal=   None    Shift=    0.000
 RMSDP=5.16D-06 MaxDP=8.94D-05 DE= 1.60D-05 OVMax= 4.32D-05

 Cycle   6  Pass 1  IDiag  1:
 E= -76.4689072735229     Delta-E=       -0.000000013247 Rises=F Damp=F
 DIIS: error= 7.30D-06 at cycle   2 NSaved=   2.
 NSaved= 2 IEnMin= 2 EnMin= -76.4689072735229     IErMin= 2 ErrMin= 7.30D-06
 ErrMax= 7.30D-06  0.00D+00 EMaxC= 1.00D-01 BMatC= 1.40D-09 BMatP= 3.33D-08
 IDIUse=1 WtCom= 1.00D+00 WtEn= 0.00D+00
 Coeff-Com:  0.511D-01 0.949D+00
 Coeff:      0.511D-01 0.949D+00
 Gap=     0.261 Goal=   None    Shift=    0.000
 RMSDP=7.61D-07 MaxDP=1.23D-05 DE=-1.32D-08 OVMax= 2.22D-05

 Cycle   7  Pass 1  IDiag  1:
 E= -76.4689072728510     Delta-E=        0.000000000672 Rises=F Damp=F
 DIIS: error= 9.73D-06 at cycle   3 NSaved=   3.
 NSaved= 3 IEnMin= 2 EnMin= -76.4689072735229     IErMin= 2 ErrMin= 7.30D-06
 ErrMax= 9.73D-06  0.00D+00 EMaxC= 1.00D-01 BMatC= 2.47D-09 BMatP= 1.40D-09
 IDIUse=1 WtCom= 1.00D+00 WtEn= 0.00D+00
 Coeff-Com: -0.270D-02 0.577D+00 0.426D+00
 Coeff:     -0.270D-02 0.577D+00 0.426D+00
 Gap=     0.261 Goal=   None    Shift=    0.000
 RMSDP=4.42D-07 MaxDP=6.98D-06 DE= 6.72D-10 OVMax= 1.37D-05

 Cycle   8  Pass 1  IDiag  1:
 E= -76.4689072745132     Delta-E=       -0.000000001662 Rises=F Damp=F
 DIIS: error= 1.85D-06 at cycle   4 NSaved=   4.
 NSaved= 4 IEnMin= 4 EnMin= -76.4689072745132     IErMin= 4 ErrMin= 1.85D-06
 ErrMax= 1.85D-06  0.00D+00 EMaxC= 1.00D-01 BMatC= 9.66D-11 BMatP= 1.40D-09
 IDIUse=1 WtCom= 1.00D+00 WtEn= 0.00D+00
 Coeff-Com: -0.848D-02 0.199D+00 0.213D+00 0.597D+00
 Coeff:     -0.848D-02 0.199D+00 0.213D+00 0.597D+00
 Gap=     0.261 Goal=   None    Shift=    0.000
 RMSDP=7.70D-08 MaxDP=1.34D-06 DE=-1.66D-09 OVMax= 2.45D-06

 Cycle   9  Pass 1  IDiag  1:
 E= -76.4689072745777     Delta-E=       -0.000000000064 Rises=F Damp=F
 DIIS: error= 6.91D-08 at cycle   5 NSaved=   5.
 NSaved= 5 IEnMin= 5 EnMin= -76.4689072745777     IErMin= 5 ErrMin= 6.91D-08
 ErrMax= 6.91D-08  0.00D+00 EMaxC= 1.00D-01 BMatC= 1.15D-13 BMatP= 9.66D-11
 IDIUse=1 WtCom= 1.00D+00 WtEn= 0.00D+00
 Coeff-Com: -0.435D-03 0.506D-02 0.236D-02 0.337D-01 0.959D+00
 Coeff:     -0.435D-03 0.506D-02 0.236D-02 0.337D-01 0.959D+00
 Gap=     0.261 Goal=   None    Shift=    0.000
 RMSDP=3.32D-09 MaxDP=4.50D-08 DE=-6.45D-11 OVMax= 1.01D-07

 SCF Done:  E(RTPSS-TPSS) =  -76.4689072746     A.U. after    9 cycles
            NFock=  9  Conv=0.33D-08     -V/T= 2.0036
 KE= 7.619292247327D+01 PE=-1.991453677513D+02 EE= 3.735742281816D+01
 Leave Link  502 at Thu Aug 26 23:59:44 2021, MaxMem= 17179869184 cpu:        34.0
 (Enter /public3/home/sc51754/softwares/g09e01/l701.exe)
 Compute integral first derivatives.
 ... and contract with generalized density number  0.
 Leave Link  701 at Thu Aug 26 23:59:45 2021, MaxMem= 17179869184 cpu:        57.0
 (Enter /public3/home/sc51754/softwares/g09e01/l702.exe)
 L702 exits ... SP integral derivatives will be done elsewhere.
 Leave Link  702 at Thu Aug 26 23:59:45 2021, MaxMem= 17179869184 cpu:         0.3
 (Enter /public3/home/sc51754/softwares/g09e01/l703.exe)
 Compute integral first derivatives, UseDBF=F ICtDFT=           0.
 Integral derivatives from FoFJK, PRISM(SPDF).
 Calling FoFJK, ICntrl=      2527 FMM=F ISym2X=1 I1Cent= 0 IOpClX= 0 NMat=1 NMatS=1 NMatT=0.
 FoFJK:  IHMeth= 1 ICntrl=    2527 DoSepK=F KAlg= 0 I1Cent=   0 FoldK=F
 IRaf=         0 NMat=   1 IRICut=       1 DoRegI=T DoRafI=F ISym2E= 1.
 FoFCou: FMM=F IPFlag=           0 FMFlag=      100000 FMFlg1=         800
         NFxFlg=           0 DoJE=F BraDBF=F KetDBF=F FulRan=T
         wScrn=  0.000000 ICntrl=    2527 IOpCl=  0 I1Cent=           0 NGrid=           0
         NMat0=    1 NMatS0=      1 NMatT0=    0 NMatD0=    1 NMtDS0=    0 NMtDT0=    0
 Petite list used in FoFCou.
 Leave Link  703 at Thu Aug 26 23:59:46 2021, MaxMem= 17179869184 cpu:        50.5
 (Enter /public3/home/sc51754/softwares/g09e01/l716.exe)
 Dipole        = 3.73358493D-17 2.22044605D-16-7.65013213D-01
 ***** Axes restored to original set *****
 -------------------------------------------------------------------
 Center     Atomic                   Forces (Hartrees/Bohr)
 Number     Number              X              Y              Z
 -------------------------------------------------------------------
      1        8          -0.002465330   -0.003488361    0.000000000
      2        1           0.002625287    0.000759972   -0.000000000
      3        1          -0.000159957    0.002728388   -0.000000000
 -------------------------------------------------------------------
 Cartesian Forces:  Max     0.003488361 RMS     0.001920240
 Leave Link  716 at Thu Aug 26 23:59:46 2021, MaxMem= 17179869184 cpu:         0.3
 (Enter /public3/home/sc51754/softwares/g09e01/l103.exe)

 GradGradGradGradGradGradGradGradGradGradGradGradGradGradGradGradGradGrad
 Berny optimization.
 Using GEDIIS/GDIIS optimizer.
 FormGI is forming the generalized inverse of G from B-inverse, IUseBI=4.
 Internal  Forces:  Max     0.002653570 RMS     0.002273398
 Search for a local minimum.
 Step number   2 out of a maximum of   20
 All quantities printed in internal units (Hartrees-Bohrs-Radians)
 RMS Force = .22734D-02 SwitMx=.10000D-02 MixMth= 1
 Mixed Optimization -- RFO/linear search
 Update second derivatives using D2CorX and points    1    2
 DE= -6.22D-04 DEPred=-5.49D-04 R= 1.13D+00
 TightC=F SS=  1.41D+00  RLast= 8.03D-02 DXNew= 5.0454D-01 2.4093D-01
 Trust test= 1.13D+00 RLast= 8.03D-02 DXMaxT set to 3.00D-01
 The second derivative matrix:
                          R1        R2        A1
           R1           0.53953
           R2          -0.01520   0.53953
           A1           0.03015   0.03015   0.15229
 ITU=  1  0
 Use linear search instead of GDIIS.
     Eigenvalues ---    0.14746   0.52916   0.55473
 RFO step:  Lambda=-2.20045746D-05 EMin= 1.47461069D-01
 Quartic linear search produced a step of  0.13820.
 Iteration  1 RMS(Cart)=  0.00490326 RMS(Int)=  0.00002385
 Iteration  2 RMS(Cart)=  0.00002698 RMS(Int)=  0.00000000
 Iteration  3 RMS(Cart)=  0.00000000 RMS(Int)=  0.00000000
 ITry= 1 IFail=0 DXMaxC= 5.61D-03 DCOld= 1.00D+10 DXMaxT= 3.00D-01 DXLimC= 3.00D+00 Rises=F
 ClnCor:  largest displacement from symmetrization is 1.40D-14 for atom     3.
 Variable       Old X    -DE/DX   Delta X   Delta X   Delta X     New X
                                 (Linear)    (Quad)   (Total)
    R1        1.82231   0.00265   0.00113   0.00446   0.00559   1.82790
    R2        1.82231   0.00265   0.00113   0.00446   0.00559   1.82790
    A1        1.83116  -0.00119  -0.01098   0.00145  -0.00953   1.82163
         Item               Value     Threshold  Converged?
 Maximum Force            0.002654     0.000450     NO 
 RMS     Force            0.002273     0.000300     NO 
 Maximum Displacement     0.005609     0.001800     NO 
 RMS     Displacement     0.004911     0.001200     NO 
 Predicted change in Energy=-2.094479D-05
 Lowest energy point so far.  Saving SCF results.
 GradGradGradGradGradGradGradGradGradGradGradGradGradGradGradGradGradGrad

 Leave Link  103 at Thu Aug 26 23:59:47 2021, MaxMem= 17179869184 cpu:        17.9
 (Enter /public3/home/sc51754/softwares/g09e01/l202.exe)
                          Input orientation:                          
 ---------------------------------------------------------------------
 Center     Atomic      Atomic             Coordinates (Angstroms)
 Number     Number       Type             X           Y           Z
 ---------------------------------------------------------------------
      1          8           0        0.024293    0.774453    0.000000
      2          1           0        0.990607    0.817729   -0.000000
      3          1           0       -0.257476    1.699787    0.000000
 ---------------------------------------------------------------------
                    Distance matrix (angstroms):
                    1          2          3
     1  O    0.000000
     2  H    0.967283   0.000000
     3  H    0.967283   1.528313   0.000000
 Stoichiometry    H2O
 Framework group  C2V[C2(O),SGV(H2)]
 Deg. of freedom     2
 Full point group                 C2V     NOp   4
 RotChk:  IX=3 Diff= 7.73D-16
 Largest Abelian subgroup         C2V     NOp   4
 Largest concise Abelian subgroup C2      NOp   2
                         Standard orientation:                         
 ---------------------------------------------------------------------
 Center     Atomic      Atomic             Coordinates (Angstroms)
 Number     Number       Type             X           Y           Z
 ---------------------------------------------------------------------
      1          8           0        0.000000   -0.000000    0.118609
      2          1           0        0.000000   -0.764156   -0.474436
      3          1           0        0.000000    0.764156   -0.474436
 ---------------------------------------------------------------------
 Rotational constants (GHZ):    802.7353920    429.3759323    279.7435999
 Leave Link  202 at Thu Aug 26 23:59:47 2021, MaxMem= 17179869184 cpu:         8.1
 (Enter /public3/home/sc51754/softwares/g09e01/l301.exe)
 Basis read from rwf:  (5D, 7F)
 No pseudopotential information found on rwf file.
 There are    27 symmetry adapted cartesian basis functions of A1  symmetry.
 There are     7 symmetry adapted cartesian basis functions of A2  symmetry.
 There are    12 symmetry adapted cartesian basis functions of B1  symmetry.
 There are    19 symmetry adapted cartesian basis functions of B2  symmetry.
 There are    23 symmetry adapted basis functions of A1  symmetry.
 There are     7 symmetry adapted basis functions of A2  symmetry.
 There are    11 symmetry adapted basis functions of B1  symmetry.
 There are    17 symmetry adapted basis functions of B2  symmetry.
    58 basis functions,    91 primitive gaussians,    65 cartesian basis functions
     5 alpha electrons        5 beta electrons
       nuclear repulsion energy         9.0994609158 Hartrees.
 IExCor= 2523 DFT=T Ex=TPSS Corr=TPSS ExCW=0 ScaHFX=  0.000000
 ScaDFX=  1.000000  1.000000  1.000000  1.000000 ScalE2=  1.000000  1.000000
 IRadAn=      0 IRanWt=     -1 IRanGd=            0 ICorTp=0 IEmpDi=  4
 NAtoms=    3 NActive=    3 NUniq=    2 SFac= 2.25D+00 NAtFMM=   60 NAOKFM=F Big=F
 Integral buffers will be    131072 words long.
 Raffenetti 2 integral format.
 Two-electron integral symmetry is turned on.
 No density basis found on file   724.
 Leave Link  301 at Thu Aug 26 23:59:47 2021, MaxMem= 17179869184 cpu:         1.7
 (Enter /public3/home/sc51754/softwares/g09e01/l302.exe)
 NPDir=0 NMtPBC=     1 NCelOv=     1 NCel=       1 NClECP=     1 NCelD=      1
         NCelK=      1 NCelE2=     1 NClLst=     1 CellRange=     0.0.
 One-electron integrals computed using PRISM.
 One-electron integral symmetry used in STVInt
 NBasis=    58 RedAO= T EigKep=  5.91D-03  NBF=    23     7    11    17
 NBsUse=    58 1.00D-06 EigRej= -1.00D+00 NBFU=    23     7    11    17
 Precomputing XC quadrature grid using
 IXCGrd= 4 IRadAn=           0 IRanWt=          -1 IRanGd=           0 AccXCQ= 0.00D+00.
 Generated NRdTot=       0 NPtTot=           0 NUsed=           0 NTot=          32
 NSgBfM=    65    65    65    65    65 MxSgAt=     3 MxSgA2=     3.
 Leave Link  302 at Thu Aug 26 23:59:48 2021, MaxMem= 17179869184 cpu:        52.1
 (Enter /public3/home/sc51754/softwares/g09e01/l303.exe)
 DipDrv:  MaxL=1.
 Leave Link  303 at Thu Aug 26 23:59:49 2021, MaxMem= 17179869184 cpu:        13.1
 (Enter /public3/home/sc51754/softwares/g09e01/l401.exe)
 Initial guess from the checkpoint file:  "H2O_TPSSTPSS_PC2_OPT_FREQ.chk"
 B after Tr=    -0.000000   -0.000000    0.000000
         Rot=    1.000000    0.000000   -0.000000    0.000000 Ang=   0.00 deg.
 Guess basis will be translated and rotated to current coordinates.
 JPrj=2 DoOrth=T DoCkMO=T.
 Initial guess orbital symmetries:
       Occupied  (A1) (A1) (B2) (A1) (B1)
       Virtual   (A1) (A1) (A1) (A1) (A1) (A1) (A1) (A1) (A1) (A1)
                 (A1) (A1) (A1) (A1) (A1) (A1) (A1) (A1) (A1) (A1)
                 (A2) (A2) (A2) (A2) (A2) (A2) (A2) (B1) (B1) (B1)
                 (B1) (B1) (B1) (B1) (B1) (B1) (B1) (B2) (B2) (B2)
                 (B2) (B2) (B2) (B2) (B2) (B2) (B2) (B2) (B2) (B2)
                 (B2) (B2) (B2)
 The electronic state of the initial guess is 1-A1.
 Leave Link  401 at Thu Aug 26 23:59:49 2021, MaxMem= 17179869184 cpu:        25.3
 (Enter /public3/home/sc51754/softwares/g09e01/l502.exe)
 Closed shell SCF:
 Using DIIS extrapolation, IDIIS=  1040.
 Integral symmetry usage will be decided dynamically.
 Keep J ints in memory in symmetry-blocked form, NReq=3467901.
 IVT=       35997 IEndB=       35997 NGot= 17179869184 MDV= 17179451308
 LenX= 17179451308 LenY= 17179446642
 Requested convergence on RMS density matrix=1.00D-08 within 128 cycles.
 Requested convergence on MAX density matrix=1.00D-06.
 Requested convergence on             energy=1.00D-06.
 No special actions if energy rises.
 FoFCou: FMM=F IPFlag=           0 FMFlag=           0 FMFlg1=           0
         NFxFlg=           0 DoJE=F BraDBF=F KetDBF=F FulRan=T
         wScrn=  0.000000 ICntrl=     600 IOpCl=  0 I1Cent=           0 NGrid=           0
         NMat0=    1 NMatS0=   1711 NMatT0=    0 NMatD0=    1 NMtDS0=    0 NMtDT0=    0
 Petite list used in FoFCou.

 Cycle   1  Pass 1  IDiag  1:
 E= -76.4689181989250    
 DIIS: error= 7.65D-04 at cycle   1 NSaved=   1.
 NSaved= 1 IEnMin= 1 EnMin= -76.4689181989250     IErMin= 1 ErrMin= 7.65D-04
 ErrMax= 7.65D-04  0.00D+00 EMaxC= 1.00D-01 BMatC= 1.22D-05 BMatP= 1.22D-05
 IDIUse=3 WtCom= 9.92D-01 WtEn= 7.65D-03
 Coeff-Com:  0.100D+01
 Coeff-En:   0.100D+01
 Coeff:      0.100D+01
 Gap=     1.061 Goal=   None    Shift=    0.000
 RMSDP=7.19D-05 MaxDP=1.21D-03              OVMax= 1.88D-03

 Cycle   2  Pass 1  IDiag  1:
 E= -76.4689261777645     Delta-E=       -0.000007978840 Rises=F Damp=F
 DIIS: error= 3.75D-04 at cycle   2 NSaved=   2.
 NSaved= 2 IEnMin= 2 EnMin= -76.4689261777645     IErMin= 2 ErrMin= 3.75D-04
 ErrMax= 3.75D-04  0.00D+00 EMaxC= 1.00D-01 BMatC= 3.18D-06 BMatP= 1.22D-05
 IDIUse=3 WtCom= 9.96D-01 WtEn= 3.75D-03
 Coeff-Com:  0.255D+00 0.745D+00
 Coeff-En:   0.000D+00 0.100D+01
 Coeff:      0.254D+00 0.746D+00
 Gap=     0.261 Goal=   None    Shift=    0.000
 RMSDP=2.89D-05 MaxDP=4.84D-04 DE=-7.98D-06 OVMax= 8.81D-04

 Cycle   3  Pass 1  IDiag  1:
 E= -76.4689257017203     Delta-E=        0.000000476044 Rises=F Damp=F
 DIIS: error= 4.09D-04 at cycle   3 NSaved=   3.
 NSaved= 3 IEnMin= 2 EnMin= -76.4689261777645     IErMin= 2 ErrMin= 3.75D-04
 ErrMax= 4.09D-04  0.00D+00 EMaxC= 1.00D-01 BMatC= 3.91D-06 BMatP= 3.18D-06
 IDIUse=3 WtCom= 3.31D-01 WtEn= 6.69D-01
 Coeff-Com:  0.746D-02 0.524D+00 0.468D+00
 Coeff-En:   0.000D+00 0.539D+00 0.461D+00
 Coeff:      0.247D-02 0.534D+00 0.464D+00
 Gap=     0.260 Goal=   None    Shift=    0.000
 RMSDP=1.47D-05 MaxDP=2.47D-04 DE= 4.76D-07 OVMax= 4.52D-04

 Cycle   4  Pass 1  IDiag  1:
 E= -76.4689283617175     Delta-E=       -0.000002659997 Rises=F Damp=F
 DIIS: error= 2.47D-05 at cycle   4 NSaved=   4.
 NSaved= 4 IEnMin= 4 EnMin= -76.4689283617175     IErMin= 4 ErrMin= 2.47D-05
 ErrMax= 2.47D-05  0.00D+00 EMaxC= 1.00D-01 BMatC= 1.06D-08 BMatP= 3.18D-06
 IDIUse=1 WtCom= 1.00D+00 WtEn= 0.00D+00
 Coeff-Com: -0.312D-02 0.156D+00 0.132D+00 0.716D+00
 Coeff:     -0.312D-02 0.156D+00 0.132D+00 0.716D+00
 Gap=     0.260 Goal=   None    Shift=    0.000
 RMSDP=9.71D-07 MaxDP=1.28D-05 DE=-2.66D-06 OVMax= 2.71D-05

 Cycle   5  Pass 1  IDiag  1:
 E= -76.4689283691162     Delta-E=       -0.000000007399 Rises=F Damp=F
 DIIS: error= 1.92D-06 at cycle   5 NSaved=   5.
 NSaved= 5 IEnMin= 5 EnMin= -76.4689283691162     IErMin= 5 ErrMin= 1.92D-06
 ErrMax= 1.92D-06  0.00D+00 EMaxC= 1.00D-01 BMatC= 1.13D-10 BMatP= 1.06D-08
 IDIUse=1 WtCom= 1.00D+00 WtEn= 0.00D+00
 Coeff-Com: -0.469D-03 0.982D-02 0.454D-02 0.995D-01 0.887D+00
 Coeff:     -0.469D-03 0.982D-02 0.454D-02 0.995D-01 0.887D+00
 Gap=     0.260 Goal=   None    Shift=    0.000
 RMSDP=1.09D-07 MaxDP=1.96D-06 DE=-7.40D-09 OVMax= 3.49D-06

 Cycle   6  Pass 1  IDiag  1:
 E= -76.4689283692016     Delta-E=       -0.000000000085 Rises=F Damp=F
 DIIS: error= 6.02D-08 at cycle   6 NSaved=   6.
 NSaved= 6 IEnMin= 6 EnMin= -76.4689283692016     IErMin= 6 ErrMin= 6.02D-08
 ErrMax= 6.02D-08  0.00D+00 EMaxC= 1.00D-01 BMatC= 1.03D-13 BMatP= 1.13D-10
 IDIUse=1 WtCom= 1.00D+00 WtEn= 0.00D+00
 Coeff-Com:  0.108D-04-0.857D-03-0.559D-03-0.423D-02-0.603D-02 0.101D+01
 Coeff:      0.108D-04-0.857D-03-0.559D-03-0.423D-02-0.603D-02 0.101D+01
 Gap=     0.260 Goal=   None    Shift=    0.000
 RMSDP=4.53D-09 MaxDP=7.90D-08 DE=-8.53D-11 OVMax= 1.03D-07

 SCF Done:  E(RTPSS-TPSS) =  -76.4689283692     A.U. after    6 cycles
            NFock=  6  Conv=0.45D-08     -V/T= 2.0037
 KE= 7.618416357378D+01 PE=-1.990881457377D+02 EE= 3.733559287888D+01
 Leave Link  502 at Thu Aug 26 23:59:50 2021, MaxMem= 17179869184 cpu:        38.4
 (Enter /public3/home/sc51754/softwares/g09e01/l701.exe)
 Compute integral first derivatives.
 ... and contract with generalized density number  0.
 Leave Link  701 at Thu Aug 26 23:59:51 2021, MaxMem= 17179869184 cpu:        52.3
 (Enter /public3/home/sc51754/softwares/g09e01/l702.exe)
 L702 exits ... SP integral derivatives will be done elsewhere.
 Leave Link  702 at Thu Aug 26 23:59:51 2021, MaxMem= 17179869184 cpu:         0.3
 (Enter /public3/home/sc51754/softwares/g09e01/l703.exe)
 Compute integral first derivatives, UseDBF=F ICtDFT=           0.
 Integral derivatives from FoFJK, PRISM(SPDF).
 Calling FoFJK, ICntrl=      2527 FMM=F ISym2X=1 I1Cent= 0 IOpClX= 0 NMat=1 NMatS=1 NMatT=0.
 FoFJK:  IHMeth= 1 ICntrl=    2527 DoSepK=F KAlg= 0 I1Cent=   0 FoldK=F
 IRaf=         0 NMat=   1 IRICut=       1 DoRegI=T DoRafI=F ISym2E= 1.
 FoFCou: FMM=F IPFlag=           0 FMFlag=      100000 FMFlg1=         800
         NFxFlg=           0 DoJE=F BraDBF=F KetDBF=F FulRan=T
         wScrn=  0.000000 ICntrl=    2527 IOpCl=  0 I1Cent=           0 NGrid=           0
         NMat0=    1 NMatS0=      1 NMatT0=    0 NMatD0=    1 NMtDS0=    0 NMtDT0=    0
 Petite list used in FoFCou.
 Leave Link  703 at Thu Aug 26 23:59:52 2021, MaxMem= 17179869184 cpu:        49.5
 (Enter /public3/home/sc51754/softwares/g09e01/l716.exe)
 Dipole        = 3.75269491D-17-1.11022302D-15-7.68446818D-01
 ***** Axes restored to original set *****
 -------------------------------------------------------------------
 Center     Atomic                   Forces (Hartrees/Bohr)
 Number     Number              X              Y              Z
 -------------------------------------------------------------------
      1        8          -0.000075776   -0.000107221    0.000000000
      2        1           0.000095298    0.000013037   -0.000000000
      3        1          -0.000019522    0.000094184   -0.000000000
 -------------------------------------------------------------------
 Cartesian Forces:  Max     0.000107221 RMS     0.000063018
 Leave Link  716 at Thu Aug 26 23:59:52 2021, MaxMem= 17179869184 cpu:         0.4
 (Enter /public3/home/sc51754/softwares/g09e01/l103.exe)

 GradGradGradGradGradGradGradGradGradGradGradGradGradGradGradGradGradGrad
 Berny optimization.
 Using GEDIIS/GDIIS optimizer.
 FormGI is forming the generalized inverse of G from B-inverse, IUseBI=4.
 Internal  Forces:  Max     0.000095786 RMS     0.000078754
 Search for a local minimum.
 Step number   3 out of a maximum of   20
 All quantities printed in internal units (Hartrees-Bohrs-Radians)
 RMS Force = .78754D-04 SwitMx=.10000D-02 MixMth= 2
 Mixed Optimization -- En-DIIS/RFO-DIIS
 Update second derivatives using D2CorX and points    1    2    3
 DE= -2.11D-05 DEPred=-2.09D-05 R= 1.01D+00
 TightC=F SS=  1.41D+00  RLast= 1.24D-02 DXNew= 5.0454D-01 3.7161D-02
 Trust test= 1.01D+00 RLast= 1.24D-02 DXMaxT set to 3.00D-01
 The second derivative matrix:
                          R1        R2        A1
           R1           0.53036
           R2          -0.02438   0.53036
           A1           0.02858   0.02858   0.15696
 ITU=  1  1  0
 Use linear search instead of GDIIS.
     Eigenvalues ---    0.15235   0.51060   0.55473
 RFO step:  Lambda= 0.00000000D+00 EMin= 1.52346394D-01
 Quartic linear search produced a step of  0.03095.
 Iteration  1 RMS(Cart)=  0.00012759 RMS(Int)=  0.00000001
 Iteration  2 RMS(Cart)=  0.00000001 RMS(Int)=  0.00000000
 ITry= 1 IFail=0 DXMaxC= 1.37D-04 DCOld= 1.00D+10 DXMaxT= 3.00D-01 DXLimC= 3.00D+00 Rises=F
 ClnCor:  largest displacement from symmetrization is 4.13D-15 for atom     3.
 Variable       Old X    -DE/DX   Delta X   Delta X   Delta X     New X
                                 (Linear)    (Quad)   (Total)
    R1        1.82790   0.00010   0.00017   0.00003   0.00020   1.82810
    R2        1.82790   0.00010   0.00017   0.00003   0.00020   1.82810
    A1        1.82163  -0.00002  -0.00029   0.00012  -0.00018   1.82145
         Item               Value     Threshold  Converged?
 Maximum Force            0.000096     0.000450     YES
 RMS     Force            0.000079     0.000300     YES
 Maximum Displacement     0.000137     0.001800     YES
 RMS     Displacement     0.000128     0.001200     YES
 Predicted change in Energy=-2.047345D-08
 Optimization completed.
    -- Stationary point found.
                           ----------------------------
                           !   Optimized Parameters   !
                           ! (Angstroms and Degrees)  !
 --------------------------                            --------------------------
 ! Name  Definition              Value          Derivative Info.                !
 --------------------------------------------------------------------------------
 ! R1    R(1,2)                  0.9673         -DE/DX =    0.0001              !
 ! R2    R(1,3)                  0.9673         -DE/DX =    0.0001              !
 ! A1    A(2,1,3)              104.3715         -DE/DX =    0.0                 !
 --------------------------------------------------------------------------------
 Lowest energy point so far.  Saving SCF results.
 GradGradGradGradGradGradGradGradGradGradGradGradGradGradGradGradGradGrad

 Largest change from initial coordinates is atom    3       0.037 Angstoms.
 Leave Link  103 at Thu Aug 26 23:59:53 2021, MaxMem= 17179869184 cpu:        22.5
 (Enter /public3/home/sc51754/softwares/g09e01/l202.exe)
                          Input orientation:                          
 ---------------------------------------------------------------------
 Center     Atomic      Atomic             Coordinates (Angstroms)
 Number     Number       Type             X           Y           Z
 ---------------------------------------------------------------------
      1          8           0        0.024293    0.774453    0.000000
      2          1           0        0.990607    0.817729   -0.000000
      3          1           0       -0.257476    1.699787    0.000000
 ---------------------------------------------------------------------
                    Distance matrix (angstroms):
                    1          2          3
     1  O    0.000000
     2  H    0.967283   0.000000
     3  H    0.967283   1.528313   0.000000
 Stoichiometry    H2O
 Framework group  C2V[C2(O),SGV(H2)]
 Deg. of freedom     2
 Full point group                 C2V     NOp   4
 RotChk:  IX=3 Diff= 4.97D-16
 Largest Abelian subgroup         C2V     NOp   4
 Largest concise Abelian subgroup C2      NOp   2
                         Standard orientation:                         
 ---------------------------------------------------------------------
 Center     Atomic      Atomic             Coordinates (Angstroms)
 Number     Number       Type             X           Y           Z
 ---------------------------------------------------------------------
      1          8           0       -0.000000    0.000000    0.118609
      2          1           0        0.000000   -0.764156   -0.474436
      3          1           0        0.000000    0.764156   -0.474436
 ---------------------------------------------------------------------
 Rotational constants (GHZ):    802.7353920    429.3759323    279.7435999
 Leave Link  202 at Thu Aug 26 23:59:53 2021, MaxMem= 17179869184 cpu:         4.3
 (Enter /public3/home/sc51754/softwares/g09e01/l601.exe)
 Copying SCF densities to generalized density rwf, IOpCl= 0 IROHF=0.

 **********************************************************************

            Population analysis using the SCF density.

 **********************************************************************

 Orbital symmetries:
       Occupied  (A1) (A1) (B2) (A1) (B1)
       Virtual   (A1) (B2) (B2) (A1) (A1) (B1) (B2) (A1) (A2) (A1)
                 (B1) (B2) (B2) (A1) (A1) (B2) (B1) (A2) (A1) (A1)
                 (B2) (B1) (A1) (B1) (B2) (A1) (A2) (B2) (B1) (B2)
                 (A1) (A2) (A1) (B2) (B1) (A2) (A1) (B2) (A1) (B2)
                 (B1) (A1) (B1) (B2) (B1) (A2) (A1) (A2) (A1) (A1)
                 (B2) (B2) (A1)
 The electronic state is 1-A1.
 Alpha  occ. eigenvalues --  -18.88590  -0.94589  -0.48383  -0.34295  -0.26500
 Alpha virt. eigenvalues --   -0.00492   0.05711   0.25558   0.27305   0.31266
 Alpha virt. eigenvalues --    0.32569   0.43233   0.65027   0.74092   0.76990
 Alpha virt. eigenvalues --    0.84070   1.02209   1.14655   1.19579   1.39852
 Alpha virt. eigenvalues --    1.43352   1.72921   1.79052   1.81622   2.01409
 Alpha virt. eigenvalues --    2.04136   2.21971   2.87051   3.35535   3.35732
 Alpha virt. eigenvalues --    3.49730   3.57812   3.69390   3.79226   3.84745
 Alpha virt. eigenvalues --    4.01260   4.04916   4.24837   4.36399   4.45963
 Alpha virt. eigenvalues --    4.49322   4.63004   4.81056   4.88678   4.89009
 Alpha virt. eigenvalues --    4.95265   5.65019   5.98860   5.99343   6.17408
 Alpha virt. eigenvalues --    6.17931   6.27124   6.27855   6.40097   6.79698
 Alpha virt. eigenvalues --    6.93151   7.41064  14.92925
          Condensed to atoms (all electrons):
               1          2          3
     1  O    7.722764   0.355433   0.355433
     2  H    0.355433   0.454213  -0.026461
     3  H    0.355433  -0.026461   0.454213
 Mulliken charges:
               1
     1  O   -0.433631
     2  H    0.216815
     3  H    0.216815
 Sum of Mulliken charges =   0.00000
 Mulliken charges with hydrogens summed into heavy atoms:
               1
     1  O    0.000000
 Electronic spatial extent (au):  <R**2>=             19.8952
 Charge=             -0.0000 electrons
 Dipole moment (field-independent basis, Debye):
    X=              0.0000    Y=             -0.0000    Z=             -1.9532  Tot=              1.9532
 Quadrupole moment (field-independent basis, Debye-Ang):
   XX=             -7.6437   YY=             -4.4218   ZZ=             -6.3819
   XY=              0.0000   XZ=             -0.0000   YZ=             -0.0000
 Traceless Quadrupole moment (field-independent basis, Debye-Ang):
   XX=             -1.4946   YY=              1.7274   ZZ=             -0.2327
   XY=              0.0000   XZ=             -0.0000   YZ=             -0.0000
 Octapole moment (field-independent basis, Debye-Ang**2):
  XXX=             -0.0000  YYY=              0.0000  ZZZ=             -1.2035  XYY=              0.0000
  XXY=              0.0000  XXZ=             -0.3216  XZZ=             -0.0000  YZZ=              0.0000
  YYZ=             -1.2913  XYZ=             -0.0000
 Hexadecapole moment (field-independent basis, Debye-Ang**3):
 XXXX=             -6.9275 YYYY=             -6.4686 ZZZZ=             -7.5419 XXXY=             -0.0000
 XXXZ=              0.0000 YYYX=             -0.0000 YYYZ=             -0.0000 ZZZX=              0.0000
 ZZZY=             -0.0000 XXYY=             -2.5382 XXZZ=             -2.4654 YYZZ=             -2.0153
 XXYZ=             -0.0000 YYXZ=             -0.0000 ZZXY=             -0.0000
 N-N= 9.099460915807D+00 E-N=-1.990881476175D+02  KE= 7.618416357378D+01
 Symmetry A1   KE= 6.798183632387D+01
 Symmetry A2   KE= 2.063801186753D-20
 Symmetry B1   KE= 4.541172554923D+00
 Symmetry B2   KE= 3.661154694983D+00
 No NMR shielding tensors so no spin-rotation constants.
 Leave Link  601 at Thu Aug 26 23:59:54 2021, MaxMem= 17179869184 cpu:        64.3
 (Enter /public3/home/sc51754/softwares/g09e01/l9999.exe)
 1\1\GINC-P2607\FOpt\RTPSSTPSS\Gen\H2O1\SC51754\26-Aug-2021\0\\#p opt f
 req TPSSTPSS/gen\\H2O_TPSSTPSS_PC2_OPT_FREQ\\0,1\O,0.0242925558,0.7744
 5303,0.\H,0.9906072909,0.8177289607,0.\H,-0.2574762288,1.6997871997,0.
 \\Version=EM64L-G09RevE.01\State=1-A1\HF=-76.4689284\RMSD=4.529e-09\RM
 SF=6.302e-05\Dipole=0.4435054,0.6275456,0.\Quadrupole=0.7988313,0.3123
 821,-1.1112134,-0.6868451,0.,0.\PG=C02V [C2(O1),SGV(H2)]\\@


 A DANDELION FROM A LOVER MEANS MORE THAN AN ORCHID FROM A FRIEND.
 Leave Link 9999 at Thu Aug 26 23:59:55 2021, MaxMem= 17179869184 cpu:         2.3
 Job cpu time:       0 days  0 hours 19 minutes 21.9 seconds.
 File lengths (MBytes):  RWF=      5 Int=      0 D2E=      0 Chk=      1 Scr=      1
 Normal termination of Gaussian 09 at Thu Aug 26 23:59:55 2021.
 (Enter /public3/home/sc51754/softwares/g09e01/l1.exe)
 Link1:  Proceeding to internal job step number  2.
 ---------------------------------------------------------------------
 #P Geom=AllCheck Guess=TCheck SCRF=Check GenChk RTPSSTPSS/ChkBas Freq
 ---------------------------------------------------------------------
 1/10=4,29=7,30=1,38=1,40=1/1,3;
 2/12=2,40=1/2;
 3/5=7,6=2,11=2,14=-4,16=1,25=1,30=1,67=1,70=2,71=2,74=2523,82=7,116=1,140=1/1,2,3;
 4/5=101/1;
 5/5=2,38=6,98=1/2;
 8/6=4,10=90,11=11/1;
 11/6=1,8=1,9=11,15=111,16=1/1,2,10;
 10/6=1/2;
 6/7=2,8=2,9=2,10=2,18=1,28=1/1;
 7/8=1,10=1,25=1/1,2,3,16;
 1/10=4,30=1/3;
 99//99;
 Leave Link    1 at Thu Aug 26 23:59:55 2021, MaxMem= 17179869184 cpu:         0.9
 (Enter /public3/home/sc51754/softwares/g09e01/l101.exe)
 Structure from the checkpoint file:  "H2O_TPSSTPSS_PC2_OPT_FREQ.chk"
 -------------------------
 H2O_TPSSTPSS_PC2_OPT_FREQ
 -------------------------
 Charge =  0 Multiplicity = 1
 Redundant internal coordinates found in file.
 O,0,0.0242925558,0.77445303,0.
 H,0,0.9906072909,0.8177289607,0.
 H,0,-0.2574762288,1.6997871997,0.
 Recover connectivity data from disk.
 NAtoms=      3 NQM=        3 NQMF=       0 NMMI=      0 NMMIF=      0
                NMic=       0 NMicF=      0.
                    Isotopes and Nuclear Properties:
 (Nuclear quadrupole moments (NQMom) in fm**2, nuclear magnetic moments (NMagM)
  in nuclear magnetons)

  Atom         1           2           3
 IAtWgt=          16           1           1
 AtmWgt=  15.9949146   1.0078250   1.0078250
 NucSpn=           0           1           1
 AtZEff=  -5.6000000  -1.0000000  -1.0000000
 NQMom=    0.0000000   0.0000000   0.0000000
 NMagM=    0.0000000   2.7928460   2.7928460
 AtZNuc=   8.0000000   1.0000000   1.0000000
 Leave Link  101 at Thu Aug 26 23:59:55 2021, MaxMem= 17179869184 cpu:         9.3
 (Enter /public3/home/sc51754/softwares/g09e01/l103.exe)

 GradGradGradGradGradGradGradGradGradGradGradGradGradGradGradGradGradGrad
 Berny optimization.
 Initialization pass.
                           ----------------------------
                           !    Initial Parameters    !
                           ! (Angstroms and Degrees)  !
 --------------------------                            --------------------------
 ! Name  Definition              Value          Derivative Info.                !
 --------------------------------------------------------------------------------
 ! R1    R(1,2)                  0.9673         calculate D2E/DX2 analytically  !
 ! R2    R(1,3)                  0.9673         calculate D2E/DX2 analytically  !
 ! A1    A(2,1,3)              104.3715         calculate D2E/DX2 analytically  !
 --------------------------------------------------------------------------------
 Trust Radius=3.00D-01 FncErr=1.00D-07 GrdErr=1.00D-07
 Number of steps in this run=      2 maximum allowed number of steps=      2.
 GradGradGradGradGradGradGradGradGradGradGradGradGradGradGradGradGradGrad

 Leave Link  103 at Thu Aug 26 23:59:55 2021, MaxMem= 17179869184 cpu:         0.1
 (Enter /public3/home/sc51754/softwares/g09e01/l202.exe)
                          Input orientation:                          
 ---------------------------------------------------------------------
 Center     Atomic      Atomic             Coordinates (Angstroms)
 Number     Number       Type             X           Y           Z
 ---------------------------------------------------------------------
      1          8           0        0.024293    0.774453    0.000000
      2          1           0        0.990607    0.817729   -0.000000
      3          1           0       -0.257476    1.699787    0.000000
 ---------------------------------------------------------------------
                    Distance matrix (angstroms):
                    1          2          3
     1  O    0.000000
     2  H    0.967283   0.000000
     3  H    0.967283   1.528313   0.000000
 Stoichiometry    H2O
 Framework group  C2V[C2(O),SGV(H2)]
 Deg. of freedom     2
 Full point group                 C2V     NOp   4
 RotChk:  IX=3 Diff= 7.85D-16
 Largest Abelian subgroup         C2V     NOp   4
 Largest concise Abelian subgroup C2      NOp   2
                         Standard orientation:                         
 ---------------------------------------------------------------------
 Center     Atomic      Atomic             Coordinates (Angstroms)
 Number     Number       Type             X           Y           Z
 ---------------------------------------------------------------------
      1          8           0       -0.000000   -0.000000    0.118609
      2          1           0        0.000000   -0.764156   -0.474436
      3          1           0        0.000000    0.764156   -0.474436
 ---------------------------------------------------------------------
 Rotational constants (GHZ):    802.7353920    429.3759323    279.7435999
 Leave Link  202 at Thu Aug 26 23:59:55 2021, MaxMem= 17179869184 cpu:         8.8
 (Enter /public3/home/sc51754/softwares/g09e01/l301.exe)
 Basis read from chk: "H2O_TPSSTPSS_PC2_OPT_FREQ.chk" (5D, 7F)
 No pseudopotential information found on chk file.
 There are    27 symmetry adapted cartesian basis functions of A1  symmetry.
 There are     7 symmetry adapted cartesian basis functions of A2  symmetry.
 There are    12 symmetry adapted cartesian basis functions of B1  symmetry.
[...]
      4 vectors produced by pass  5 Test12= 2.94D-15 1.11D-08 XBig12= 7.00D-12 1.04D-06.
      1 vectors produced by pass  6 Test12= 2.94D-15 1.11D-08 XBig12= 2.32D-15 1.33D-08.
 InvSVY:  IOpt=1 It=  1 EMax= 1.08D-16
 Solved reduced A of dimension    50 with     9 vectors.
 FullF1:  Do perturbations    1 to     9.
 Isotropic polarizability for W=    0.000000        7.74 Bohr**3.
 End of Minotr F.D. properties file   721 does not exist.
 End of Minotr F.D. properties file   722 does not exist.
 End of Minotr F.D. properties file   788 does not exist.
 Leave Link 1002 at Fri Aug 27 00:00:02 2021, MaxMem= 17179869184 cpu:        65.6
 (Enter /public3/home/sc51754/softwares/g09e01/l601.exe)
 Copying SCF densities to generalized density rwf, IOpCl= 0 IROHF=0.

 **********************************************************************

            Population analysis using the SCF density.

 **********************************************************************

 Orbital symmetries:
       Occupied  (A1) (A1) (B2) (A1) (B1)
       Virtual   (A1) (B2) (B2) (A1) (A1) (B1) (B2) (A1) (A2) (A1)
                 (B1) (B2) (B2) (A1) (A1) (B2) (B1) (A2) (A1) (A1)
                 (B2) (B1) (A1) (B1) (B2) (A1) (A2) (B2) (B1) (B2)
                 (A1) (A2) (A1) (B2) (B1) (A2) (A1) (B2) (A1) (B2)
                 (B1) (A1) (B1) (B2) (B1) (A2) (A1) (A2) (A1) (A1)
                 (B2) (B2) (A1)
 The electronic state is 1-A1.
 Alpha  occ. eigenvalues --  -18.88590  -0.94589  -0.48383  -0.34295  -0.26500
 Alpha virt. eigenvalues --   -0.00492   0.05711   0.25558   0.27305   0.31266
 Alpha virt. eigenvalues --    0.32569   0.43233   0.65027   0.74092   0.76990
 Alpha virt. eigenvalues --    0.84070   1.02209   1.14655   1.19579   1.39852
 Alpha virt. eigenvalues --    1.43352   1.72921   1.79052   1.81622   2.01409
 Alpha virt. eigenvalues --    2.04136   2.21971   2.87051   3.35535   3.35732
 Alpha virt. eigenvalues --    3.49730   3.57812   3.69390   3.79226   3.84745
 Alpha virt. eigenvalues --    4.01260   4.04916   4.24837   4.36399   4.45963
 Alpha virt. eigenvalues --    4.49322   4.63004   4.81056   4.88678   4.89009
 Alpha virt. eigenvalues --    4.95265   5.65019   5.98860   5.99343   6.17408
 Alpha virt. eigenvalues --    6.17931   6.27124   6.27855   6.40097   6.79698
 Alpha virt. eigenvalues --    6.93151   7.41064  14.92925
          Condensed to atoms (all electrons):
               1          2          3
     1  O    7.722764   0.355433   0.355433
     2  H    0.355433   0.454213  -0.026461
     3  H    0.355433  -0.026461   0.454213
 Mulliken charges:
               1
     1  O   -0.433631
     2  H    0.216815
     3  H    0.216815
 Sum of Mulliken charges =   0.00000
 Mulliken charges with hydrogens summed into heavy atoms:
               1
     1  O    0.000000
 APT charges:
               1
     1  O   -0.484868
     2  H    0.242434
     3  H    0.242434
 Sum of APT charges =  -0.00000
 APT charges with hydrogens summed into heavy atoms:
               1
     1  O   -0.000000
 Electronic spatial extent (au):  <R**2>=             19.8952
 Charge=             -0.0000 electrons
 Dipole moment (field-independent basis, Debye):
    X=              0.0000    Y=             -0.0000    Z=             -1.9532  Tot=              1.9532
 Quadrupole moment (field-independent basis, Debye-Ang):
   XX=             -7.6437   YY=             -4.4218   ZZ=             -6.3819
   XY=              0.0000   XZ=             -0.0000   YZ=              0.0000
 Traceless Quadrupole moment (field-independent basis, Debye-Ang):
   XX=             -1.4946   YY=              1.7274   ZZ=             -0.2327
   XY=              0.0000   XZ=             -0.0000   YZ=              0.0000
 Octapole moment (field-independent basis, Debye-Ang**2):
  XXX=             -0.0000  YYY=             -0.0000  ZZZ=             -1.2035  XYY=              0.0000
  XXY=              0.0000  XXZ=             -0.3216  XZZ=             -0.0000  YZZ=             -0.0000
  YYZ=             -1.2913  XYZ=             -0.0000
 Hexadecapole moment (field-independent basis, Debye-Ang**3):
 XXXX=             -6.9275 YYYY=             -6.4686 ZZZZ=             -7.5419 XXXY=             -0.0000
 XXXZ=              0.0000 YYYX=             -0.0000 YYYZ=             -0.0000 ZZZX=              0.0000
 ZZZY=             -0.0000 XXYY=             -2.5382 XXZZ=             -2.4654 YYZZ=             -2.0153
 XXYZ=             -0.0000 YYXZ=             -0.0000 ZZXY=             -0.0000
 N-N= 9.099460915807D+00 E-N=-1.990881470979D+02  KE= 7.618416332180D+01
 Symmetry A1   KE= 6.798183620679D+01
 Symmetry A2   KE= 4.052432482792D-20
 Symmetry B1   KE= 4.541172473223D+00
 Symmetry B2   KE= 3.661154641788D+00
  Exact polarizability:   6.598   0.000   8.865   0.000   0.000   7.764
 Approx polarizability:   7.739   0.000  12.316  -0.000  -0.000  10.530
 No NMR shielding tensors so no spin-rotation constants.
 Leave Link  601 at Fri Aug 27 00:00:03 2021, MaxMem= 17179869184 cpu:        62.7
 (Enter /public3/home/sc51754/softwares/g09e01/l701.exe)
 Compute integral second derivatives.
 ... and contract with generalized density number  0.
 Leave Link  701 at Fri Aug 27 00:00:05 2021, MaxMem= 17179869184 cpu:        64.8
 (Enter /public3/home/sc51754/softwares/g09e01/l702.exe)
 L702 exits ... SP integral derivatives will be done elsewhere.
 Leave Link  702 at Fri Aug 27 00:00:05 2021, MaxMem= 17179869184 cpu:         0.3
 (Enter /public3/home/sc51754/softwares/g09e01/l703.exe)
 Compute integral second derivatives, UseDBF=F ICtDFT=           0.
 Integral derivatives from FoFJK, PRISM(SPDF).
 Calling FoFJK, ICntrl=    100527 FMM=F ISym2X=1 I1Cent= 0 IOpClX= 0 NMat=1 NMatS=1 NMatT=0.
 FoFJK:  IHMeth= 1 ICntrl=  100527 DoSepK=F KAlg= 0 I1Cent=   0 FoldK=F
 IRaf=         0 NMat=   1 IRICut=       1 DoRegI=T DoRafI=F ISym2E= 1.
 FoFCou: FMM=F IPFlag=           0 FMFlag=      100000 FMFlg1=         800
         NFxFlg=           0 DoJE=F BraDBF=F KetDBF=F FulRan=T
         wScrn=  0.000000 ICntrl=  100527 IOpCl=  0 I1Cent=           0 NGrid=           0
         NMat0=    1 NMatS0=      1 NMatT0=    0 NMatD0=    1 NMtDS0=    0 NMtDT0=    0
 Petite list used in FoFCou.
 Leave Link  703 at Fri Aug 27 00:00:06 2021, MaxMem= 17179869184 cpu:        61.7
 (Enter /public3/home/sc51754/softwares/g09e01/l716.exe)
 Dipole        = 3.75269476D-17 1.74912981D-15-7.68446820D-01
 Polarizability= 6.59802884D+00 5.62618799D-11 8.86471000D+00
                 9.66048306D-11 1.48691491D-09 7.76397980D+00
 Full mass-weighted force constant matrix:
 Low frequencies ---  -87.0784  -82.2775  -41.7775   -0.0016    0.0006    0.0012
 Low frequencies --- 1627.0981 3717.4775 3821.3411
 Diagonal vibrational polarizability:
        0.0000000       0.0694205       0.6632220
 Harmonic frequencies (cm**-1), IR intensities (KM/Mole), Raman scattering
 activities (A**4/AMU), depolarization ratios for plane and unpolarized
 incident light, reduced masses (AMU), force constants (mDyne/A),
 and normal coordinates:
                      1                      2                      3
                     A1                     A1                     B2
 Frequencies --   1627.0981              3717.4775              3821.3407
 Red. masses --      1.0832                 1.0447                 1.0817
 Frc consts  --      1.6896                 8.5060                 9.3068
 IR Inten    --     64.8305                 2.1683                37.6692
  Atom  AN      X      Y      Z        X      Y      Z        X      Y      Z
     1   8     0.00  -0.00  -0.07     0.00  -0.00  -0.05    -0.00  -0.07   0.00
     2   1    -0.00  -0.43   0.56     0.00   0.59   0.39    -0.00   0.56   0.43
     3   1    -0.00   0.43   0.56    -0.00  -0.59   0.39     0.00   0.56  -0.43

 -------------------
 - Thermochemistry -
 -------------------
 Temperature   298.150 Kelvin.  Pressure   1.00000 Atm.
 Atom     1 has atomic number  8 and mass  15.99491
 Atom     2 has atomic number  1 and mass   1.00783
 Atom     3 has atomic number  1 and mass   1.00783
 Molecular mass:    18.01056 amu.
 Principal axes and moments of inertia in atomic units:
                           1         2         3
     Eigenvalues --     2.24824   4.20317   6.45141
           X            0.00000  -0.00000   1.00000
           Y            1.00000  -0.00000  -0.00000
           Z            0.00000   1.00000   0.00000
 This molecule is an asymmetric top.
 Rotational symmetry number  2.
 Rotational temperatures (Kelvin)     38.52518    20.60677    13.42556
 Rotational constants (GHZ):         802.73539   429.37593   279.74360
 Zero-point vibrational energy      54824.4 (Joules/Mol)
                                   13.10334 (Kcal/Mol)
 Vibrational temperatures:   2341.03  5348.61  5498.05
          (Kelvin)
 
 Zero-point correction=                           0.020881 (Hartree/Particle)
 Thermal correction to Energy=                    0.023717
 Thermal correction to Enthalpy=                  0.024661
 Thermal correction to Gibbs Free Energy=         0.003221
 Sum of electronic and zero-point Energies=            -76.448047
 Sum of electronic and thermal Energies=               -76.445211
 Sum of electronic and thermal Enthalpies=             -76.444267
 Sum of electronic and thermal Free Energies=          -76.465707
 
                     E (Thermal)             CV                S
                      KCal/Mol        Cal/Mol-Kelvin    Cal/Mol-Kelvin
 Total                   14.883              6.009             45.125
 Electronic               0.000              0.000              0.000
 Translational            0.889              2.981             34.608
 Rotational               0.889              2.981             10.509
 Vibrational             13.105              0.048              0.007
                       Q            Log10(Q)             Ln(Q)
 Total Bot       0.329966D-01         -1.481531         -3.411351
 Total V=0       0.132822D+09          8.123269         18.704518
 Vib (Bot)       0.248524D-09         -9.604631        -22.115480
 Vib (V=0)       0.100039D+01          0.000169          0.000389
 Electronic      0.100000D+01          0.000000          0.000000
 Translational   0.300432D+07          6.477746         14.915562
 Rotational      0.441930D+02          1.645354          3.788567
 
                                                      H2O_TPSSTPSS_PC2_OPT_FREQ
                                                             IR Spectrum
 
     3   3                                                                    1                                                      
     8   7                                                                    6                                                      
     2   1                                                                    2                                                      
     1   7                                                                    7                                                      
 
     X   X                                                                    X                                                      
     X                                                                        X                                                      
     X                                                                        X                                                      
     X                                                                        X                                                      
     X                                                                        X                                                      
     X                                                                        X                                                      
     X                                                                        X                                                      
     X                                                                        X                                                      
     X                                                                        X                                                      
     X                                                                        X                                                      
     X                                                                        X                                                      
     X                                                                        X                                                      
                                                                              X                                                      
                                                                              X                                                      
                                                                              X                                                      
                                                                              X                                                      
                                                                              X                                                      
                                                                              X                                                      
                                                                              X                                                      
                                                                              X                                                      
 
 ***** Axes restored to original set *****
 -------------------------------------------------------------------
 Center     Atomic                   Forces (Hartrees/Bohr)
 Number     Number              X              Y              Z
 -------------------------------------------------------------------
      1        8          -0.000075771   -0.000107213    0.000000000
      2        1           0.000095289    0.000013037    0.000000000
      3        1          -0.000019519    0.000094175   -0.000000000
 -------------------------------------------------------------------
 Cartesian Forces:  Max     0.000107213 RMS     0.000063013
 Force constants in Cartesian coordinates: 
                1             2             3             4             5 
      1  0.574004D+00
      2 -0.990508D-01  0.503852D+00
      3  0.000000D+00  0.000000D+00 -0.458589D-03
      4 -0.494335D+00  0.634666D-02  0.000000D+00  0.511168D+00
      5 -0.541369D-01 -0.445929D-01  0.000000D+00  0.400131D-02  0.473359D-01
      6  0.000000D+00  0.000000D+00  0.229294D-03  0.000000D+00  0.000000D+00
      7 -0.796686D-01  0.927042D-01  0.000000D+00 -0.168326D-01  0.501356D-01
      8  0.153188D+00 -0.459259D+00  0.000000D+00 -0.103480D-01 -0.274306D-02
      9  0.000000D+00  0.000000D+00  0.229294D-03  0.000000D+00  0.000000D+00
                6             7             8             9 
      6 -0.259247D-03
      7  0.000000D+00  0.965012D-01
      8  0.000000D+00 -0.142840D+00  0.462002D+00
      9  0.299524D-04  0.000000D+00  0.000000D+00 -0.259247D-03
 FormGI is forming the generalized inverse of G from B-inverse, IUseBI=4.
 Force constants in internal coordinates: 
                1             2             3 
      1  0.510494D+00
      2 -0.565834D-02  0.510494D+00
      3  0.308350D-01  0.308350D-01  0.160261D+00
 Leave Link  716 at Fri Aug 27 00:00:06 2021, MaxMem= 17179869184 cpu:        14.4
 (Enter /public3/home/sc51754/softwares/g09e01/l103.exe)

 GradGradGradGradGradGradGradGradGradGradGradGradGradGradGradGradGradGrad
 Berny optimization.
 Red2BG is reusing G-inverse.
 Internal  Forces:  Max     0.000095777 RMS     0.000078746
 Search for a local minimum.
 Step number   1 out of a maximum of    2
 All quantities printed in internal units (Hartrees-Bohrs-Radians)
 Second derivative matrix not updated -- analytic derivatives used.
 The second derivative matrix:
                          R1        R2        A1
           R1           0.51049
           R2          -0.00566   0.51049
           A1           0.03084   0.03084   0.16026
 ITU=  0
     Eigenvalues ---    0.15483   0.51027   0.51615
 Angle between quadratic step and forces=  25.24 degrees.
 Linear search not attempted -- first point.
 Iteration  1 RMS(Cart)=  0.00012773 RMS(Int)=  0.00000001
 Iteration  2 RMS(Cart)=  0.00000001 RMS(Int)=  0.00000000
 ITry= 1 IFail=0 DXMaxC= 1.37D-04 DCOld= 1.00D+10 DXMaxT= 3.00D-01 DXLimC= 3.00D+00 Rises=F
 ClnCor:  largest displacement from symmetrization is 5.65D-15 for atom     3.
 Variable       Old X    -DE/DX   Delta X   Delta X   Delta X     New X
                                 (Linear)    (Quad)   (Total)
    R1        1.82790   0.00010   0.00000   0.00020   0.00020   1.82810
    R2        1.82790   0.00010   0.00000   0.00020   0.00020   1.82810
    A1        1.82163  -0.00002   0.00000  -0.00018  -0.00018   1.82145
         Item               Value     Threshold  Converged?
 Maximum Force            0.000096     0.000450     YES
 RMS     Force            0.000079     0.000300     YES
 Maximum Displacement     0.000137     0.001800     YES
 RMS     Displacement     0.000128     0.001200     YES
 Predicted change in Energy=-2.062481D-08
 Optimization completed.
    -- Stationary point found.
                           ----------------------------
                           !   Optimized Parameters   !
                           ! (Angstroms and Degrees)  !
 --------------------------                            --------------------------
 ! Name  Definition              Value          Derivative Info.                !
 --------------------------------------------------------------------------------
 ! R1    R(1,2)                  0.9673         -DE/DX =    0.0001              !
 ! R2    R(1,3)                  0.9673         -DE/DX =    0.0001              !
 ! A1    A(2,1,3)              104.3715         -DE/DX =    0.0                 !
 --------------------------------------------------------------------------------
 GradGradGradGradGradGradGradGradGradGradGradGradGradGradGradGradGradGrad

 Leave Link  103 at Fri Aug 27 00:00:07 2021, MaxMem= 17179869184 cpu:        21.4
 (Enter /public3/home/sc51754/softwares/g09e01/l9999.exe)
 1\1\GINC-P2607\Freq\RTPSSTPSS\Gen\H2O1\SC51754\27-Aug-2021\0\\#P Geom=
 AllCheck Guess=TCheck SCRF=Check GenChk RTPSSTPSS/ChkBas Freq\\H2O_TPS
 STPSS_PC2_OPT_FREQ\\0,1\O,0.0242925558,0.77445303,0.\H,0.9906072909,0.
 8177289607,0.\H,-0.2574762288,1.6997871997,0.\\Version=EM64L-G09RevE.0
 1\State=1-A1\HF=-76.4689284\RMSD=3.815e-10\RMSF=6.301e-05\ZeroPoint=0.
 0208815\Thermal=0.0237169\Dipole=0.4435054,0.6275456,0.\DipoleDeriv=-0
 .4067097,0.0629211,0.,0.0629211,-0.3621467,0.,0.,0.,-0.6857468,0.12331
 76,-0.0537764,0.,-0.0658301,0.2611106,0.,0.,0.,0.3428734,0.2833922,-0.
 0091447,0.,0.002909,0.1010361,0.,0.,0.,0.3428734\Polar=8.4980605,-0.51
 8797,8.1306293,0.,0.,6.5980288\PG=C02V [C2(O1),SGV(H2)]\NImag=0\\0.574
 00368,-0.09905082,0.50385221,0.,0.,-0.00045859,-0.49433507,0.00634666,
 0.,0.51116767,-0.05413692,-0.04459288,0.,0.00400131,0.04733594,0.,0.,0
 .00022929,0.,0.,-0.00025925,-0.07966861,0.09270416,0.,-0.01683261,0.05
 013561,0.,0.09650122,0.15318774,-0.45925933,0.,-0.01034797,-0.00274306
 ,0.,-0.14283978,0.46200239,0.,0.,0.00022929,0.,0.,0.00002995,0.,0.,-0.
 00025925\\0.00007577,0.00010721,0.,-0.00009529,-0.00001304,0.,0.000019
 52,-0.00009418,0.\\\@


 THE THINKER DIES, BUT HIS THOUGHTS ARE BEYOND THE 
 REACH OF DESTRUCTION.  MEN ARE MORTAL; BUT IDEAS 
 ARE IMMORTAL.
                              -- WALTER LIPPMANN
 Job cpu time:       0 days  0 hours 10 minutes 37.3 seconds.
 File lengths (MBytes):  RWF=      5 Int=      0 D2E=      0 Chk=      1 Scr=      1
 Normal termination of Gaussian 09 at Fri Aug 27 00:00:07 2021.
