 Entering Gaussian System, Link 0=g09
 AtFile(1): pc-2.gbs
            -H     0
            S    4   1.00
                  0.754230D+02           0.240650D-02
                  0.113500D+02           0.184870D-01
                  0.259930D+01           0.897420D-01
                  0.735130D+00           0.281110D+00
            S    1   1.00
                  0.231670D+00           0.100000D+01
            S    1   1.00
                  0.741470D-01           0.100000D+01
            P    1   1.00
                  0.160000D+01           0.100000D+01
            P    1   1.00
                  0.450000D+00           0.100000D+01
            D    1   1.00
                  0.125000D+01           0.100000D+01
            ****
            -C     0
            S    7   1.00
                  0.785710D+04           0.568250D-03
                  0.117870D+04           0.439150D-02
                  0.268320D+03           0.225040D-01
                  0.759480D+02           0.866530D-01
                  0.245590D+02           0.244050D+00
                  0.862120D+01           0.441480D+00
                  0.312780D+01           0.353320D+00
            S    7   1.00
                  0.117870D+04          -0.594920D-06
                  0.268320D+03          -0.627480D-04
                  0.759480D+02          -0.757730D-03
                  0.245590D+02          -0.733080D-02
                  0.862120D+01          -0.389320D-01
                  0.312780D+01          -0.889080D-01
                  0.822020D+00           0.216890D+00
            S    1   1.00
                  0.330170D+00           0.100000D+01
            S    1   1.00
                  0.114630D+00           0.100000D+01
            P    4   1.00
                  0.337750D+02           0.602940D-02
                  0.767660D+01           0.432280D-01
                  0.223570D+01           0.163010D+00
                  0.764470D+00           0.365040D+00
            P    1   1.00
                  0.262320D+00           0.100000D+01
            P    1   1.00
                  0.846380D-01           0.100000D+01
            D    1   1.00
                  0.140000D+01           0.100000D+01
            D    1   1.00
                  0.450000D+00           0.100000D+01
            F    1   1.00
                  0.950000D+00           0.100000D+01
            ****
            -N     0
            S    7   1.00
                  0.111010D+05           0.545700D-03
                  0.166530D+04           0.421810D-02
                  0.379080D+03           0.216450D-01
                  0.107300D+03           0.837760D-01
                  0.347470D+02           0.238810D+00
                  0.122490D+02           0.439940D+00
                  0.447430D+01           0.363640D+00
            S    7   1.00
                  0.166530D+04          -0.150060D-05
                  0.379080D+03          -0.587530D-04
                  0.107300D+03          -0.774530D-03
                  0.347470D+02          -0.721610D-02
                  0.122490D+02          -0.393380D-01
                  0.447430D+01          -0.906110D-01
                  0.124040D+01           0.198820D+00
            S    1   1.00
                  0.487430D+00           0.100000D+01
            S    1   1.00
                  0.164840D+00           0.100000D+01
            P    4   1.00
                  0.479340D+02           0.617060D-02
                  0.109990D+02           0.442600D-01
                  0.324720D+01           0.168250D+00
                  0.111140D+01           0.368480D+00
            P    1   1.00
                  0.379880D+00           0.100000D+01
            P    1   1.00
                  0.120680D+00           0.100000D+01
            D    1   1.00
                  0.180000D+01           0.100000D+01
            D    1   1.00
                  0.550000D+00           0.100000D+01
            F    1   1.00
                  0.102000D+01           0.100000D+01
            ****
            -O     0
            S    7   1.00
                  0.147820D+05           0.535190D-03
                  0.221730D+04           0.413750D-02
                  0.504740D+03           0.212450D-01
                  0.142870D+03           0.824530D-01
                  0.463000D+02           0.236710D+00
                  0.163370D+02           0.440390D+00
                  0.598280D+01           0.364650D+00
            S    7   1.00
                  0.221730D+04          -0.192750D-05
                  0.504740D+03          -0.579640D-04
                  0.142870D+03          -0.794940D-03
                  0.463000D+02          -0.731250D-02
                  0.163370D+02          -0.405740D-01
                  0.598280D+01          -0.915940D-01
                  0.167180D+01           0.209400D+00
            S    1   1.00
                  0.646620D+00           0.100000D+01
            S    1   1.00
                  0.216690D+00           0.100000D+01
            P    4   1.00
                  0.604240D+02           0.689490D-02
                  0.139350D+02           0.490050D-01
                  0.415310D+01           0.182550D+00
                  0.141580D+01           0.376330D+00
            P    1   1.00
                  0.475490D+00           0.100000D+01
            P    1   1.00
                  0.145290D+00           0.100000D+01
            D    1   1.00
                  0.220000D+01           0.100000D+01
            D    1   1.00
                  0.650000D+00           0.100000D+01
            F    1   1.00
                  0.110000D+01           0.100000D+01
            ****
 Initial command:
 /public3/home/sc51754/softwares/g09e01/l1.exe "./Gau-22921.inp" -scrdir="./"
 Entering Link 1 = /public3/home/sc51754/softwares/g09e01/l1.exe PID=     22922.
  
 Copyright (c) 1988,1990,1992,1993,1995,1998,2003,2009,2015,
            Gaussian, Inc.  All Rights Reserved.
  
 This is part of the Gaussian(R) 09 program.  It is based on
 the Gaussian(R) 03 system (copyright 2003, Gaussian, Inc.),
 the Gaussian(R) 98 system (copyright 1998, Gaussian, Inc.),
 the Gaussian(R) 94 system (copyright 1995, Gaussian, Inc.),
 the Gaussian 92(TM) system (copyright 1992, Gaussian, Inc.),
 the Gaussian 90(TM) system (copyright 1990, Gaussian, Inc.),
 the Gaussian 88(TM) system (copyright 1988, Gaussian, Inc.),
 the Gaussian 86(TM) system (copyright 1986, Carnegie Mellon
 University), and the Gaussian 82(TM) system (copyright 1983,
 Carnegie Mellon University). Gaussian is a federally registered
 trademark of Gaussian, Inc.
  
 This software contains proprietary and confidential information,
 including trade secrets, belonging to Gaussian, Inc.
  
 This software is provided under written license and may be
 used, copied, transmitted, or stored only in accord with that
 written license.
  
 The following legend is applicable only to US Government
 contracts under FAR:
  
                    RESTRICTED RIGHTS LEGEND
  
 Use, reproduction and disclosure by the US Government is
 subject to restrictions as set forth in subparagraphs (a)
 and (c) of the Commercial Computer Software - Restricted
 Rights clause in FAR 52.227-19.
  
 Gaussian, Inc.
 340 Quinnipiac St., Bldg. 40, Wallingford CT 06492
  
  
 ---------------------------------------------------------------
 Warning -- This program may not be used in any manner that
 competes with the business of Gaussian, Inc. or will provide
 assistance to any competitor of Gaussian, Inc.  The licensee
 of this program is prohibited from giving any competitor of
 Gaussian, Inc. access to this program.  By using this program,
 the user acknowledges that Gaussian, Inc. is engaged in the
 business of creating and licensing software in the field of
 computational chemistry and represents and warrants to the
 licensee that it is not a competitor of Gaussian, Inc. and that
 it will not use this program in any manner prohibited above.
 ---------------------------------------------------------------
  

 Cite this work as:
 Gaussian 09, Revision E.01,
 M. J. Frisch, G. W. Trucks, H. B. Schlegel, G. E. Scuseria, 
 M. A. Robb, J. R. Cheeseman, G. Scalmani, V. Barone, B. Mennucci, 
 G. A. Petersson, H. Nakatsuji, M. Caricato, X. Li, H. P. Hratchian, 
 A. F. Izmaylov, J. Bloino, G. Zheng, J. L. Sonnenberg, M. Hada, 
 M. Ehara, K. Toyota, R. Fukuda, J. Hasegawa, M. Ishida, T. Nakajima, 
 Y. Honda, O. Kitao, H. Nakai, T. Vreven, J. A. Montgomery, Jr., 
 J. E. Peralta, F. Ogliaro, M. Bearpark, J. J. Heyd, E. Brothers, 
 K. N. Kudin, V. N. Staroverov, T. Keith, R. Kobayashi, J. Normand, 
 K. Raghavachari, A. Rendell, J. C. Burant, S. S. Iyengar, J. Tomasi, 
 M. Cossi, N. Rega, J. M. Millam, M. Klene, J. E. Knox, J. B. Cross, 
 V. Bakken, C. Adamo, J. Jaramillo, R. Gomperts, R. E. Stratmann, 
 O. Yazyev, A. J. Austin, R. Cammi, C. Pomelli, J. W. Ochterski, 
 R. L. Martin, K. Morokuma, V. G. Zakrzewski, G. A. Voth, 
 P. Salvador, J. J. Dannenberg, S. Dapprich, A. D. Daniels, 
 O. Farkas, J. B. Foresman, J. V. Ortiz, J. Cioslowski, 
 and D. J. Fox, Gaussian, Inc., Wallingford CT, 2013.
 
 ******************************************
 Gaussian 09:  EM64L-G09RevE.01 30-Nov-2015
                27-Aug-2021 
 ******************************************
 %nprocshared=64
 Will use up to   64 processors via shared memory.
 %mem=128GB
 %chk=H2O_LC-wPBE_PC2_OPT_FREQ.chk
 -----------------------
 #p opt freq LC-wPBE/gen
 -----------------------
 1/14=-1,18=20,19=15,26=3,38=1/1,3;
 2/9=110,12=2,17=6,18=5,40=1/2;
 3/5=7,11=2,16=1,25=1,30=1,71=1,74=-41/1,2,3;
 4//1;
 5/5=2,38=5/2;
 6/7=2,8=2,9=2,10=2,28=1/1;
 7//1,2,3,16;
 1/14=-1,18=20,19=15,26=3/3(2);
 2/9=110/2;
 99//99;
 2/9=110/2;
 3/5=7,6=1,11=2,16=1,25=1,30=1,71=1,74=-41,82=7/1,2,3;
 4/5=5,16=3,69=1/1;
 5/5=2,38=5/2;
 7//1,2,3,16;
 1/14=-1,18=20,19=15,26=3/3(-5);
 2/9=110/2;
 6/7=2,8=2,9=2,10=2,19=2,28=1/1;
 99/9=1/99;
 Leave Link    1 at Fri Aug 27 00:02:32 2021, MaxMem= 17179869184 cpu:         5.1
 (Enter /public3/home/sc51754/softwares/g09e01/l101.exe)
 ------------------------
 H2O_LC-wPBE_PC2_OPT_FREQ
 ------------------------
 Symbolic Z-matrix:
 Charge =  0 Multiplicity = 1
 O                     0.03922   0.79557   0. 
 H                     0.99922   0.79581   0. 
 H                    -0.28101   1.70059   0. 
 
 NAtoms=      3 NQM=        3 NQMF=       0 NMMI=      0 NMMIF=      0
                NMic=       0 NMicF=      0.
                    Isotopes and Nuclear Properties:
 (Nuclear quadrupole moments (NQMom) in fm**2, nuclear magnetic moments (NMagM)
  in nuclear magnetons)

  Atom         1           2           3
 IAtWgt=          16           1           1
 AtmWgt=  15.9949146   1.0078250   1.0078250
 NucSpn=           0           1           1
 AtZEff=   0.0000000   0.0000000   0.0000000
 NQMom=    0.0000000   0.0000000   0.0000000
 NMagM=    0.0000000   2.7928460   2.7928460
 AtZNuc=   8.0000000   1.0000000   1.0000000
 Leave Link  101 at Fri Aug 27 00:02:32 2021, MaxMem= 17179869184 cpu:        11.8
 (Enter /public3/home/sc51754/softwares/g09e01/l103.exe)

 GradGradGradGradGradGradGradGradGradGradGradGradGradGradGradGradGradGrad
 Berny optimization.
 Initialization pass.
                           ----------------------------
                           !    Initial Parameters    !
                           ! (Angstroms and Degrees)  !
 --------------------------                            --------------------------
 ! Name  Definition              Value          Derivative Info.                !
 --------------------------------------------------------------------------------
 ! R1    R(1,2)                  0.96           estimate D2E/DX2                !
 ! R2    R(1,3)                  0.96           estimate D2E/DX2                !
 ! A1    A(2,1,3)              109.4712         estimate D2E/DX2                !
 --------------------------------------------------------------------------------
 Trust Radius=3.00D-01 FncErr=1.00D-07 GrdErr=1.00D-06
 Number of steps in this run=     20 maximum allowed number of steps=    100.
 GradGradGradGradGradGradGradGradGradGradGradGradGradGradGradGradGradGrad

 Leave Link  103 at Fri Aug 27 00:02:32 2021, MaxMem= 17179869184 cpu:         0.1
 (Enter /public3/home/sc51754/softwares/g09e01/l202.exe)
                          Input orientation:                          
 ---------------------------------------------------------------------
 Center     Atomic      Atomic             Coordinates (Angstroms)
 Number     Number       Type             X           Y           Z
 ---------------------------------------------------------------------
      1          8           0        0.039217    0.795571    0.000000
      2          1           0        0.999217    0.795812    0.000000
      3          1           0       -0.281010    1.700587    0.000000
 ---------------------------------------------------------------------
                    Distance matrix (angstroms):
                    1          2          3
     1  O    0.000000
     2  H    0.960000   0.000000
     3  H    0.960000   1.567673   0.000000
 Stoichiometry    H2O
 Framework group  C2V[C2(O),SGV(H2)]
 Deg. of freedom     2
 Full point group                 C2V     NOp   4
 Largest Abelian subgroup         C2V     NOp   4
 Largest concise Abelian subgroup C2      NOp   2
                         Standard orientation:                         
 ---------------------------------------------------------------------
 Center     Atomic      Atomic             Coordinates (Angstroms)
 Number     Number       Type             X           Y           Z
 ---------------------------------------------------------------------
      1          8           0        0.000000   -0.000000    0.110851
      2          1           0       -0.000000   -0.783837   -0.443405
      3          1           0        0.000000    0.783837   -0.443405
 ---------------------------------------------------------------------
 Rotational constants (GHZ):    919.0227056    408.0852078    282.5991526
 Leave Link  202 at Fri Aug 27 00:02:32 2021, MaxMem= 17179869184 cpu:         7.1
 (Enter /public3/home/sc51754/softwares/g09e01/l301.exe)
 General basis read from cards:  (5D, 7F)
 Centers:       2      3
 S 4 1.00
     Exponent=  7.5423000000D+01 Coefficients=  2.4065000000D-03
     Exponent=  1.1350000000D+01 Coefficients=  1.8487000000D-02
     Exponent=  2.5993000000D+00 Coefficients=  8.9742000000D-02
     Exponent=  7.3513000000D-01 Coefficients=  2.8111000000D-01
 S 1 1.00
     Exponent=  2.3167000000D-01 Coefficients=  1.0000000000D+00
 S 1 1.00
     Exponent=  7.4147000000D-02 Coefficients=  1.0000000000D+00
 P 1 1.00
     Exponent=  1.6000000000D+00 Coefficients=  1.0000000000D+00
 P 1 1.00
     Exponent=  4.5000000000D-01 Coefficients=  1.0000000000D+00
 D 1 1.00
     Exponent=  1.2500000000D+00 Coefficients=  1.0000000000D+00
 ****
 Centers:       1
 S 7 1.00
     Exponent=  1.4782000000D+04 Coefficients=  5.3519000000D-04
     Exponent=  2.2173000000D+03 Coefficients=  4.1375000000D-03
     Exponent=  5.0474000000D+02 Coefficients=  2.1245000000D-02
     Exponent=  1.4287000000D+02 Coefficients=  8.2453000000D-02
     Exponent=  4.6300000000D+01 Coefficients=  2.3671000000D-01
     Exponent=  1.6337000000D+01 Coefficients=  4.4039000000D-01
     Exponent=  5.9828000000D+00 Coefficients=  3.6465000000D-01
 S 7 1.00
     Exponent=  2.2173000000D+03 Coefficients= -1.9275000000D-06
     Exponent=  5.0474000000D+02 Coefficients= -5.7964000000D-05
     Exponent=  1.4287000000D+02 Coefficients= -7.9494000000D-04
     Exponent=  4.6300000000D+01 Coefficients= -7.3125000000D-03
     Exponent=  1.6337000000D+01 Coefficients= -4.0574000000D-02
     Exponent=  5.9828000000D+00 Coefficients= -9.1594000000D-02
     Exponent=  1.6718000000D+00 Coefficients=  2.0940000000D-01
 S 1 1.00
     Exponent=  6.4662000000D-01 Coefficients=  1.0000000000D+00
 S 1 1.00
     Exponent=  2.1669000000D-01 Coefficients=  1.0000000000D+00
 P 4 1.00
     Exponent=  6.0424000000D+01 Coefficients=  6.8949000000D-03
     Exponent=  1.3935000000D+01 Coefficients=  4.9005000000D-02
     Exponent=  4.1531000000D+00 Coefficients=  1.8255000000D-01
     Exponent=  1.4158000000D+00 Coefficients=  3.7633000000D-01
 P 1 1.00
     Exponent=  4.7549000000D-01 Coefficients=  1.0000000000D+00
 P 1 1.00
     Exponent=  1.4529000000D-01 Coefficients=  1.0000000000D+00
 D 1 1.00
     Exponent=  2.2000000000D+00 Coefficients=  1.0000000000D+00
 D 1 1.00
     Exponent=  6.5000000000D-01 Coefficients=  1.0000000000D+00
 F 1 1.00
     Exponent=  1.1000000000D+00 Coefficients=  1.0000000000D+00
 ****
 Ernie: Thresh=  0.10000D-02 Tol=  0.10000D-05 Strict=F.
 Ernie:  1 primitive shells out of 43 were deleted.
 There are    27 symmetry adapted cartesian basis functions of A1  symmetry.
 There are     7 symmetry adapted cartesian basis functions of A2  symmetry.
 There are    12 symmetry adapted cartesian basis functions of B1  symmetry.
 There are    19 symmetry adapted cartesian basis functions of B2  symmetry.
 There are    23 symmetry adapted basis functions of A1  symmetry.
 There are     7 symmetry adapted basis functions of A2  symmetry.
 There are    11 symmetry adapted basis functions of B1  symmetry.
 There are    17 symmetry adapted basis functions of B2  symmetry.
    58 basis functions,    91 primitive gaussians,    65 cartesian basis functions
     5 alpha electrons        5 beta electrons
       nuclear repulsion energy         9.1571759018 Hartrees.
 IExCor=32609 DFT=T Ex+Corr=LC-wPBE ExCW=0 ScaHFX=  1.000000
 ScaDFX=  1.000000  0.000000  1.000000  1.000000 ScalE2=  1.000000  1.000000
 IRadAn=      0 IRanWt=     -1 IRanGd=            0 ICorTp=0 IEmpDi=  4
  HFx wShort=  0.000000 wLong=  0.400000 cFull=  0.000000 cShort=  0.000000 cLong=  1.000000
  DFx wShort=  0.000000 wLong=  0.400000 cFull=  0.000000 cShort=  0.000000 cLong=  1.000000
 NAtoms=    3 NActive=    3 NUniq=    2 SFac= 2.25D+00 NAtFMM=   60 NAOKFM=F Big=F
 Integral buffers will be    131072 words long.
 Raffenetti 2 integral format.
 Two-electron integral symmetry is turned on.
 Leave Link  301 at Fri Aug 27 00:02:33 2021, MaxMem= 17179869184 cpu:         2.7
 (Enter /public3/home/sc51754/softwares/g09e01/l302.exe)
 NPDir=0 NMtPBC=     1 NCelOv=     1 NCel=       1 NClECP=     1 NCelD=      1
         NCelK=      1 NCelE2=     1 NClLst=     1 CellRange=     0.0.
 One-electron integrals computed using PRISM.
 One-electron integral symmetry used in STVInt
 NBasis=    58 RedAO= T EigKep=  5.81D-03  NBF=    23     7    11    17
 NBsUse=    58 1.00D-06 EigRej= -1.00D+00 NBFU=    23     7    11    17
 Precomputing XC quadrature grid using
 IXCGrd= 4 IRadAn=           0 IRanWt=          -1 IRanGd=           0 AccXCQ= 0.00D+00.
 Generated NRdTot=       0 NPtTot=           0 NUsed=           0 NTot=          32
 NSgBfM=    65    65    65    65    65 MxSgAt=     3 MxSgA2=     3.
 Leave Link  302 at Fri Aug 27 00:02:33 2021, MaxMem= 17179869184 cpu:        45.0
 (Enter /public3/home/sc51754/softwares/g09e01/l303.exe)
 DipDrv:  MaxL=1.
 Leave Link  303 at Fri Aug 27 00:02:34 2021, MaxMem= 17179869184 cpu:        11.4
 (Enter /public3/home/sc51754/softwares/g09e01/l401.exe)
 ExpMin= 7.41D-02 ExpMax= 1.48D+04 ExpMxC= 5.05D+02 IAcc=2 IRadAn=         4 AccDes= 0.00D+00
 Harris functional with IExCor=32609 and IRadAn=       4 diagonalized for initial guess.
 HarFok:  IExCor=32609 AccDes= 0.00D+00 IRadAn=         4 IDoV= 1 UseB2=F ITyADJ=14
 ICtDFT=  3500011 ScaDFX=  1.000000  1.000000  1.000000  1.000000
 FoFCou: FMM=F IPFlag=           0 FMFlag=      100000 FMFlg1=           0
         NFxFlg=           0 DoJE=T BraDBF=F KetDBF=T FulRan=T
         wScrn=  0.000000 ICntrl=     500 IOpCl=  0 I1Cent=   200000004 NGrid=           0
         NMat0=    1 NMatS0=      1 NMatT0=    0 NMatD0=    1 NMtDS0=    0 NMtDT0=    0
 Petite list used in FoFCou.
 Harris En= -76.4387908809494    
 JPrj=0 DoOrth=F DoCkMO=F.
 Initial guess orbital symmetries:
       Occupied  (A1) (A1) (B2) (A1) (B1)
       Virtual   (A1) (B2) (B2) (A1) (A1) (B1) (B2) (A1) (A2) (A1)
                 (B1) (B2) (B2) (A1) (A1) (B2) (B1) (A1) (A2) (B2)
                 (A1) (B1) (A1) (B2) (B1) (A1) (A2) (B2) (B1) (B2)
                 (A2) (A1) (A1) (B2) (B1) (A2) (A1) (B2) (B2) (A1)
                 (B1) (A1) (B1) (B2) (A2) (B1) (A1) (A1) (A2) (A1)
                 (B2) (B2) (A1)
 The electronic state of the initial guess is 1-A1.
 Leave Link  401 at Fri Aug 27 00:02:35 2021, MaxMem= 17179869184 cpu:        37.1
 (Enter /public3/home/sc51754/softwares/g09e01/l502.exe)
 Closed shell SCF:
 Using DIIS extrapolation, IDIIS=  1040.
 Integral symmetry usage will be decided dynamically.
 Keep R1 ints in memory in symmetry-blocked form, NReq=4932517.
 IVT=       35997 IEndB=       35997 NGot= 17179869184 MDV= 17179451308
 LenX= 17179451308 LenY= 17179446642
 Requested convergence on RMS density matrix=1.00D-08 within 128 cycles.
 Requested convergence on MAX density matrix=1.00D-06.
 Requested convergence on             energy=1.00D-06.
 No special actions if energy rises.
 FoFCou: FMM=F IPFlag=           0 FMFlag=           0 FMFlg1=           0
         NFxFlg=           0 DoJE=F BraDBF=F KetDBF=F FulRan=T
         wScrn=  0.000000 ICntrl=     600 IOpCl=  0 I1Cent=           0 NGrid=           0
         NMat0=    1 NMatS0=   1711 NMatT0=    0 NMatD0=    1 NMtDS0=    0 NMtDT0=    0
 Petite list used in FoFCou.
 Integral accuracy reduced to 1.0D-05 until final iterations.

 Cycle   1  Pass 0  IDiag  1:
 E= -76.3501281653767    
 DIIS: error= 6.51D-02 at cycle   1 NSaved=   1.
 NSaved= 1 IEnMin= 1 EnMin= -76.3501281653767     IErMin= 1 ErrMin= 6.51D-02
 ErrMax= 6.51D-02  0.00D+00 EMaxC= 1.00D-01 BMatC= 1.09D-01 BMatP= 1.09D-01
 IDIUse=3 WtCom= 3.49D-01 WtEn= 6.51D-01
 Coeff-Com:  0.100D+01
 Coeff-En:   0.100D+01
 Coeff:      0.100D+01
 Gap=     0.385 Goal=   None    Shift=    0.000
 GapD=    0.385 DampG=1.000 DampE=0.500 DampFc=0.5000 IDamp=-1.
 Damping current iteration by 5.00D-01
 RMSDP=5.03D-03 MaxDP=1.02D-01              OVMax= 1.44D-01

 Cycle   2  Pass 0  IDiag  1:
 E= -76.3864941822065     Delta-E=       -0.036366016830 Rises=F Damp=T
 DIIS: error= 4.31D-03 at cycle   2 NSaved=   2.
 NSaved= 2 IEnMin= 2 EnMin= -76.3864941822065     IErMin= 2 ErrMin= 4.31D-03
 ErrMax= 4.31D-03  0.00D+00 EMaxC= 1.00D-01 BMatC= 1.03D-03 BMatP= 1.09D-01
 IDIUse=3 WtCom= 9.57D-01 WtEn= 4.31D-02
 Coeff-Com:  0.459D-01 0.954D+00
 Coeff-En:   0.411D-01 0.959D+00
 Coeff:      0.457D-01 0.954D+00
 Gap=     0.522 Goal=   None    Shift=    0.000
 RMSDP=4.54D-04 MaxDP=6.35D-03 DE=-3.64D-02 OVMax= 7.28D-02

 Cycle   3  Pass 0  IDiag  1:
 E= -76.4260897428255     Delta-E=       -0.039595560619 Rises=F Damp=F
 DIIS: error= 1.01D-03 at cycle   3 NSaved=   3.
 NSaved= 3 IEnMin= 3 EnMin= -76.4260897428255     IErMin= 3 ErrMin= 1.01D-03
 ErrMax= 1.01D-03  0.00D+00 EMaxC= 1.00D-01 BMatC= 4.11D-05 BMatP= 1.03D-03
 IDIUse=3 WtCom= 9.90D-01 WtEn= 1.01D-02
 Coeff-Com:  0.136D-01-0.545D-01 0.104D+01
 Coeff-En:   0.000D+00 0.000D+00 0.100D+01
 Coeff:      0.134D-01-0.539D-01 0.104D+01
 Gap=     0.531 Goal=   None    Shift=    0.000
 RMSDP=6.48D-05 MaxDP=1.12D-03 DE=-3.96D-02 OVMax= 1.52D-03

 Cycle   4  Pass 0  IDiag  1:
 E= -76.4261170137064     Delta-E=       -0.000027270881 Rises=F Damp=F
 DIIS: error= 2.69D-04 at cycle   4 NSaved=   4.
 NSaved= 4 IEnMin= 4 EnMin= -76.4261170137064     IErMin= 4 ErrMin= 2.69D-04
 ErrMax= 2.69D-04  0.00D+00 EMaxC= 1.00D-01 BMatC= 2.16D-06 BMatP= 4.11D-05
 IDIUse=3 WtCom= 9.97D-01 WtEn= 2.69D-03
 Coeff-Com:  0.351D-02-0.284D-01 0.147D+00 0.877D+00
 Coeff-En:   0.000D+00 0.000D+00 0.000D+00 0.100D+01
 Coeff:      0.350D-02-0.283D-01 0.147D+00 0.878D+00
 Gap=     0.532 Goal=   None    Shift=    0.000
 RMSDP=1.43D-05 MaxDP=2.63D-04 DE=-2.73D-05 OVMax= 3.25D-04

 Cycle   5  Pass 0  IDiag  1:
 E= -76.4261183498353     Delta-E=       -0.000001336129 Rises=F Damp=F
 DIIS: error= 3.93D-05 at cycle   5 NSaved=   5.
 NSaved= 5 IEnMin= 5 EnMin= -76.4261183498353     IErMin= 5 ErrMin= 3.93D-05
 ErrMax= 3.93D-05  0.00D+00 EMaxC= 1.00D-01 BMatC= 3.17D-08 BMatP= 2.16D-06
 IDIUse=1 WtCom= 1.00D+00 WtEn= 0.00D+00
 Coeff-Com: -0.290D-03 0.341D-02-0.282D-01-0.126D+00 0.115D+01
 Coeff:     -0.290D-03 0.341D-02-0.282D-01-0.126D+00 0.115D+01
 Gap=     0.532 Goal=   None    Shift=    0.000
 RMSDP=4.99D-06 MaxDP=6.17D-05 DE=-1.34D-06 OVMax= 1.65D-04

 Initial convergence to 1.0D-05 achieved.  Increase integral accuracy.
 Cycle   6  Pass 1  IDiag  1:
 E= -76.4261101694402     Delta-E=        0.000008180395 Rises=F Damp=F
 DIIS: error= 1.22D-05 at cycle   1 NSaved=   1.
 NSaved= 1 IEnMin= 1 EnMin= -76.4261101694402     IErMin= 1 ErrMin= 1.22D-05
 ErrMax= 1.22D-05  0.00D+00 EMaxC= 1.00D-01 BMatC= 5.28D-09 BMatP= 5.28D-09
 IDIUse=1 WtCom= 1.00D+00 WtEn= 0.00D+00
 Coeff-Com:  0.100D+01
 Coeff:      0.100D+01
 Gap=     0.532 Goal=   None    Shift=    0.000
 RMSDP=4.99D-06 MaxDP=6.17D-05 DE= 8.18D-06 OVMax= 4.73D-05

 Cycle   7  Pass 1  IDiag  1:
 E= -76.4261101740261     Delta-E=       -0.000000004586 Rises=F Damp=F
 DIIS: error= 8.31D-06 at cycle   2 NSaved=   2.
 NSaved= 2 IEnMin= 2 EnMin= -76.4261101740261     IErMin= 2 ErrMin= 8.31D-06
 ErrMax= 8.31D-06  0.00D+00 EMaxC= 1.00D-01 BMatC= 1.52D-09 BMatP= 5.28D-09
 IDIUse=1 WtCom= 1.00D+00 WtEn= 0.00D+00
 Coeff-Com:  0.266D+00 0.734D+00
 Coeff:      0.266D+00 0.734D+00
 Gap=     0.532 Goal=   None    Shift=    0.000
 RMSDP=4.65D-07 MaxDP=1.04D-05 DE=-4.59D-09 OVMax= 1.34D-05

 Cycle   8  Pass 1  IDiag  1:
 E= -76.4261101750906     Delta-E=       -0.000000001064 Rises=F Damp=F
 DIIS: error= 3.72D-06 at cycle   3 NSaved=   3.
 NSaved= 3 IEnMin= 3 EnMin= -76.4261101750906     IErMin= 3 ErrMin= 3.72D-06
 ErrMax= 3.72D-06  0.00D+00 EMaxC= 1.00D-01 BMatC= 3.58D-10 BMatP= 1.52D-09
 IDIUse=1 WtCom= 1.00D+00 WtEn= 0.00D+00
 Coeff-Com: -0.881D-01 0.290D+00 0.798D+00
 Coeff:     -0.881D-01 0.290D+00 0.798D+00
 Gap=     0.532 Goal=   None    Shift=    0.000
 RMSDP=2.76D-07 MaxDP=5.04D-06 DE=-1.06D-09 OVMax= 1.16D-05

 Cycle   9  Pass 1  IDiag  1:
 E= -76.4261101754665     Delta-E=       -0.000000000376 Rises=F Damp=F
 DIIS: error= 7.75D-07 at cycle   4 NSaved=   4.
 NSaved= 4 IEnMin= 4 EnMin= -76.4261101754665     IErMin= 4 ErrMin= 7.75D-07
 ErrMax= 7.75D-07  0.00D+00 EMaxC= 1.00D-01 BMatC= 7.10D-12 BMatP= 3.58D-10
 IDIUse=1 WtCom= 1.00D+00 WtEn= 0.00D+00
 Coeff-Com:  0.177D-01-0.161D+00-0.288D+00 0.143D+01
 Coeff:      0.177D-01-0.161D+00-0.288D+00 0.143D+01
 Gap=     0.532 Goal=   None    Shift=    0.000
 RMSDP=1.37D-07 MaxDP=2.25D-06 DE=-3.76D-10 OVMax= 5.59D-06

 Cycle  10  Pass 1  IDiag  1:
 E= -76.4261101754945     Delta-E=       -0.000000000028 Rises=F Damp=F
 DIIS: error= 3.45D-08 at cycle   5 NSaved=   5.
 NSaved= 5 IEnMin= 5 EnMin= -76.4261101754945     IErMin= 5 ErrMin= 3.45D-08
 ErrMax= 3.45D-08  0.00D+00 EMaxC= 1.00D-01 BMatC= 2.80D-14 BMatP= 7.10D-12
 IDIUse=1 WtCom= 1.00D+00 WtEn= 0.00D+00
 Coeff-Com:  0.101D-02-0.252D-02-0.546D-02-0.840D-02 0.102D+01
 Coeff:      0.101D-02-0.252D-02-0.546D-02-0.840D-02 0.102D+01
 Gap=     0.532 Goal=   None    Shift=    0.000
 RMSDP=4.98D-09 MaxDP=5.90D-08 DE=-2.81D-11 OVMax= 1.95D-07

 SCF Done:  E(RLC-wPBE) =  -76.4261101755     A.U. after   10 cycles
            NFock= 10  Conv=0.50D-08     -V/T= 2.0037
 KE= 7.614259589466D+01 PE=-1.991891811541D+02 EE= 3.746329918206D+01
 Leave Link  502 at Fri Aug 27 00:02:35 2021, MaxMem= 17179869184 cpu:        47.9
 (Enter /public3/home/sc51754/softwares/g09e01/l601.exe)
 Copying SCF densities to generalized density rwf, IOpCl= 0 IROHF=0.

 **********************************************************************

            Population analysis using the SCF density.

 **********************************************************************

 Orbital symmetries:
       Occupied  (A1) (A1) (B2) (A1) (B1)
       Virtual   (A1) (B2) (A1) (B2) (A1) (B1) (B2) (A1) (A2) (A1)
                 (B1) (B2) (B2) (A1) (A1) (B2) (B1) (A1) (A2) (B2)
                 (A1) (B1) (A1) (B2) (B1) (A1) (A2) (B2) (B1) (B2)
                 (A1) (A2) (A1) (B2) (B1) (A2) (A1) (B2) (B2) (A1)
                 (B1) (A1) (B1) (B2) (A1) (A2) (B1) (A2) (A1) (A1)
                 (B2) (B2) (A1)
 The electronic state is 1-A1.
 Alpha  occ. eigenvalues --  -18.96409  -1.14160  -0.66817  -0.50691  -0.44035
 Alpha virt. eigenvalues --    0.09179   0.13615   0.37968   0.38823   0.44132
 Alpha virt. eigenvalues --    0.44989   0.55035   0.80272   0.87155   0.91564
 Alpha virt. eigenvalues --    1.00459   1.15702   1.27793   1.31288   1.55282
 Alpha virt. eigenvalues --    1.59501   1.85887   1.95649   1.95817   2.18352
 Alpha virt. eigenvalues --    2.21168   2.37771   2.98518   3.47821   3.50659
 Alpha virt. eigenvalues --    3.64655   3.65631   3.83606   3.90118   3.91422
 Alpha virt. eigenvalues --    4.14884   4.15168   4.36261   4.50801   4.57925
 Alpha virt. eigenvalues --    4.61702   4.74588   4.92214   4.94266   4.99082
 Alpha virt. eigenvalues --    5.06896   5.73640   6.05208   6.18456   6.25809
 Alpha virt. eigenvalues --    6.26307   6.30032   6.40116   6.41391   6.98446
 Alpha virt. eigenvalues --    6.99474   7.44322  15.22694
          Condensed to atoms (all electrons):
               1          2          3
     1  O    7.695660   0.370201   0.370201
     2  H    0.370201   0.439034  -0.027266
     3  H    0.370201  -0.027266   0.439034
 Mulliken charges:
               1
     1  O   -0.436062
     2  H    0.218031
     3  H    0.218031
 Sum of Mulliken charges =  -0.00000
 Mulliken charges with hydrogens summed into heavy atoms:
               1
     1  O   -0.000000
 Electronic spatial extent (au):  <R**2>=             19.7190
 Charge=             -0.0000 electrons
 Dipole moment (field-independent basis, Debye):
    X=              0.0000    Y=             -0.0000    Z=             -1.9707  Tot=              1.9707
 Quadrupole moment (field-independent basis, Debye-Ang):
   XX=             -7.6238   YY=             -4.1475   ZZ=             -6.4884
   XY=              0.0000   XZ=             -0.0000   YZ=              0.0000
 Traceless Quadrupole moment (field-independent basis, Debye-Ang):
   XX=             -1.5372   YY=              1.9391   ZZ=             -0.4018
   XY=              0.0000   XZ=             -0.0000   YZ=              0.0000
 Octapole moment (field-independent basis, Debye-Ang**2):
  XXX=             -0.0000  YYY=             -0.0000  ZZZ=             -1.2770  XYY=              0.0000
  XXY=              0.0000  XXZ=             -0.3478  XZZ=             -0.0000  YZZ=             -0.0000
  YYZ=             -1.3990  XYZ=             -0.0000
 Hexadecapole moment (field-independent basis, Debye-Ang**3):
 XXXX=             -6.8739 YYYY=             -6.0578 ZZZZ=             -7.3911 XXXY=             -0.0000
 XXXZ=              0.0000 YYYX=             -0.0000 YYYZ=              0.0000 ZZZX=              0.0000
 ZZZY=              0.0000 XXYY=             -2.5150 XXZZ=             -2.4213 YYZZ=             -1.9766
 XXYZ=             -0.0000 YYXZ=             -0.0000 ZZXY=             -0.0000
 N-N= 9.157175901845D+00 E-N=-1.991891812224D+02  KE= 7.614259589466D+01
 Symmetry A1   KE= 6.789820401915D+01
 Symmetry A2   KE=-1.249227114064D-19
 Symmetry B1   KE= 4.555681780719D+00
 Symmetry B2   KE= 3.688710094793D+00
 No NMR shielding tensors so no spin-rotation constants.
 Leave Link  601 at Fri Aug 27 00:02:37 2021, MaxMem= 17179869184 cpu:        74.0
 (Enter /public3/home/sc51754/softwares/g09e01/l701.exe)
 Compute integral first derivatives.
 ... and contract with generalized density number  0.
 Leave Link  701 at Fri Aug 27 00:02:38 2021, MaxMem= 17179869184 cpu:        56.9
 (Enter /public3/home/sc51754/softwares/g09e01/l702.exe)
 L702 exits ... SP integral derivatives will be done elsewhere.
 Leave Link  702 at Fri Aug 27 00:02:38 2021, MaxMem= 17179869184 cpu:         0.3
 (Enter /public3/home/sc51754/softwares/g09e01/l703.exe)
 Compute integral first derivatives, UseDBF=F ICtDFT=           0.
 Integral derivatives from FoFJK, PRISM(SPDF).
 Calling FoFJK, ICntrl=      2127 FMM=F ISym2X=1 I1Cent= 0 IOpClX= 0 NMat=1 NMatS=1 NMatT=0.
 FoFJK:  IHMeth= 1 ICntrl=    2127 DoSepK=T KAlg= 0 I1Cent=   0 FoldK=F
 IRaf=         1 NMat=   1 IRICut=       1 DoRegI=T DoRafI=F ISym2E= 1.
 FoFCou: FMM=F IPFlag=           0 FMFlag=      100000 FMFlg1=         800
         NFxFlg=           0 DoJE=F BraDBF=F KetDBF=F FulRan=T
         wScrn=  0.000000 ICntrl=    2527 IOpCl=  0 I1Cent=           0 NGrid=           0
         NMat0=    1 NMatS0=      1 NMatT0=    0 NMatD0=    1 NMtDS0=    0 NMtDT0=    0
 Petite list used in FoFCou.
 Leave Link  703 at Fri Aug 27 00:02:39 2021, MaxMem= 17179869184 cpu:        61.8
 (Enter /public3/home/sc51754/softwares/g09e01/l716.exe)
 Dipole        = 3.93304776D-17-4.44089210D-16-7.75328082D-01
 ***** Axes restored to original set *****
 -------------------------------------------------------------------
 Center     Atomic                   Forces (Hartrees/Bohr)
 Number     Number              X              Y              Z
 -------------------------------------------------------------------
      1        8          -0.002469218   -0.003493863    0.000000000
      2        1          -0.004241369    0.005616970   -0.000000000
      3        1           0.006710587   -0.002123107   -0.000000000
 -------------------------------------------------------------------
 Cartesian Forces:  Max     0.006710587 RMS     0.003611452
 Leave Link  716 at Fri Aug 27 00:02:39 2021, MaxMem= 17179869184 cpu:         1.5
 (Enter /public3/home/sc51754/softwares/g09e01/l103.exe)

 GradGradGradGradGradGradGradGradGradGradGradGradGradGradGradGradGradGrad
 Berny optimization.
 FormGI is forming the generalized inverse of G from B-inverse, IUseBI=4.
 Internal  Forces:  Max     0.010191886 RMS     0.006827128
 Search for a local minimum.
 Step number   1 out of a maximum of   20
 All quantities printed in internal units (Hartrees-Bohrs-Radians)
 RMS Force = .68271D-02 SwitMx=.10000D-02 MixMth= 1
 Mixed Optimization -- RFO/linear search
 Second derivative matrix not updated -- first step.
 The second derivative matrix:
                          R1        R2        A1
           R1           0.55473
           R2           0.00000   0.55473
           A1           0.00000   0.00000   0.16000
 ITU=  0
     Eigenvalues ---    0.16000   0.55473   0.55473
 RFO step:  Lambda=-7.11074371D-04 EMin= 1.60000000D-01
 Linear search not attempted -- first point.
 Iteration  1 RMS(Cart)=  0.03791325 RMS(Int)=  0.00075980
 Iteration  2 RMS(Cart)=  0.00060874 RMS(Int)=  0.00000006
 Iteration  3 RMS(Cart)=  0.00000006 RMS(Int)=  0.00000000
 ITry= 1 IFail=0 DXMaxC= 4.07D-02 DCOld= 1.00D+10 DXMaxT= 3.00D-01 DXLimC= 3.00D+00 Rises=F
 ClnCor:  largest displacement from symmetrization is 9.94D-15 for atom     3.
 Variable       Old X    -DE/DX   Delta X   Delta X   Delta X     New X
                                 (Linear)    (Quad)   (Total)
    R1        1.81414  -0.00424   0.00000  -0.00763  -0.00763   1.80650
    R2        1.81414  -0.00424   0.00000  -0.00763  -0.00763   1.80650
    A1        1.91063  -0.01019   0.00000  -0.06342  -0.06342   1.84722
         Item               Value     Threshold  Converged?
 Maximum Force            0.010192     0.000450     NO 
 RMS     Force            0.006827     0.000300     NO 
 Maximum Displacement     0.040746     0.001800     NO 
 RMS     Displacement     0.038179     0.001200     NO 
 Predicted change in Energy=-3.570085D-04
 Lowest energy point so far.  Saving SCF results.
 GradGradGradGradGradGradGradGradGradGradGradGradGradGradGradGradGradGrad

 Leave Link  103 at Fri Aug 27 00:02:40 2021, MaxMem= 17179869184 cpu:        23.8
 (Enter /public3/home/sc51754/softwares/g09e01/l202.exe)
                          Input orientation:                          
 ---------------------------------------------------------------------
 Center     Atomic      Atomic             Coordinates (Angstroms)
 Number     Number       Type             X           Y           Z
 ---------------------------------------------------------------------
      1          8           0        0.030700    0.783519    0.000000
      2          1           0        0.986172    0.814066   -0.000000
      3          1           0       -0.259448    1.694384    0.000000
 ---------------------------------------------------------------------
                    Distance matrix (angstroms):
                    1          2          3
     1  O    0.000000
     2  H    0.955961   0.000000
     3  H    0.955961   1.525297   0.000000
 Stoichiometry    H2O
 Framework group  C2V[C2(O),SGV(H2)]
 Deg. of freedom     2
 Full point group                 C2V     NOp   4
 RotChk:  IX=3 Diff= 2.91D-16
 Largest Abelian subgroup         C2V     NOp   4
 Largest concise Abelian subgroup C2      NOp   2
                         Standard orientation:                         
 ---------------------------------------------------------------------
 Center     Atomic      Atomic             Coordinates (Angstroms)
 Number     Number       Type             X           Y           Z
 ---------------------------------------------------------------------
      1          8           0        0.000000    0.000000    0.115278
      2          1           0        0.000000   -0.762648   -0.461114
      3          1           0        0.000000    0.762648   -0.461114
 ---------------------------------------------------------------------
 Rotational constants (GHZ):    849.7887880    431.0756171    285.9968820
 Leave Link  202 at Fri Aug 27 00:02:40 2021, MaxMem= 17179869184 cpu:         8.5
 (Enter /public3/home/sc51754/softwares/g09e01/l301.exe)
 Basis read from rwf:  (5D, 7F)
 No pseudopotential information found on rwf file.
 There are    27 symmetry adapted cartesian basis functions of A1  symmetry.
 There are     7 symmetry adapted cartesian basis functions of A2  symmetry.
 There are    12 symmetry adapted cartesian basis functions of B1  symmetry.
 There are    19 symmetry adapted cartesian basis functions of B2  symmetry.
 There are    23 symmetry adapted basis functions of A1  symmetry.
 There are     7 symmetry adapted basis functions of A2  symmetry.
 There are    11 symmetry adapted basis functions of B1  symmetry.
 There are    17 symmetry adapted basis functions of B2  symmetry.
    58 basis functions,    91 primitive gaussians,    65 cartesian basis functions
     5 alpha electrons        5 beta electrons
       nuclear repulsion energy         9.2038217125 Hartrees.
 IExCor=32609 DFT=T Ex+Corr=LC-wPBE ExCW=0 ScaHFX=  1.000000
 ScaDFX=  1.000000  0.000000  1.000000  1.000000 ScalE2=  1.000000  1.000000
 IRadAn=      0 IRanWt=     -1 IRanGd=            0 ICorTp=0 IEmpDi=  4
  HFx wShort=  0.000000 wLong=  0.400000 cFull=  0.000000 cShort=  0.000000 cLong=  1.000000
  DFx wShort=  0.000000 wLong=  0.400000 cFull=  0.000000 cShort=  0.000000 cLong=  1.000000
 NAtoms=    3 NActive=    3 NUniq=    2 SFac= 2.25D+00 NAtFMM=   60 NAOKFM=F Big=F
 Integral buffers will be    131072 words long.
 Raffenetti 2 integral format.
 Two-electron integral symmetry is turned on.
 No density basis found on file   724.
 Leave Link  301 at Fri Aug 27 00:02:41 2021, MaxMem= 17179869184 cpu:         1.1
 (Enter /public3/home/sc51754/softwares/g09e01/l302.exe)
 NPDir=0 NMtPBC=     1 NCelOv=     1 NCel=       1 NClECP=     1 NCelD=      1
         NCelK=      1 NCelE2=     1 NClLst=     1 CellRange=     0.0.
 One-electron integrals computed using PRISM.
 One-electron integral symmetry used in STVInt
 NBasis=    58 RedAO= T EigKep=  5.75D-03  NBF=    23     7    11    17
 NBsUse=    58 1.00D-06 EigRej= -1.00D+00 NBFU=    23     7    11    17
 Precomputing XC quadrature grid using
 IXCGrd= 4 IRadAn=           0 IRanWt=          -1 IRanGd=           0 AccXCQ= 0.00D+00.
 Generated NRdTot=       0 NPtTot=           0 NUsed=           0 NTot=          32
 NSgBfM=    65    65    65    65    65 MxSgAt=     3 MxSgA2=     3.
 Leave Link  302 at Fri Aug 27 00:02:41 2021, MaxMem= 17179869184 cpu:        44.0
 (Enter /public3/home/sc51754/softwares/g09e01/l303.exe)
 DipDrv:  MaxL=1.
 Leave Link  303 at Fri Aug 27 00:02:42 2021, MaxMem= 17179869184 cpu:        13.4
 (Enter /public3/home/sc51754/softwares/g09e01/l401.exe)
 Initial guess from the checkpoint file:  "H2O_LC-wPBE_PC2_OPT_FREQ.chk"
 B after Tr=    -0.000000    0.000000    0.000000
         Rot=    1.000000   -0.000000   -0.000000   -0.000000 Ang=   0.00 deg.
 Guess basis will be translated and rotated to current coordinates.
 JPrj=2 DoOrth=T DoCkMO=T.
 Initial guess orbital symmetries:
       Occupied  (A1) (A1) (B2) (A1) (B1)
       Virtual   (A1) (A1) (A1) (A1) (A1) (A1) (A1) (A1) (A1) (A1)
                 (A1) (A1) (A1) (A1) (A1) (A1) (A1) (A1) (A1) (A1)
                 (A2) (A2) (A2) (A2) (A2) (A2) (A2) (B1) (B1) (B1)
                 (B1) (B1) (B1) (B1) (B1) (B1) (B1) (B2) (B2) (B2)
                 (B2) (B2) (B2) (B2) (B2) (B2) (B2) (B2) (B2) (B2)
                 (B2) (B2) (B2)
 The electronic state of the initial guess is 1-A1.
 Generating alternative initial guess.
 ExpMin= 7.41D-02 ExpMax= 1.48D+04 ExpMxC= 5.05D+02 IAcc=2 IRadAn=         4 AccDes= 0.00D+00
 Harris functional with IExCor=32609 and IRadAn=       4 diagonalized for initial guess.
 HarFok:  IExCor=32609 AccDes= 0.00D+00 IRadAn=         4 IDoV= 1 UseB2=F ITyADJ=14
 ICtDFT=  3500011 ScaDFX=  1.000000  1.000000  1.000000  1.000000
 FoFCou: FMM=F IPFlag=           0 FMFlag=      100000 FMFlg1=           0
         NFxFlg=           0 DoJE=T BraDBF=F KetDBF=T FulRan=T
         wScrn=  0.000000 ICntrl=     500 IOpCl=  0 I1Cent=   200000004 NGrid=           0
         NMat0=    1 NMatS0=      1 NMatT0=    0 NMatD0=    1 NMtDS0=    0 NMtDT0=    0
 Petite list used in FoFCou.
 Harris En= -76.4390796075066    
 Leave Link  401 at Fri Aug 27 00:02:43 2021, MaxMem= 17179869184 cpu:        55.4
 (Enter /public3/home/sc51754/softwares/g09e01/l502.exe)
 Closed shell SCF:
 Using DIIS extrapolation, IDIIS=  1040.
 Integral symmetry usage will be decided dynamically.
 Keep R1 ints in memory in symmetry-blocked form, NReq=4932517.
 IVT=       35997 IEndB=       35997 NGot= 17179869184 MDV= 17179451308
 LenX= 17179451308 LenY= 17179446642
 Requested convergence on RMS density matrix=1.00D-08 within 128 cycles.
 Requested convergence on MAX density matrix=1.00D-06.
 Requested convergence on             energy=1.00D-06.
 No special actions if energy rises.
 FoFCou: FMM=F IPFlag=           0 FMFlag=           0 FMFlg1=           0
         NFxFlg=           0 DoJE=F BraDBF=F KetDBF=F FulRan=T
         wScrn=  0.000000 ICntrl=     600 IOpCl=  0 I1Cent=           0 NGrid=           0
         NMat0=    1 NMatS0=   1711 NMatT0=    0 NMatD0=    1 NMtDS0=    0 NMtDT0=    0
 Petite list used in FoFCou.
 Integral accuracy reduced to 1.0D-05 until final iterations.

 Cycle   1  Pass 0  IDiag  1:
 E= -76.4263154177528    
 DIIS: error= 1.98D-03 at cycle   1 NSaved=   1.
 NSaved= 1 IEnMin= 1 EnMin= -76.4263154177528     IErMin= 1 ErrMin= 1.98D-03
 ErrMax= 1.98D-03  0.00D+00 EMaxC= 1.00D-01 BMatC= 1.96D-04 BMatP= 1.96D-04
 IDIUse=3 WtCom= 9.80D-01 WtEn= 1.98D-02
 Coeff-Com:  0.100D+01
 Coeff-En:   0.100D+01
 Coeff:      0.100D+01
 Gap=     1.405 Goal=   None    Shift=    0.000
 GapD=    1.405 DampG=2.000 DampE=1.000 DampFc=2.0000 IDamp=-1.
 RMSDP=2.33D-04 MaxDP=3.11D-03              OVMax= 4.74D-03

 Cycle   2  Pass 0  IDiag  1:
 E= -76.4264694014263     Delta-E=       -0.000153983673 Rises=F Damp=F
 DIIS: error= 3.23D-04 at cycle   2 NSaved=   2.
 NSaved= 2 IEnMin= 2 EnMin= -76.4264694014263     IErMin= 2 ErrMin= 3.23D-04
 ErrMax= 3.23D-04  0.00D+00 EMaxC= 1.00D-01 BMatC= 4.17D-06 BMatP= 1.96D-04
 IDIUse=3 WtCom= 9.97D-01 WtEn= 3.23D-03
 Coeff-Com: -0.865D-01 0.109D+01
 Coeff-En:   0.000D+00 0.100D+01
 Coeff:     -0.862D-01 0.109D+01
 Gap=     0.533 Goal=   None    Shift=    0.000
 RMSDP=6.22D-05 MaxDP=1.02D-03 DE=-1.54D-04 OVMax= 1.25D-03

 Cycle   3  Pass 0  IDiag  1:
 E= -76.4264748924713     Delta-E=       -0.000005491045 Rises=F Damp=F
 DIIS: error= 2.19D-04 at cycle   3 NSaved=   3.
 NSaved= 3 IEnMin= 3 EnMin= -76.4264748924713     IErMin= 3 ErrMin= 2.19D-04
 ErrMax= 2.19D-04  0.00D+00 EMaxC= 1.00D-01 BMatC= 1.32D-06 BMatP= 4.17D-06
 IDIUse=3 WtCom= 9.98D-01 WtEn= 2.19D-03
 Coeff-Com: -0.442D-01 0.400D+00 0.644D+00
 Coeff-En:   0.000D+00 0.000D+00 0.100D+01
 Coeff:     -0.441D-01 0.399D+00 0.645D+00
 Gap=     0.533 Goal=   None    Shift=    0.000
 RMSDP=1.44D-05 MaxDP=2.37D-04 DE=-5.49D-06 OVMax= 3.40D-04

 Cycle   4  Pass 0  IDiag  1:
 E= -76.4264757598184     Delta-E=       -0.000000867347 Rises=F Damp=F
 DIIS: error= 6.86D-05 at cycle   4 NSaved=   4.
 NSaved= 4 IEnMin= 4 EnMin= -76.4264757598184     IErMin= 4 ErrMin= 6.86D-05
 ErrMax= 6.86D-05  0.00D+00 EMaxC= 1.00D-01 BMatC= 1.27D-07 BMatP= 1.32D-06
 IDIUse=1 WtCom= 1.00D+00 WtEn= 0.00D+00
 Coeff-Com:  0.565D-02-0.113D+00 0.165D+00 0.942D+00
 Coeff:      0.565D-02-0.113D+00 0.165D+00 0.942D+00
 Gap=     0.533 Goal=   None    Shift=    0.000
 RMSDP=1.10D-05 MaxDP=1.95D-04 DE=-8.67D-07 OVMax= 1.73D-04

 Cycle   5  Pass 0  IDiag  1:
 E= -76.4264758851420     Delta-E=       -0.000000125324 Rises=F Damp=F
 DIIS: error= 6.49D-06 at cycle   5 NSaved=   5.
 NSaved= 5 IEnMin= 5 EnMin= -76.4264758851420     IErMin= 5 ErrMin= 6.49D-06
 ErrMax= 6.49D-06  0.00D+00 EMaxC= 1.00D-01 BMatC= 9.75D-10 BMatP= 1.27D-07
 IDIUse=1 WtCom= 1.00D+00 WtEn= 0.00D+00
 Coeff-Com:  0.135D-02-0.131D-01-0.171D-01 0.293D-01 0.100D+01
 Coeff:      0.135D-02-0.131D-01-0.171D-01 0.293D-01 0.100D+01
 Gap=     0.533 Goal=   None    Shift=    0.000
 RMSDP=2.03D-06 MaxDP=3.34D-05 DE=-1.25D-07 OVMax= 3.02D-05

 Initial convergence to 1.0D-05 achieved.  Increase integral accuracy.
 Cycle   6  Pass 1  IDiag  1:
 E= -76.4264716817099     Delta-E=        0.000004203432 Rises=F Damp=F
 DIIS: error= 7.79D-06 at cycle   1 NSaved=   1.
 NSaved= 1 IEnMin= 1 EnMin= -76.4264716817099     IErMin= 1 ErrMin= 7.79D-06
 ErrMax= 7.79D-06  0.00D+00 EMaxC= 1.00D-01 BMatC= 3.26D-09 BMatP= 3.26D-09
 IDIUse=1 WtCom= 1.00D+00 WtEn= 0.00D+00
 Coeff-Com:  0.100D+01
 Coeff:      0.100D+01
 Gap=     0.533 Goal=   None    Shift=    0.000
 RMSDP=2.03D-06 MaxDP=3.34D-05 DE= 4.20D-06 OVMax= 9.55D-06

 Cycle   7  Pass 1  IDiag  1:
 E= -76.4264716829154     Delta-E=       -0.000000001206 Rises=F Damp=F
 DIIS: error= 2.29D-06 at cycle   2 NSaved=   2.
 NSaved= 2 IEnMin= 2 EnMin= -76.4264716829154     IErMin= 2 ErrMin= 2.29D-06
 ErrMax= 2.29D-06  0.00D+00 EMaxC= 1.00D-01 BMatC= 1.54D-10 BMatP= 3.26D-09
 IDIUse=1 WtCom= 1.00D+00 WtEn= 0.00D+00
 Coeff-Com:  0.202D-01 0.980D+00
 Coeff:      0.202D-01 0.980D+00
 Gap=     0.533 Goal=   None    Shift=    0.000
 RMSDP=1.68D-07 MaxDP=4.19D-06 DE=-1.21D-09 OVMax= 4.43D-06

 Cycle   8  Pass 1  IDiag  1:
 E= -76.4264716829418     Delta-E=       -0.000000000026 Rises=F Damp=F
 DIIS: error= 2.21D-06 at cycle   3 NSaved=   3.
 NSaved= 3 IEnMin= 3 EnMin= -76.4264716829418     IErMin= 3 ErrMin= 2.21D-06
 ErrMax= 2.21D-06  0.00D+00 EMaxC= 1.00D-01 BMatC= 1.24D-10 BMatP= 1.54D-10
 IDIUse=1 WtCom= 1.00D+00 WtEn= 0.00D+00
 Coeff-Com: -0.365D-01 0.485D+00 0.552D+00
 Coeff:     -0.365D-01 0.485D+00 0.552D+00
 Gap=     0.533 Goal=   None    Shift=    0.000
 RMSDP=8.19D-08 MaxDP=1.58D-06 DE=-2.64D-11 OVMax= 2.51D-06

 Cycle   9  Pass 1  IDiag  1:
 E= -76.4264716830202     Delta-E=       -0.000000000078 Rises=F Damp=F
 DIIS: error= 1.38D-07 at cycle   4 NSaved=   4.
 NSaved= 4 IEnMin= 4 EnMin= -76.4264716830202     IErMin= 4 ErrMin= 1.38D-07
 ErrMax= 1.38D-07  0.00D+00 EMaxC= 1.00D-01 BMatC= 4.60D-13 BMatP= 1.24D-10
 IDIUse=1 WtCom= 1.00D+00 WtEn= 0.00D+00
 Coeff-Com:  0.192D-03-0.405D-01-0.575D-02 0.105D+01
 Coeff:      0.192D-03-0.405D-01-0.575D-02 0.105D+01
 Gap=     0.533 Goal=   None    Shift=    0.000
 RMSDP=2.14D-08 MaxDP=3.77D-07 DE=-7.84D-11 OVMax= 6.88D-07

 Cycle  10  Pass 1  IDiag  1:
 E= -76.4264716830212     Delta-E=       -0.000000000001 Rises=F Damp=F
 DIIS: error= 4.94D-08 at cycle   5 NSaved=   5.
 NSaved= 5 IEnMin= 5 EnMin= -76.4264716830212     IErMin= 5 ErrMin= 4.94D-08
 ErrMax= 4.94D-08  0.00D+00 EMaxC= 1.00D-01 BMatC= 2.91D-14 BMatP= 4.60D-13
 IDIUse=1 WtCom= 1.00D+00 WtEn= 0.00D+00
 Coeff-Com:  0.198D-02-0.252D-01-0.285D-01-0.143D+00 0.119D+01
 Coeff:      0.198D-02-0.252D-01-0.285D-01-0.143D+00 0.119D+01
 Gap=     0.533 Goal=   None    Shift=    0.000
 RMSDP=8.36D-09 MaxDP=1.51D-07 DE=-9.38D-13 OVMax= 3.17D-07

 SCF Done:  E(RLC-wPBE) =  -76.4264716830     A.U. after   10 cycles
            NFock= 10  Conv=0.84D-08     -V/T= 2.0034
 KE= 7.616422376379D+01 PE=-1.992851515528D+02 EE= 3.749063439340D+01
 Leave Link  502 at Fri Aug 27 00:02:44 2021, MaxMem= 17179869184 cpu:        44.8
 (Enter /public3/home/sc51754/softwares/g09e01/l701.exe)
 Compute integral first derivatives.
 ... and contract with generalized density number  0.
 Leave Link  701 at Fri Aug 27 00:02:45 2021, MaxMem= 17179869184 cpu:        67.2
 (Enter /public3/home/sc51754/softwares/g09e01/l702.exe)
 L702 exits ... SP integral derivatives will be done elsewhere.
 Leave Link  702 at Fri Aug 27 00:02:45 2021, MaxMem= 17179869184 cpu:         0.3
 (Enter /public3/home/sc51754/softwares/g09e01/l703.exe)
 Compute integral first derivatives, UseDBF=F ICtDFT=           0.
 Integral derivatives from FoFJK, PRISM(SPDF).
 Calling FoFJK, ICntrl=      2127 FMM=F ISym2X=1 I1Cent= 0 IOpClX= 0 NMat=1 NMatS=1 NMatT=0.
 FoFJK:  IHMeth= 1 ICntrl=    2127 DoSepK=T KAlg= 0 I1Cent=   0 FoldK=F
 IRaf=         1 NMat=   1 IRICut=       1 DoRegI=T DoRafI=F ISym2E= 1.
 FoFCou: FMM=F IPFlag=           0 FMFlag=      100000 FMFlg1=         800
         NFxFlg=           0 DoJE=F BraDBF=F KetDBF=F FulRan=T
         wScrn=  0.000000 ICntrl=    2527 IOpCl=  0 I1Cent=           0 NGrid=           0
         NMat0=    1 NMatS0=      1 NMatT0=    0 NMatD0=    1 NMtDS0=    0 NMtDT0=    0
 Petite list used in FoFCou.
 Leave Link  703 at Fri Aug 27 00:02:46 2021, MaxMem= 17179869184 cpu:        65.6
 (Enter /public3/home/sc51754/softwares/g09e01/l716.exe)
 Dipole        = 3.71533188D-17 0.00000000D+00-7.96521662D-01
 ***** Axes restored to original set *****
 -------------------------------------------------------------------
 Center     Atomic                   Forces (Hartrees/Bohr)
 Number     Number              X              Y              Z
 -------------------------------------------------------------------
      1        8          -0.001474614   -0.002086531    0.000000000
      2        1           0.001772023    0.000312000   -0.000000000
      3        1          -0.000297409    0.001774531   -0.000000000
 -------------------------------------------------------------------
 Cartesian Forces:  Max     0.002086531 RMS     0.001201985
 Leave Link  716 at Fri Aug 27 00:02:47 2021, MaxMem= 17179869184 cpu:         0.2
 (Enter /public3/home/sc51754/softwares/g09e01/l103.exe)

 GradGradGradGradGradGradGradGradGradGradGradGradGradGradGradGradGradGrad
 Berny optimization.
 Using GEDIIS/GDIIS optimizer.
 FormGI is forming the generalized inverse of G from B-inverse, IUseBI=4.
 Internal  Forces:  Max     0.001781088 RMS     0.001478413
 Search for a local minimum.
 Step number   2 out of a maximum of   20
 All quantities printed in internal units (Hartrees-Bohrs-Radians)
 RMS Force = .14784D-02 SwitMx=.10000D-02 MixMth= 1
 Mixed Optimization -- RFO/linear search
 Update second derivatives using D2CorX and points    1    2
 DE= -3.62D-04 DEPred=-3.57D-04 R= 1.01D+00
 TightC=F SS=  1.41D+00  RLast= 6.43D-02 DXNew= 5.0454D-01 1.9299D-01
 Trust test= 1.01D+00 RLast= 6.43D-02 DXMaxT set to 3.00D-01
 The second derivative matrix:
                          R1        R2        A1
           R1           0.58054
           R2           0.02581   0.58054
           A1           0.02196   0.02196   0.14815
 ITU=  1  0
 Use linear search instead of GDIIS.
     Eigenvalues ---    0.14606   0.55473   0.60845
 RFO step:  Lambda=-1.28251371D-05 EMin= 1.46060059D-01
 Quartic linear search produced a step of  0.00277.
 Iteration  1 RMS(Cart)=  0.00225178 RMS(Int)=  0.00000495
 Iteration  2 RMS(Cart)=  0.00000558 RMS(Int)=  0.00000000
 Iteration  3 RMS(Cart)=  0.00000000 RMS(Int)=  0.00000000
 ITry= 1 IFail=0 DXMaxC= 2.59D-03 DCOld= 1.00D+10 DXMaxT= 3.00D-01 DXLimC= 3.00D+00 Rises=F
 ClnCor:  largest displacement from symmetrization is 1.88D-15 for atom     3.
 Variable       Old X    -DE/DX   Delta X   Delta X   Delta X     New X
                                 (Linear)    (Quad)   (Total)
    R1        1.80650   0.00178  -0.00002   0.00310   0.00308   1.80959
    R2        1.80650   0.00178  -0.00002   0.00310   0.00308   1.80959
    A1        1.84722  -0.00046  -0.00018  -0.00384  -0.00402   1.84320
         Item               Value     Threshold  Converged?
 Maximum Force            0.001781     0.000450     NO 
 RMS     Force            0.001478     0.000300     NO 
 Maximum Displacement     0.002589     0.001800     NO 
 RMS     Displacement     0.002253     0.001200     NO 
 Predicted change in Energy=-6.419455D-06
 Lowest energy point so far.  Saving SCF results.
 GradGradGradGradGradGradGradGradGradGradGradGradGradGradGradGradGradGrad

 Leave Link  103 at Fri Aug 27 00:02:47 2021, MaxMem= 17179869184 cpu:        23.6
 (Enter /public3/home/sc51754/softwares/g09e01/l202.exe)
                          Input orientation:                          
 ---------------------------------------------------------------------
 Center     Atomic      Atomic             Coordinates (Angstroms)
 Number     Number       Type             X           Y           Z
 ---------------------------------------------------------------------
      1          8           0        0.029731    0.782149    0.000000
      2          1           0        0.986771    0.814670   -0.000000
      3          1           0       -0.259079    1.695150    0.000000
 ---------------------------------------------------------------------
                    Distance matrix (angstroms):
                    1          2          3
     1  O    0.000000
     2  H    0.957592   0.000000
     3  H    0.957592   1.525577   0.000000
 Stoichiometry    H2O
 Framework group  C2V[C2(O),SGV(H2)]
 Deg. of freedom     2
 Full point group                 C2V     NOp   4
 RotChk:  IX=3 Diff= 1.57D-16
 Largest Abelian subgroup         C2V     NOp   4
 Largest concise Abelian subgroup C2      NOp   2
                         Standard orientation:                         
 ---------------------------------------------------------------------
 Center     Atomic      Atomic             Coordinates (Angstroms)
 Number     Number       Type             X           Y           Z
 ---------------------------------------------------------------------
      1          8           0       -0.000000   -0.000000    0.115782
      2          1           0       -0.000000   -0.762789   -0.463127
      3          1           0        0.000000    0.762789   -0.463127
 ---------------------------------------------------------------------
 Rotational constants (GHZ):    842.4157489    430.9169505    285.0874919
 Leave Link  202 at Fri Aug 27 00:02:47 2021, MaxMem= 17179869184 cpu:         5.6
 (Enter /public3/home/sc51754/softwares/g09e01/l301.exe)
 Basis read from rwf:  (5D, 7F)
 No pseudopotential information found on rwf file.
 There are    27 symmetry adapted cartesian basis functions of A1  symmetry.
 There are     7 symmetry adapted cartesian basis functions of A2  symmetry.
 There are    12 symmetry adapted cartesian basis functions of B1  symmetry.
 There are    19 symmetry adapted cartesian basis functions of B2  symmetry.
 There are    23 symmetry adapted basis functions of A1  symmetry.
 There are     7 symmetry adapted basis functions of A2  symmetry.
 There are    11 symmetry adapted basis functions of B1  symmetry.
 There are    17 symmetry adapted basis functions of B2  symmetry.
    58 basis functions,    91 primitive gaussians,    65 cartesian basis functions
     5 alpha electrons        5 beta electrons
       nuclear repulsion energy         9.1886681716 Hartrees.
 IExCor=32609 DFT=T Ex+Corr=LC-wPBE ExCW=0 ScaHFX=  1.000000
 ScaDFX=  1.000000  0.000000  1.000000  1.000000 ScalE2=  1.000000  1.000000
 IRadAn=      0 IRanWt=     -1 IRanGd=            0 ICorTp=0 IEmpDi=  4
  HFx wShort=  0.000000 wLong=  0.400000 cFull=  0.000000 cShort=  0.000000 cLong=  1.000000
  DFx wShort=  0.000000 wLong=  0.400000 cFull=  0.000000 cShort=  0.000000 cLong=  1.000000
 NAtoms=    3 NActive=    3 NUniq=    2 SFac= 2.25D+00 NAtFMM=   60 NAOKFM=F Big=F
 Integral buffers will be    131072 words long.
 Raffenetti 2 integral format.
 Two-electron integral symmetry is turned on.
 No density basis found on file   724.
 Leave Link  301 at Fri Aug 27 00:02:47 2021, MaxMem= 17179869184 cpu:         1.2
 (Enter /public3/home/sc51754/softwares/g09e01/l302.exe)
 NPDir=0 NMtPBC=     1 NCelOv=     1 NCel=       1 NClECP=     1 NCelD=      1
         NCelK=      1 NCelE2=     1 NClLst=     1 CellRange=     0.0.
 One-electron integrals computed using PRISM.
 One-electron integral symmetry used in STVInt
 NBasis=    58 RedAO= T EigKep=  5.77D-03  NBF=    23     7    11    17
 NBsUse=    58 1.00D-06 EigRej= -1.00D+00 NBFU=    23     7    11    17
 Precomputing XC quadrature grid using
 IXCGrd= 4 IRadAn=           0 IRanWt=          -1 IRanGd=           0 AccXCQ= 0.00D+00.
 Generated NRdTot=       0 NPtTot=           0 NUsed=           0 NTot=          32
 NSgBfM=    65    65    65    65    65 MxSgAt=     3 MxSgA2=     3.
 Leave Link  302 at Fri Aug 27 00:02:48 2021, MaxMem= 17179869184 cpu:        41.5
 (Enter /public3/home/sc51754/softwares/g09e01/l303.exe)
 DipDrv:  MaxL=1.
 Leave Link  303 at Fri Aug 27 00:02:49 2021, MaxMem= 17179869184 cpu:        14.3
 (Enter /public3/home/sc51754/softwares/g09e01/l401.exe)
 Initial guess from the checkpoint file:  "H2O_LC-wPBE_PC2_OPT_FREQ.chk"
 B after Tr=     0.000000   -0.000000    0.000000
         Rot=    1.000000    0.000000   -0.000000    0.000000 Ang=   0.00 deg.
 Guess basis will be translated and rotated to current coordinates.
 JPrj=2 DoOrth=T DoCkMO=T.
 Initial guess orbital symmetries:
       Occupied  (A1) (A1) (B2) (A1) (B1)
       Virtual   (A1) (A1) (A1) (A1) (A1) (A1) (A1) (A1) (A1) (A1)
                 (A1) (A1) (A1) (A1) (A1) (A1) (A1) (A1) (A1) (A1)
                 (A2) (A2) (A2) (A2) (A2) (A2) (A2) (B1) (B1) (B1)
                 (B1) (B1) (B1) (B1) (B1) (B1) (B1) (B2) (B2) (B2)
                 (B2) (B2) (B2) (B2) (B2) (B2) (B2) (B2) (B2) (B2)
                 (B2) (B2) (B2)
 The electronic state of the initial guess is 1-A1.
 Leave Link  401 at Fri Aug 27 00:02:49 2021, MaxMem= 17179869184 cpu:        35.9
 (Enter /public3/home/sc51754/softwares/g09e01/l502.exe)
 Closed shell SCF:
 Using DIIS extrapolation, IDIIS=  1040.
 Integral symmetry usage will be decided dynamically.
 Keep R1 ints in memory in symmetry-blocked form, NReq=4932517.
 IVT=       35997 IEndB=       35997 NGot= 17179869184 MDV= 17179451308
 LenX= 17179451308 LenY= 17179446642
 Requested convergence on RMS density matrix=1.00D-08 within 128 cycles.
 Requested convergence on MAX density matrix=1.00D-06.
 Requested convergence on             energy=1.00D-06.
 No special actions if energy rises.
 FoFCou: FMM=F IPFlag=           0 FMFlag=           0 FMFlg1=           0
         NFxFlg=           0 DoJE=F BraDBF=F KetDBF=F FulRan=T
         wScrn=  0.000000 ICntrl=     600 IOpCl=  0 I1Cent=           0 NGrid=           0
         NMat0=    1 NMatS0=   1711 NMatT0=    0 NMatD0=    1 NMtDS0=    0 NMtDT0=    0
 Petite list used in FoFCou.

 Cycle   1  Pass 1  IDiag  1:
 E= -76.4264762851377    
 DIIS: error= 3.99D-04 at cycle   1 NSaved=   1.
 NSaved= 1 IEnMin= 1 EnMin= -76.4264762851377     IErMin= 1 ErrMin= 3.99D-04
 ErrMax= 3.99D-04  0.00D+00 EMaxC= 1.00D-01 BMatC= 3.29D-06 BMatP= 3.29D-06
 IDIUse=3 WtCom= 9.96D-01 WtEn= 3.99D-03
 Coeff-Com:  0.100D+01
 Coeff-En:   0.100D+01
 Coeff:      0.100D+01
 Gap=     1.400 Goal=   None    Shift=    0.000
 RMSDP=2.61D-05 MaxDP=4.09D-04              OVMax= 5.68D-04

 Cycle   2  Pass 1  IDiag  1:
 E= -76.4264784926694     Delta-E=       -0.000002207532 Rises=F Damp=F
 DIIS: error= 1.07D-04 at cycle   2 NSaved=   2.
 NSaved= 2 IEnMin= 2 EnMin= -76.4264784926694     IErMin= 2 ErrMin= 1.07D-04
 ErrMax= 1.07D-04  0.00D+00 EMaxC= 1.00D-01 BMatC= 2.99D-07 BMatP= 3.29D-06
 IDIUse=3 WtCom= 9.99D-01 WtEn= 1.07D-03
 Coeff-Com:  0.677D-01 0.932D+00
 Coeff-En:   0.000D+00 0.100D+01
 Coeff:      0.676D-01 0.932D+00
 Gap=     0.533 Goal=   None    Shift=    0.000
 RMSDP=8.25D-06 MaxDP=1.89D-04 DE=-2.21D-06 OVMax= 2.00D-04

 Cycle   3  Pass 1  IDiag  1:
 E= -76.4264786204204     Delta-E=       -0.000000127751 Rises=F Damp=F
 DIIS: error= 8.06D-05 at cycle   3 NSaved=   3.
 NSaved= 3 IEnMin= 3 EnMin= -76.4264786204204     IErMin= 3 ErrMin= 8.06D-05
 ErrMax= 8.06D-05  0.00D+00 EMaxC= 1.00D-01 BMatC= 1.72D-07 BMatP= 2.99D-07
 IDIUse=1 WtCom= 1.00D+00 WtEn= 0.00D+00
 Coeff-Com: -0.461D-01 0.434D+00 0.612D+00
 Coeff:     -0.461D-01 0.434D+00 0.612D+00
 Gap=     0.533 Goal=   None    Shift=    0.000
 RMSDP=3.44D-06 MaxDP=6.28D-05 DE=-1.28D-07 OVMax= 1.12D-04

 Cycle   4  Pass 1  IDiag  1:
 E= -76.4264787358836     Delta-E=       -0.000000115463 Rises=F Damp=F
 DIIS: error= 8.87D-06 at cycle   4 NSaved=   4.
 NSaved= 4 IEnMin= 4 EnMin= -76.4264787358836     IErMin= 4 ErrMin= 8.87D-06
 ErrMax= 8.87D-06  0.00D+00 EMaxC= 1.00D-01 BMatC= 2.43D-09 BMatP= 1.72D-07
 IDIUse=1 WtCom= 1.00D+00 WtEn= 0.00D+00
 Coeff-Com: -0.439D-02-0.480D-01 0.348D-01 0.102D+01
 Coeff:     -0.439D-02-0.480D-01 0.348D-01 0.102D+01
 Gap=     0.533 Goal=   None    Shift=    0.000
 RMSDP=1.25D-06 MaxDP=1.64D-05 DE=-1.15D-07 OVMax= 4.07D-05

 Cycle   5  Pass 1  IDiag  1:
 E= -76.4264787400714     Delta-E=       -0.000000004188 Rises=F Damp=F
 DIIS: error= 3.37D-06 at cycle   5 NSaved=   5.
 NSaved= 5 IEnMin= 5 EnMin= -76.4264787400714     IErMin= 5 ErrMin= 3.37D-06
 ErrMax= 3.37D-06  0.00D+00 EMaxC= 1.00D-01 BMatC= 1.24D-10 BMatP= 2.43D-09
 IDIUse=1 WtCom= 1.00D+00 WtEn= 0.00D+00
 Coeff-Com:  0.332D-02-0.358D-01-0.459D-01 0.646D-02 0.107D+01
 Coeff:      0.332D-02-0.358D-01-0.459D-01 0.646D-02 0.107D+01
 Gap=     0.533 Goal=   None    Shift=    0.000
 RMSDP=4.98D-07 MaxDP=8.45D-06 DE=-4.19D-09 OVMax= 1.62D-05

 Cycle   6  Pass 1  IDiag  1:
 E= -76.4264787404159     Delta-E=       -0.000000000345 Rises=F Damp=F
 DIIS: error= 5.18D-07 at cycle   6 NSaved=   6.
 NSaved= 6 IEnMin= 6 EnMin= -76.4264787404159     IErMin= 6 ErrMin= 5.18D-07
 ErrMax= 5.18D-07  0.00D+00 EMaxC= 1.00D-01 BMatC= 2.79D-12 BMatP= 1.24D-10
 IDIUse=1 WtCom= 1.00D+00 WtEn= 0.00D+00
 Coeff-Com: -0.489D-03 0.810D-02 0.796D-02-0.238D-01-0.249D+00 0.126D+01
 Coeff:     -0.489D-03 0.810D-02 0.796D-02-0.238D-01-0.249D+00 0.126D+01
 Gap=     0.533 Goal=   None    Shift=    0.000
 RMSDP=9.45D-08 MaxDP=1.92D-06 DE=-3.45D-10 OVMax= 3.48D-06

 Cycle   7  Pass 1  IDiag  1:
 E= -76.4264787404284     Delta-E=       -0.000000000012 Rises=F Damp=F
 DIIS: error= 5.88D-08 at cycle   7 NSaved=   7.
 NSaved= 7 IEnMin= 7 EnMin= -76.4264787404284     IErMin= 7 ErrMin= 5.88D-08
 ErrMax= 5.88D-08  0.00D+00 EMaxC= 1.00D-01 BMatC= 6.21D-14 BMatP= 2.79D-12
 IDIUse=1 WtCom= 1.00D+00 WtEn= 0.00D+00
 Coeff-Com:  0.316D-04-0.848D-03-0.473D-03 0.250D-02 0.316D-01-0.266D+00
 Coeff-Com:  0.123D+01
 Coeff:      0.316D-04-0.848D-03-0.473D-03 0.250D-02 0.316D-01-0.266D+00
 Coeff:      0.123D+01
 Gap=     0.533 Goal=   None    Shift=    0.000
 RMSDP=9.80D-09 MaxDP=1.35D-07 DE=-1.24D-11 OVMax= 4.31D-07

 SCF Done:  E(RLC-wPBE) =  -76.4264787404     A.U. after    7 cycles
            NFock=  7  Conv=0.98D-08     -V/T= 2.0035
 KE= 7.615891014853D+01 PE=-1.992527559998D+02 EE= 3.747869893926D+01
 Leave Link  502 at Fri Aug 27 00:02:50 2021, MaxMem= 17179869184 cpu:        46.3
 (Enter /public3/home/sc51754/softwares/g09e01/l701.exe)
 Compute integral first derivatives.
 ... and contract with generalized density number  0.
 Leave Link  701 at Fri Aug 27 00:02:52 2021, MaxMem= 17179869184 cpu:        59.9
 (Enter /public3/home/sc51754/softwares/g09e01/l702.exe)
 L702 exits ... SP integral derivatives will be done elsewhere.
 Leave Link  702 at Fri Aug 27 00:02:52 2021, MaxMem= 17179869184 cpu:         0.2
 (Enter /public3/home/sc51754/softwares/g09e01/l703.exe)
 Compute integral first derivatives, UseDBF=F ICtDFT=           0.
 Integral derivatives from FoFJK, PRISM(SPDF).
 Calling FoFJK, ICntrl=      2127 FMM=F ISym2X=1 I1Cent= 0 IOpClX= 0 NMat=1 NMatS=1 NMatT=0.
 FoFJK:  IHMeth= 1 ICntrl=    2127 DoSepK=T KAlg= 0 I1Cent=   0 FoldK=F
 IRaf=         1 NMat=   1 IRICut=       1 DoRegI=T DoRafI=F ISym2E= 1.
 FoFCou: FMM=F IPFlag=           0 FMFlag=      100000 FMFlg1=         800
         NFxFlg=           0 DoJE=F BraDBF=F KetDBF=F FulRan=T
         wScrn=  0.000000 ICntrl=    2527 IOpCl=  0 I1Cent=           0 NGrid=           0
         NMat0=    1 NMatS0=      1 NMatT0=    0 NMatD0=    1 NMtDS0=    0 NMtDT0=    0
 Petite list used in FoFCou.
 Leave Link  703 at Fri Aug 27 00:02:53 2021, MaxMem= 17179869184 cpu:        75.0
 (Enter /public3/home/sc51754/softwares/g09e01/l716.exe)
 Dipole        = 3.73049908D-17-4.44089210D-16-7.98350662D-01
 ***** Axes restored to original set *****
 -------------------------------------------------------------------
 Center     Atomic                   Forces (Hartrees/Bohr)
 Number     Number              X              Y              Z
 -------------------------------------------------------------------
      1        8          -0.000139427   -0.000197285    0.000000000
      2        1           0.000177218    0.000022666   -0.000000000
      3        1          -0.000037791    0.000174619   -0.000000000
 -------------------------------------------------------------------
 Cartesian Forces:  Max     0.000197285 RMS     0.000116524
 Leave Link  716 at Fri Aug 27 00:02:53 2021, MaxMem= 17179869184 cpu:         1.2
 (Enter /public3/home/sc51754/softwares/g09e01/l103.exe)

 GradGradGradGradGradGradGradGradGradGradGradGradGradGradGradGradGradGrad
 Berny optimization.
 Using GEDIIS/GDIIS optimizer.
 FormGI is forming the generalized inverse of G from B-inverse, IUseBI=4.
 Internal  Forces:  Max     0.000177885 RMS     0.000146279
 Search for a local minimum.
 Step number   3 out of a maximum of   20
 All quantities printed in internal units (Hartrees-Bohrs-Radians)
 RMS Force = .14628D-03 SwitMx=.10000D-02 MixMth= 2
 Mixed Optimization -- En-DIIS/RFO-DIIS
 Update second derivatives using D2CorX and points    1    2    3
 DE= -7.06D-06 DEPred=-6.42D-06 R= 1.10D+00
 TightC=F SS=  1.41D+00  RLast= 5.93D-03 DXNew= 5.0454D-01 1.7785D-02
 Trust test= 1.10D+00 RLast= 5.93D-03 DXMaxT set to 3.00D-01
 The second derivative matrix:
                          R1        R2        A1
           R1           0.55469
           R2          -0.00004   0.55469
           A1           0.02659   0.02659   0.14810
 ITU=  1  1  0
 Use linear search instead of GDIIS.
     Eigenvalues ---    0.14465   0.55473   0.55810
 RFO step:  Lambda= 0.00000000D+00 EMin= 1.44649358D-01
 Quartic linear search produced a step of  0.10298.
 Iteration  1 RMS(Cart)=  0.00021379 RMS(Int)=  0.00000004
 Iteration  2 RMS(Cart)=  0.00000004 RMS(Int)=  0.00000000
 ITry= 1 IFail=0 DXMaxC= 2.29D-04 DCOld= 1.00D+10 DXMaxT= 3.00D-01 DXLimC= 3.00D+00 Rises=F
 ClnCor:  largest displacement from symmetrization is 1.92D-15 for atom     3.
 Variable       Old X    -DE/DX   Delta X   Delta X   Delta X     New X
                                 (Linear)    (Quad)   (Total)
    R1        1.80959   0.00018   0.00032   0.00001   0.00033   1.80992
    R2        1.80959   0.00018   0.00032   0.00001   0.00033   1.80992
    A1        1.84320  -0.00003  -0.00041   0.00011  -0.00031   1.84289
         Item               Value     Threshold  Converged?
 Maximum Force            0.000178     0.000450     YES
 RMS     Force            0.000146     0.000300     YES
 Maximum Displacement     0.000229     0.001800     YES
 RMS     Displacement     0.000214     0.001200     YES
 Predicted change in Energy=-6.465928D-08
 Optimization completed.
    -- Stationary point found.
                           ----------------------------
                           !   Optimized Parameters   !
                           ! (Angstroms and Degrees)  !
 --------------------------                            --------------------------
 ! Name  Definition              Value          Derivative Info.                !
 --------------------------------------------------------------------------------
 ! R1    R(1,2)                  0.9576         -DE/DX =    0.0002              !
 ! R2    R(1,3)                  0.9576         -DE/DX =    0.0002              !
 ! A1    A(2,1,3)              105.6075         -DE/DX =    0.0                 !
 --------------------------------------------------------------------------------
 Lowest energy point so far.  Saving SCF results.
 GradGradGradGradGradGradGradGradGradGradGradGradGradGradGradGradGradGrad

 Largest change from initial coordinates is atom    3       0.029 Angstoms.
 Leave Link  103 at Fri Aug 27 00:02:54 2021, MaxMem= 17179869184 cpu:        20.4
 (Enter /public3/home/sc51754/softwares/g09e01/l202.exe)
                          Input orientation:                          
 ---------------------------------------------------------------------
 Center     Atomic      Atomic             Coordinates (Angstroms)
 Number     Number       Type             X           Y           Z
 ---------------------------------------------------------------------
      1          8           0        0.029731    0.782149    0.000000
      2          1           0        0.986771    0.814670   -0.000000
      3          1           0       -0.259079    1.695150    0.000000
 ---------------------------------------------------------------------
                    Distance matrix (angstroms):
                    1          2          3
     1  O    0.000000
     2  H    0.957592   0.000000
     3  H    0.957592   1.525577   0.000000
 Stoichiometry    H2O
 Framework group  C2V[C2(O),SGV(H2)]
 Deg. of freedom     2
 Full point group                 C2V     NOp   4
 RotChk:  IX=3 Diff= 6.28D-16
 Largest Abelian subgroup         C2V     NOp   4
 Largest concise Abelian subgroup C2      NOp   2
                         Standard orientation:                         
 ---------------------------------------------------------------------
 Center     Atomic      Atomic             Coordinates (Angstroms)
 Number     Number       Type             X           Y           Z
 ---------------------------------------------------------------------
      1          8           0        0.000000   -0.000000    0.115782
      2          1           0        0.000000   -0.762789   -0.463127
      3          1           0        0.000000    0.762789   -0.463127
 ---------------------------------------------------------------------
 Rotational constants (GHZ):    842.4157489    430.9169505    285.0874919
 Leave Link  202 at Fri Aug 27 00:02:54 2021, MaxMem= 17179869184 cpu:         7.0
 (Enter /public3/home/sc51754/softwares/g09e01/l601.exe)
 Copying SCF densities to generalized density rwf, IOpCl= 0 IROHF=0.

 **********************************************************************

            Population analysis using the SCF density.

 **********************************************************************

 Orbital symmetries:
       Occupied  (A1) (A1) (B2) (A1) (B1)
       Virtual   (A1) (B2) (B2) (A1) (A1) (B1) (B2) (A1) (A2) (A1)
                 (B1) (B2) (B2) (A1) (A1) (B2) (B1) (A2) (A1) (A1)
                 (B2) (B1) (A1) (B1) (B2) (A1) (A2) (B2) (B1) (B2)
                 (A1) (A2) (A1) (B2) (B1) (A2) (A1) (B2) (B2) (A1)
                 (B1) (A1) (B1) (B2) (A2) (B1) (A1) (A2) (A1) (A1)
                 (B2) (B2) (A1)
 The electronic state is 1-A1.
 Alpha  occ. eigenvalues --  -18.96523  -1.14533  -0.66246  -0.51414  -0.44135
 Alpha virt. eigenvalues --    0.09132   0.13691   0.38329   0.38590   0.44295
 Alpha virt. eigenvalues --    0.44966   0.55198   0.79135   0.88058   0.91052
 Alpha virt. eigenvalues --    0.98865   1.15572   1.28600   1.32551   1.55866
 Alpha virt. eigenvalues --    1.59224   1.87786   1.94876   1.96632   2.17718
 Alpha virt. eigenvalues --    2.19169   2.37823   3.00516   3.48119   3.48936
 Alpha virt. eigenvalues --    3.62299   3.67455   3.81714   3.89506   3.95208
 Alpha virt. eigenvalues --    4.12330   4.16152   4.37344   4.48327   4.57732
 Alpha virt. eigenvalues --    4.61640   4.75344   4.92861   4.99628   5.01152
 Alpha virt. eigenvalues --    5.07763   5.73763   6.05755   6.11056   6.26264
 Alpha virt. eigenvalues --    6.31051   6.38325   6.40595   6.43541   6.94333
 Alpha virt. eigenvalues --    7.03073   7.49511  15.09515
          Condensed to atoms (all electrons):
               1          2          3
     1  O    7.686787   0.367891   0.367891
     2  H    0.367891   0.448028  -0.027202
     3  H    0.367891  -0.027202   0.448028
 Mulliken charges:
               1
     1  O   -0.422568
     2  H    0.211284
     3  H    0.211284
 Sum of Mulliken charges =  -0.00000
 Mulliken charges with hydrogens summed into heavy atoms:
               1
     1  O   -0.000000
 Electronic spatial extent (au):  <R**2>=             19.6765
 Charge=             -0.0000 electrons
 Dipole moment (field-independent basis, Debye):
    X=              0.0000    Y=              0.0000    Z=             -2.0292  Tot=              2.0292
 Quadrupole moment (field-independent basis, Debye-Ang):
   XX=             -7.6100   YY=             -4.3167   ZZ=             -6.3738
   XY=              0.0000   XZ=             -0.0000   YZ=             -0.0000
 Traceless Quadrupole moment (field-independent basis, Debye-Ang):
   XX=             -1.5099   YY=              1.7835   ZZ=             -0.2736
   XY=              0.0000   XZ=             -0.0000   YZ=             -0.0000
 Octapole moment (field-independent basis, Debye-Ang**2):
  XXX=             -0.0000  YYY=              0.0000  ZZZ=             -1.3465  XYY=              0.0000
  XXY=              0.0000  XXZ=             -0.3589  XZZ=             -0.0000  YZZ=              0.0000
  YYZ=             -1.3840  XYZ=             -0.0000
 Hexadecapole moment (field-independent basis, Debye-Ang**3):
 XXXX=             -6.8428 YYYY=             -6.1714 ZZZZ=             -7.3823 XXXY=             -0.0000
 XXXZ=              0.0000 YYYX=             -0.0000 YYYZ=             -0.0000 ZZZX=              0.0000
 ZZZY=             -0.0000 XXYY=             -2.4892 XXZZ=             -2.4228 YYZZ=             -1.9409
 XXYZ=             -0.0000 YYXZ=             -0.0000 ZZXY=             -0.0000
 N-N= 9.188668171626D+00 E-N=-1.992527564395D+02  KE= 7.615891014853D+01
 Symmetry A1   KE= 6.789015594533D+01
 Symmetry A2   KE=-1.222370809315D-19
 Symmetry B1   KE= 4.558830727923D+00
 Symmetry B2   KE= 3.709923475278D+00
 No NMR shielding tensors so no spin-rotation constants.
 Leave Link  601 at Fri Aug 27 00:02:55 2021, MaxMem= 17179869184 cpu:        42.0
 (Enter /public3/home/sc51754/softwares/g09e01/l9999.exe)
 1\1\GINC-P2607\FOpt\RLC-wPBE\Gen\H2O1\SC51754\27-Aug-2021\0\\#p opt fr
 eq LC-wPBE/gen\\H2O_LC-wPBE_PC2_OPT_FREQ\\0,1\O,0.0297314094,0.7821488
 298,0.\H,0.9867710352,0.8146703575,0.\H,-0.2590788267,1.6951500032,0.\
 \Version=EM64L-G09RevE.01\State=1-A1\HF=-76.4264787\RMSD=9.805e-09\RMS
 F=1.165e-04\Dipole=0.4607642,0.6519663,0.\Quadrupole=0.8165305,0.30601
 08,-1.1225414,-0.7208316,0.,0.\PG=C02V [C2(O1),SGV(H2)]\\@


 KNOWLEDGE IS CHIMERA - FOR BEYOND IT LIES OTHER KNOWLEDGE,
 AND THE INCOMPLETENESS OF WHAT IS KNOWN RENDERS THE KNOWING FALSE.
     -- THE THOMAS COVENANT CHRONICLES
 Leave Link 9999 at Fri Aug 27 00:02:55 2021, MaxMem= 17179869184 cpu:         1.0
 Job cpu time:       0 days  0 hours 20 minutes 14.2 seconds.
 File lengths (MBytes):  RWF=      5 Int=      0 D2E=      0 Chk=      1 Scr=      1
 Normal termination of Gaussian 09 at Fri Aug 27 00:02:55 2021.
 (Enter /public3/home/sc51754/softwares/g09e01/l1.exe)
 Link1:  Proceeding to internal job step number  2.
 --------------------------------------------------------------------
 #P Geom=AllCheck Guess=TCheck SCRF=Check GenChk RLC-wPBE/ChkBas Freq
 --------------------------------------------------------------------
 1/10=4,29=7,30=1,38=1,40=1/1,3;
 2/12=2,40=1/2;
 3/5=7,6=2,11=2,14=-4,16=1,25=1,30=1,67=1,70=2,71=2,74=-41,82=7,116=1,140=1/1,2,3;
 4/5=101/1;
 5/5=2,38=6,98=1/2;
 8/6=4,10=90,11=11/1;
 11/6=1,8=1,9=11,15=111,16=1/1,2,10;
 10/6=1/2;
 6/7=2,8=2,9=2,10=2,18=1,28=1/1;
 7/8=1,10=1,25=1/1,2,3,16;
 1/10=4,30=1/3;
 99//99;
 Leave Link    1 at Fri Aug 27 00:02:55 2021, MaxMem= 17179869184 cpu:         1.1
 (Enter /public3/home/sc51754/softwares/g09e01/l101.exe)
 Structure from the checkpoint file:  "H2O_LC-wPBE_PC2_OPT_FREQ.chk"
 ------------------------
 H2O_LC-wPBE_PC2_OPT_FREQ
 ------------------------
 Charge =  0 Multiplicity = 1
 Redundant internal coordinates found in file.
 O,0,0.0297314094,0.7821488298,0.
 H,0,0.9867710352,0.8146703575,0.
 H,0,-0.2590788267,1.6951500032,0.
 Recover connectivity data from disk.
 NAtoms=      3 NQM=        3 NQMF=       0 NMMI=      0 NMMIF=      0
                NMic=       0 NMicF=      0.
                    Isotopes and Nuclear Properties:
 (Nuclear quadrupole moments (NQMom) in fm**2, nuclear magnetic moments (NMagM)
  in nuclear magnetons)

  Atom         1           2           3
 IAtWgt=          16           1           1
 AtmWgt=  15.9949146   1.0078250   1.0078250
 NucSpn=           0           1           1
 AtZEff=  -5.6000000  -1.0000000  -1.0000000
 NQMom=    0.0000000   0.0000000   0.0000000
 NMagM=    0.0000000   2.7928460   2.7928460
 AtZNuc=   8.0000000   1.0000000   1.0000000
 Leave Link  101 at Fri Aug 27 00:02:55 2021, MaxMem= 17179869184 cpu:         6.8
 (Enter /public3/home/sc51754/softwares/g09e01/l103.exe)

 GradGradGradGradGradGradGradGradGradGradGradGradGradGradGradGradGradGrad
 Berny optimization.
 Initialization pass.
                           ----------------------------
                           !    Initial Parameters    !
                           ! (Angstroms and Degrees)  !
 --------------------------                            --------------------------
 ! Name  Definition              Value          Derivative Info.                !
 --------------------------------------------------------------------------------
 ! R1    R(1,2)                  0.9576         calculate D2E/DX2 analytically  !
 ! R2    R(1,3)                  0.9576         calculate D2E/DX2 analytically  !
 ! A1    A(2,1,3)              105.6075         calculate D2E/DX2 analytically  !
 --------------------------------------------------------------------------------
 Trust Radius=3.00D-01 FncErr=1.00D-07 GrdErr=1.00D-07
 Number of steps in this run=      2 maximum allowed number of steps=      2.
 GradGradGradGradGradGradGradGradGradGradGradGradGradGradGradGradGradGrad

 Leave Link  103 at Fri Aug 27 00:02:55 2021, MaxMem= 17179869184 cpu:         0.1
 (Enter /public3/home/sc51754/softwares/g09e01/l202.exe)
                          Input orientation:                          
 ---------------------------------------------------------------------
 Center     Atomic      Atomic             Coordinates (Angstroms)
 Number     Number       Type             X           Y           Z
 ---------------------------------------------------------------------
      1          8           0        0.029731    0.782149    0.000000
      2          1           0        0.986771    0.814670   -0.000000
      3          1           0       -0.259079    1.695150    0.000000
[...]
 Leave Link 1002 at Fri Aug 27 00:03:02 2021, MaxMem= 17179869184 cpu:        73.8
 (Enter /public3/home/sc51754/softwares/g09e01/l601.exe)
 Copying SCF densities to generalized density rwf, IOpCl= 0 IROHF=0.

 **********************************************************************

            Population analysis using the SCF density.

 **********************************************************************

 Orbital symmetries:
       Occupied  (A1) (A1) (B2) (A1) (B1)
       Virtual   (A1) (B2) (B2) (A1) (A1) (B1) (B2) (A1) (A2) (A1)
                 (B1) (B2) (B2) (A1) (A1) (B2) (B1) (A2) (A1) (A1)
                 (B2) (B1) (A1) (B1) (B2) (A1) (A2) (B2) (B1) (B2)
                 (A1) (A2) (A1) (B2) (B1) (A2) (A1) (B2) (B2) (A1)
                 (B1) (A1) (B1) (B2) (A2) (B1) (A1) (A2) (A1) (A1)
                 (B2) (B2) (A1)
 The electronic state is 1-A1.
 Alpha  occ. eigenvalues --  -18.96523  -1.14533  -0.66246  -0.51414  -0.44135
 Alpha virt. eigenvalues --    0.09132   0.13691   0.38329   0.38590   0.44295
 Alpha virt. eigenvalues --    0.44966   0.55198   0.79135   0.88058   0.91052
 Alpha virt. eigenvalues --    0.98865   1.15572   1.28600   1.32551   1.55866
 Alpha virt. eigenvalues --    1.59224   1.87786   1.94876   1.96632   2.17718
 Alpha virt. eigenvalues --    2.19169   2.37823   3.00516   3.48119   3.48936
 Alpha virt. eigenvalues --    3.62299   3.67455   3.81714   3.89506   3.95208
 Alpha virt. eigenvalues --    4.12330   4.16152   4.37344   4.48327   4.57732
 Alpha virt. eigenvalues --    4.61640   4.75344   4.92861   4.99628   5.01152
 Alpha virt. eigenvalues --    5.07763   5.73763   6.05755   6.11056   6.26264
 Alpha virt. eigenvalues --    6.31051   6.38325   6.40595   6.43541   6.94333
 Alpha virt. eigenvalues --    7.03073   7.49511  15.09515
          Condensed to atoms (all electrons):
               1          2          3
     1  O    7.686786   0.367891   0.367891
     2  H    0.367891   0.448028  -0.027202
     3  H    0.367891  -0.027202   0.448028
 Mulliken charges:
               1
     1  O   -0.422568
     2  H    0.211284
     3  H    0.211284
 Sum of Mulliken charges =   0.00000
 Mulliken charges with hydrogens summed into heavy atoms:
               1
     1  O    0.000000
 APT charges:
               1
     1  O   -0.554037
     2  H    0.277019
     3  H    0.277019
 Sum of APT charges =   0.00000
 APT charges with hydrogens summed into heavy atoms:
               1
     1  O    0.000000
 Electronic spatial extent (au):  <R**2>=             19.6765
 Charge=              0.0000 electrons
 Dipole moment (field-independent basis, Debye):
    X=              0.0000    Y=             -0.0000    Z=             -2.0292  Tot=              2.0292
 Quadrupole moment (field-independent basis, Debye-Ang):
   XX=             -7.6100   YY=             -4.3167   ZZ=             -6.3738
   XY=              0.0000   XZ=             -0.0000   YZ=              0.0000
 Traceless Quadrupole moment (field-independent basis, Debye-Ang):
   XX=             -1.5099   YY=              1.7835   ZZ=             -0.2736
   XY=              0.0000   XZ=             -0.0000   YZ=              0.0000
 Octapole moment (field-independent basis, Debye-Ang**2):
  XXX=             -0.0000  YYY=             -0.0000  ZZZ=             -1.3465  XYY=              0.0000
  XXY=              0.0000  XXZ=             -0.3589  XZZ=             -0.0000  YZZ=             -0.0000
  YYZ=             -1.3840  XYZ=             -0.0000
 Hexadecapole moment (field-independent basis, Debye-Ang**3):
 XXXX=             -6.8428 YYYY=             -6.1714 ZZZZ=             -7.3823 XXXY=             -0.0000
 XXXZ=              0.0000 YYYX=             -0.0000 YYYZ=              0.0000 ZZZX=              0.0000
 ZZZY=             -0.0000 XXYY=             -2.4892 XXZZ=             -2.4228 YYZZ=             -1.9409
 XXYZ=             -0.0000 YYXZ=             -0.0000 ZZXY=             -0.0000
 N-N= 9.188668171626D+00 E-N=-1.992527564175D+02  KE= 7.615891013844D+01
 Symmetry A1   KE= 6.789015589508D+01
 Symmetry A2   KE= 1.810652337318D-21
 Symmetry B1   KE= 4.558830722035D+00
 Symmetry B2   KE= 3.709923521326D+00
  Exact polarizability:   6.224   0.000   8.303  -0.000   0.000   7.228
 Approx polarizability:   5.185   0.000   7.897  -0.000   0.000   6.629
 No NMR shielding tensors so no spin-rotation constants.
 Leave Link  601 at Fri Aug 27 00:03:04 2021, MaxMem= 17179869184 cpu:        66.2
 (Enter /public3/home/sc51754/softwares/g09e01/l701.exe)
 Compute integral second derivatives.
 ... and contract with generalized density number  0.
 Leave Link  701 at Fri Aug 27 00:03:05 2021, MaxMem= 17179869184 cpu:        55.4
 (Enter /public3/home/sc51754/softwares/g09e01/l702.exe)
 L702 exits ... SP integral derivatives will be done elsewhere.
 Leave Link  702 at Fri Aug 27 00:03:05 2021, MaxMem= 17179869184 cpu:         0.3
 (Enter /public3/home/sc51754/softwares/g09e01/l703.exe)
 Compute integral second derivatives, UseDBF=F ICtDFT=           0.
 Integral derivatives from FoFJK, PRISM(SPDF).
 Calling FoFJK, ICntrl=    100127 FMM=F ISym2X=1 I1Cent= 0 IOpClX= 0 NMat=1 NMatS=1 NMatT=0.
 FoFJK:  IHMeth= 1 ICntrl=  100127 DoSepK=T KAlg= 0 I1Cent=   0 FoldK=F
 IRaf=         1 NMat=   1 IRICut=       1 DoRegI=T DoRafI=F ISym2E= 1.
 FoFCou: FMM=F IPFlag=           0 FMFlag=      100000 FMFlg1=         800
         NFxFlg=           0 DoJE=F BraDBF=F KetDBF=F FulRan=T
         wScrn=  0.000000 ICntrl=  100527 IOpCl=  0 I1Cent=           0 NGrid=           0
         NMat0=    1 NMatS0=      1 NMatT0=    0 NMatD0=    1 NMtDS0=    0 NMtDT0=    0
 Petite list used in FoFCou.
 Leave Link  703 at Fri Aug 27 00:03:06 2021, MaxMem= 17179869184 cpu:        96.7
 (Enter /public3/home/sc51754/softwares/g09e01/l716.exe)
 Dipole        = 3.73049910D-17 5.30283283D-16-7.98350654D-01
 Polarizability= 6.22423280D+00 3.79172034D-11 8.30288951D+00
                -8.88206643D-10 1.24998004D-09 7.22799059D+00
 Full mass-weighted force constant matrix:
 Low frequencies ---  -55.8441  -44.9537  -43.8108   -0.0019   -0.0011    0.0015
 Low frequencies --- 1608.4981 3896.8705 4000.5472
 Diagonal vibrational polarizability:
        0.0000000       0.1209366       0.8283997
 Harmonic frequencies (cm**-1), IR intensities (KM/Mole), Raman scattering
 activities (A**4/AMU), depolarization ratios for plane and unpolarized
 incident light, reduced masses (AMU), force constants (mDyne/A),
 and normal coordinates:
                      1                      2                      3
                     A1                     A1                     B2
 Frequencies --   1608.4981              3896.8705              4000.5471
 Red. masses --      1.0833                 1.0446                 1.0830
 Frc consts  --      1.6514                 9.3458                10.2117
 IR Inten    --     77.7947                10.8485                71.9223
  Atom  AN      X      Y      Z        X      Y      Z        X      Y      Z
     1   8     0.00  -0.00  -0.07     0.00  -0.00  -0.05    -0.00  -0.07   0.00
     2   1    -0.00  -0.42   0.56     0.00   0.59   0.39    -0.00   0.56   0.43
     3   1    -0.00   0.42   0.56    -0.00  -0.59   0.39     0.00   0.56  -0.43

 -------------------
 - Thermochemistry -
 -------------------
 Temperature   298.150 Kelvin.  Pressure   1.00000 Atm.
 Atom     1 has atomic number  8 and mass  15.99491
 Atom     2 has atomic number  1 and mass   1.00783
 Atom     3 has atomic number  1 and mass   1.00783
 Molecular mass:    18.01056 amu.
 Principal axes and moments of inertia in atomic units:
                           1         2         3
     Eigenvalues --     2.14234   4.18814   6.33048
           X            0.00000  -0.00000   1.00000
           Y            1.00000  -0.00000  -0.00000
           Z            0.00000   1.00000   0.00000
 This molecule is an asymmetric top.
 Rotational symmetry number  2.
 Rotational temperatures (Kelvin)     40.42953    20.68073    13.68203
 Rotational constants (GHZ):         842.41575   430.91695   285.08749
 Zero-point vibrational energy      56858.0 (Joules/Mol)
                                   13.58939 (Kcal/Mol)
 Vibrational temperatures:   2314.27  5606.72  5755.89
          (Kelvin)
 
 Zero-point correction=                           0.021656 (Hartree/Particle)
 Thermal correction to Energy=                    0.024492
 Thermal correction to Enthalpy=                  0.025436
 Thermal correction to Gibbs Free Energy=         0.004029
 Sum of electronic and zero-point Energies=            -76.404823
 Sum of electronic and thermal Energies=               -76.401987
 Sum of electronic and thermal Enthalpies=             -76.401043
 Sum of electronic and thermal Free Energies=          -76.422450
 
                     E (Thermal)             CV                S
                      KCal/Mol        Cal/Mol-Kelvin    Cal/Mol-Kelvin
 Total                   15.369              6.013             45.055
 Electronic               0.000              0.000              0.000
 Translational            0.889              2.981             34.608
 Rotational               0.889              2.981             10.439
 Vibrational             13.591              0.051              0.007
                       Q            Log10(Q)             Ln(Q)
 Total Bot       0.140230D-01         -1.853158         -4.267055
 Total V=0       0.128210D+09          8.107921         18.669178
 Vib (Bot)       0.109422D-09         -9.960894        -22.935807
 Vib (V=0)       0.100043D+01          0.000185          0.000426
 Electronic      0.100000D+01          0.000000          0.000000
 Translational   0.300432D+07          6.477746         14.915562
 Rotational      0.426569D+02          1.629990          3.753190
 
                                                       H2O_LC-wPBE_PC2_OPT_FREQ
                                                             IR Spectrum
 
     4   3                                                                       1                                                   
     0   8                                                                       6                                                   
     0   9                                                                       0                                                   
     1   7                                                                       8                                                   
 
     X   X                                                                       X                                                   
     X   X                                                                       X                                                   
     X   X                                                                       X                                                   
     X                                                                           X                                                   
     X                                                                           X                                                   
     X                                                                           X                                                   
     X                                                                           X                                                   
     X                                                                           X                                                   
     X                                                                           X                                                   
     X                                                                           X                                                   
     X                                                                           X                                                   
     X                                                                           X                                                   
     X                                                                           X                                                   
     X                                                                           X                                                   
     X                                                                           X                                                   
     X                                                                           X                                                   
     X                                                                           X                                                   
     X                                                                           X                                                   
                                                                                 X                                                   
                                                                                 X                                                   
 
 ***** Axes restored to original set *****
 -------------------------------------------------------------------
 Center     Atomic                   Forces (Hartrees/Bohr)
 Number     Number              X              Y              Z
 -------------------------------------------------------------------
      1        8          -0.000139428   -0.000197286    0.000000000
      2        1           0.000177221    0.000022665    0.000000000
      3        1          -0.000037793    0.000174621   -0.000000000
 -------------------------------------------------------------------
 Cartesian Forces:  Max     0.000197286 RMS     0.000116526
 Force constants in Cartesian coordinates: 
                1             2             3             4             5 
      1  0.632093D+00
      2 -0.120583D+00  0.546691D+00
      3  0.000000D+00  0.000000D+00 -0.211259D-03
      4 -0.545098D+00  0.839136D-02  0.000000D+00  0.560858D+00
      5 -0.500310D-01 -0.442938D-01  0.000000D+00  0.110846D-02  0.460939D-01
      6  0.000000D+00  0.000000D+00  0.105629D-03  0.000000D+00  0.000000D+00
      7 -0.869946D-01  0.112192D+00  0.000000D+00 -0.157604D-01  0.489225D-01
      8  0.170614D+00 -0.502397D+00  0.000000D+00 -0.949982D-02 -0.180010D-02
      9  0.000000D+00  0.000000D+00  0.105629D-03  0.000000D+00  0.000000D+00
                6             7             8             9 
      6 -0.913518D-04
      7  0.000000D+00  0.102755D+00
      8  0.000000D+00 -0.161114D+00  0.504197D+00
      9 -0.142777D-04  0.000000D+00  0.000000D+00 -0.913518D-04
 FormGI is forming the generalized inverse of G from B-inverse, IUseBI=4.
 Force constants in internal coordinates: 
                1             2             3 
      1  0.560368D+00
      2 -0.488897D-02  0.560368D+00
      3  0.295788D-01  0.295788D-01  0.152913D+00
 Leave Link  716 at Fri Aug 27 00:03:07 2021, MaxMem= 17179869184 cpu:        13.6
 (Enter /public3/home/sc51754/softwares/g09e01/l103.exe)

 GradGradGradGradGradGradGradGradGradGradGradGradGradGradGradGradGradGrad
 Berny optimization.
 Red2BG is reusing G-inverse.
 Internal  Forces:  Max     0.000177888 RMS     0.000146281
 Search for a local minimum.
 Step number   1 out of a maximum of    2
 All quantities printed in internal units (Hartrees-Bohrs-Radians)
 Second derivative matrix not updated -- analytic derivatives used.
 The second derivative matrix:
                          R1        R2        A1
           R1           0.56037
           R2          -0.00489   0.56037
           A1           0.02958   0.02958   0.15291
 ITU=  0
     Eigenvalues ---    0.14861   0.55978   0.56526
 Angle between quadratic step and forces=  27.62 degrees.
 Linear search not attempted -- first point.
 Iteration  1 RMS(Cart)=  0.00022009 RMS(Int)=  0.00000004
 Iteration  2 RMS(Cart)=  0.00000005 RMS(Int)=  0.00000000
 ITry= 1 IFail=0 DXMaxC= 2.40D-04 DCOld= 1.00D+10 DXMaxT= 3.00D-01 DXLimC= 3.00D+00 Rises=F
 ClnCor:  largest displacement from symmetrization is 2.54D-14 for atom     3.
 Variable       Old X    -DE/DX   Delta X   Delta X   Delta X     New X
                                 (Linear)    (Quad)   (Total)
    R1        1.80959   0.00018   0.00000   0.00034   0.00034   1.80992
    R2        1.80959   0.00018   0.00000   0.00034   0.00034   1.80992
    A1        1.84320  -0.00003   0.00000  -0.00033  -0.00033   1.84287
         Item               Value     Threshold  Converged?
 Maximum Force            0.000178     0.000450     YES
 RMS     Force            0.000146     0.000300     YES
 Maximum Displacement     0.000240     0.001800     YES
 RMS     Displacement     0.000220     0.001200     YES
 Predicted change in Energy=-6.499781D-08
 Optimization completed.
    -- Stationary point found.
                           ----------------------------
                           !   Optimized Parameters   !
                           ! (Angstroms and Degrees)  !
 --------------------------                            --------------------------
 ! Name  Definition              Value          Derivative Info.                !
 --------------------------------------------------------------------------------
 ! R1    R(1,2)                  0.9576         -DE/DX =    0.0002              !
 ! R2    R(1,3)                  0.9576         -DE/DX =    0.0002              !
 ! A1    A(2,1,3)              105.6075         -DE/DX =    0.0                 !
 --------------------------------------------------------------------------------
 GradGradGradGradGradGradGradGradGradGradGradGradGradGradGradGradGradGrad

 Leave Link  103 at Fri Aug 27 00:03:07 2021, MaxMem= 17179869184 cpu:        13.5
 (Enter /public3/home/sc51754/softwares/g09e01/l9999.exe)
 1\1\GINC-P2607\Freq\RLC-wPBE\Gen\H2O1\SC51754\27-Aug-2021\0\\#P Geom=A
 llCheck Guess=TCheck SCRF=Check GenChk RLC-wPBE/ChkBas Freq\\H2O_LC-wP
 BE_PC2_OPT_FREQ\\0,1\O,0.0297314094,0.7821488298,0.\H,0.9867710352,0.8
 146703575,0.\H,-0.2590788267,1.6951500032,0.\\Version=EM64L-G09RevE.01
 \State=1-A1\HF=-76.4264787\RMSD=1.570e-09\RMSF=1.165e-04\ZeroPoint=0.0
 216561\Thermal=0.0244917\Dipole=0.4607642,0.6519663,0.\DipoleDeriv=-0.
 4916743,0.0719554,0.,0.0719554,-0.4407128,0.,0.,0.,-0.7297241,0.186403
 1,-0.0490497,0.,-0.0649991,0.2797904,0.,0.,0.,0.364862,0.3052712,-0.02
 29057,0.,-0.0069563,0.1609224,0.,0.,0.,0.364862\Polar=7.9448444,-0.506
 6222,7.5860357,0.,0.,6.2242328\PG=C02V [C2(O1),SGV(H2)]\NImag=0\\0.632
 09260,-0.12058332,0.54669102,0.,0.,-0.00021126,-0.54509805,0.00839136,
 0.,0.56085845,-0.05003099,-0.04429376,0.,0.00110846,0.04609386,0.,0.,0
 .00010563,0.,0.,-0.00009135,-0.08699455,0.11219196,0.,-0.01576041,0.04
 892253,0.,0.10275496,0.17061431,-0.50239726,0.,-0.00949982,-0.00180010
 ,0.,-0.16111449,0.50419735,0.,0.,0.00010563,0.,0.,-0.00001428,0.,0.,-0
 .00009135\\0.00013943,0.00019729,0.,-0.00017722,-0.00002266,0.,0.00003
 779,-0.00017462,0.\\\@


 I MET A TRAVELLER FROM AN ANTIQUE LAND
 WHO SAID... TWO VAST AND TRUNKLESS LEGS OF STONE
 STAND IN THE DESERT..... NEAR THEM,  ON THE SAND,
 HALF SUNK,  A SHATTERED VISAGE LIES,  WHOSE FROWN,
 AND WRINKLED LIP,  AND SNEER OF COLD COMMAND
 TELL THAT ITS SCULPTOR WELL THOSE PASSIONS READ
 WHICH YET SURVIVE,  STAMPED ON THESE LIFELESS THINGS
 THE HAND THAT MOCKED THEM,  AND THE HEART THAT FED-
 AND ON THE PEDESTAL THESE WORDS APPEAR 
 MY NAME IS OZYMANDIAS, KING OF KINGS--   
 LOOK ON MY WORKS YE MIGHTY AND DESPAIR. 
 NOTHING BESIDE REMAINS,  ROUND THE DECAY 
 OF THAT COLOSSAL WRECK,  BOUNDLESS AND BARE
 THE LONE AND LEVEL SANDS STRETCH FAR AWAY.
                                    SHELLEY
 Job cpu time:       0 days  0 hours 10 minutes 54.3 seconds.
 File lengths (MBytes):  RWF=      5 Int=      0 D2E=      0 Chk=      1 Scr=      1
 Normal termination of Gaussian 09 at Fri Aug 27 00:03:07 2021.
