 Entering Gaussian System, Link 0=g09
 AtFile(1): pc-2.gbs
            -H     0
            S    4   1.00
                  0.754230D+02           0.240650D-02
                  0.113500D+02           0.184870D-01
                  0.259930D+01           0.897420D-01
                  0.735130D+00           0.281110D+00
            S    1   1.00
                  0.231670D+00           0.100000D+01
            S    1   1.00
                  0.741470D-01           0.100000D+01
            P    1   1.00
                  0.160000D+01           0.100000D+01
            P    1   1.00
                  0.450000D+00           0.100000D+01
            D    1   1.00
                  0.125000D+01           0.100000D+01
            ****
            -C     0
            S    7   1.00
                  0.785710D+04           0.568250D-03
                  0.117870D+04           0.439150D-02
                  0.268320D+03           0.225040D-01
                  0.759480D+02           0.866530D-01
                  0.245590D+02           0.244050D+00
                  0.862120D+01           0.441480D+00
                  0.312780D+01           0.353320D+00
            S    7   1.00
                  0.117870D+04          -0.594920D-06
                  0.268320D+03          -0.627480D-04
                  0.759480D+02          -0.757730D-03
                  0.245590D+02          -0.733080D-02
                  0.862120D+01          -0.389320D-01
                  0.312780D+01          -0.889080D-01
                  0.822020D+00           0.216890D+00
            S    1   1.00
                  0.330170D+00           0.100000D+01
            S    1   1.00
                  0.114630D+00           0.100000D+01
            P    4   1.00
                  0.337750D+02           0.602940D-02
                  0.767660D+01           0.432280D-01
                  0.223570D+01           0.163010D+00
                  0.764470D+00           0.365040D+00
            P    1   1.00
                  0.262320D+00           0.100000D+01
            P    1   1.00
                  0.846380D-01           0.100000D+01
            D    1   1.00
                  0.140000D+01           0.100000D+01
            D    1   1.00
                  0.450000D+00           0.100000D+01
            F    1   1.00
                  0.950000D+00           0.100000D+01
            ****
            -N     0
            S    7   1.00
                  0.111010D+05           0.545700D-03
                  0.166530D+04           0.421810D-02
                  0.379080D+03           0.216450D-01
                  0.107300D+03           0.837760D-01
                  0.347470D+02           0.238810D+00
                  0.122490D+02           0.439940D+00
                  0.447430D+01           0.363640D+00
            S    7   1.00
                  0.166530D+04          -0.150060D-05
                  0.379080D+03          -0.587530D-04
                  0.107300D+03          -0.774530D-03
                  0.347470D+02          -0.721610D-02
                  0.122490D+02          -0.393380D-01
                  0.447430D+01          -0.906110D-01
                  0.124040D+01           0.198820D+00
            S    1   1.00
                  0.487430D+00           0.100000D+01
            S    1   1.00
                  0.164840D+00           0.100000D+01
            P    4   1.00
                  0.479340D+02           0.617060D-02
                  0.109990D+02           0.442600D-01
                  0.324720D+01           0.168250D+00
                  0.111140D+01           0.368480D+00
            P    1   1.00
                  0.379880D+00           0.100000D+01
            P    1   1.00
                  0.120680D+00           0.100000D+01
            D    1   1.00
                  0.180000D+01           0.100000D+01
            D    1   1.00
                  0.550000D+00           0.100000D+01
            F    1   1.00
                  0.102000D+01           0.100000D+01
            ****
            -O     0
            S    7   1.00
                  0.147820D+05           0.535190D-03
                  0.221730D+04           0.413750D-02
                  0.504740D+03           0.212450D-01
                  0.142870D+03           0.824530D-01
                  0.463000D+02           0.236710D+00
                  0.163370D+02           0.440390D+00
                  0.598280D+01           0.364650D+00
            S    7   1.00
                  0.221730D+04          -0.192750D-05
                  0.504740D+03          -0.579640D-04
                  0.142870D+03          -0.794940D-03
                  0.463000D+02          -0.731250D-02
                  0.163370D+02          -0.405740D-01
                  0.598280D+01          -0.915940D-01
                  0.167180D+01           0.209400D+00
            S    1   1.00
                  0.646620D+00           0.100000D+01
            S    1   1.00
                  0.216690D+00           0.100000D+01
            P    4   1.00
                  0.604240D+02           0.689490D-02
                  0.139350D+02           0.490050D-01
                  0.415310D+01           0.182550D+00
                  0.141580D+01           0.376330D+00
            P    1   1.00
                  0.475490D+00           0.100000D+01
            P    1   1.00
                  0.145290D+00           0.100000D+01
            D    1   1.00
                  0.220000D+01           0.100000D+01
            D    1   1.00
                  0.650000D+00           0.100000D+01
            F    1   1.00
                  0.110000D+01           0.100000D+01
            ****
 Initial command:
 /public3/home/sc51754/softwares/g09e01/l1.exe "./Gau-62049.inp" -scrdir="./"
 Entering Link 1 = /public3/home/sc51754/softwares/g09e01/l1.exe PID=     62050.
  
 Copyright (c) 1988,1990,1992,1993,1995,1998,2003,2009,2015,
            Gaussian, Inc.  All Rights Reserved.
  
 This is part of the Gaussian(R) 09 program.  It is based on
 the Gaussian(R) 03 system (copyright 2003, Gaussian, Inc.),
 the Gaussian(R) 98 system (copyright 1998, Gaussian, Inc.),
 the Gaussian(R) 94 system (copyright 1995, Gaussian, Inc.),
 the Gaussian 92(TM) system (copyright 1992, Gaussian, Inc.),
 the Gaussian 90(TM) system (copyright 1990, Gaussian, Inc.),
 the Gaussian 88(TM) system (copyright 1988, Gaussian, Inc.),
 the Gaussian 86(TM) system (copyright 1986, Carnegie Mellon
 University), and the Gaussian 82(TM) system (copyright 1983,
 Carnegie Mellon University). Gaussian is a federally registered
 trademark of Gaussian, Inc.
  
 This software contains proprietary and confidential information,
 including trade secrets, belonging to Gaussian, Inc.
  
 This software is provided under written license and may be
 used, copied, transmitted, or stored only in accord with that
 written license.
  
 The following legend is applicable only to US Government
 contracts under FAR:
  
                    RESTRICTED RIGHTS LEGEND
  
 Use, reproduction and disclosure by the US Government is
 subject to restrictions as set forth in subparagraphs (a)
 and (c) of the Commercial Computer Software - Restricted
 Rights clause in FAR 52.227-19.
  
 Gaussian, Inc.
 340 Quinnipiac St., Bldg. 40, Wallingford CT 06492
  
  
 ---------------------------------------------------------------
 Warning -- This program may not be used in any manner that
 competes with the business of Gaussian, Inc. or will provide
 assistance to any competitor of Gaussian, Inc.  The licensee
 of this program is prohibited from giving any competitor of
 Gaussian, Inc. access to this program.  By using this program,
 the user acknowledges that Gaussian, Inc. is engaged in the
 business of creating and licensing software in the field of
 computational chemistry and represents and warrants to the
 licensee that it is not a competitor of Gaussian, Inc. and that
 it will not use this program in any manner prohibited above.
 ---------------------------------------------------------------
  

 Cite this work as:
 Gaussian 09, Revision E.01,
 M. J. Frisch, G. W. Trucks, H. B. Schlegel, G. E. Scuseria, 
 M. A. Robb, J. R. Cheeseman, G. Scalmani, V. Barone, B. Mennucci, 
 G. A. Petersson, H. Nakatsuji, M. Caricato, X. Li, H. P. Hratchian, 
 A. F. Izmaylov, J. Bloino, G. Zheng, J. L. Sonnenberg, M. Hada, 
 M. Ehara, K. Toyota, R. Fukuda, J. Hasegawa, M. Ishida, T. Nakajima, 
 Y. Honda, O. Kitao, H. Nakai, T. Vreven, J. A. Montgomery, Jr., 
 J. E. Peralta, F. Ogliaro, M. Bearpark, J. J. Heyd, E. Brothers, 
 K. N. Kudin, V. N. Staroverov, T. Keith, R. Kobayashi, J. Normand, 
 K. Raghavachari, A. Rendell, J. C. Burant, S. S. Iyengar, J. Tomasi, 
 M. Cossi, N. Rega, J. M. Millam, M. Klene, J. E. Knox, J. B. Cross, 
 V. Bakken, C. Adamo, J. Jaramillo, R. Gomperts, R. E. Stratmann, 
 O. Yazyev, A. J. Austin, R. Cammi, C. Pomelli, J. W. Ochterski, 
 R. L. Martin, K. Morokuma, V. G. Zakrzewski, G. A. Voth, 
 P. Salvador, J. J. Dannenberg, S. Dapprich, A. D. Daniels, 
 O. Farkas, J. B. Foresman, J. V. Ortiz, J. Cioslowski, 
 and D. J. Fox, Gaussian, Inc., Wallingford CT, 2013.
 
 ******************************************
 Gaussian 09:  EM64L-G09RevE.01 30-Nov-2015
                26-Aug-2021 
 ******************************************
 %nprocshared=64
 Will use up to   64 processors via shared memory.
 %mem=128GB
 %chk=H2O_BLYP_PC2_OPT_FREQ.chk
 --------------------
 #p opt freq BLYP/gen
 --------------------
 1/14=-1,18=20,19=15,26=3,38=1/1,3;
 2/9=110,12=2,17=6,18=5,40=1/2;
 3/5=7,11=2,16=1,25=1,30=1,71=1,74=402/1,2,3;
 4//1;
 5/5=2,38=5/2;
 6/7=2,8=2,9=2,10=2,28=1/1;
 7//1,2,3,16;
 1/14=-1,18=20,19=15,26=3/3(2);
 2/9=110/2;
 99//99;
 2/9=110/2;
 3/5=7,6=1,11=2,16=1,25=1,30=1,71=1,74=402,82=7/1,2,3;
 4/5=5,16=3,69=1/1;
 5/5=2,38=5/2;
 7//1,2,3,16;
 1/14=-1,18=20,19=15,26=3/3(-5);
 2/9=110/2;
 6/7=2,8=2,9=2,10=2,19=2,28=1/1;
 99/9=1/99;
 Leave Link    1 at Thu Aug 26 23:58:59 2021, MaxMem= 17179869184 cpu:         3.6
 (Enter /public3/home/sc51754/softwares/g09e01/l101.exe)
 ---------------------
 H2O_BLYP_PC2_OPT_FREQ
 ---------------------
 Symbolic Z-matrix:
 Charge =  0 Multiplicity = 1
 O                     0.03922   0.79557   0. 
 H                     0.99922   0.79581   0. 
 H                    -0.28101   1.70059   0. 
 
 NAtoms=      3 NQM=        3 NQMF=       0 NMMI=      0 NMMIF=      0
                NMic=       0 NMicF=      0.
                    Isotopes and Nuclear Properties:
 (Nuclear quadrupole moments (NQMom) in fm**2, nuclear magnetic moments (NMagM)
  in nuclear magnetons)

  Atom         1           2           3
 IAtWgt=          16           1           1
 AtmWgt=  15.9949146   1.0078250   1.0078250
 NucSpn=           0           1           1
 AtZEff=   0.0000000   0.0000000   0.0000000
 NQMom=    0.0000000   0.0000000   0.0000000
 NMagM=    0.0000000   2.7928460   2.7928460
 AtZNuc=   8.0000000   1.0000000   1.0000000
 Leave Link  101 at Thu Aug 26 23:58:59 2021, MaxMem= 17179869184 cpu:         4.8
 (Enter /public3/home/sc51754/softwares/g09e01/l103.exe)

 GradGradGradGradGradGradGradGradGradGradGradGradGradGradGradGradGradGrad
 Berny optimization.
 Initialization pass.
                           ----------------------------
                           !    Initial Parameters    !
                           ! (Angstroms and Degrees)  !
 --------------------------                            --------------------------
 ! Name  Definition              Value          Derivative Info.                !
 --------------------------------------------------------------------------------
 ! R1    R(1,2)                  0.96           estimate D2E/DX2                !
 ! R2    R(1,3)                  0.96           estimate D2E/DX2                !
 ! A1    A(2,1,3)              109.4712         estimate D2E/DX2                !
 --------------------------------------------------------------------------------
 Trust Radius=3.00D-01 FncErr=1.00D-07 GrdErr=1.00D-06
 Number of steps in this run=     20 maximum allowed number of steps=    100.
 GradGradGradGradGradGradGradGradGradGradGradGradGradGradGradGradGradGrad

 Leave Link  103 at Thu Aug 26 23:58:59 2021, MaxMem= 17179869184 cpu:         0.1
 (Enter /public3/home/sc51754/softwares/g09e01/l202.exe)
                          Input orientation:                          
 ---------------------------------------------------------------------
 Center     Atomic      Atomic             Coordinates (Angstroms)
 Number     Number       Type             X           Y           Z
 ---------------------------------------------------------------------
      1          8           0        0.039217    0.795571    0.000000
      2          1           0        0.999217    0.795812    0.000000
      3          1           0       -0.281010    1.700587    0.000000
 ---------------------------------------------------------------------
                    Distance matrix (angstroms):
                    1          2          3
     1  O    0.000000
     2  H    0.960000   0.000000
     3  H    0.960000   1.567673   0.000000
 Stoichiometry    H2O
 Framework group  C2V[C2(O),SGV(H2)]
 Deg. of freedom     2
 Full point group                 C2V     NOp   4
 Largest Abelian subgroup         C2V     NOp   4
 Largest concise Abelian subgroup C2      NOp   2
                         Standard orientation:                         
 ---------------------------------------------------------------------
 Center     Atomic      Atomic             Coordinates (Angstroms)
 Number     Number       Type             X           Y           Z
 ---------------------------------------------------------------------
      1          8           0        0.000000   -0.000000    0.110851
      2          1           0       -0.000000   -0.783837   -0.443405
      3          1           0        0.000000    0.783837   -0.443405
 ---------------------------------------------------------------------
 Rotational constants (GHZ):    919.0227056    408.0852078    282.5991526
 Leave Link  202 at Thu Aug 26 23:58:59 2021, MaxMem= 17179869184 cpu:         4.1
 (Enter /public3/home/sc51754/softwares/g09e01/l301.exe)
 General basis read from cards:  (5D, 7F)
 Centers:       2      3
 S 4 1.00
     Exponent=  7.5423000000D+01 Coefficients=  2.4065000000D-03
     Exponent=  1.1350000000D+01 Coefficients=  1.8487000000D-02
     Exponent=  2.5993000000D+00 Coefficients=  8.9742000000D-02
     Exponent=  7.3513000000D-01 Coefficients=  2.8111000000D-01
 S 1 1.00
     Exponent=  2.3167000000D-01 Coefficients=  1.0000000000D+00
 S 1 1.00
     Exponent=  7.4147000000D-02 Coefficients=  1.0000000000D+00
 P 1 1.00
     Exponent=  1.6000000000D+00 Coefficients=  1.0000000000D+00
 P 1 1.00
     Exponent=  4.5000000000D-01 Coefficients=  1.0000000000D+00
 D 1 1.00
     Exponent=  1.2500000000D+00 Coefficients=  1.0000000000D+00
 ****
 Centers:       1
 S 7 1.00
     Exponent=  1.4782000000D+04 Coefficients=  5.3519000000D-04
     Exponent=  2.2173000000D+03 Coefficients=  4.1375000000D-03
     Exponent=  5.0474000000D+02 Coefficients=  2.1245000000D-02
     Exponent=  1.4287000000D+02 Coefficients=  8.2453000000D-02
     Exponent=  4.6300000000D+01 Coefficients=  2.3671000000D-01
     Exponent=  1.6337000000D+01 Coefficients=  4.4039000000D-01
     Exponent=  5.9828000000D+00 Coefficients=  3.6465000000D-01
 S 7 1.00
     Exponent=  2.2173000000D+03 Coefficients= -1.9275000000D-06
     Exponent=  5.0474000000D+02 Coefficients= -5.7964000000D-05
     Exponent=  1.4287000000D+02 Coefficients= -7.9494000000D-04
     Exponent=  4.6300000000D+01 Coefficients= -7.3125000000D-03
     Exponent=  1.6337000000D+01 Coefficients= -4.0574000000D-02
     Exponent=  5.9828000000D+00 Coefficients= -9.1594000000D-02
     Exponent=  1.6718000000D+00 Coefficients=  2.0940000000D-01
 S 1 1.00
     Exponent=  6.4662000000D-01 Coefficients=  1.0000000000D+00
 S 1 1.00
     Exponent=  2.1669000000D-01 Coefficients=  1.0000000000D+00
 P 4 1.00
     Exponent=  6.0424000000D+01 Coefficients=  6.8949000000D-03
     Exponent=  1.3935000000D+01 Coefficients=  4.9005000000D-02
     Exponent=  4.1531000000D+00 Coefficients=  1.8255000000D-01
     Exponent=  1.4158000000D+00 Coefficients=  3.7633000000D-01
 P 1 1.00
     Exponent=  4.7549000000D-01 Coefficients=  1.0000000000D+00
 P 1 1.00
     Exponent=  1.4529000000D-01 Coefficients=  1.0000000000D+00
 D 1 1.00
     Exponent=  2.2000000000D+00 Coefficients=  1.0000000000D+00
 D 1 1.00
     Exponent=  6.5000000000D-01 Coefficients=  1.0000000000D+00
 F 1 1.00
     Exponent=  1.1000000000D+00 Coefficients=  1.0000000000D+00
 ****
 Ernie: Thresh=  0.10000D-02 Tol=  0.10000D-05 Strict=F.
 Ernie:  1 primitive shells out of 43 were deleted.
 There are    27 symmetry adapted cartesian basis functions of A1  symmetry.
 There are     7 symmetry adapted cartesian basis functions of A2  symmetry.
 There are    12 symmetry adapted cartesian basis functions of B1  symmetry.
 There are    19 symmetry adapted cartesian basis functions of B2  symmetry.
 There are    23 symmetry adapted basis functions of A1  symmetry.
 There are     7 symmetry adapted basis functions of A2  symmetry.
 There are    11 symmetry adapted basis functions of B1  symmetry.
 There are    17 symmetry adapted basis functions of B2  symmetry.
    58 basis functions,    91 primitive gaussians,    65 cartesian basis functions
     5 alpha electrons        5 beta electrons
       nuclear repulsion energy         9.1571759018 Hartrees.
 IExCor=  402 DFT=T Ex=B Corr=LYP ExCW=0 ScaHFX=  0.000000
 ScaDFX=  1.000000  1.000000  1.000000  1.000000 ScalE2=  1.000000  1.000000
 IRadAn=      0 IRanWt=     -1 IRanGd=            0 ICorTp=0 IEmpDi=  4
 NAtoms=    3 NActive=    3 NUniq=    2 SFac= 2.25D+00 NAtFMM=   60 NAOKFM=F Big=F
 Integral buffers will be    131072 words long.
 Raffenetti 2 integral format.
 Two-electron integral symmetry is turned on.
 Leave Link  301 at Thu Aug 26 23:58:59 2021, MaxMem= 17179869184 cpu:         1.1
 (Enter /public3/home/sc51754/softwares/g09e01/l302.exe)
 NPDir=0 NMtPBC=     1 NCelOv=     1 NCel=       1 NClECP=     1 NCelD=      1
         NCelK=      1 NCelE2=     1 NClLst=     1 CellRange=     0.0.
 One-electron integrals computed using PRISM.
 One-electron integral symmetry used in STVInt
 NBasis=    58 RedAO= T EigKep=  5.81D-03  NBF=    23     7    11    17
 NBsUse=    58 1.00D-06 EigRej= -1.00D+00 NBFU=    23     7    11    17
 Precomputing XC quadrature grid using
 IXCGrd= 4 IRadAn=           0 IRanWt=          -1 IRanGd=           0 AccXCQ= 0.00D+00.
 Generated NRdTot=       0 NPtTot=           0 NUsed=           0 NTot=          32
 NSgBfM=    65    65    65    65    65 MxSgAt=     3 MxSgA2=     3.
 Leave Link  302 at Thu Aug 26 23:59:00 2021, MaxMem= 17179869184 cpu:        38.8
 (Enter /public3/home/sc51754/softwares/g09e01/l303.exe)
 DipDrv:  MaxL=1.
 Leave Link  303 at Thu Aug 26 23:59:00 2021, MaxMem= 17179869184 cpu:        12.0
 (Enter /public3/home/sc51754/softwares/g09e01/l401.exe)
 ExpMin= 7.41D-02 ExpMax= 1.48D+04 ExpMxC= 5.05D+02 IAcc=2 IRadAn=         4 AccDes= 0.00D+00
 Harris functional with IExCor=  402 and IRadAn=       4 diagonalized for initial guess.
 HarFok:  IExCor=  402 AccDes= 0.00D+00 IRadAn=         4 IDoV= 1 UseB2=F ITyADJ=14
 ICtDFT=  3500011 ScaDFX=  1.000000  1.000000  1.000000  1.000000
 FoFCou: FMM=F IPFlag=           0 FMFlag=      100000 FMFlg1=           0
         NFxFlg=           0 DoJE=T BraDBF=F KetDBF=T FulRan=T
         wScrn=  0.000000 ICntrl=     500 IOpCl=  0 I1Cent=   200000004 NGrid=           0
         NMat0=    1 NMatS0=      1 NMatT0=    0 NMatD0=    1 NMtDS0=    0 NMtDT0=    0
 Petite list used in FoFCou.
 Harris En= -76.5039076685439    
 JPrj=0 DoOrth=F DoCkMO=F.
 Initial guess orbital symmetries:
       Occupied  (A1) (A1) (B2) (A1) (B1)
       Virtual   (A1) (B2) (B2) (A1) (A1) (B1) (B2) (A1) (A2) (A1)
                 (B1) (B2) (B2) (A1) (A1) (B2) (B1) (A1) (A2) (B2)
                 (A1) (B1) (A1) (B2) (B1) (A1) (A2) (B2) (B1) (B2)
                 (A1) (A2) (A1) (B2) (B1) (A2) (A1) (B2) (B2) (A1)
                 (B1) (A1) (B1) (B2) (A2) (B1) (A1) (A1) (A2) (A1)
                 (B2) (B2) (A1)
 The electronic state of the initial guess is 1-A1.
 Leave Link  401 at Thu Aug 26 23:59:01 2021, MaxMem= 17179869184 cpu:        39.1
 (Enter /public3/home/sc51754/softwares/g09e01/l502.exe)
 Closed shell SCF:
 Using DIIS extrapolation, IDIIS=  1040.
 Integral symmetry usage will be decided dynamically.
 Keep J ints in memory in symmetry-blocked form, NReq=3467901.
 IVT=       35997 IEndB=       35997 NGot= 17179869184 MDV= 17179451308
 LenX= 17179451308 LenY= 17179446642
 Requested convergence on RMS density matrix=1.00D-08 within 128 cycles.
 Requested convergence on MAX density matrix=1.00D-06.
 Requested convergence on             energy=1.00D-06.
 No special actions if energy rises.
 FoFCou: FMM=F IPFlag=           0 FMFlag=           0 FMFlg1=           0
         NFxFlg=           0 DoJE=F BraDBF=F KetDBF=F FulRan=T
         wScrn=  0.000000 ICntrl=     600 IOpCl=  0 I1Cent=           0 NGrid=           0
         NMat0=    1 NMatS0=   1711 NMatT0=    0 NMatD0=    1 NMtDS0=    0 NMtDT0=    0
 Petite list used in FoFCou.
 Integral accuracy reduced to 1.0D-05 until final iterations.

 Cycle   1  Pass 0  IDiag  1:
 E= -76.3636200718806    
 DIIS: error= 7.07D-02 at cycle   1 NSaved=   1.
 NSaved= 1 IEnMin= 1 EnMin= -76.3636200718806     IErMin= 1 ErrMin= 7.07D-02
 ErrMax= 7.07D-02  0.00D+00 EMaxC= 1.00D-01 BMatC= 1.20D-01 BMatP= 1.20D-01
 IDIUse=3 WtCom= 2.93D-01 WtEn= 7.07D-01
 Coeff-Com:  0.100D+01
 Coeff-En:   0.100D+01
 Coeff:      0.100D+01
 Gap=     0.066 Goal=   None    Shift=    0.000
 GapD=    0.066 DampG=0.500 DampE=0.500 DampFc=0.2500 IDamp=-1.
 Damping current iteration by 2.50D-01
 RMSDP=9.08D-03 MaxDP=1.75D-01              OVMax= 2.82D-01

 Cycle   2  Pass 0  IDiag  1:
 E= -76.3938377055572     Delta-E=       -0.030217633677 Rises=F Damp=T
 DIIS: error= 1.64D-02 at cycle   2 NSaved=   2.
 NSaved= 2 IEnMin= 2 EnMin= -76.3938377055572     IErMin= 2 ErrMin= 1.64D-02
 ErrMax= 1.64D-02  0.00D+00 EMaxC= 1.00D-01 BMatC= 5.75D-03 BMatP= 1.20D-01
 IDIUse=3 WtCom= 8.36D-01 WtEn= 1.64D-01
 Coeff-Com: -0.267D+00 0.127D+01
 Coeff-En:   0.945D-01 0.905D+00
 Coeff:     -0.207D+00 0.121D+01
 Gap=     0.219 Goal=   None    Shift=    0.000
 RMSDP=1.02D-03 MaxDP=1.62D-02 DE=-3.02D-02 OVMax= 1.96D-01

 Cycle   3  Pass 0  IDiag  1:
 E= -76.4513130125772     Delta-E=       -0.057475307020 Rises=F Damp=F
 DIIS: error= 4.23D-03 at cycle   3 NSaved=   3.
 NSaved= 3 IEnMin= 3 EnMin= -76.4513130125772     IErMin= 3 ErrMin= 4.23D-03
 ErrMax= 4.23D-03  0.00D+00 EMaxC= 1.00D-01 BMatC= 5.47D-04 BMatP= 5.75D-03
 IDIUse=3 WtCom= 9.58D-01 WtEn= 4.23D-02
 Coeff-Com:  0.296D-01 0.121D+00 0.849D+00
 Coeff-En:   0.000D+00 0.000D+00 0.100D+01
 Coeff:      0.284D-01 0.116D+00 0.856D+00
 Gap=     0.242 Goal=   None    Shift=    0.000
 RMSDP=1.59D-04 MaxDP=2.89D-03 DE=-5.75D-02 OVMax= 5.46D-03

 Cycle   4  Pass 0  IDiag  1:
 E= -76.4516475622795     Delta-E=       -0.000334549702 Rises=F Damp=F
 DIIS: error= 4.33D-04 at cycle   4 NSaved=   4.
 NSaved= 4 IEnMin= 4 EnMin= -76.4516475622795     IErMin= 4 ErrMin= 4.33D-04
 ErrMax= 4.33D-04  0.00D+00 EMaxC= 1.00D-01 BMatC= 4.07D-06 BMatP= 5.47D-04
 IDIUse=3 WtCom= 9.96D-01 WtEn= 4.33D-03
 Coeff-Com:  0.241D-01-0.490D-01 0.185D+00 0.840D+00
 Coeff-En:   0.000D+00 0.000D+00 0.000D+00 0.100D+01
 Coeff:      0.240D-01-0.488D-01 0.184D+00 0.840D+00
 Gap=     0.242 Goal=   None    Shift=    0.000
 RMSDP=1.85D-05 MaxDP=2.36D-04 DE=-3.35D-04 OVMax= 5.24D-04

 Cycle   5  Pass 0  IDiag  1:
 E= -76.4516492029349     Delta-E=       -0.000001640655 Rises=F Damp=F
 DIIS: error= 2.74D-04 at cycle   5 NSaved=   5.
 NSaved= 5 IEnMin= 5 EnMin= -76.4516492029349     IErMin= 5 ErrMin= 2.74D-04
 ErrMax= 2.74D-04  0.00D+00 EMaxC= 1.00D-01 BMatC= 1.58D-06 BMatP= 4.07D-06
 IDIUse=3 WtCom= 9.97D-01 WtEn= 2.74D-03
 Coeff-Com:  0.944D-02-0.136D-01 0.542D-01 0.218D+00 0.731D+00
 Coeff-En:   0.000D+00 0.000D+00 0.000D+00 0.000D+00 0.100D+01
 Coeff:      0.941D-02-0.135D-01 0.541D-01 0.218D+00 0.732D+00
 Gap=     0.242 Goal=   None    Shift=    0.000
 RMSDP=1.02D-05 MaxDP=1.66D-04 DE=-1.64D-06 OVMax= 3.00D-04

 Cycle   6  Pass 0  IDiag  1:
 E= -76.4516504228553     Delta-E=       -0.000001219920 Rises=F Damp=F
 DIIS: error= 5.64D-05 at cycle   6 NSaved=   6.
 NSaved= 6 IEnMin= 6 EnMin= -76.4516504228553     IErMin= 6 ErrMin= 5.64D-05
 ErrMax= 5.64D-05  0.00D+00 EMaxC= 1.00D-01 BMatC= 6.51D-08 BMatP= 1.58D-06
 IDIUse=1 WtCom= 1.00D+00 WtEn= 0.00D+00
 Coeff-Com:  0.367D-03-0.306D-03 0.156D-02-0.955D-02-0.180D+00 0.119D+01
 Coeff:      0.367D-03-0.306D-03 0.156D-02-0.955D-02-0.180D+00 0.119D+01
 Gap=     0.242 Goal=   None    Shift=    0.000
 RMSDP=2.47D-06 MaxDP=4.27D-05 DE=-1.22D-06 OVMax= 7.34D-05

 Initial convergence to 1.0D-05 achieved.  Increase integral accuracy.
 Cycle   7  Pass 1  IDiag  1:
 E= -76.4516392716555     Delta-E=        0.000011151200 Rises=F Damp=F
 DIIS: error= 5.17D-06 at cycle   1 NSaved=   1.
 NSaved= 1 IEnMin= 1 EnMin= -76.4516392716555     IErMin= 1 ErrMin= 5.17D-06
 ErrMax= 5.17D-06  0.00D+00 EMaxC= 1.00D-01 BMatC= 1.23D-09 BMatP= 1.23D-09
 IDIUse=1 WtCom= 1.00D+00 WtEn= 0.00D+00
 Coeff-Com:  0.100D+01
 Coeff:      0.100D+01
 Gap=     0.242 Goal=   None    Shift=    0.000
 RMSDP=2.47D-06 MaxDP=4.27D-05 DE= 1.12D-05 OVMax= 1.58D-05

 Cycle   8  Pass 1  IDiag  1:
 E= -76.4516392722572     Delta-E=       -0.000000000602 Rises=F Damp=F
 DIIS: error= 2.04D-06 at cycle   2 NSaved=   2.
 NSaved= 2 IEnMin= 2 EnMin= -76.4516392722572     IErMin= 2 ErrMin= 2.04D-06
 ErrMax= 2.04D-06  0.00D+00 EMaxC= 1.00D-01 BMatC= 8.84D-11 BMatP= 1.23D-09
 IDIUse=1 WtCom= 1.00D+00 WtEn= 0.00D+00
 Coeff-Com:  0.684D-01 0.932D+00
 Coeff:      0.684D-01 0.932D+00
 Gap=     0.242 Goal=   None    Shift=    0.000
 RMSDP=2.16D-07 MaxDP=3.75D-06 DE=-6.02D-10 OVMax= 6.50D-06

 Cycle   9  Pass 1  IDiag  1:
 E= -76.4516392721155     Delta-E=        0.000000000142 Rises=F Damp=F
 DIIS: error= 3.68D-06 at cycle   3 NSaved=   3.
 NSaved= 3 IEnMin= 2 EnMin= -76.4516392722572     IErMin= 2 ErrMin= 2.04D-06
 ErrMax= 3.68D-06  0.00D+00 EMaxC= 1.00D-01 BMatC= 3.05D-10 BMatP= 8.84D-11
 IDIUse=1 WtCom= 1.00D+00 WtEn= 0.00D+00
 Coeff-Com: -0.344D-02 0.653D+00 0.350D+00
 Coeff:     -0.344D-02 0.653D+00 0.350D+00
 Gap=     0.242 Goal=   None    Shift=    0.000
 RMSDP=1.31D-07 MaxDP=2.18D-06 DE= 1.42D-10 OVMax= 4.00D-06

 Cycle  10  Pass 1  IDiag  1:
 E= -76.4516392723220     Delta-E=       -0.000000000206 Rises=F Damp=F
 DIIS: error= 7.57D-08 at cycle   4 NSaved=   4.
 NSaved= 4 IEnMin= 4 EnMin= -76.4516392723220     IErMin= 4 ErrMin= 7.57D-08
 ErrMax= 7.57D-08  0.00D+00 EMaxC= 1.00D-01 BMatC= 1.52D-13 BMatP= 8.84D-11
 IDIUse=1 WtCom= 1.00D+00 WtEn= 0.00D+00
 Coeff-Com: -0.164D-02 0.111D+00 0.447D-01 0.846D+00
 Coeff:     -0.164D-02 0.111D+00 0.447D-01 0.846D+00
 Gap=     0.242 Goal=   None    Shift=    0.000
 RMSDP=5.36D-09 MaxDP=9.05D-08 DE=-2.06D-10 OVMax= 1.36D-07

 SCF Done:  E(RB-LYP) =  -76.4516392723     A.U. after   10 cycles
            NFock= 10  Conv=0.54D-08     -V/T= 2.0026
 KE= 7.625521829157D+01 PE=-1.992497293329D+02 EE= 3.738569586714D+01
 Leave Link  502 at Thu Aug 26 23:59:02 2021, MaxMem= 17179869184 cpu:        32.9
 (Enter /public3/home/sc51754/softwares/g09e01/l601.exe)
 Copying SCF densities to generalized density rwf, IOpCl= 0 IROHF=0.

 **********************************************************************

            Population analysis using the SCF density.

 **********************************************************************

 Orbital symmetries:
       Occupied  (A1) (A1) (B2) (A1) (B1)
       Virtual   (A1) (B2) (A1) (B2) (A1) (B1) (B2) (A1) (A2) (A1)
                 (B1) (B2) (B2) (A1) (A1) (B2) (B1) (A1) (A2) (B2)
                 (A1) (B1) (A1) (B2) (B1) (A1) (A2) (B2) (B1) (B2)
                 (A1) (A2) (A1) (B2) (B1) (A2) (A1) (B2) (B2) (A1)
                 (B1) (A1) (B1) (B2) (A2) (A1) (B1) (A2) (A1) (A1)
                 (B2) (B2) (A1)
 The electronic state is 1-A1.
 Alpha  occ. eigenvalues --  -18.77360  -0.91876  -0.48718  -0.32625  -0.25892
 Alpha virt. eigenvalues --   -0.01645   0.04608   0.25264   0.25378   0.29676
 Alpha virt. eigenvalues --    0.30702   0.41272   0.65113   0.71659   0.76344
 Alpha virt. eigenvalues --    0.84782   1.00129   1.11274   1.14570   1.37857
 Alpha virt. eigenvalues --    1.42382   1.68231   1.77357   1.77942   1.99213
 Alpha virt. eigenvalues --    2.02423   2.17269   2.78632   3.28415   3.32179
 Alpha virt. eigenvalues --    3.45951   3.46846   3.64849   3.70972   3.72193
 Alpha virt. eigenvalues --    3.96209   3.96940   4.16599   4.31478   4.39145
 Alpha virt. eigenvalues --    4.43032   4.55655   4.73569   4.74960   4.78874
 Alpha virt. eigenvalues --    4.87993   5.54350   5.86122   5.98554   6.06234
 Alpha virt. eigenvalues --    6.06625   6.08637   6.19617   6.20264   6.77215
 Alpha virt. eigenvalues --    6.78272   7.23216  15.01367
          Condensed to atoms (all electrons):
               1          2          3
     1  O    7.678691   0.362694   0.362694
     2  H    0.362694   0.466945  -0.031679
     3  H    0.362694  -0.031679   0.466945
 Mulliken charges:
               1
     1  O   -0.404079
     2  H    0.202040
     3  H    0.202040
 Sum of Mulliken charges =  -0.00000
 Mulliken charges with hydrogens summed into heavy atoms:
               1
     1  O   -0.000000
 Electronic spatial extent (au):  <R**2>=             20.0281
 Charge=             -0.0000 electrons
 Dipole moment (field-independent basis, Debye):
    X=              0.0000    Y=             -0.0000    Z=             -1.8838  Tot=              1.8838
 Quadrupole moment (field-independent basis, Debye-Ang):
   XX=             -7.7361   YY=             -4.3177   ZZ=             -6.6217
   XY=              0.0000   XZ=             -0.0000   YZ=              0.0000
 Traceless Quadrupole moment (field-independent basis, Debye-Ang):
   XX=             -1.5109   YY=              1.9075   ZZ=             -0.3965
   XY=              0.0000   XZ=             -0.0000   YZ=              0.0000
 Octapole moment (field-independent basis, Debye-Ang**2):
  XXX=             -0.0000  YYY=             -0.0000  ZZZ=             -1.1544  XYY=              0.0000
  XXY=              0.0000  XXZ=             -0.3218  XZZ=             -0.0000  YZZ=             -0.0000
  YYZ=             -1.2845  XYZ=             -0.0000
 Hexadecapole moment (field-independent basis, Debye-Ang**3):
 XXXX=             -7.2311 YYYY=             -6.5510 ZZZZ=             -7.7756 XXXY=             -0.0000
 XXXZ=              0.0000 YYYX=             -0.0000 YYYZ=              0.0000 ZZZX=              0.0000
 ZZZY=             -0.0000 XXYY=             -2.6388 XXZZ=             -2.5429 YYZZ=             -2.1439
 XXYZ=             -0.0000 YYXZ=             -0.0000 ZZXY=             -0.0000
 N-N= 9.157175901845D+00 E-N=-1.992497312737D+02  KE= 7.625521829157D+01
 Symmetry A1   KE= 6.800952152007D+01
 Symmetry A2   KE= 2.532285319246D-20
 Symmetry B1   KE= 4.556759819740D+00
 Symmetry B2   KE= 3.688936951756D+00
 No NMR shielding tensors so no spin-rotation constants.
 Leave Link  601 at Thu Aug 26 23:59:03 2021, MaxMem= 17179869184 cpu:        54.5
 (Enter /public3/home/sc51754/softwares/g09e01/l701.exe)
 Compute integral first derivatives.
 ... and contract with generalized density number  0.
 Leave Link  701 at Thu Aug 26 23:59:04 2021, MaxMem= 17179869184 cpu:        56.9
 (Enter /public3/home/sc51754/softwares/g09e01/l702.exe)
 L702 exits ... SP integral derivatives will be done elsewhere.
 Leave Link  702 at Thu Aug 26 23:59:04 2021, MaxMem= 17179869184 cpu:         0.3
 (Enter /public3/home/sc51754/softwares/g09e01/l703.exe)
 Compute integral first derivatives, UseDBF=F ICtDFT=           0.
 Integral derivatives from FoFJK, PRISM(SPDF).
 Calling FoFJK, ICntrl=      2527 FMM=F ISym2X=1 I1Cent= 0 IOpClX= 0 NMat=1 NMatS=1 NMatT=0.
 FoFJK:  IHMeth= 1 ICntrl=    2527 DoSepK=F KAlg= 0 I1Cent=   0 FoldK=F
 IRaf=         0 NMat=   1 IRICut=       1 DoRegI=T DoRafI=F ISym2E= 1.
 FoFCou: FMM=F IPFlag=           0 FMFlag=      100000 FMFlg1=         800
         NFxFlg=           0 DoJE=F BraDBF=F KetDBF=F FulRan=T
         wScrn=  0.000000 ICntrl=    2527 IOpCl=  0 I1Cent=           0 NGrid=           0
         NMat0=    1 NMatS0=      1 NMatT0=    0 NMatD0=    1 NMtDS0=    0 NMtDT0=    0
 Petite list used in FoFCou.
 Leave Link  703 at Thu Aug 26 23:59:05 2021, MaxMem= 17179869184 cpu:        51.1
 (Enter /public3/home/sc51754/softwares/g09e01/l716.exe)
 Dipole        = 3.57044597D-17-2.22044605D-16-7.41159788D-01
 ***** Axes restored to original set *****
 -------------------------------------------------------------------
 Center     Atomic                   Forces (Hartrees/Bohr)
 Number     Number              X              Y              Z
 -------------------------------------------------------------------
      1        8          -0.011077202   -0.015673877    0.000000000
      2        1           0.007646418    0.006347281   -0.000000000
      3        1           0.003430783    0.009326597   -0.000000000
 -------------------------------------------------------------------
 Cartesian Forces:  Max     0.015673877 RMS     0.007929454
 Leave Link  716 at Thu Aug 26 23:59:05 2021, MaxMem= 17179869184 cpu:         0.4
 (Enter /public3/home/sc51754/softwares/g09e01/l103.exe)

 GradGradGradGradGradGradGradGradGradGradGradGradGradGradGradGradGradGrad
 Berny optimization.
 FormGI is forming the generalized inverse of G from B-inverse, IUseBI=4.
 Internal  Forces:  Max     0.011511353 RMS     0.009119492
 Search for a local minimum.
 Step number   1 out of a maximum of   20
 All quantities printed in internal units (Hartrees-Bohrs-Radians)
 RMS Force = .91195D-02 SwitMx=.10000D-02 MixMth= 1
 Mixed Optimization -- RFO/linear search
 Second derivative matrix not updated -- first step.
 The second derivative matrix:
                          R1        R2        A1
           R1           0.55473
           R2           0.00000   0.55473
           A1           0.00000   0.00000   0.16000
 ITU=  0
     Eigenvalues ---    0.16000   0.55473   0.55473
 RFO step:  Lambda=-1.03337210D-03 EMin= 1.60000000D-01
 Linear search not attempted -- first point.
 Iteration  1 RMS(Cart)=  0.03579768 RMS(Int)=  0.00099433
 Iteration  2 RMS(Cart)=  0.00101256 RMS(Int)=  0.00000021
 Iteration  3 RMS(Cart)=  0.00000018 RMS(Int)=  0.00000000
 ITry= 1 IFail=0 DXMaxC= 3.41D-02 DCOld= 1.00D+10 DXMaxT= 3.00D-01 DXLimC= 3.00D+00 Rises=F
 ClnCor:  largest displacement from symmetrization is 9.18D-15 for atom     3.
 Variable       Old X    -DE/DX   Delta X   Delta X   Delta X     New X
                                 (Linear)    (Quad)   (Total)
    R1        1.81414   0.00765   0.00000   0.01376   0.01376   1.82790
    R2        1.81414   0.00765   0.00000   0.01376   0.01376   1.82790
    A1        1.91063  -0.01151   0.00000  -0.07148  -0.07148   1.83915
         Item               Value     Threshold  Converged?
 Maximum Force            0.011511     0.000450     NO 
 RMS     Force            0.009119     0.000300     NO 
 Maximum Displacement     0.034059     0.001800     NO 
 RMS     Displacement     0.036301     0.001200     NO 
 Predicted change in Energy=-5.195219D-04
 Lowest energy point so far.  Saving SCF results.
 GradGradGradGradGradGradGradGradGradGradGradGradGradGradGradGradGradGrad

 Leave Link  103 at Thu Aug 26 23:59:06 2021, MaxMem= 17179869184 cpu:        22.1
 (Enter /public3/home/sc51754/softwares/g09e01/l202.exe)
                          Input orientation:                          
 ---------------------------------------------------------------------
 Center     Atomic      Atomic             Coordinates (Angstroms)
 Number     Number       Type             X           Y           Z
 ---------------------------------------------------------------------
      1          8           0        0.026878    0.778111    0.000000
      2          1           0        0.993533    0.812919   -0.000000
      3          1           0       -0.262987    1.700940    0.000000
 ---------------------------------------------------------------------
                    Distance matrix (angstroms):
                    1          2          3
     1  O    0.000000
     2  H    0.967282   0.000000
     3  H    0.967282   1.538644   0.000000
 Stoichiometry    H2O
 Framework group  C2V[C2(O),SGV(H2)]
 Deg. of freedom     2
 Full point group                 C2V     NOp   4
 RotChk:  IX=3 Diff= 4.28D-16
 Largest Abelian subgroup         C2V     NOp   4
 Largest concise Abelian subgroup C2      NOp   2
                         Standard orientation:                         
 ---------------------------------------------------------------------
 Center     Atomic      Atomic             Coordinates (Angstroms)
 Number     Number       Type             X           Y           Z
 ---------------------------------------------------------------------
      1          8           0       -0.000000   -0.000000    0.117265
      2          1           0        0.000000   -0.769322   -0.469061
      3          1           0        0.000000    0.769322   -0.469061
 ---------------------------------------------------------------------
 Rotational constants (GHZ):    821.2370727    423.6293104    279.4678204
 Leave Link  202 at Thu Aug 26 23:59:06 2021, MaxMem= 17179869184 cpu:         8.8
 (Enter /public3/home/sc51754/softwares/g09e01/l301.exe)
 Basis read from rwf:  (5D, 7F)
 No pseudopotential information found on rwf file.
 There are    27 symmetry adapted cartesian basis functions of A1  symmetry.
 There are     7 symmetry adapted cartesian basis functions of A2  symmetry.
 There are    12 symmetry adapted cartesian basis functions of B1  symmetry.
 There are    19 symmetry adapted cartesian basis functions of B2  symmetry.
 There are    23 symmetry adapted basis functions of A1  symmetry.
 There are     7 symmetry adapted basis functions of A2  symmetry.
 There are    11 symmetry adapted basis functions of B1  symmetry.
 There are    17 symmetry adapted basis functions of B2  symmetry.
    58 basis functions,    91 primitive gaussians,    65 cartesian basis functions
     5 alpha electrons        5 beta electrons
       nuclear repulsion energy         9.0971468803 Hartrees.
 IExCor=  402 DFT=T Ex=B Corr=LYP ExCW=0 ScaHFX=  0.000000
 ScaDFX=  1.000000  1.000000  1.000000  1.000000 ScalE2=  1.000000  1.000000
 IRadAn=      0 IRanWt=     -1 IRanGd=            0 ICorTp=0 IEmpDi=  4
 NAtoms=    3 NActive=    3 NUniq=    2 SFac= 2.25D+00 NAtFMM=   60 NAOKFM=F Big=F
 Integral buffers will be    131072 words long.
 Raffenetti 2 integral format.
 Two-electron integral symmetry is turned on.
 No density basis found on file   724.
 Leave Link  301 at Thu Aug 26 23:59:06 2021, MaxMem= 17179869184 cpu:         0.9
 (Enter /public3/home/sc51754/softwares/g09e01/l302.exe)
 NPDir=0 NMtPBC=     1 NCelOv=     1 NCel=       1 NClECP=     1 NCelD=      1
         NCelK=      1 NCelE2=     1 NClLst=     1 CellRange=     0.0.
 One-electron integrals computed using PRISM.
 One-electron integral symmetry used in STVInt
 NBasis=    58 RedAO= T EigKep=  5.91D-03  NBF=    23     7    11    17
 NBsUse=    58 1.00D-06 EigRej= -1.00D+00 NBFU=    23     7    11    17
 Precomputing XC quadrature grid using
 IXCGrd= 4 IRadAn=           0 IRanWt=          -1 IRanGd=           0 AccXCQ= 0.00D+00.
 Generated NRdTot=       0 NPtTot=           0 NUsed=           0 NTot=          32
 NSgBfM=    65    65    65    65    65 MxSgAt=     3 MxSgA2=     3.
 Leave Link  302 at Thu Aug 26 23:59:07 2021, MaxMem= 17179869184 cpu:        42.8
 (Enter /public3/home/sc51754/softwares/g09e01/l303.exe)
 DipDrv:  MaxL=1.
 Leave Link  303 at Thu Aug 26 23:59:08 2021, MaxMem= 17179869184 cpu:        13.9
 (Enter /public3/home/sc51754/softwares/g09e01/l401.exe)
 Initial guess from the checkpoint file:  "H2O_BLYP_PC2_OPT_FREQ.chk"
 B after Tr=    -0.000000    0.000000    0.000000
         Rot=    1.000000   -0.000000   -0.000000   -0.000000 Ang=   0.00 deg.
 Guess basis will be translated and rotated to current coordinates.
 JPrj=2 DoOrth=T DoCkMO=T.
 Initial guess orbital symmetries:
       Occupied  (A1) (A1) (B2) (A1) (B1)
       Virtual   (A1) (A1) (A1) (A1) (A1) (A1) (A1) (A1) (A1) (A1)
                 (A1) (A1) (A1) (A1) (A1) (A1) (A1) (A1) (A1) (A1)
                 (A2) (A2) (A2) (A2) (A2) (A2) (A2) (B1) (B1) (B1)
                 (B1) (B1) (B1) (B1) (B1) (B1) (B1) (B2) (B2) (B2)
                 (B2) (B2) (B2) (B2) (B2) (B2) (B2) (B2) (B2) (B2)
                 (B2) (B2) (B2)
 The electronic state of the initial guess is 1-A1.
 Generating alternative initial guess.
 ExpMin= 7.41D-02 ExpMax= 1.48D+04 ExpMxC= 5.05D+02 IAcc=2 IRadAn=         4 AccDes= 0.00D+00
 Harris functional with IExCor=  402 and IRadAn=       4 diagonalized for initial guess.
 HarFok:  IExCor=  402 AccDes= 0.00D+00 IRadAn=         4 IDoV= 1 UseB2=F ITyADJ=14
 ICtDFT=  3500011 ScaDFX=  1.000000  1.000000  1.000000  1.000000
 FoFCou: FMM=F IPFlag=           0 FMFlag=      100000 FMFlg1=           0
         NFxFlg=           0 DoJE=T BraDBF=F KetDBF=T FulRan=T
         wScrn=  0.000000 ICntrl=     500 IOpCl=  0 I1Cent=   200000004 NGrid=           0
         NMat0=    1 NMatS0=      1 NMatT0=    0 NMatD0=    1 NMtDS0=    0 NMtDT0=    0
 Petite list used in FoFCou.
 Harris En= -76.5031126155527    
 Leave Link  401 at Thu Aug 26 23:59:09 2021, MaxMem= 17179869184 cpu:        67.4
 (Enter /public3/home/sc51754/softwares/g09e01/l502.exe)
 Closed shell SCF:
 Using DIIS extrapolation, IDIIS=  1040.
 Integral symmetry usage will be decided dynamically.
 Keep J ints in memory in symmetry-blocked form, NReq=3467901.
 IVT=       35997 IEndB=       35997 NGot= 17179869184 MDV= 17179451308
 LenX= 17179451308 LenY= 17179446642
 Requested convergence on RMS density matrix=1.00D-08 within 128 cycles.
 Requested convergence on MAX density matrix=1.00D-06.
 Requested convergence on             energy=1.00D-06.
 No special actions if energy rises.
 FoFCou: FMM=F IPFlag=           0 FMFlag=           0 FMFlg1=           0
         NFxFlg=           0 DoJE=F BraDBF=F KetDBF=F FulRan=T
         wScrn=  0.000000 ICntrl=     600 IOpCl=  0 I1Cent=           0 NGrid=           0
         NMat0=    1 NMatS0=   1711 NMatT0=    0 NMatD0=    1 NMtDS0=    0 NMtDT0=    0
 Petite list used in FoFCou.
 Integral accuracy reduced to 1.0D-05 until final iterations.

 Cycle   1  Pass 0  IDiag  1:
 E= -76.4519907837251    
 DIIS: error= 3.18D-03 at cycle   1 NSaved=   1.
 NSaved= 1 IEnMin= 1 EnMin= -76.4519907837251     IErMin= 1 ErrMin= 3.18D-03
 ErrMax= 3.18D-03  0.00D+00 EMaxC= 1.00D-01 BMatC= 3.00D-04 BMatP= 3.00D-04
 IDIUse=3 WtCom= 9.68D-01 WtEn= 3.18D-02
 Coeff-Com:  0.100D+01
 Coeff-En:   0.100D+01
 Coeff:      0.100D+01
 Gap=     1.051 Goal=   None    Shift=    0.000
 GapD=    1.051 DampG=2.000 DampE=1.000 DampFc=2.0000 IDamp=-1.
 RMSDP=4.15D-04 MaxDP=7.07D-03              OVMax= 9.11D-03

 Cycle   2  Pass 0  IDiag  1:
 E= -76.4522532923961     Delta-E=       -0.000262508671 Rises=F Damp=F
 DIIS: error= 9.35D-04 at cycle   2 NSaved=   2.
 NSaved= 2 IEnMin= 2 EnMin= -76.4522532923961     IErMin= 2 ErrMin= 9.35D-04
 ErrMax= 9.35D-04  0.00D+00 EMaxC= 1.00D-01 BMatC= 2.19D-05 BMatP= 3.00D-04
 IDIUse=3 WtCom= 9.91D-01 WtEn= 9.35D-03
 Coeff-Com:  0.990D-01 0.901D+00
 Coeff-En:   0.000D+00 0.100D+01
 Coeff:      0.981D-01 0.902D+00
 Gap=     0.243 Goal=   None    Shift=    0.000
 RMSDP=9.13D-05 MaxDP=1.53D-03 DE=-2.63D-04 OVMax= 2.97D-03

 Cycle   3  Pass 0  IDiag  1:
 E= -76.4522290045466     Delta-E=        0.000024287850 Rises=F Damp=F
 DIIS: error= 1.60D-03 at cycle   3 NSaved=   3.
 NSaved= 3 IEnMin= 2 EnMin= -76.4522532923961     IErMin= 2 ErrMin= 9.35D-04
 ErrMax= 1.60D-03  0.00D+00 EMaxC= 1.00D-01 BMatC= 5.81D-05 BMatP= 2.19D-05
 IDIUse=3 WtCom= 2.00D-01 WtEn= 8.00D-01
 Coeff-Com:  0.111D-01 0.618D+00 0.371D+00
 Coeff-En:   0.000D+00 0.683D+00 0.317D+00
 Coeff:      0.221D-02 0.670D+00 0.327D+00
 Gap=     0.241 Goal=   None    Shift=    0.000
 RMSDP=5.15D-05 MaxDP=8.57D-04 DE= 2.43D-05 OVMax= 1.55D-03

 Cycle   4  Pass 0  IDiag  1:
 E= -76.4522678004807     Delta-E=       -0.000038795934 Rises=F Damp=F
 DIIS: error= 1.89D-04 at cycle   4 NSaved=   4.
 NSaved= 4 IEnMin= 4 EnMin= -76.4522678004807     IErMin= 4 ErrMin= 1.89D-04
 ErrMax= 1.89D-04  0.00D+00 EMaxC= 1.00D-01 BMatC= 9.49D-07 BMatP= 2.19D-05
 IDIUse=3 WtCom= 9.98D-01 WtEn= 1.89D-03
 Coeff-Com:  0.779D-03 0.199D+00 0.252D-01 0.775D+00
 Coeff-En:   0.000D+00 0.000D+00 0.000D+00 0.100D+01
 Coeff:      0.778D-03 0.198D+00 0.251D-01 0.776D+00
 Gap=     0.241 Goal=   None    Shift=    0.000
 RMSDP=7.21D-06 MaxDP=1.34D-04 DE=-3.88D-05 OVMax= 2.29D-04

 Initial convergence to 1.0D-05 achieved.  Increase integral accuracy.
 Cycle   5  Pass 1  IDiag  1:
 E= -76.4522614039849     Delta-E=        0.000006396496 Rises=F Damp=F
 DIIS: error= 1.10D-05 at cycle   1 NSaved=   1.
 NSaved= 1 IEnMin= 1 EnMin= -76.4522614039849     IErMin= 1 ErrMin= 1.10D-05
 ErrMax= 1.10D-05  0.00D+00 EMaxC= 1.00D-01 BMatC= 3.17D-09 BMatP= 3.17D-09
 IDIUse=1 WtCom= 1.00D+00 WtEn= 0.00D+00
 Coeff-Com:  0.100D+01
 Coeff:      0.100D+01
 Gap=     0.241 Goal=   None    Shift=    0.000
 RMSDP=7.21D-06 MaxDP=1.34D-04 DE= 6.40D-06 OVMax= 2.96D-05

 Cycle   6  Pass 1  IDiag  1:
 E= -76.4522614046765     Delta-E=       -0.000000000692 Rises=F Damp=F
 DIIS: error= 8.19D-06 at cycle   2 NSaved=   2.
 NSaved= 2 IEnMin= 2 EnMin= -76.4522614046765     IErMin= 2 ErrMin= 8.19D-06
 ErrMax= 8.19D-06  0.00D+00 EMaxC= 1.00D-01 BMatC= 1.95D-09 BMatP= 3.17D-09
 IDIUse=1 WtCom= 1.00D+00 WtEn= 0.00D+00
 Coeff-Com:  0.425D+00 0.575D+00
 Coeff:      0.425D+00 0.575D+00
 Gap=     0.241 Goal=   None    Shift=    0.000
 RMSDP=5.85D-07 MaxDP=8.93D-06 DE=-6.92D-10 OVMax= 1.85D-05

 Cycle   7  Pass 1  IDiag  1:
 E= -76.4522614054248     Delta-E=       -0.000000000748 Rises=F Damp=F
 DIIS: error= 6.46D-06 at cycle   3 NSaved=   3.
 NSaved= 3 IEnMin= 3 EnMin= -76.4522614054248     IErMin= 3 ErrMin= 6.46D-06
 ErrMax= 6.46D-06  0.00D+00 EMaxC= 1.00D-01 BMatC= 9.40D-10 BMatP= 1.95D-09
 IDIUse=1 WtCom= 1.00D+00 WtEn= 0.00D+00
 Coeff-Com:  0.124D+00 0.401D+00 0.475D+00
 Coeff:      0.124D+00 0.401D+00 0.475D+00
 Gap=     0.241 Goal=   None    Shift=    0.000
 RMSDP=2.47D-07 MaxDP=4.35D-06 DE=-7.48D-10 OVMax= 7.62D-06

 Cycle   8  Pass 1  IDiag  1:
 E= -76.4522614060570     Delta-E=       -0.000000000632 Rises=F Damp=F
 DIIS: error= 5.51D-07 at cycle   4 NSaved=   4.
 NSaved= 4 IEnMin= 4 EnMin= -76.4522614060570     IErMin= 4 ErrMin= 5.51D-07
 ErrMax= 5.51D-07  0.00D+00 EMaxC= 1.00D-01 BMatC= 8.79D-12 BMatP= 9.40D-10
 IDIUse=1 WtCom= 1.00D+00 WtEn= 0.00D+00
 Coeff-Com:  0.111D-02 0.807D-01 0.147D+00 0.771D+00
 Coeff:      0.111D-02 0.807D-01 0.147D+00 0.771D+00
 Gap=     0.241 Goal=   None    Shift=    0.000
 RMSDP=2.36D-08 MaxDP=3.79D-07 DE=-6.32D-10 OVMax= 7.00D-07

 Cycle   9  Pass 1  IDiag  1:
 E= -76.4522614060631     Delta-E=       -0.000000000006 Rises=F Damp=F
 DIIS: error= 1.73D-08 at cycle   5 NSaved=   5.
 NSaved= 5 IEnMin= 5 EnMin= -76.4522614060631     IErMin= 5 ErrMin= 1.73D-08
 ErrMax= 1.73D-08  0.00D+00 EMaxC= 1.00D-01 BMatC= 5.08D-15 BMatP= 8.79D-12
 IDIUse=1 WtCom= 1.00D+00 WtEn= 0.00D+00
 Coeff-Com: -0.476D-03 0.752D-02 0.149D-01 0.873D-01 0.891D+00
 Coeff:     -0.476D-03 0.752D-02 0.149D-01 0.873D-01 0.891D+00
 Gap=     0.241 Goal=   None    Shift=    0.000
 RMSDP=8.57D-10 MaxDP=1.14D-08 DE=-6.14D-12 OVMax= 3.75D-08

 SCF Done:  E(RB-LYP) =  -76.4522614061     A.U. after    9 cycles
            NFock=  9  Conv=0.86D-09     -V/T= 2.0028
 KE= 7.623960753648D+01 PE=-1.991196631022D+02 EE= 3.733064727934D+01
 Leave Link  502 at Thu Aug 26 23:59:10 2021, MaxMem= 17179869184 cpu:        25.8
 (Enter /public3/home/sc51754/softwares/g09e01/l701.exe)
 Compute integral first derivatives.
 ... and contract with generalized density number  0.
 Leave Link  701 at Thu Aug 26 23:59:11 2021, MaxMem= 17179869184 cpu:        54.2
 (Enter /public3/home/sc51754/softwares/g09e01/l702.exe)
 L702 exits ... SP integral derivatives will be done elsewhere.
 Leave Link  702 at Thu Aug 26 23:59:11 2021, MaxMem= 17179869184 cpu:         0.3
 (Enter /public3/home/sc51754/softwares/g09e01/l703.exe)
 Compute integral first derivatives, UseDBF=F ICtDFT=           0.
 Integral derivatives from FoFJK, PRISM(SPDF).
 Calling FoFJK, ICntrl=      2527 FMM=F ISym2X=1 I1Cent= 0 IOpClX= 0 NMat=1 NMatS=1 NMatT=0.
 FoFJK:  IHMeth= 1 ICntrl=    2527 DoSepK=F KAlg= 0 I1Cent=   0 FoldK=F
 IRaf=         0 NMat=   1 IRICut=       1 DoRegI=T DoRafI=F ISym2E= 1.
 FoFCou: FMM=F IPFlag=           0 FMFlag=      100000 FMFlg1=         800
         NFxFlg=           0 DoJE=F BraDBF=F KetDBF=F FulRan=T
         wScrn=  0.000000 ICntrl=    2527 IOpCl=  0 I1Cent=           0 NGrid=           0
         NMat0=    1 NMatS0=      1 NMatT0=    0 NMatD0=    1 NMtDS0=    0 NMtDT0=    0
 Petite list used in FoFCou.
 Leave Link  703 at Thu Aug 26 23:59:12 2021, MaxMem= 17179869184 cpu:        46.3
 (Enter /public3/home/sc51754/softwares/g09e01/l716.exe)
 Dipole        = 3.50971628D-17 2.22044605D-16-7.66113631D-01
 ***** Axes restored to original set *****
 -------------------------------------------------------------------
 Center     Atomic                   Forces (Hartrees/Bohr)
 Number     Number              X              Y              Z
 -------------------------------------------------------------------
      1        8          -0.002782947   -0.003937779    0.000000000
      2        1           0.002640570    0.001086115   -0.000000000
      3        1           0.000142377    0.002851664   -0.000000000
 -------------------------------------------------------------------
 Cartesian Forces:  Max     0.003937779 RMS     0.002096437
 Leave Link  716 at Thu Aug 26 23:59:12 2021, MaxMem= 17179869184 cpu:         0.3
 (Enter /public3/home/sc51754/softwares/g09e01/l103.exe)

 GradGradGradGradGradGradGradGradGradGradGradGradGradGradGradGradGradGrad
 Berny optimization.
 Using GEDIIS/GDIIS optimizer.
 FormGI is forming the generalized inverse of G from B-inverse, IUseBI=4.
 Internal  Forces:  Max     0.002677945 RMS     0.002423501
 Search for a local minimum.
 Step number   2 out of a maximum of   20
 All quantities printed in internal units (Hartrees-Bohrs-Radians)
 RMS Force = .24235D-02 SwitMx=.10000D-02 MixMth= 1
 Mixed Optimization -- RFO/linear search
 Update second derivatives using D2CorX and points    1    2
 DE= -6.22D-04 DEPred=-5.20D-04 R= 1.20D+00
 TightC=F SS=  1.41D+00  RLast= 7.41D-02 DXNew= 5.0454D-01 2.2226D-01
 Trust test= 1.20D+00 RLast= 7.41D-02 DXMaxT set to 3.00D-01
 The second derivative matrix:
                          R1        R2        A1
           R1           0.52778
           R2          -0.02695   0.52778
           A1           0.02689   0.02689   0.14606
 ITU=  1  0
 Use linear search instead of GDIIS.
     Eigenvalues ---    0.14203   0.50486   0.55473
 RFO step:  Lambda=-1.00067194D-05 EMin= 1.42030617D-01
 Quartic linear search produced a step of  0.23636.
 Iteration  1 RMS(Cart)=  0.00696252 RMS(Int)=  0.00004535
 Iteration  2 RMS(Cart)=  0.00005031 RMS(Int)=  0.00000000
 Iteration  3 RMS(Cart)=  0.00000000 RMS(Int)=  0.00000000
 ITry= 1 IFail=0 DXMaxC= 7.55D-03 DCOld= 1.00D+10 DXMaxT= 3.00D-01 DXLimC= 3.00D+00 Rises=F
 ClnCor:  largest displacement from symmetrization is 2.98D-15 for atom     3.
 Variable       Old X    -DE/DX   Delta X   Delta X   Delta X     New X
                                 (Linear)    (Quad)   (Total)
    R1        1.82790   0.00268   0.00325   0.00281   0.00606   1.83396
    R2        1.82790   0.00268   0.00325   0.00281   0.00606   1.83396
    A1        1.83915  -0.00181  -0.01690   0.00288  -0.01401   1.82513
         Item               Value     Threshold  Converged?
 Maximum Force            0.002678     0.000450     NO 
 RMS     Force            0.002424     0.000300     NO 
 Maximum Displacement     0.007551     0.001800     NO 
 RMS     Displacement     0.006983     0.001200     NO 
 Predicted change in Energy=-2.965876D-05
 Lowest energy point so far.  Saving SCF results.
 GradGradGradGradGradGradGradGradGradGradGradGradGradGradGradGradGradGrad

 Leave Link  103 at Thu Aug 26 23:59:12 2021, MaxMem= 17179869184 cpu:        14.6
 (Enter /public3/home/sc51754/softwares/g09e01/l202.exe)
                          Input orientation:                          
 ---------------------------------------------------------------------
 Center     Atomic      Atomic             Coordinates (Angstroms)
 Number     Number       Type             X           Y           Z
 ---------------------------------------------------------------------
      1          8           0        0.024053    0.774115    0.000000
      2          1           0        0.993648    0.815834   -0.000000
      3          1           0       -0.260278    1.702021    0.000000
 ---------------------------------------------------------------------
                    Distance matrix (angstroms):
                    1          2          3
     1  O    0.000000
     2  H    0.970492   0.000000
     3  H    0.970492   1.535466   0.000000
 Stoichiometry    H2O
 Framework group  C2V[C2(O),SGV(H2)]
 Deg. of freedom     2
 Full point group                 C2V     NOp   4
 RotChk:  IX=3 Diff= 1.57D-16
 Largest Abelian subgroup         C2V     NOp   4
 Largest concise Abelian subgroup C2      NOp   2
                         Standard orientation:                         
 ---------------------------------------------------------------------
 Center     Atomic      Atomic             Coordinates (Angstroms)
 Number     Number       Type             X           Y           Z
 ---------------------------------------------------------------------
      1          8           0        0.000000   -0.000000    0.118733
      2          1           0        0.000000   -0.767733   -0.474933
      3          1           0        0.000000    0.767733   -0.474933
 ---------------------------------------------------------------------
 Rotational constants (GHZ):    801.0558281    425.3842867    277.8419899
 Leave Link  202 at Thu Aug 26 23:59:12 2021, MaxMem= 17179869184 cpu:         8.4
 (Enter /public3/home/sc51754/softwares/g09e01/l301.exe)
 Basis read from rwf:  (5D, 7F)
 No pseudopotential information found on rwf file.
 There are    27 symmetry adapted cartesian basis functions of A1  symmetry.
 There are     7 symmetry adapted cartesian basis functions of A2  symmetry.
 There are    12 symmetry adapted cartesian basis functions of B1  symmetry.
 There are    19 symmetry adapted cartesian basis functions of B2  symmetry.
 There are    23 symmetry adapted basis functions of A1  symmetry.
 There are     7 symmetry adapted basis functions of A2  symmetry.
 There are    11 symmetry adapted basis functions of B1  symmetry.
 There are    17 symmetry adapted basis functions of B2  symmetry.
    58 basis functions,    91 primitive gaussians,    65 cartesian basis functions
     5 alpha electrons        5 beta electrons
       nuclear repulsion energy         9.0689115168 Hartrees.
 IExCor=  402 DFT=T Ex=B Corr=LYP ExCW=0 ScaHFX=  0.000000
 ScaDFX=  1.000000  1.000000  1.000000  1.000000 ScalE2=  1.000000  1.000000
 IRadAn=      0 IRanWt=     -1 IRanGd=            0 ICorTp=0 IEmpDi=  4
 NAtoms=    3 NActive=    3 NUniq=    2 SFac= 2.25D+00 NAtFMM=   60 NAOKFM=F Big=F
 Integral buffers will be    131072 words long.
 Raffenetti 2 integral format.
 Two-electron integral symmetry is turned on.
 No density basis found on file   724.
 Leave Link  301 at Thu Aug 26 23:59:13 2021, MaxMem= 17179869184 cpu:         1.5
 (Enter /public3/home/sc51754/softwares/g09e01/l302.exe)
 NPDir=0 NMtPBC=     1 NCelOv=     1 NCel=       1 NClECP=     1 NCelD=      1
         NCelK=      1 NCelE2=     1 NClLst=     1 CellRange=     0.0.
 One-electron integrals computed using PRISM.
 One-electron integral symmetry used in STVInt
 NBasis=    58 RedAO= T EigKep=  5.96D-03  NBF=    23     7    11    17
 NBsUse=    58 1.00D-06 EigRej= -1.00D+00 NBFU=    23     7    11    17
 Precomputing XC quadrature grid using
 IXCGrd= 4 IRadAn=           0 IRanWt=          -1 IRanGd=           0 AccXCQ= 0.00D+00.
 Generated NRdTot=       0 NPtTot=           0 NUsed=           0 NTot=          32
 NSgBfM=    65    65    65    65    65 MxSgAt=     3 MxSgA2=     3.
 Leave Link  302 at Thu Aug 26 23:59:13 2021, MaxMem= 17179869184 cpu:        37.1
 (Enter /public3/home/sc51754/softwares/g09e01/l303.exe)
 DipDrv:  MaxL=1.
 Leave Link  303 at Thu Aug 26 23:59:14 2021, MaxMem= 17179869184 cpu:        13.4
 (Enter /public3/home/sc51754/softwares/g09e01/l401.exe)
 Initial guess from the checkpoint file:  "H2O_BLYP_PC2_OPT_FREQ.chk"
 B after Tr=    -0.000000    0.000000   -0.000000
         Rot=    1.000000    0.000000   -0.000000   -0.000000 Ang=   0.00 deg.
 Guess basis will be translated and rotated to current coordinates.
 JPrj=2 DoOrth=T DoCkMO=T.
 Initial guess orbital symmetries:
       Occupied  (A1) (A1) (B2) (A1) (B1)
       Virtual   (A1) (A1) (A1) (A1) (A1) (A1) (A1) (A1) (A1) (A1)
                 (A1) (A1) (A1) (A1) (A1) (A1) (A1) (A1) (A1) (A1)
                 (A2) (A2) (A2) (A2) (A2) (A2) (A2) (B1) (B1) (B1)
                 (B1) (B1) (B1) (B1) (B1) (B1) (B1) (B2) (B2) (B2)
                 (B2) (B2) (B2) (B2) (B2) (B2) (B2) (B2) (B2) (B2)
                 (B2) (B2) (B2)
 The electronic state of the initial guess is 1-A1.
 Leave Link  401 at Thu Aug 26 23:59:14 2021, MaxMem= 17179869184 cpu:        31.5
 (Enter /public3/home/sc51754/softwares/g09e01/l502.exe)
 Closed shell SCF:
 Using DIIS extrapolation, IDIIS=  1040.
 Integral symmetry usage will be decided dynamically.
 Keep J ints in memory in symmetry-blocked form, NReq=3467901.
 IVT=       35997 IEndB=       35997 NGot= 17179869184 MDV= 17179451308
 LenX= 17179451308 LenY= 17179446642
 Requested convergence on RMS density matrix=1.00D-08 within 128 cycles.
 Requested convergence on MAX density matrix=1.00D-06.
 Requested convergence on             energy=1.00D-06.
 No special actions if energy rises.
 FoFCou: FMM=F IPFlag=           0 FMFlag=           0 FMFlg1=           0
         NFxFlg=           0 DoJE=F BraDBF=F KetDBF=F FulRan=T
         wScrn=  0.000000 ICntrl=     600 IOpCl=  0 I1Cent=           0 NGrid=           0
         NMat0=    1 NMatS0=   1711 NMatT0=    0 NMatD0=    1 NMtDS0=    0 NMtDT0=    0
 Petite list used in FoFCou.

 Cycle   1  Pass 1  IDiag  1:
 E= -76.4522745152968    
 DIIS: error= 9.39D-04 at cycle   1 NSaved=   1.
 NSaved= 1 IEnMin= 1 EnMin= -76.4522745152968     IErMin= 1 ErrMin= 9.39D-04
 ErrMax= 9.39D-04  0.00D+00 EMaxC= 1.00D-01 BMatC= 1.88D-05 BMatP= 1.88D-05
 IDIUse=3 WtCom= 9.91D-01 WtEn= 9.39D-03
 Coeff-Com:  0.100D+01
 Coeff-En:   0.100D+01
 Coeff:      0.100D+01
 Gap=     1.052 Goal=   None    Shift=    0.000
 RMSDP=9.71D-05 MaxDP=1.68D-03              OVMax= 2.33D-03

 Cycle   2  Pass 1  IDiag  1:
 E= -76.4522885244194     Delta-E=       -0.000014009123 Rises=F Damp=F
 DIIS: error= 3.88D-04 at cycle   2 NSaved=   2.
 NSaved= 2 IEnMin= 2 EnMin= -76.4522885244194     IErMin= 2 ErrMin= 3.88D-04
 ErrMax= 3.88D-04  0.00D+00 EMaxC= 1.00D-01 BMatC= 3.49D-06 BMatP= 1.88D-05
 IDIUse=3 WtCom= 9.96D-01 WtEn= 3.88D-03
 Coeff-Com:  0.206D+00 0.794D+00
 Coeff-En:   0.000D+00 0.100D+01
 Coeff:      0.205D+00 0.795D+00
 Gap=     0.241 Goal=   None    Shift=    0.000
 RMSDP=3.35D-05 MaxDP=5.68D-04 DE=-1.40D-05 OVMax= 1.05D-03

 Cycle   3  Pass 1  IDiag  1:
 E= -76.4522864984998     Delta-E=        0.000002025920 Rises=F Damp=F
 DIIS: error= 5.37D-04 at cycle   3 NSaved=   3.
 NSaved= 3 IEnMin= 2 EnMin= -76.4522885244194     IErMin= 2 ErrMin= 3.88D-04
 ErrMax= 5.37D-04  0.00D+00 EMaxC= 1.00D-01 BMatC= 6.58D-06 BMatP= 3.49D-06
 IDIUse=3 WtCom= 3.02D-01 WtEn= 6.98D-01
 Coeff-Com:  0.197D-01 0.573D+00 0.408D+00
 Coeff-En:   0.000D+00 0.616D+00 0.384D+00
 Coeff:      0.593D-02 0.603D+00 0.391D+00
 Gap=     0.240 Goal=   None    Shift=    0.000
 RMSDP=1.84D-05 MaxDP=3.04D-04 DE= 2.03D-06 OVMax= 5.53D-04

 Cycle   4  Pass 1  IDiag  1:
 E= -76.4522909297174     Delta-E=       -0.000004431218 Rises=F Damp=F
 DIIS: error= 3.98D-05 at cycle   4 NSaved=   4.
 NSaved= 4 IEnMin= 4 EnMin= -76.4522909297174     IErMin= 4 ErrMin= 3.98D-05
 ErrMax= 3.98D-05  0.00D+00 EMaxC= 1.00D-01 BMatC= 4.58D-08 BMatP= 3.49D-06
 IDIUse=1 WtCom= 1.00D+00 WtEn= 0.00D+00
 Coeff-Com:  0.325D-03 0.194D+00 0.942D-01 0.711D+00
 Coeff:      0.325D-03 0.194D+00 0.942D-01 0.711D+00
 Gap=     0.240 Goal=   None    Shift=    0.000
 RMSDP=1.67D-06 MaxDP=2.85D-05 DE=-4.43D-06 OVMax= 5.08D-05

 Cycle   5  Pass 1  IDiag  1:
 E= -76.4522909613360     Delta-E=       -0.000000031619 Rises=F Damp=F
 DIIS: error= 2.45D-06 at cycle   5 NSaved=   5.
 NSaved= 5 IEnMin= 5 EnMin= -76.4522909613360     IErMin= 5 ErrMin= 2.45D-06
 ErrMax= 2.45D-06  0.00D+00 EMaxC= 1.00D-01 BMatC= 1.77D-10 BMatP= 4.58D-08
 IDIUse=1 WtCom= 1.00D+00 WtEn= 0.00D+00
 Coeff-Com: -0.145D-03 0.213D-01 0.497D-02 0.113D+00 0.861D+00
 Coeff:     -0.145D-03 0.213D-01 0.497D-02 0.113D+00 0.861D+00
 Gap=     0.240 Goal=   None    Shift=    0.000
 RMSDP=1.62D-07 MaxDP=2.89D-06 DE=-3.16D-08 OVMax= 5.37D-06

 Cycle   6  Pass 1  IDiag  1:
 E= -76.4522909614777     Delta-E=       -0.000000000142 Rises=F Damp=F
 DIIS: error= 1.48D-07 at cycle   6 NSaved=   6.
 NSaved= 6 IEnMin= 6 EnMin= -76.4522909614777     IErMin= 6 ErrMin= 1.48D-07
 ErrMax= 1.48D-07  0.00D+00 EMaxC= 1.00D-01 BMatC= 4.78D-13 BMatP= 1.77D-10
 IDIUse=1 WtCom= 1.00D+00 WtEn= 0.00D+00
 Coeff-Com: -0.128D-04 0.162D-03 0.218D-03 0.940D-03 0.244D-01 0.974D+00
 Coeff:     -0.128D-04 0.162D-03 0.218D-03 0.940D-03 0.244D-01 0.974D+00
 Gap=     0.240 Goal=   None    Shift=    0.000
 RMSDP=7.47D-09 MaxDP=9.10D-08 DE=-1.42D-10 OVMax= 2.48D-07

 SCF Done:  E(RB-LYP) =  -76.4522909615     A.U. after    6 cycles
            NFock=  6  Conv=0.75D-08     -V/T= 2.0029
 KE= 7.623087404337D+01 PE=-1.990591840362D+02 EE= 3.730710751462D+01
 Leave Link  502 at Thu Aug 26 23:59:15 2021, MaxMem= 17179869184 cpu:        29.7
 (Enter /public3/home/sc51754/softwares/g09e01/l701.exe)
 Compute integral first derivatives.
 ... and contract with generalized density number  0.
 Leave Link  701 at Thu Aug 26 23:59:16 2021, MaxMem= 17179869184 cpu:        52.0
 (Enter /public3/home/sc51754/softwares/g09e01/l702.exe)
 L702 exits ... SP integral derivatives will be done elsewhere.
 Leave Link  702 at Thu Aug 26 23:59:16 2021, MaxMem= 17179869184 cpu:         0.4
 (Enter /public3/home/sc51754/softwares/g09e01/l703.exe)
 Compute integral first derivatives, UseDBF=F ICtDFT=           0.
 Integral derivatives from FoFJK, PRISM(SPDF).
 Calling FoFJK, ICntrl=      2527 FMM=F ISym2X=1 I1Cent= 0 IOpClX= 0 NMat=1 NMatS=1 NMatT=0.
 FoFJK:  IHMeth= 1 ICntrl=    2527 DoSepK=F KAlg= 0 I1Cent=   0 FoldK=F
 IRaf=         0 NMat=   1 IRICut=       1 DoRegI=T DoRafI=F ISym2E= 1.
 FoFCou: FMM=F IPFlag=           0 FMFlag=      100000 FMFlg1=         800
         NFxFlg=           0 DoJE=F BraDBF=F KetDBF=F FulRan=T
         wScrn=  0.000000 ICntrl=    2527 IOpCl=  0 I1Cent=           0 NGrid=           0
         NMat0=    1 NMatS0=      1 NMatT0=    0 NMatD0=    1 NMtDS0=    0 NMtDT0=    0
 Petite list used in FoFCou.
 Leave Link  703 at Thu Aug 26 23:59:17 2021, MaxMem= 17179869184 cpu:        46.6
 (Enter /public3/home/sc51754/softwares/g09e01/l716.exe)
 Dipole        = 3.52396494D-17 4.44089210D-16-7.71090472D-01
 ***** Axes restored to original set *****
 -------------------------------------------------------------------
 Center     Atomic                   Forces (Hartrees/Bohr)
 Number     Number              X              Y              Z
 -------------------------------------------------------------------
      1        8          -0.000071010   -0.000100476    0.000000000
      2        1           0.000085623    0.000014818   -0.000000000
      3        1          -0.000014614    0.000085658   -0.000000000
 -------------------------------------------------------------------
 Cartesian Forces:  Max     0.000100476 RMS     0.000057965
 Leave Link  716 at Thu Aug 26 23:59:17 2021, MaxMem= 17179869184 cpu:         0.3
 (Enter /public3/home/sc51754/softwares/g09e01/l103.exe)

 GradGradGradGradGradGradGradGradGradGradGradGradGradGradGradGradGradGrad
 Berny optimization.
 Using GEDIIS/GDIIS optimizer.
 FormGI is forming the generalized inverse of G from B-inverse, IUseBI=4.
 Internal  Forces:  Max     0.000086181 RMS     0.000071345
 Search for a local minimum.
 Step number   3 out of a maximum of   20
 All quantities printed in internal units (Hartrees-Bohrs-Radians)
 RMS Force = .71345D-04 SwitMx=.10000D-02 MixMth= 2
 Mixed Optimization -- En-DIIS/RFO-DIIS
 Update second derivatives using D2CorX and points    1    2    3
 DE= -2.96D-05 DEPred=-2.97D-05 R= 9.97D-01
 TightC=F SS=  1.41D+00  RLast= 1.64D-02 DXNew= 5.0454D-01 4.9294D-02
 Trust test= 9.97D-01 RLast= 1.64D-02 DXMaxT set to 3.00D-01
 The second derivative matrix:
                          R1        R2        A1
           R1           0.52155
           R2          -0.03318   0.52155
           A1           0.02641   0.02641   0.15058
 ITU=  1  1  0
 Use linear search instead of GDIIS.
     Eigenvalues ---    0.14650   0.49245   0.55473
 RFO step:  Lambda= 0.00000000D+00 EMin= 1.46495513D-01
 Quartic linear search produced a step of  0.02365.
 Iteration  1 RMS(Cart)=  0.00012679 RMS(Int)=  0.00000001
 Iteration  2 RMS(Cart)=  0.00000002 RMS(Int)=  0.00000000
 ITry= 1 IFail=0 DXMaxC= 1.43D-04 DCOld= 1.00D+10 DXMaxT= 3.00D-01 DXLimC= 3.00D+00 Rises=F
 ClnCor:  largest displacement from symmetrization is 1.49D-15 for atom     3.
 Variable       Old X    -DE/DX   Delta X   Delta X   Delta X     New X
                                 (Linear)    (Quad)   (Total)
    R1        1.83396   0.00009   0.00014   0.00004   0.00019   1.83415
    R2        1.83396   0.00009   0.00014   0.00004   0.00019   1.83415
    A1        1.82513  -0.00002  -0.00033   0.00013  -0.00020   1.82493
         Item               Value     Threshold  Converged?
 Maximum Force            0.000086     0.000450     YES
 RMS     Force            0.000071     0.000300     YES
 Maximum Displacement     0.000143     0.001800     YES
 RMS     Displacement     0.000127     0.001200     YES
 Predicted change in Energy=-1.819784D-08
 Optimization completed.
    -- Stationary point found.
                           ----------------------------
                           !   Optimized Parameters   !
                           ! (Angstroms and Degrees)  !
 --------------------------                            --------------------------
 ! Name  Definition              Value          Derivative Info.                !
 --------------------------------------------------------------------------------
 ! R1    R(1,2)                  0.9705         -DE/DX =    0.0001              !
 ! R2    R(1,3)                  0.9705         -DE/DX =    0.0001              !
 ! A1    A(2,1,3)              104.5725         -DE/DX =    0.0                 !
 --------------------------------------------------------------------------------
 Lowest energy point so far.  Saving SCF results.
 GradGradGradGradGradGradGradGradGradGradGradGradGradGradGradGradGradGrad

 Largest change from initial coordinates is atom    3       0.035 Angstoms.
 Leave Link  103 at Thu Aug 26 23:59:18 2021, MaxMem= 17179869184 cpu:        20.2
 (Enter /public3/home/sc51754/softwares/g09e01/l202.exe)
                          Input orientation:                          
 ---------------------------------------------------------------------
 Center     Atomic      Atomic             Coordinates (Angstroms)
 Number     Number       Type             X           Y           Z
 ---------------------------------------------------------------------
      1          8           0        0.024053    0.774115    0.000000
      2          1           0        0.993648    0.815834   -0.000000
      3          1           0       -0.260278    1.702021    0.000000
 ---------------------------------------------------------------------
                    Distance matrix (angstroms):
                    1          2          3
     1  O    0.000000
     2  H    0.970492   0.000000
     3  H    0.970492   1.535466   0.000000
 Stoichiometry    H2O
 Framework group  C2V[C2(O),SGV(H2)]
 Deg. of freedom     2
 Full point group                 C2V     NOp   4
 RotChk:  IX=3 Diff= 4.71D-16
 Largest Abelian subgroup         C2V     NOp   4
 Largest concise Abelian subgroup C2      NOp   2
                         Standard orientation:                         
 ---------------------------------------------------------------------
 Center     Atomic      Atomic             Coordinates (Angstroms)
 Number     Number       Type             X           Y           Z
 ---------------------------------------------------------------------
      1          8           0       -0.000000    0.000000    0.118733
      2          1           0        0.000000   -0.767733   -0.474933
      3          1           0        0.000000    0.767733   -0.474933
 ---------------------------------------------------------------------
 Rotational constants (GHZ):    801.0558281    425.3842867    277.8419899
 Leave Link  202 at Thu Aug 26 23:59:18 2021, MaxMem= 17179869184 cpu:         3.6
 (Enter /public3/home/sc51754/softwares/g09e01/l601.exe)
 Copying SCF densities to generalized density rwf, IOpCl= 0 IROHF=0.

 **********************************************************************

            Population analysis using the SCF density.

 **********************************************************************

 Orbital symmetries:
       Occupied  (A1) (A1) (B2) (A1) (B1)
       Virtual   (A1) (B2) (B2) (A1) (A1) (B1) (B2) (A1) (A2) (A1)
                 (B1) (B2) (B2) (A1) (A1) (B2) (B1) (A2) (A1) (A1)
                 (B2) (B1) (A1) (B2) (B1) (A1) (A2) (B2) (B1) (B2)
                 (A1) (A2) (A1) (B2) (B1) (A2) (A1) (B2) (A1) (B2)
                 (B1) (A1) (B1) (B2) (A2) (B1) (A2) (A1) (A1) (A1)
                 (B2) (B2) (A1)
 The electronic state is 1-A1.
 Alpha  occ. eigenvalues --  -18.77683  -0.91777  -0.47519  -0.33448  -0.25898
 Alpha virt. eigenvalues --   -0.01886   0.04479   0.24296   0.25896   0.29518
 Alpha virt. eigenvalues --    0.30701   0.41245   0.63612   0.72512   0.75478
 Alpha virt. eigenvalues --    0.82602   1.00048   1.11948   1.16336   1.37074
 Alpha virt. eigenvalues --    1.40599   1.70156   1.76166   1.78320   1.97349
 Alpha virt. eigenvalues --    1.99843   2.17082   2.79643   3.27190   3.29014
 Alpha virt. eigenvalues --    3.42832   3.48702   3.60563   3.69930   3.74480
 Alpha virt. eigenvalues --    3.92927   3.96851   4.15024   4.27087   4.37478
 Alpha virt. eigenvalues --    4.41218   4.54379   4.71462   4.77264   4.79378
 Alpha virt. eigenvalues --    4.85535   5.54809   5.84961   5.86009   6.08573
 Alpha virt. eigenvalues --    6.08603   6.13630   6.15172   6.27420   6.68067
 Alpha virt. eigenvalues --    6.75461   7.25276  14.68634
          Condensed to atoms (all electrons):
               1          2          3
     1  O    7.700023   0.352551   0.352551
     2  H    0.352551   0.475773  -0.030887
     3  H    0.352551  -0.030887   0.475773
 Mulliken charges:
               1
     1  O   -0.405125
     2  H    0.202563
     3  H    0.202563
 Sum of Mulliken charges =   0.00000
 Mulliken charges with hydrogens summed into heavy atoms:
               1
     1  O    0.000000
 Electronic spatial extent (au):  <R**2>=             20.1554
 Charge=              0.0000 electrons
 Dipole moment (field-independent basis, Debye):
    X=              0.0000    Y=             -0.0000    Z=             -1.9599  Tot=              1.9599
 Quadrupole moment (field-independent basis, Debye-Ang):
   XX=             -7.7489   YY=             -4.5033   ZZ=             -6.4868
   XY=              0.0000   XZ=             -0.0000   YZ=             -0.0000
 Traceless Quadrupole moment (field-independent basis, Debye-Ang):
   XX=             -1.5026   YY=              1.7430   ZZ=             -0.2404
   XY=              0.0000   XZ=             -0.0000   YZ=             -0.0000
 Octapole moment (field-independent basis, Debye-Ang**2):
  XXX=             -0.0000  YYY=             -0.0000  ZZZ=             -1.2193  XYY=              0.0000
  XXY=             -0.0000  XXZ=             -0.3267  XZZ=             -0.0000  YZZ=             -0.0000
  YYZ=             -1.2956  XYZ=             -0.0000
 Hexadecapole moment (field-independent basis, Debye-Ang**3):
 XXXX=             -7.2357 YYYY=             -6.7932 ZZZZ=             -7.8689 XXXY=             -0.0000
 XXXZ=              0.0000 YYYX=             -0.0000 YYYZ=              0.0000 ZZZX=              0.0000
 ZZZY=              0.0000 XXYY=             -2.6465 XXZZ=             -2.5716 YYZZ=             -2.1219
 XXYZ=              0.0000 YYXZ=             -0.0000 ZZXY=             -0.0000
 N-N= 9.068911516773D+00 E-N=-1.990591886291D+02  KE= 7.623087404337D+01
 Symmetry A1   KE= 6.798465785005D+01
 Symmetry A2   KE= 1.821902415991D-32
 Symmetry B1   KE= 4.562005653336D+00
 Symmetry B2   KE= 3.684210539983D+00
 No NMR shielding tensors so no spin-rotation constants.
 Leave Link  601 at Thu Aug 26 23:59:19 2021, MaxMem= 17179869184 cpu:        80.7
 (Enter /public3/home/sc51754/softwares/g09e01/l9999.exe)
 1\1\GINC-P2607\FOpt\RBLYP\Gen\H2O1\SC51754\26-Aug-2021\0\\#p opt freq 
 BLYP/gen\\H2O_BLYP_PC2_OPT_FREQ\\0,1\O,0.0240534678,0.7741147284,0.\H,
 0.9936478846,0.8158337177,0.\H,-0.2602777345,1.7020207444,0.\\Version=
 EM64L-G09RevE.01\State=1-A1\HF=-76.452291\RMSD=7.468e-09\RMSF=5.797e-0
 5\Dipole=0.4450312,0.6297045,0.\Quadrupole=0.8046762,0.3124391,-1.1171
 153,-0.6950173,0.,0.\PG=C02V [C2(O1),SGV(H2)]\\@


 ONLY THE DAY DAWNS TO WHICH YOU ARE AWAKE.

                                 -- THOREAU
 Leave Link 9999 at Thu Aug 26 23:59:20 2021, MaxMem= 17179869184 cpu:         2.2
 Job cpu time:       0 days  0 hours 17 minutes 52.4 seconds.
 File lengths (MBytes):  RWF=      5 Int=      0 D2E=      0 Chk=      1 Scr=      1
 Normal termination of Gaussian 09 at Thu Aug 26 23:59:20 2021.
 (Enter /public3/home/sc51754/softwares/g09e01/l1.exe)
 Link1:  Proceeding to internal job step number  2.
 -----------------------------------------------------------------
 #P Geom=AllCheck Guess=TCheck SCRF=Check GenChk RBLYP/ChkBas Freq
 -----------------------------------------------------------------
 1/10=4,29=7,30=1,38=1,40=1/1,3;
 2/12=2,40=1/2;
 3/5=7,6=2,11=2,14=-4,16=1,25=1,30=1,67=1,70=2,71=2,74=402,82=7,116=1,140=1/1,2,3;
 4/5=101/1;
 5/5=2,38=6,98=1/2;
 8/6=4,10=90,11=11/1;
 11/6=1,8=1,9=11,15=111,16=1/1,2,10;
 10/6=1/2;
 6/7=2,8=2,9=2,10=2,18=1,28=1/1;
 7/8=1,10=1,25=1/1,2,3,16;
 1/10=4,30=1/3;
 99//99;
 Leave Link    1 at Thu Aug 26 23:59:20 2021, MaxMem= 17179869184 cpu:         1.2
 (Enter /public3/home/sc51754/softwares/g09e01/l101.exe)
 Structure from the checkpoint file:  "H2O_BLYP_PC2_OPT_FREQ.chk"
 ---------------------
 H2O_BLYP_PC2_OPT_FREQ
 ---------------------
 Charge =  0 Multiplicity = 1
 Redundant internal coordinates found in file.
 O,0,0.0240534678,0.7741147284,0.
 H,0,0.9936478846,0.8158337177,0.
 H,0,-0.2602777345,1.7020207444,0.
 Recover connectivity data from disk.
 NAtoms=      3 NQM=        3 NQMF=       0 NMMI=      0 NMMIF=      0
                NMic=       0 NMicF=      0.
                    Isotopes and Nuclear Properties:
 (Nuclear quadrupole moments (NQMom) in fm**2, nuclear magnetic moments (NMagM)
  in nuclear magnetons)

  Atom         1           2           3
 IAtWgt=          16           1           1
 AtmWgt=  15.9949146   1.0078250   1.0078250
 NucSpn=           0           1           1
 AtZEff=  -5.6000000  -1.0000000  -1.0000000
 NQMom=    0.0000000   0.0000000   0.0000000
 NMagM=    0.0000000   2.7928460   2.7928460
 AtZNuc=   8.0000000   1.0000000   1.0000000
 Leave Link  101 at Thu Aug 26 23:59:20 2021, MaxMem= 17179869184 cpu:        12.6
 (Enter /public3/home/sc51754/softwares/g09e01/l103.exe)

 GradGradGradGradGradGradGradGradGradGradGradGradGradGradGradGradGradGrad
 Berny optimization.
 Initialization pass.
                           ----------------------------
                           !    Initial Parameters    !
                           ! (Angstroms and Degrees)  !
 --------------------------                            --------------------------
 ! Name  Definition              Value          Derivative Info.                !
 --------------------------------------------------------------------------------
 ! R1    R(1,2)                  0.9705         calculate D2E/DX2 analytically  !
 ! R2    R(1,3)                  0.9705         calculate D2E/DX2 analytically  !
 ! A1    A(2,1,3)              104.5725         calculate D2E/DX2 analytically  !
 --------------------------------------------------------------------------------
 Trust Radius=3.00D-01 FncErr=1.00D-07 GrdErr=1.00D-07
 Number of steps in this run=      2 maximum allowed number of steps=      2.
 GradGradGradGradGradGradGradGradGradGradGradGradGradGradGradGradGradGrad

 Leave Link  103 at Thu Aug 26 23:59:20 2021, MaxMem= 17179869184 cpu:         0.1
 (Enter /public3/home/sc51754/softwares/g09e01/l202.exe)
                          Input orientation:                          
 ---------------------------------------------------------------------
 Center     Atomic      Atomic             Coordinates (Angstroms)
 Number     Number       Type             X           Y           Z
 ---------------------------------------------------------------------
      1          8           0        0.024053    0.774115    0.000000
      2          1           0        0.993648    0.815834   -0.000000
      3          1           0       -0.260278    1.702021    0.000000
 ---------------------------------------------------------------------
                    Distance matrix (angstroms):
                    1          2          3
     1  O    0.000000
     2  H    0.970492   0.000000
     3  H    0.970492   1.535466   0.000000
 Stoichiometry    H2O
 Framework group  C2V[C2(O),SGV(H2)]
 Deg. of freedom     2
 Full point group                 C2V     NOp   4
 RotChk:  IX=3 Diff= 1.10D-15
 Largest Abelian subgroup         C2V     NOp   4
 Largest concise Abelian subgroup C2      NOp   2
                         Standard orientation:                         
 ---------------------------------------------------------------------
 Center     Atomic      Atomic             Coordinates (Angstroms)
 Number     Number       Type             X           Y           Z
 ---------------------------------------------------------------------
      1          8           0       -0.000000   -0.000000    0.118733
      2          1           0        0.000000   -0.767733   -0.474933
      3          1           0        0.000000    0.767733   -0.474933
 ---------------------------------------------------------------------
 Rotational constants (GHZ):    801.0558281    425.3842867    277.8419899
 Leave Link  202 at Thu Aug 26 23:59:20 2021, MaxMem= 17179869184 cpu:         4.3
 (Enter /public3/home/sc51754/softwares/g09e01/l301.exe)
 Basis read from chk: "H2O_BLYP_PC2_OPT_FREQ.chk" (5D, 7F)
 No pseudopotential information found on chk file.
 There are    27 symmetry adapted cartesian basis functions of A1  symmetry.
 There are     7 symmetry adapted cartesian basis functions of A2  symmetry.
 There are    12 symmetry adapted cartesian basis functions of B1  symmetry.
[...]
      9 vectors produced by pass  3 Test12= 2.94D-15 1.11D-08 XBig12= 4.72D-06 8.05D-04.
      7 vectors produced by pass  4 Test12= 2.94D-15 1.11D-08 XBig12= 1.81D-09 1.31D-05.
      4 vectors produced by pass  5 Test12= 2.94D-15 1.11D-08 XBig12= 1.10D-12 3.50D-07.
 InvSVY:  IOpt=1 It=  1 EMax= 4.44D-16
 Solved reduced A of dimension    47 with     9 vectors.
 FullF1:  Do perturbations    1 to     9.
 Isotropic polarizability for W=    0.000000        7.88 Bohr**3.
 End of Minotr F.D. properties file   721 does not exist.
 End of Minotr F.D. properties file   722 does not exist.
 End of Minotr F.D. properties file   788 does not exist.
 Leave Link 1002 at Thu Aug 26 23:59:27 2021, MaxMem= 17179869184 cpu:        50.9
 (Enter /public3/home/sc51754/softwares/g09e01/l601.exe)
 Copying SCF densities to generalized density rwf, IOpCl= 0 IROHF=0.

 **********************************************************************

            Population analysis using the SCF density.

 **********************************************************************

 Orbital symmetries:
       Occupied  (A1) (A1) (B2) (A1) (B1)
       Virtual   (A1) (B2) (B2) (A1) (A1) (B1) (B2) (A1) (A2) (A1)
                 (B1) (B2) (B2) (A1) (A1) (B2) (B1) (A2) (A1) (A1)
                 (B2) (B1) (A1) (B2) (B1) (A1) (A2) (B2) (B1) (B2)
                 (A1) (A2) (A1) (B2) (B1) (A2) (A1) (B2) (A1) (B2)
                 (B1) (A1) (B1) (B2) (A2) (B1) (A2) (A1) (A1) (A1)
                 (B2) (B2) (A1)
 The electronic state is 1-A1.
 Alpha  occ. eigenvalues --  -18.77683  -0.91777  -0.47519  -0.33448  -0.25898
 Alpha virt. eigenvalues --   -0.01886   0.04479   0.24296   0.25896   0.29518
 Alpha virt. eigenvalues --    0.30701   0.41245   0.63612   0.72512   0.75478
 Alpha virt. eigenvalues --    0.82602   1.00048   1.11948   1.16336   1.37074
 Alpha virt. eigenvalues --    1.40599   1.70156   1.76166   1.78320   1.97349
 Alpha virt. eigenvalues --    1.99843   2.17082   2.79643   3.27190   3.29014
 Alpha virt. eigenvalues --    3.42832   3.48702   3.60563   3.69930   3.74480
 Alpha virt. eigenvalues --    3.92927   3.96851   4.15024   4.27087   4.37478
 Alpha virt. eigenvalues --    4.41218   4.54379   4.71462   4.77264   4.79378
 Alpha virt. eigenvalues --    4.85535   5.54809   5.84961   5.86009   6.08573
 Alpha virt. eigenvalues --    6.08603   6.13630   6.15172   6.27420   6.68067
 Alpha virt. eigenvalues --    6.75461   7.25276  14.68634
          Condensed to atoms (all electrons):
               1          2          3
     1  O    7.700023   0.352551   0.352551
     2  H    0.352551   0.475773  -0.030887
     3  H    0.352551  -0.030887   0.475773
 Mulliken charges:
               1
     1  O   -0.405125
     2  H    0.202562
     3  H    0.202562
 Sum of Mulliken charges =   0.00000
 Mulliken charges with hydrogens summed into heavy atoms:
               1
     1  O    0.000000
 APT charges:
               1
     1  O   -0.488519
     2  H    0.244260
     3  H    0.244260
 Sum of APT charges =  -0.00000
 APT charges with hydrogens summed into heavy atoms:
               1
     1  O   -0.000000
 Electronic spatial extent (au):  <R**2>=             20.1554
 Charge=              0.0000 electrons
 Dipole moment (field-independent basis, Debye):
    X=              0.0000    Y=             -0.0000    Z=             -1.9599  Tot=              1.9599
 Quadrupole moment (field-independent basis, Debye-Ang):
   XX=             -7.7489   YY=             -4.5033   ZZ=             -6.4868
   XY=              0.0000   XZ=             -0.0000   YZ=              0.0000
 Traceless Quadrupole moment (field-independent basis, Debye-Ang):
   XX=             -1.5026   YY=              1.7430   ZZ=             -0.2404
   XY=              0.0000   XZ=             -0.0000   YZ=              0.0000
 Octapole moment (field-independent basis, Debye-Ang**2):
  XXX=             -0.0000  YYY=              0.0000  ZZZ=             -1.2193  XYY=              0.0000
  XXY=              0.0000  XXZ=             -0.3267  XZZ=             -0.0000  YZZ=              0.0000
  YYZ=             -1.2956  XYZ=             -0.0000
 Hexadecapole moment (field-independent basis, Debye-Ang**3):
 XXXX=             -7.2357 YYYY=             -6.7932 ZZZZ=             -7.8689 XXXY=             -0.0000
 XXXZ=              0.0000 YYYX=             -0.0000 YYYZ=              0.0000 ZZZX=              0.0000
 ZZZY=              0.0000 XXYY=             -2.6465 XXZZ=             -2.5716 YYZZ=             -2.1219
 XXYZ=              0.0000 YYXZ=             -0.0000 ZZXY=             -0.0000
 N-N= 9.068911516773D+00 E-N=-1.990591863434D+02  KE= 7.623087299993D+01
 Symmetry A1   KE= 6.798465739316D+01
 Symmetry A2   KE= 2.060786362039D-20
 Symmetry B1   KE= 4.562005354447D+00
 Symmetry B2   KE= 3.684210252316D+00
  Exact polarizability:   6.766   0.000   8.971   0.000   0.000   7.906
 Approx polarizability:   8.230   0.000  13.079  -0.000  -0.000  11.193
 No NMR shielding tensors so no spin-rotation constants.
 Leave Link  601 at Thu Aug 26 23:59:28 2021, MaxMem= 17179869184 cpu:        64.7
 (Enter /public3/home/sc51754/softwares/g09e01/l701.exe)
 Compute integral second derivatives.
 ... and contract with generalized density number  0.
 Leave Link  701 at Thu Aug 26 23:59:29 2021, MaxMem= 17179869184 cpu:        62.4
 (Enter /public3/home/sc51754/softwares/g09e01/l702.exe)
 L702 exits ... SP integral derivatives will be done elsewhere.
 Leave Link  702 at Thu Aug 26 23:59:29 2021, MaxMem= 17179869184 cpu:         0.3
 (Enter /public3/home/sc51754/softwares/g09e01/l703.exe)
 Compute integral second derivatives, UseDBF=F ICtDFT=           0.
 Integral derivatives from FoFJK, PRISM(SPDF).
 Calling FoFJK, ICntrl=    100527 FMM=F ISym2X=1 I1Cent= 0 IOpClX= 0 NMat=1 NMatS=1 NMatT=0.
 FoFJK:  IHMeth= 1 ICntrl=  100527 DoSepK=F KAlg= 0 I1Cent=   0 FoldK=F
 IRaf=         0 NMat=   1 IRICut=       1 DoRegI=T DoRafI=F ISym2E= 1.
 FoFCou: FMM=F IPFlag=           0 FMFlag=      100000 FMFlg1=         800
         NFxFlg=           0 DoJE=F BraDBF=F KetDBF=F FulRan=T
         wScrn=  0.000000 ICntrl=  100527 IOpCl=  0 I1Cent=           0 NGrid=           0
         NMat0=    1 NMatS0=      1 NMatT0=    0 NMatD0=    1 NMtDS0=    0 NMtDT0=    0
 Petite list used in FoFCou.
 Leave Link  703 at Thu Aug 26 23:59:31 2021, MaxMem= 17179869184 cpu:        61.1
 (Enter /public3/home/sc51754/softwares/g09e01/l716.exe)
 Dipole        = 3.52396285D-17 1.07070386D-15-7.71090172D-01
 Polarizability= 6.76559945D+00 2.04393270D-10 8.97136663D+00
                 1.09092735D-10 3.37767707D-09 7.90632502D+00
 Full mass-weighted force constant matrix:
 Low frequencies ---  -64.2319  -50.2295  -29.7390    0.0001    0.0014    0.0017
 Low frequencies --- 1594.1908 3669.9211 3773.3750
 Diagonal vibrational polarizability:
        0.0000000       0.0750771       0.7089647
 Harmonic frequencies (cm**-1), IR intensities (KM/Mole), Raman scattering
 activities (A**4/AMU), depolarization ratios for plane and unpolarized
 incident light, reduced masses (AMU), force constants (mDyne/A),
 and normal coordinates:
                      1                      2                      3
                     A1                     A1                     B2
 Frequencies --   1594.1908              3669.9211              3773.3750
 Red. masses --      1.0835                 1.0444                 1.0819
 Frc consts  --      1.6224                 8.2876                 9.0763
 IR Inten    --     66.5485                 2.1453                39.7223
  Atom  AN      X      Y      Z        X      Y      Z        X      Y      Z
     1   8     0.00   0.00  -0.07     0.00   0.00  -0.05    -0.00  -0.07  -0.00
     2   1    -0.00  -0.42   0.56     0.00   0.59   0.39    -0.00   0.56   0.43
     3   1    -0.00   0.42   0.56    -0.00  -0.59   0.39     0.00   0.56  -0.43

 -------------------
 - Thermochemistry -
 -------------------
 Temperature   298.150 Kelvin.  Pressure   1.00000 Atm.
 Atom     1 has atomic number  8 and mass  15.99491
 Atom     2 has atomic number  1 and mass   1.00783
 Atom     3 has atomic number  1 and mass   1.00783
 Molecular mass:    18.01056 amu.
 Principal axes and moments of inertia in atomic units:
                           1         2         3
     Eigenvalues --     2.25295   4.24261   6.49557
           X            0.00000  -0.00000   1.00000
           Y            1.00000   0.00000  -0.00000
           Z           -0.00000   1.00000   0.00000
 This molecule is an asymmetric top.
 Rotational symmetry number  2.
 Rotational temperatures (Kelvin)     38.44457    20.41520    13.33430
 Rotational constants (GHZ):         801.05583   425.38429   277.84199
 Zero-point vibrational energy      54056.2 (Joules/Mol)
                                   12.91974 (Kcal/Mol)
 Vibrational temperatures:   2293.68  5280.19  5429.04
          (Kelvin)
 
 Zero-point correction=                           0.020589 (Hartree/Particle)
 Thermal correction to Energy=                    0.023425
 Thermal correction to Enthalpy=                  0.024369
 Thermal correction to Gibbs Free Energy=         0.002920
 Sum of electronic and zero-point Energies=            -76.431702
 Sum of electronic and thermal Energies=               -76.428866
 Sum of electronic and thermal Enthalpies=             -76.427922
 Sum of electronic and thermal Free Energies=          -76.449371
 
                     E (Thermal)             CV                S
                      KCal/Mol        Cal/Mol-Kelvin    Cal/Mol-Kelvin
 Total                   14.699              6.015             45.144
 Electronic               0.000              0.000              0.000
 Translational            0.889              2.981             34.608
 Rotational               0.889              2.981             10.528
 Vibrational             12.922              0.054              0.008
                       Q            Log10(Q)             Ln(Q)
 Total Bot       0.453985D-01         -1.342959         -3.092277
 Total V=0       0.134049D+09          8.127262         18.713712
 Vib (Bot)       0.338826D-09         -9.470023        -21.805533
 Vib (V=0)       0.100046D+01          0.000198          0.000456
 Electronic      0.100000D+01          0.000000          0.000000
 Translational   0.300432D+07          6.477746         14.915562
 Rotational      0.445982D+02          1.649318          3.797694
 
                                                        H2O_BLYP_PC2_OPT_FREQ
                                                             IR Spectrum
 
     3   3                                                                     1                                                     
     7   6                                                                     5                                                     
     7   7                                                                     9                                                     
     3   0                                                                     4                                                     
 
     X   X                                                                     X                                                     
     X                                                                         X                                                     
     X                                                                         X                                                     
     X                                                                         X                                                     
     X                                                                         X                                                     
     X                                                                         X                                                     
     X                                                                         X                                                     
     X                                                                         X                                                     
     X                                                                         X                                                     
     X                                                                         X                                                     
     X                                                                         X                                                     
     X                                                                         X                                                     
                                                                               X                                                     
                                                                               X                                                     
                                                                               X                                                     
                                                                               X                                                     
                                                                               X                                                     
                                                                               X                                                     
                                                                               X                                                     
                                                                               X                                                     
 
 ***** Axes restored to original set *****
 -------------------------------------------------------------------
 Center     Atomic                   Forces (Hartrees/Bohr)
 Number     Number              X              Y              Z
 -------------------------------------------------------------------
      1        8          -0.000070998   -0.000100459    0.000000000
      2        1           0.000085603    0.000014819    0.000000000
      3        1          -0.000014606    0.000085640   -0.000000000
 -------------------------------------------------------------------
 Cartesian Forces:  Max     0.000100459 RMS     0.000057954
 Force constants in Cartesian coordinates: 
                1             2             3             4             5 
      1  0.559724D+00
      2 -0.991955D-01  0.489470D+00
      3  0.000000D+00  0.000000D+00 -0.170915D-03
      4 -0.481984D+00  0.721990D-02  0.000000D+00  0.498311D+00
      5 -0.511752D-01 -0.426123D-01  0.000000D+00  0.292319D-02  0.454439D-01
      6  0.000000D+00  0.000000D+00  0.854573D-04  0.000000D+00  0.000000D+00
      7 -0.777392D-01  0.919756D-01  0.000000D+00 -0.163267D-01  0.482520D-01
      8  0.150371D+00 -0.446857D+00  0.000000D+00 -0.101431D-01 -0.283165D-02
      9  0.000000D+00  0.000000D+00  0.854573D-04  0.000000D+00  0.000000D+00
                6             7             8             9 
      6 -0.121406D-03
      7  0.000000D+00  0.940659D-01
      8  0.000000D+00 -0.140228D+00  0.449689D+00
      9  0.359484D-04  0.000000D+00  0.000000D+00 -0.121406D-03
 FormGI is forming the generalized inverse of G from B-inverse, IUseBI=4.
 Force constants in internal coordinates: 
                1             2             3 
      1  0.497695D+00
      2 -0.560377D-02  0.497695D+00
      3  0.304076D-01  0.304076D-01  0.154951D+00
 Leave Link  716 at Thu Aug 26 23:59:31 2021, MaxMem= 17179869184 cpu:        20.8
 (Enter /public3/home/sc51754/softwares/g09e01/l103.exe)

 GradGradGradGradGradGradGradGradGradGradGradGradGradGradGradGradGradGrad
 Berny optimization.
 Red2BG is reusing G-inverse.
 Internal  Forces:  Max     0.000086161 RMS     0.000071330
 Search for a local minimum.
 Step number   1 out of a maximum of    2
 All quantities printed in internal units (Hartrees-Bohrs-Radians)
 Second derivative matrix not updated -- analytic derivatives used.
 The second derivative matrix:
                          R1        R2        A1
           R1           0.49769
           R2          -0.00560   0.49769
           A1           0.03041   0.03041   0.15495
 ITU=  0
     Eigenvalues ---    0.14955   0.49749   0.50330
 Angle between quadratic step and forces=  28.21 degrees.
 Linear search not attempted -- first point.
 Iteration  1 RMS(Cart)=  0.00012733 RMS(Int)=  0.00000001
 Iteration  2 RMS(Cart)=  0.00000002 RMS(Int)=  0.00000000
 ITry= 1 IFail=0 DXMaxC= 1.44D-04 DCOld= 1.00D+10 DXMaxT= 3.00D-01 DXLimC= 3.00D+00 Rises=F
 ClnCor:  largest displacement from symmetrization is 4.18D-15 for atom     3.
 Variable       Old X    -DE/DX   Delta X   Delta X   Delta X     New X
                                 (Linear)    (Quad)   (Total)
    R1        1.83396   0.00009   0.00000   0.00019   0.00019   1.83415
    R2        1.83396   0.00009   0.00000   0.00019   0.00019   1.83415
    A1        1.82513  -0.00002   0.00000  -0.00021  -0.00021   1.82493
         Item               Value     Threshold  Converged?
 Maximum Force            0.000086     0.000450     YES
 RMS     Force            0.000071     0.000300     YES
 Maximum Displacement     0.000144     0.001800     YES
 RMS     Displacement     0.000127     0.001200     YES
 Predicted change in Energy=-1.827498D-08
 Optimization completed.
    -- Stationary point found.
                           ----------------------------
                           !   Optimized Parameters   !
                           ! (Angstroms and Degrees)  !
 --------------------------                            --------------------------
 ! Name  Definition              Value          Derivative Info.                !
 --------------------------------------------------------------------------------
 ! R1    R(1,2)                  0.9705         -DE/DX =    0.0001              !
 ! R2    R(1,3)                  0.9705         -DE/DX =    0.0001              !
 ! A1    A(2,1,3)              104.5725         -DE/DX =    0.0                 !
 --------------------------------------------------------------------------------
 GradGradGradGradGradGradGradGradGradGradGradGradGradGradGradGradGradGrad

 Leave Link  103 at Thu Aug 26 23:59:31 2021, MaxMem= 17179869184 cpu:         9.6
 (Enter /public3/home/sc51754/softwares/g09e01/l9999.exe)
 1\1\GINC-P2607\Freq\RBLYP\Gen\H2O1\SC51754\26-Aug-2021\0\\#P Geom=AllC
 heck Guess=TCheck SCRF=Check GenChk RBLYP/ChkBas Freq\\H2O_BLYP_PC2_OP
 T_FREQ\\0,1\O,0.0240534678,0.7741147284,0.\H,0.9936478846,0.8158337177
 ,0.\H,-0.2602777345,1.7020207444,0.\\Version=EM64L-G09RevE.01\State=1-
 A1\HF=-76.452291\RMSD=1.739e-09\RMSF=5.795e-05\ZeroPoint=0.0205889\The
 rmal=0.0234248\Dipole=0.445031,0.6297043,0.\DipoleDeriv=-0.411656,0.06
 36772,0.,0.0636772,-0.3665575,0.,0.,0.,-0.687344,0.1260869,-0.0554877,
 0.,-0.0646652,0.2630199,0.,0.,0.,0.343672,0.2855691,-0.0081895,0.,0.00
 0988,0.1035376,0.,0.,0.,0.343672\Polar=8.6166049,-0.5019762,8.2610867,
 0.,0.,6.7655994\PG=C02V [C2(O1),SGV(H2)]\NImag=0\\0.55972364,-0.099195
 45,0.48946974,0.,0.,-0.00017091,-0.48198443,0.00721990,0.,0.49831115,-
 0.05117518,-0.04261226,0.,0.00292319,0.04544390,0.,0.,0.00008546,0.,0.
 ,-0.00012141,-0.07773921,0.09197556,0.,-0.01632672,0.04825199,0.,0.094
 06593,0.15037063,-0.44685748,0.,-0.01014308,-0.00283165,0.,-0.14022755
 ,0.44968913,0.,0.,0.00008546,0.,0.,0.00003595,0.,0.,-0.00012141\\0.000
 07100,0.00010046,0.,-0.00008560,-0.00001482,0.,0.00001461,-0.00008564,
 0.\\\@


 Fatherhood is pretending the present you love most is soap-on-a-rope.
 -- Bill Cosby
 Job cpu time:       0 days  0 hours  9 minutes 55.4 seconds.
 File lengths (MBytes):  RWF=      5 Int=      0 D2E=      0 Chk=      1 Scr=      1
 Normal termination of Gaussian 09 at Thu Aug 26 23:59:31 2021.
