 Entering Gaussian System, Link 0=g09
 AtFile(1): pc-2.gbs
            -H     0
            S    4   1.00
                  0.754230D+02           0.240650D-02
                  0.113500D+02           0.184870D-01
                  0.259930D+01           0.897420D-01
                  0.735130D+00           0.281110D+00
            S    1   1.00
                  0.231670D+00           0.100000D+01
            S    1   1.00
                  0.741470D-01           0.100000D+01
            P    1   1.00
                  0.160000D+01           0.100000D+01
            P    1   1.00
                  0.450000D+00           0.100000D+01
            D    1   1.00
                  0.125000D+01           0.100000D+01
            ****
            -C     0
            S    7   1.00
                  0.785710D+04           0.568250D-03
                  0.117870D+04           0.439150D-02
                  0.268320D+03           0.225040D-01
                  0.759480D+02           0.866530D-01
                  0.245590D+02           0.244050D+00
                  0.862120D+01           0.441480D+00
                  0.312780D+01           0.353320D+00
            S    7   1.00
                  0.117870D+04          -0.594920D-06
                  0.268320D+03          -0.627480D-04
                  0.759480D+02          -0.757730D-03
                  0.245590D+02          -0.733080D-02
                  0.862120D+01          -0.389320D-01
                  0.312780D+01          -0.889080D-01
                  0.822020D+00           0.216890D+00
            S    1   1.00
                  0.330170D+00           0.100000D+01
            S    1   1.00
                  0.114630D+00           0.100000D+01
            P    4   1.00
                  0.337750D+02           0.602940D-02
                  0.767660D+01           0.432280D-01
                  0.223570D+01           0.163010D+00
                  0.764470D+00           0.365040D+00
            P    1   1.00
                  0.262320D+00           0.100000D+01
            P    1   1.00
                  0.846380D-01           0.100000D+01
            D    1   1.00
                  0.140000D+01           0.100000D+01
            D    1   1.00
                  0.450000D+00           0.100000D+01
            F    1   1.00
                  0.950000D+00           0.100000D+01
            ****
            -N     0
            S    7   1.00
                  0.111010D+05           0.545700D-03
                  0.166530D+04           0.421810D-02
                  0.379080D+03           0.216450D-01
                  0.107300D+03           0.837760D-01
                  0.347470D+02           0.238810D+00
                  0.122490D+02           0.439940D+00
                  0.447430D+01           0.363640D+00
            S    7   1.00
                  0.166530D+04          -0.150060D-05
                  0.379080D+03          -0.587530D-04
                  0.107300D+03          -0.774530D-03
                  0.347470D+02          -0.721610D-02
                  0.122490D+02          -0.393380D-01
                  0.447430D+01          -0.906110D-01
                  0.124040D+01           0.198820D+00
            S    1   1.00
                  0.487430D+00           0.100000D+01
            S    1   1.00
                  0.164840D+00           0.100000D+01
            P    4   1.00
                  0.479340D+02           0.617060D-02
                  0.109990D+02           0.442600D-01
                  0.324720D+01           0.168250D+00
                  0.111140D+01           0.368480D+00
            P    1   1.00
                  0.379880D+00           0.100000D+01
            P    1   1.00
                  0.120680D+00           0.100000D+01
            D    1   1.00
                  0.180000D+01           0.100000D+01
            D    1   1.00
                  0.550000D+00           0.100000D+01
            F    1   1.00
                  0.102000D+01           0.100000D+01
            ****
            -O     0
            S    7   1.00
                  0.147820D+05           0.535190D-03
                  0.221730D+04           0.413750D-02
                  0.504740D+03           0.212450D-01
                  0.142870D+03           0.824530D-01
                  0.463000D+02           0.236710D+00
                  0.163370D+02           0.440390D+00
                  0.598280D+01           0.364650D+00
            S    7   1.00
                  0.221730D+04          -0.192750D-05
                  0.504740D+03          -0.579640D-04
                  0.142870D+03          -0.794940D-03
                  0.463000D+02          -0.731250D-02
                  0.163370D+02          -0.405740D-01
                  0.598280D+01          -0.915940D-01
                  0.167180D+01           0.209400D+00
            S    1   1.00
                  0.646620D+00           0.100000D+01
            S    1   1.00
                  0.216690D+00           0.100000D+01
            P    4   1.00
                  0.604240D+02           0.689490D-02
                  0.139350D+02           0.490050D-01
                  0.415310D+01           0.182550D+00
                  0.141580D+01           0.376330D+00
            P    1   1.00
                  0.475490D+00           0.100000D+01
            P    1   1.00
                  0.145290D+00           0.100000D+01
            D    1   1.00
                  0.220000D+01           0.100000D+01
            D    1   1.00
                  0.650000D+00           0.100000D+01
            F    1   1.00
                  0.110000D+01           0.100000D+01
            ****
 Initial command:
 /gpfs/share/home/1801110325/software/g09e01/l1.exe "./Gau-32067.inp" -scrdir="./"
 Entering Link 1 = /gpfs/share/home/1801110325/software/g09e01/l1.exe PID=     32069.
  
 Copyright (c) 1988,1990,1992,1993,1995,1998,2003,2009,2015,
            Gaussian, Inc.  All Rights Reserved.
  
 This is part of the Gaussian(R) 09 program.  It is based on
 the Gaussian(R) 03 system (copyright 2003, Gaussian, Inc.),
 the Gaussian(R) 98 system (copyright 1998, Gaussian, Inc.),
 the Gaussian(R) 94 system (copyright 1995, Gaussian, Inc.),
 the Gaussian 92(TM) system (copyright 1992, Gaussian, Inc.),
 the Gaussian 90(TM) system (copyright 1990, Gaussian, Inc.),
 the Gaussian 88(TM) system (copyright 1988, Gaussian, Inc.),
 the Gaussian 86(TM) system (copyright 1986, Carnegie Mellon
 University), and the Gaussian 82(TM) system (copyright 1983,
 Carnegie Mellon University). Gaussian is a federally registered
 trademark of Gaussian, Inc.
  
 This software contains proprietary and confidential information,
 including trade secrets, belonging to Gaussian, Inc.
  
 This software is provided under written license and may be
 used, copied, transmitted, or stored only in accord with that
 written license.
  
 The following legend is applicable only to US Government
 contracts under FAR:
  
                    RESTRICTED RIGHTS LEGEND
  
 Use, reproduction and disclosure by the US Government is
 subject to restrictions as set forth in subparagraphs (a)
 and (c) of the Commercial Computer Software - Restricted
 Rights clause in FAR 52.227-19.
  
 Gaussian, Inc.
 340 Quinnipiac St., Bldg. 40, Wallingford CT 06492
  
  
 ---------------------------------------------------------------
 Warning -- This program may not be used in any manner that
 competes with the business of Gaussian, Inc. or will provide
 assistance to any competitor of Gaussian, Inc.  The licensee
 of this program is prohibited from giving any competitor of
 Gaussian, Inc. access to this program.  By using this program,
 the user acknowledges that Gaussian, Inc. is engaged in the
 business of creating and licensing software in the field of
 computational chemistry and represents and warrants to the
 licensee that it is not a competitor of Gaussian, Inc. and that
 it will not use this program in any manner prohibited above.
 ---------------------------------------------------------------
  

 Cite this work as:
 Gaussian 09, Revision E.01,
 M. J. Frisch, G. W. Trucks, H. B. Schlegel, G. E. Scuseria, 
 M. A. Robb, J. R. Cheeseman, G. Scalmani, V. Barone, B. Mennucci, 
 G. A. Petersson, H. Nakatsuji, M. Caricato, X. Li, H. P. Hratchian, 
 A. F. Izmaylov, J. Bloino, G. Zheng, J. L. Sonnenberg, M. Hada, 
 M. Ehara, K. Toyota, R. Fukuda, J. Hasegawa, M. Ishida, T. Nakajima, 
 Y. Honda, O. Kitao, H. Nakai, T. Vreven, J. A. Montgomery, Jr., 
 J. E. Peralta, F. Ogliaro, M. Bearpark, J. J. Heyd, E. Brothers, 
 K. N. Kudin, V. N. Staroverov, T. Keith, R. Kobayashi, J. Normand, 
 K. Raghavachari, A. Rendell, J. C. Burant, S. S. Iyengar, J. Tomasi, 
 M. Cossi, N. Rega, J. M. Millam, M. Klene, J. E. Knox, J. B. Cross, 
 V. Bakken, C. Adamo, J. Jaramillo, R. Gomperts, R. E. Stratmann, 
 O. Yazyev, A. J. Austin, R. Cammi, C. Pomelli, J. W. Ochterski, 
 R. L. Martin, K. Morokuma, V. G. Zakrzewski, G. A. Voth, 
 P. Salvador, J. J. Dannenberg, S. Dapprich, A. D. Daniels, 
 O. Farkas, J. B. Foresman, J. V. Ortiz, J. Cioslowski, 
 and D. J. Fox, Gaussian, Inc., Wallingford CT, 2013.
 
 ******************************************
 Gaussian 09:  EM64L-G09RevE.01 30-Nov-2015
                 2-Sep-2021 
 ******************************************
 %nprocshared=6
 Will use up to    6 processors via shared memory.
 %mem=10GB
 %chk=HY_H2O_TPSSh_PC2_OPT_FREQ.chk
 ----------------------------------------------------------
 #p opt freq TPSSh/gen SCF(novaracc,noincfock) int=acc2e=12
 ----------------------------------------------------------
 1/14=-1,18=20,19=15,26=3,38=1/1,3;
 2/9=110,12=2,17=6,18=5,40=1/2;
 3/5=7,11=2,16=1,25=1,30=1,71=1,74=-35/1,2,3;
 4//1;
 5/5=100002,38=1,87=12/2;
 6/7=2,8=2,9=2,10=2,28=1/1;
 7/87=12/1,2,3,16;
 1/14=-1,18=20,19=15,26=3/3(2);
 2/9=110/2;
 99//99;
 2/9=110/2;
 3/5=7,6=1,11=2,16=1,25=1,30=1,71=1,74=-35,82=7/1,2,3;
 4/5=5,16=3,69=1/1;
 5/5=100002,38=1,87=12/2;
 7/87=12/1,2,3,16;
 1/14=-1,18=20,19=15,26=3/3(-5);
 2/9=110/2;
 6/7=2,8=2,9=2,10=2,19=2,28=1/1;
 99/9=1/99;
 Leave Link    1 at Thu Sep  2 22:19:26 2021, MaxMem=  1342177280 cpu:         2.1
 (Enter /gpfs/share/home/1801110325/software/g09e01/l101.exe)
 -------------------------
 HY_H2O_TPSSh_PC2_OPT_FREQ
 -------------------------
 Symbolic Z-matrix:
 Charge =  0 Multiplicity = 1
 O                     1.216     1.44855  -0.00262 
 N                     0.30594  -0.66619  -0.00547 
 C                     0.13701   0.65516  -0.00009 
 C                    -1.12976   1.25518   0.00826 
 C                    -0.78318  -1.4465   -0.00563 
 C                    -2.23812   0.43549   0.00911 
 C                    -2.07199  -0.951     0.00173 
 H                     2.03022   0.90023  -0.0153 
 H                    -1.20631   2.3321    0.01208 
 H                    -0.59906  -2.51382  -0.01294 
 H                    -3.22982   0.86768   0.01456 
 H                    -2.91795  -1.62195   0.00074 
 O                     3.09571  -0.58722  -0.08503 
 H                     3.59397  -0.87925   0.68253 
 H                     2.20982  -1.00228  -0.02248 
 
 Add virtual bond connecting atoms O13        and H8         Dist= 3.46D+00.
 Add virtual bond connecting atoms H15        and N2         Dist= 3.65D+00.
 Add virtual bond connecting atoms H15        and H8         Dist= 3.61D+00.
 Add atom     13 valence  3 ND=      2 dihedral       8     13     14     15
 NAtoms=     15 NQM=       15 NQMF=       0 NMMI=      0 NMMIF=      0
                NMic=       0 NMicF=      0.
                    Isotopes and Nuclear Properties:
 (Nuclear quadrupole moments (NQMom) in fm**2, nuclear magnetic moments (NMagM)
  in nuclear magnetons)

  Atom         1           2           3           4           5           6           7           8           9          10
 IAtWgt=          16          14          12          12          12          12          12           1           1           1
 AtmWgt=  15.9949146  14.0030740  12.0000000  12.0000000  12.0000000  12.0000000  12.0000000   1.0078250   1.0078250   1.0078250
 NucSpn=           0           2           0           0           0           0           0           1           1           1
 AtZEff=   0.0000000   0.0000000   0.0000000   0.0000000   0.0000000   0.0000000   0.0000000   0.0000000   0.0000000   0.0000000
 NQMom=    0.0000000   2.0440000   0.0000000   0.0000000   0.0000000   0.0000000   0.0000000   0.0000000   0.0000000   0.0000000
 NMagM=    0.0000000   0.4037610   0.0000000   0.0000000   0.0000000   0.0000000   0.0000000   2.7928460   2.7928460   2.7928460
 AtZNuc=   8.0000000   7.0000000   6.0000000   6.0000000   6.0000000   6.0000000   6.0000000   1.0000000   1.0000000   1.0000000

  Atom        11          12          13          14          15
 IAtWgt=           1           1          16           1           1
 AtmWgt=   1.0078250   1.0078250  15.9949146   1.0078250   1.0078250
 NucSpn=           1           1           0           1           1
 AtZEff=   0.0000000   0.0000000   0.0000000   0.0000000   0.0000000
 NQMom=    0.0000000   0.0000000   0.0000000   0.0000000   0.0000000
 NMagM=    2.7928460   2.7928460   0.0000000   2.7928460   2.7928460
 AtZNuc=   1.0000000   1.0000000   8.0000000   1.0000000   1.0000000
 Leave Link  101 at Thu Sep  2 22:19:27 2021, MaxMem=  1342177280 cpu:         1.4
 (Enter /gpfs/share/home/1801110325/software/g09e01/l103.exe)

 GradGradGradGradGradGradGradGradGradGradGradGradGradGradGradGradGradGrad
 Berny optimization.
 Initialization pass.
                           ----------------------------
                           !    Initial Parameters    !
                           ! (Angstroms and Degrees)  !
 --------------------------                            --------------------------
 ! Name  Definition              Value          Derivative Info.                !
 --------------------------------------------------------------------------------
 ! R1    R(1,3)                  1.3393         estimate D2E/DX2                !
 ! R2    R(1,8)                  0.9817         estimate D2E/DX2                !
 ! R3    R(2,3)                  1.3321         estimate D2E/DX2                !
 ! R4    R(2,5)                  1.3398         estimate D2E/DX2                !
 ! R5    R(2,15)                 1.9334         estimate D2E/DX2                !
 ! R6    R(3,4)                  1.4017         estimate D2E/DX2                !
 ! R7    R(4,6)                  1.3785         estimate D2E/DX2                !
 ! R8    R(4,9)                  1.0796         estimate D2E/DX2                !
 ! R9    R(5,7)                  1.3808         estimate D2E/DX2                !
 ! R10   R(5,10)                 1.0831         estimate D2E/DX2                !
 ! R11   R(6,7)                  1.3964         estimate D2E/DX2                !
 ! R12   R(6,11)                 1.0818         estimate D2E/DX2                !
 ! R13   R(7,12)                 1.0797         estimate D2E/DX2                !
 ! R14   R(8,13)                 1.831          estimate D2E/DX2                !
 ! R15   R(8,15)                 1.911          estimate D2E/DX2                !
 ! R16   R(13,14)                0.9606         estimate D2E/DX2                !
 ! R17   R(13,15)                0.9803         estimate D2E/DX2                !
 ! A1    A(3,1,8)              109.7141         estimate D2E/DX2                !
 ! A2    A(3,2,5)              118.3342         estimate D2E/DX2                !
 ! A3    A(3,2,15)             107.2978         estimate D2E/DX2                !
 ! A4    A(5,2,15)             134.3668         estimate D2E/DX2                !
 ! A5    A(1,3,2)              119.0414         estimate D2E/DX2                !
 ! A6    A(1,3,4)              118.3271         estimate D2E/DX2                !
 ! A7    A(2,3,4)              122.6315         estimate D2E/DX2                !
 ! A8    A(3,4,6)              118.1694         estimate D2E/DX2                !
 ! A9    A(3,4,9)              119.4119         estimate D2E/DX2                !
 ! A10   A(6,4,9)              122.4186         estimate D2E/DX2                !
 ! A11   A(2,5,7)              123.3496         estimate D2E/DX2                !
 ! A12   A(2,5,10)             115.832          estimate D2E/DX2                !
 ! A13   A(7,5,10)             120.8184         estimate D2E/DX2                !
 ! A14   A(4,6,7)              119.6513         estimate D2E/DX2                !
 ! A15   A(4,6,11)             119.9667         estimate D2E/DX2                !
 ! A16   A(7,6,11)             120.382          estimate D2E/DX2                !
 ! A17   A(5,7,6)              117.8639         estimate D2E/DX2                !
 ! A18   A(5,7,12)             120.5506         estimate D2E/DX2                !
 ! A19   A(6,7,12)             121.5855         estimate D2E/DX2                !
 ! A20   A(1,8,13)             159.5294         estimate D2E/DX2                !
 ! A21   A(1,8,15)             129.3503         estimate D2E/DX2                !
 ! A22   A(8,13,14)            121.2243         estimate D2E/DX2                !
 ! A23   A(14,13,15)           106.8012         estimate D2E/DX2                !
 ! A24   A(2,15,8)              74.5948         estimate D2E/DX2                !
 ! A25   A(2,15,13)            144.7717         estimate D2E/DX2                !
 ! D1    D(8,1,3,2)              0.4232         estimate D2E/DX2                !
 ! D2    D(8,1,3,4)           -179.5823         estimate D2E/DX2                !
 ! D3    D(3,1,8,13)             4.1107         estimate D2E/DX2                !
 ! D4    D(3,1,8,15)            -0.4785         estimate D2E/DX2                !
 ! D5    D(5,2,3,1)           -179.8646         estimate D2E/DX2                !
 ! D6    D(5,2,3,4)              0.1411         estimate D2E/DX2                !
 ! D7    D(15,2,3,1)            -0.2046         estimate D2E/DX2                !
 ! D8    D(15,2,3,4)           179.8011         estimate D2E/DX2                !
 ! D9    D(3,2,5,7)             -0.1121         estimate D2E/DX2                !
 ! D10   D(3,2,5,10)           179.8324         estimate D2E/DX2                !
 ! D11   D(15,2,5,7)          -179.6581         estimate D2E/DX2                !
 ! D12   D(15,2,5,10)            0.2865         estimate D2E/DX2                !
 ! D13   D(3,2,15,8)            -0.0003         estimate D2E/DX2                !
 ! D14   D(3,2,15,13)           -5.7168         estimate D2E/DX2                !
 ! D15   D(5,2,15,8)           179.5811         estimate D2E/DX2                !
 ! D16   D(5,2,15,13)          173.8646         estimate D2E/DX2                !
 ! D17   D(1,3,4,6)            179.9187         estimate D2E/DX2                !
 ! D18   D(1,3,4,9)              0.0211         estimate D2E/DX2                !
 ! D19   D(2,3,4,6)             -0.0869         estimate D2E/DX2                !
 ! D20   D(2,3,4,9)           -179.9845         estimate D2E/DX2                !
 ! D21   D(3,4,6,7)             -0.0001         estimate D2E/DX2                !
 ! D22   D(3,4,6,11)          -179.9445         estimate D2E/DX2                !
 ! D23   D(9,4,6,7)            179.8942         estimate D2E/DX2                !
 ! D24   D(9,4,6,11)            -0.0502         estimate D2E/DX2                !
 ! D25   D(2,5,7,6)              0.0291         estimate D2E/DX2                !
 ! D26   D(2,5,7,12)           179.968          estimate D2E/DX2                !
 ! D27   D(10,5,7,6)          -179.9128         estimate D2E/DX2                !
 ! D28   D(10,5,7,12)            0.0261         estimate D2E/DX2                !
 ! D29   D(4,6,7,5)              0.0272         estimate D2E/DX2                !
 ! D30   D(4,6,7,12)          -179.911          estimate D2E/DX2                !
 ! D31   D(11,6,7,5)           179.9714         estimate D2E/DX2                !
 ! D32   D(11,6,7,12)            0.0332         estimate D2E/DX2                !
 ! D33   D(1,8,13,14)         -110.3582         estimate D2E/DX2                !
 ! D34   D(1,8,15,2)             0.3164         estimate D2E/DX2                !
 ! D35   D(8,13,14,15)          87.5843         estimate D2E/DX2                !
 ! D36   D(14,13,15,2)         125.4771         estimate D2E/DX2                !
 --------------------------------------------------------------------------------
 Trust Radius=3.00D-01 FncErr=1.00D-07 GrdErr=1.00D-06
 Number of steps in this run=     88 maximum allowed number of steps=    100.
 GradGradGradGradGradGradGradGradGradGradGradGradGradGradGradGradGradGrad

 Leave Link  103 at Thu Sep  2 22:19:27 2021, MaxMem=  1342177280 cpu:         0.1
 (Enter /gpfs/share/home/1801110325/software/g09e01/l202.exe)
                          Input orientation:                          
 ---------------------------------------------------------------------
 Center     Atomic      Atomic             Coordinates (Angstroms)
 Number     Number       Type             X           Y           Z
 ---------------------------------------------------------------------
      1          8           0        1.216003    1.448553   -0.002617
      2          7           0        0.305942   -0.666194   -0.005465
      3          6           0        0.137014    0.655155   -0.000094
      4          6           0       -1.129757    1.255183    0.008257
      5          6           0       -0.783175   -1.446498   -0.005634
      6          6           0       -2.238124    0.435485    0.009108
      7          6           0       -2.071986   -0.950998    0.001732
      8          1           0        2.030216    0.900227   -0.015295
      9          1           0       -1.206308    2.332099    0.012077
     10          1           0       -0.599059   -2.513820   -0.012944
     11          1           0       -3.229823    0.867678    0.014558
     12          1           0       -2.917952   -1.621952    0.000735
     13          8           0        3.095711   -0.587217   -0.085025
     14          1           0        3.593966   -0.879251    0.682533
     15          1           0        2.209819   -1.002278   -0.022484
 ---------------------------------------------------------------------
                    Distance matrix (angstroms):
                    1          2          3          4          5
     1  O    0.000000
     2  N    2.302254   0.000000
     3  C    1.339292   1.332114   0.000000
     4  C    2.353742   2.398564   1.401718   0.000000
     5  C    3.518244   1.339795   2.294281   2.723856   0.000000
     6  C    3.599644   2.772396   2.385292   1.378544   2.378856
     7  C    4.070471   2.394934   2.731192   2.398973   1.380800
     8  H    0.981715   2.329569   1.909059   3.179934   3.663657
     9  H    2.578461   3.358120   2.148675   1.079640   3.802256
    10  H    4.358320   2.057378   3.253363   3.806241   1.083111
    11  H    4.483646   3.854192   3.373570   2.135527   3.367774
    12  H    5.149524   3.362589   3.810254   3.387566   2.141984
    13  O    2.772085   2.792020   3.210076   4.610609   3.973717
    14  H    3.397471   3.365982   3.843293   5.227238   4.467069
    15  H    2.644738   1.933388   2.654073   4.031109   3.025827
                    6          7          8          9         10
     6  C    0.000000
     7  C    1.396421   0.000000
     8  H    4.293636   4.500598   0.000000
     9  H    2.159120   3.395325   3.539222   0.000000
    10  H    3.374229   2.147590   4.309154   4.883883   0.000000
    11  H    1.081798   2.155999   5.260224   2.497829   4.284414
    12  H    2.166860   1.079740   5.553918   4.308639   2.484528
    13  O    5.431812   5.181212   1.831019   5.199923   4.167532
    14  H    6.016253   5.707158   2.469579   5.814199   4.553786
    15  H    4.674651   4.282181   1.910977   4.773802   3.189772
                   11         12         13         14         15
    11  H    0.000000
    12  H    2.509126   0.000000
    13  O    6.491457   6.102637   0.000000
    14  H    7.075454   6.589501   0.960566   0.000000
    15  H    5.752201   5.165130   0.980302   1.558219   0.000000
 Stoichiometry    C5H7NO2
 Framework group  C1[X(C5H7NO2)]
 Deg. of freedom    39
 Full point group                 C1      NOp   1
 Largest Abelian subgroup         C1      NOp   1
 Largest concise Abelian subgroup C1      NOp   1
                         Standard orientation:                         
 ---------------------------------------------------------------------
 Center     Atomic      Atomic             Coordinates (Angstroms)
 Number     Number       Type             X           Y           Z
 ---------------------------------------------------------------------
      1          8           0        1.216003    1.448553   -0.002617
      2          7           0        0.305942   -0.666194   -0.005465
      3          6           0        0.137014    0.655155   -0.000094
      4          6           0       -1.129757    1.255183    0.008257
      5          6           0       -0.783175   -1.446498   -0.005634
      6          6           0       -2.238124    0.435485    0.009108
      7          6           0       -2.071986   -0.950998    0.001732
      8          1           0        2.030216    0.900227   -0.015295
      9          1           0       -1.206308    2.332099    0.012077
     10          1           0       -0.599059   -2.513820   -0.012944
     11          1           0       -3.229823    0.867678    0.014558
     12          1           0       -2.917952   -1.621952    0.000735
     13          8           0        3.095711   -0.587217   -0.085025
     14          1           0        3.593966   -0.879251    0.682533
     15          1           0        2.209819   -1.002278   -0.022484
 ---------------------------------------------------------------------
 Rotational constants (GHZ):      4.0123302      1.4179596      1.0501753
 Leave Link  202 at Thu Sep  2 22:19:27 2021, MaxMem=  1342177280 cpu:         0.1
 (Enter /gpfs/share/home/1801110325/software/g09e01/l301.exe)
 General basis read from cards:  (5D, 7F)
 Centers:       8      9     10     11     12     14     15
 S 4 1.00
     Exponent=  7.5423000000D+01 Coefficients=  2.4065000000D-03
     Exponent=  1.1350000000D+01 Coefficients=  1.8487000000D-02
     Exponent=  2.5993000000D+00 Coefficients=  8.9742000000D-02
     Exponent=  7.3513000000D-01 Coefficients=  2.8111000000D-01
 S 1 1.00
     Exponent=  2.3167000000D-01 Coefficients=  1.0000000000D+00
 S 1 1.00
     Exponent=  7.4147000000D-02 Coefficients=  1.0000000000D+00
 P 1 1.00
     Exponent=  1.6000000000D+00 Coefficients=  1.0000000000D+00
 P 1 1.00
     Exponent=  4.5000000000D-01 Coefficients=  1.0000000000D+00
 D 1 1.00
     Exponent=  1.2500000000D+00 Coefficients=  1.0000000000D+00
 ****
 Centers:       3      4      5      6      7
 S 7 1.00
     Exponent=  7.8571000000D+03 Coefficients=  5.6825000000D-04
     Exponent=  1.1787000000D+03 Coefficients=  4.3915000000D-03
     Exponent=  2.6832000000D+02 Coefficients=  2.2504000000D-02
     Exponent=  7.5948000000D+01 Coefficients=  8.6653000000D-02
     Exponent=  2.4559000000D+01 Coefficients=  2.4405000000D-01
     Exponent=  8.6212000000D+00 Coefficients=  4.4148000000D-01
     Exponent=  3.1278000000D+00 Coefficients=  3.5332000000D-01
 S 7 1.00
     Exponent=  1.1787000000D+03 Coefficients= -5.9492000000D-07
     Exponent=  2.6832000000D+02 Coefficients= -6.2748000000D-05
     Exponent=  7.5948000000D+01 Coefficients= -7.5773000000D-04
     Exponent=  2.4559000000D+01 Coefficients= -7.3308000000D-03
     Exponent=  8.6212000000D+00 Coefficients= -3.8932000000D-02
     Exponent=  3.1278000000D+00 Coefficients= -8.8908000000D-02
     Exponent=  8.2202000000D-01 Coefficients=  2.1689000000D-01
 S 1 1.00
     Exponent=  3.3017000000D-01 Coefficients=  1.0000000000D+00
 S 1 1.00
     Exponent=  1.1463000000D-01 Coefficients=  1.0000000000D+00
 P 4 1.00
     Exponent=  3.3775000000D+01 Coefficients=  6.0294000000D-03
     Exponent=  7.6766000000D+00 Coefficients=  4.3228000000D-02
     Exponent=  2.2357000000D+00 Coefficients=  1.6301000000D-01
     Exponent=  7.6447000000D-01 Coefficients=  3.6504000000D-01
 P 1 1.00
     Exponent=  2.6232000000D-01 Coefficients=  1.0000000000D+00
 P 1 1.00
     Exponent=  8.4638000000D-02 Coefficients=  1.0000000000D+00
 D 1 1.00
     Exponent=  1.4000000000D+00 Coefficients=  1.0000000000D+00
 D 1 1.00
     Exponent=  4.5000000000D-01 Coefficients=  1.0000000000D+00
 F 1 1.00
     Exponent=  9.5000000000D-01 Coefficients=  1.0000000000D+00
 ****
 Centers:       2
 S 7 1.00
     Exponent=  1.1101000000D+04 Coefficients=  5.4570000000D-04
     Exponent=  1.6653000000D+03 Coefficients=  4.2181000000D-03
     Exponent=  3.7908000000D+02 Coefficients=  2.1645000000D-02
     Exponent=  1.0730000000D+02 Coefficients=  8.3776000000D-02
     Exponent=  3.4747000000D+01 Coefficients=  2.3881000000D-01
     Exponent=  1.2249000000D+01 Coefficients=  4.3994000000D-01
     Exponent=  4.4743000000D+00 Coefficients=  3.6364000000D-01
 S 7 1.00
     Exponent=  1.6653000000D+03 Coefficients= -1.5006000000D-06
     Exponent=  3.7908000000D+02 Coefficients= -5.8753000000D-05
     Exponent=  1.0730000000D+02 Coefficients= -7.7453000000D-04
     Exponent=  3.4747000000D+01 Coefficients= -7.2161000000D-03
     Exponent=  1.2249000000D+01 Coefficients= -3.9338000000D-02
     Exponent=  4.4743000000D+00 Coefficients= -9.0611000000D-02
     Exponent=  1.2404000000D+00 Coefficients=  1.9882000000D-01
 S 1 1.00
     Exponent=  4.8743000000D-01 Coefficients=  1.0000000000D+00
 S 1 1.00
     Exponent=  1.6484000000D-01 Coefficients=  1.0000000000D+00
 P 4 1.00
     Exponent=  4.7934000000D+01 Coefficients=  6.1706000000D-03
     Exponent=  1.0999000000D+01 Coefficients=  4.4260000000D-02
     Exponent=  3.2472000000D+00 Coefficients=  1.6825000000D-01
     Exponent=  1.1114000000D+00 Coefficients=  3.6848000000D-01
 P 1 1.00
     Exponent=  3.7988000000D-01 Coefficients=  1.0000000000D+00
 P 1 1.00
     Exponent=  1.2068000000D-01 Coefficients=  1.0000000000D+00
 D 1 1.00
     Exponent=  1.8000000000D+00 Coefficients=  1.0000000000D+00
 D 1 1.00
     Exponent=  5.5000000000D-01 Coefficients=  1.0000000000D+00
 F 1 1.00
     Exponent=  1.0200000000D+00 Coefficients=  1.0000000000D+00
 ****
 Centers:       1     13
 S 7 1.00
     Exponent=  1.4782000000D+04 Coefficients=  5.3519000000D-04
     Exponent=  2.2173000000D+03 Coefficients=  4.1375000000D-03
     Exponent=  5.0474000000D+02 Coefficients=  2.1245000000D-02
     Exponent=  1.4287000000D+02 Coefficients=  8.2453000000D-02
     Exponent=  4.6300000000D+01 Coefficients=  2.3671000000D-01
     Exponent=  1.6337000000D+01 Coefficients=  4.4039000000D-01
     Exponent=  5.9828000000D+00 Coefficients=  3.6465000000D-01
 S 7 1.00
     Exponent=  2.2173000000D+03 Coefficients= -1.9275000000D-06
     Exponent=  5.0474000000D+02 Coefficients= -5.7964000000D-05
     Exponent=  1.4287000000D+02 Coefficients= -7.9494000000D-04
     Exponent=  4.6300000000D+01 Coefficients= -7.3125000000D-03
     Exponent=  1.6337000000D+01 Coefficients= -4.0574000000D-02
     Exponent=  5.9828000000D+00 Coefficients= -9.1594000000D-02
     Exponent=  1.6718000000D+00 Coefficients=  2.0940000000D-01
 S 1 1.00
     Exponent=  6.4662000000D-01 Coefficients=  1.0000000000D+00
 S 1 1.00
     Exponent=  2.1669000000D-01 Coefficients=  1.0000000000D+00
 P 4 1.00
     Exponent=  6.0424000000D+01 Coefficients=  6.8949000000D-03
     Exponent=  1.3935000000D+01 Coefficients=  4.9005000000D-02
     Exponent=  4.1531000000D+00 Coefficients=  1.8255000000D-01
     Exponent=  1.4158000000D+00 Coefficients=  3.7633000000D-01
 P 1 1.00
     Exponent=  4.7549000000D-01 Coefficients=  1.0000000000D+00
 P 1 1.00
     Exponent=  1.4529000000D-01 Coefficients=  1.0000000000D+00
 D 1 1.00
     Exponent=  2.2000000000D+00 Coefficients=  1.0000000000D+00
 D 1 1.00
     Exponent=  6.5000000000D-01 Coefficients=  1.0000000000D+00
 F 1 1.00
     Exponent=  1.1000000000D+00 Coefficients=  1.0000000000D+00
 ****
 Ernie: Thresh=  0.10000D-02 Tol=  0.10000D-05 Strict=F.
 Ernie:  8 primitive shells out of 263 were deleted.
 There are   385 symmetry adapted cartesian basis functions of A   symmetry.
 There are   338 symmetry adapted basis functions of A   symmetry.
   338 basis functions,   566 primitive gaussians,   385 cartesian basis functions
    30 alpha electrons       30 beta electrons
       nuclear repulsion energy       357.6226221683 Hartrees.
 IExCor= 2523 DFT=T Ex+Corr=TPSSh ExCW=0 ScaHFX=  0.100000
 ScaDFX=  0.900000  0.900000  1.000000  1.000000 ScalE2=  1.000000  1.000000
 IRadAn=      0 IRanWt=     -1 IRanGd=            0 ICorTp=0 IEmpDi=  4
 NAtoms=   15 NActive=   15 NUniq=   15 SFac= 1.00D+00 NAtFMM=   60 NAOKFM=F Big=F
 Integral buffers will be    131072 words long.
 Raffenetti 2 integral format.
 Two-electron integral symmetry is turned on.
 Leave Link  301 at Thu Sep  2 22:19:27 2021, MaxMem=  1342177280 cpu:         3.2
 (Enter /gpfs/share/home/1801110325/software/g09e01/l302.exe)
 NPDir=0 NMtPBC=     1 NCelOv=     1 NCel=       1 NClECP=     1 NCelD=      1
         NCelK=      1 NCelE2=     1 NClLst=     1 CellRange=     0.0.
 One-electron integrals computed using PRISM.
 NBasis=   338 RedAO= T EigKep=  1.46D-04  NBF=   338
 NBsUse=   338 1.00D-06 EigRej= -1.00D+00 NBFU=   338
 Precomputing XC quadrature grid using
 IXCGrd= 4 IRadAn=           0 IRanWt=          -1 IRanGd=           0 AccXCQ= 0.00D+00.
 Generated NRdTot=       0 NPtTot=           0 NUsed=           0 NTot=          32
 NSgBfM=   384   384   384   384   385 MxSgAt=    15 MxSgA2=    15.
 Leave Link  302 at Thu Sep  2 22:19:28 2021, MaxMem=  1342177280 cpu:         1.9
 (Enter /gpfs/share/home/1801110325/software/g09e01/l303.exe)
 DipDrv:  MaxL=1.
 Leave Link  303 at Thu Sep  2 22:19:28 2021, MaxMem=  1342177280 cpu:         0.2
 (Enter /gpfs/share/home/1801110325/software/g09e01/l401.exe)
 ExpMin= 7.41D-02 ExpMax= 1.48D+04 ExpMxC= 5.05D+02 IAcc=2 IRadAn=         4 AccDes= 0.00D+00
 Harris functional with IExCor= 1009 and IRadAn=       4 diagonalized for initial guess.
 HarFok:  IExCor= 1009 AccDes= 0.00D+00 IRadAn=         4 IDoV= 1 UseB2=F ITyADJ=14
 ICtDFT=  3500011 ScaDFX=  1.000000  1.000000  1.000000  1.000000
 FoFCou: FMM=F IPFlag=           0 FMFlag=      100000 FMFlg1=           0
         NFxFlg=           0 DoJE=T BraDBF=F KetDBF=T FulRan=T
         wScrn=  0.000000 ICntrl=     500 IOpCl=  0 I1Cent=   200000004 NGrid=           0
         NMat0=    1 NMatS0=      1 NMatT0=    0 NMatD0=    1 NMtDS0=    0 NMtDT0=    0
 Petite list used in FoFCou.
 Harris En= -399.801169270425    
 JPrj=0 DoOrth=F DoCkMO=F.
 Leave Link  401 at Thu Sep  2 22:19:29 2021, MaxMem=  1342177280 cpu:         6.4
 (Enter /gpfs/share/home/1801110325/software/g09e01/l502.exe)
 Closed shell SCF:
 Using DIIS extrapolation, IDIIS=  1040.
 Integral symmetry usage will be decided dynamically.
 IVT=      468335 IEndB=      468335 NGot=  1342177280 MDV=  1341874196
 LenX=  1341874196 LenY=  1341725530
 Requested convergence on RMS density matrix=1.00D-08 within 128 cycles.
 Requested convergence on MAX density matrix=1.00D-06.
 Requested convergence on             energy=1.00D-06.
 No special actions if energy rises.

 Cycle   1  Pass 1  IDiag  1:
 FoFJK:  IHMeth= 1 ICntrl=       0 DoSepK=F KAlg= 0 I1Cent=   0 FoldK=F
 IRaf= 940000000 NMat=   1 IRICut=       1 DoRegI=T DoRafI=F ISym2E= 0.
 FoFCou: FMM=F IPFlag=           0 FMFlag=      100000 FMFlg1=           0
         NFxFlg=           0 DoJE=F BraDBF=F KetDBF=F FulRan=T
         wScrn=  0.000000 ICntrl=       0 IOpCl=  0 I1Cent=           0 NGrid=           0
         NMat0=    1 NMatS0=      1 NMatT0=    0 NMatD0=    1 NMtDS0=    0 NMtDT0=    0
 Symmetry not used in FoFCou.
 E= -399.933720163697    
 DIIS: error= 2.27D-02 at cycle   1 NSaved=   1.
 NSaved= 1 IEnMin= 1 EnMin= -399.933720163697     IErMin= 1 ErrMin= 2.27D-02
 ErrMax= 2.27D-02  0.00D+00 EMaxC= 1.00D-01 BMatC= 2.56D-01 BMatP= 2.56D-01
 IDIUse=3 WtCom= 7.73D-01 WtEn= 2.27D-01
 Coeff-Com:  0.100D+01
 Coeff-En:   0.100D+01
 Coeff:      0.100D+01
 Gap=     0.178 Goal=   None    Shift=    0.000
 GapD=    0.178 DampG=1.000 DampE=0.500 DampFc=0.5000 IDamp=-1.
 Damping current iteration by 5.00D-01
 RMSDP=2.47D-03 MaxDP=1.13D-01              OVMax= 2.07D-01

 Cycle   2  Pass 1  IDiag  1:
 E= -400.001582292059     Delta-E=       -0.067862128361 Rises=F Damp=T
 DIIS: error= 7.02D-03 at cycle   2 NSaved=   2.
 NSaved= 2 IEnMin= 2 EnMin= -400.001582292059     IErMin= 2 ErrMin= 7.02D-03
 ErrMax= 7.02D-03  0.00D+00 EMaxC= 1.00D-01 BMatC= 2.79D-02 BMatP= 2.56D-01
 IDIUse=3 WtCom= 9.30D-01 WtEn= 7.02D-02
 Coeff-Com:  0.167D+00 0.833D+00
 Coeff-En:   0.294D+00 0.706D+00
 Coeff:      0.176D+00 0.824D+00
 Gap=     0.185 Goal=   None    Shift=    0.000
 RMSDP=6.74D-04 MaxDP=3.09D-02 DE=-6.79D-02 OVMax= 1.59D-01

 Cycle   3  Pass 1  IDiag  1:
 E= -400.126652874996     Delta-E=       -0.125070582937 Rises=F Damp=F
 DIIS: error= 7.40D-03 at cycle   3 NSaved=   3.
 NSaved= 3 IEnMin= 3 EnMin= -400.126652874996     IErMin= 2 ErrMin= 7.02D-03
 ErrMax= 7.40D-03  0.00D+00 EMaxC= 1.00D-01 BMatC= 1.35D-02 BMatP= 2.79D-02
 IDIUse=3 WtCom= 9.26D-01 WtEn= 7.40D-02
 Coeff-Com:  0.260D-01 0.397D+00 0.577D+00
 Coeff-En:   0.000D+00 0.000D+00 0.100D+01
 Coeff:      0.240D-01 0.368D+00 0.608D+00
 Gap=     0.183 Goal=   None    Shift=    0.000
 RMSDP=4.20D-04 MaxDP=2.09D-02 DE=-1.25D-01 OVMax= 6.54D-02

 Cycle   4  Pass 1  IDiag  1:
 E= -400.132736948085     Delta-E=       -0.006084073089 Rises=F Damp=F
 DIIS: error= 6.17D-03 at cycle   4 NSaved=   4.
 NSaved= 4 IEnMin= 4 EnMin= -400.132736948085     IErMin= 4 ErrMin= 6.17D-03
 ErrMax= 6.17D-03  0.00D+00 EMaxC= 1.00D-01 BMatC= 6.55D-03 BMatP= 1.35D-02
 IDIUse=3 WtCom= 9.38D-01 WtEn= 6.17D-02
 Coeff-Com: -0.114D-01 0.101D+00 0.420D+00 0.491D+00
 Coeff-En:   0.000D+00 0.000D+00 0.370D+00 0.630D+00
 Coeff:     -0.107D-01 0.946D-01 0.417D+00 0.500D+00
 Gap=     0.182 Goal=   None    Shift=    0.000
 RMSDP=2.02D-04 MaxDP=1.18D-02 DE=-6.08D-03 OVMax= 4.10D-02

 Cycle   5  Pass 1  IDiag  1:
 E= -400.138694983092     Delta-E=       -0.005958035007 Rises=F Damp=F
 DIIS: error= 1.29D-03 at cycle   5 NSaved=   5.
 NSaved= 5 IEnMin= 5 EnMin= -400.138694983092     IErMin= 5 ErrMin= 1.29D-03
 ErrMax= 1.29D-03  0.00D+00 EMaxC= 1.00D-01 BMatC= 5.51D-04 BMatP= 6.55D-03
 IDIUse=3 WtCom= 9.87D-01 WtEn= 1.29D-02
 Coeff-Com: -0.844D-02 0.250D-01 0.208D+00 0.311D+00 0.464D+00
 Coeff-En:   0.000D+00 0.000D+00 0.000D+00 0.250D-01 0.975D+00
 Coeff:     -0.833D-02 0.247D-01 0.205D+00 0.308D+00 0.471D+00
 Gap=     0.182 Goal=   None    Shift=    0.000
 RMSDP=5.68D-05 MaxDP=2.79D-03 DE=-5.96D-03 OVMax= 9.83D-03

 Cycle   6  Pass 1  IDiag  1:
 E= -400.139187375314     Delta-E=       -0.000492392222 Rises=F Damp=F
 DIIS: error= 2.79D-04 at cycle   6 NSaved=   6.
 NSaved= 6 IEnMin= 6 EnMin= -400.139187375314     IErMin= 6 ErrMin= 2.79D-04
 ErrMax= 2.79D-04  0.00D+00 EMaxC= 1.00D-01 BMatC= 3.39D-05 BMatP= 5.51D-04
 IDIUse=3 WtCom= 9.97D-01 WtEn= 2.79D-03
 Coeff-Com: -0.320D-02 0.290D-02 0.674D-01 0.112D+00 0.259D+00 0.562D+00
 Coeff-En:   0.000D+00 0.000D+00 0.000D+00 0.000D+00 0.000D+00 0.100D+01
 Coeff:     -0.319D-02 0.289D-02 0.672D-01 0.112D+00 0.258D+00 0.563D+00
 Gap=     0.182 Goal=   None    Shift=    0.000
 RMSDP=1.28D-05 MaxDP=4.69D-04 DE=-4.92D-04 OVMax= 2.11D-03

 Cycle   7  Pass 1  IDiag  1:
 E= -400.139214968885     Delta-E=       -0.000027593571 Rises=F Damp=F
 DIIS: error= 1.03D-04 at cycle   7 NSaved=   7.
 NSaved= 7 IEnMin= 7 EnMin= -400.139214968885     IErMin= 7 ErrMin= 1.03D-04
 ErrMax= 1.03D-04  0.00D+00 EMaxC= 1.00D-01 BMatC= 1.97D-06 BMatP= 3.39D-05
 IDIUse=3 WtCom= 9.99D-01 WtEn= 1.03D-03
 Coeff-Com: -0.156D-02 0.106D-02 0.331D-01 0.549D-01 0.136D+00 0.327D+00
 Coeff-Com:  0.449D+00
 Coeff-En:   0.000D+00 0.000D+00 0.000D+00 0.000D+00 0.000D+00 0.000D+00
 Coeff-En:   0.100D+01
 Coeff:     -0.156D-02 0.106D-02 0.331D-01 0.549D-01 0.136D+00 0.327D+00
 Coeff:      0.450D+00
 Gap=     0.182 Goal=   None    Shift=    0.000
 RMSDP=4.03D-06 MaxDP=1.70D-04 DE=-2.76D-05 OVMax= 8.41D-04

 Cycle   8  Pass 1  IDiag  1:
 E= -400.139216676161     Delta-E=       -0.000001707276 Rises=F Damp=F
 DIIS: error= 3.41D-05 at cycle   8 NSaved=   8.
 NSaved= 8 IEnMin= 8 EnMin= -400.139216676161     IErMin= 8 ErrMin= 3.41D-05
 ErrMax= 3.41D-05  0.00D+00 EMaxC= 1.00D-01 BMatC= 2.61D-07 BMatP= 1.97D-06
 IDIUse=1 WtCom= 1.00D+00 WtEn= 0.00D+00
 Coeff-Com: -0.226D-03-0.113D-03 0.591D-02 0.970D-02 0.289D-01 0.796D-01
 Coeff-Com:  0.272D+00 0.604D+00
 Coeff:     -0.226D-03-0.113D-03 0.591D-02 0.970D-02 0.289D-01 0.796D-01
 Coeff:      0.272D+00 0.604D+00
 Gap=     0.182 Goal=   None    Shift=    0.000
 RMSDP=1.33D-06 MaxDP=4.73D-05 DE=-1.71D-06 OVMax= 2.96D-04

 Cycle   9  Pass 1  IDiag  1:
 E= -400.139216897084     Delta-E=       -0.000000220924 Rises=F Damp=F
 DIIS: error= 8.93D-06 at cycle   9 NSaved=   9.
 NSaved= 9 IEnMin= 9 EnMin= -400.139216897084     IErMin= 9 ErrMin= 8.93D-06
 ErrMax= 8.93D-06  0.00D+00 EMaxC= 1.00D-01 BMatC= 3.40D-08 BMatP= 2.61D-07
 IDIUse=1 WtCom= 1.00D+00 WtEn= 0.00D+00
 Coeff-Com: -0.325D-05-0.151D-03 0.927D-03 0.143D-02 0.662D-02 0.216D-01
 Coeff-Com:  0.128D+00 0.360D+00 0.482D+00
 Coeff:     -0.325D-05-0.151D-03 0.927D-03 0.143D-02 0.662D-02 0.216D-01
 Coeff:      0.128D+00 0.360D+00 0.482D+00
 Gap=     0.182 Goal=   None    Shift=    0.000
 RMSDP=4.58D-07 MaxDP=3.45D-05 DE=-2.21D-07 OVMax= 9.62D-05

 Cycle  10  Pass 1  IDiag  1:
 E= -400.139216927456     Delta-E=       -0.000000030371 Rises=F Damp=F
 DIIS: error= 2.03D-06 at cycle  10 NSaved=  10.
 NSaved=10 IEnMin=10 EnMin= -400.139216927456     IErMin=10 ErrMin= 2.03D-06
 ErrMax= 2.03D-06  0.00D+00 EMaxC= 1.00D-01 BMatC= 1.58D-09 BMatP= 3.40D-08
 IDIUse=1 WtCom= 1.00D+00 WtEn= 0.00D+00
 Coeff-Com:  0.216D-04-0.506D-04-0.217D-03-0.390D-03-0.121D-03 0.136D-02
 Coeff-Com:  0.306D-01 0.959D-01 0.229D+00 0.644D+00
 Coeff:      0.216D-04-0.506D-04-0.217D-03-0.390D-03-0.121D-03 0.136D-02
 Coeff:      0.306D-01 0.959D-01 0.229D+00 0.644D+00
 Gap=     0.182 Goal=   None    Shift=    0.000
 RMSDP=1.02D-07 MaxDP=6.00D-06 DE=-3.04D-08 OVMax= 1.93D-05

 Cycle  11  Pass 1  IDiag  1:
 E= -400.139216928945     Delta-E=       -0.000000001489 Rises=F Damp=F
 DIIS: error= 5.95D-07 at cycle  11 NSaved=  11.
 NSaved=11 IEnMin=11 EnMin= -400.139216928945     IErMin=11 ErrMin= 5.95D-07
 ErrMax= 5.95D-07  0.00D+00 EMaxC= 1.00D-01 BMatC= 1.02D-10 BMatP= 1.58D-09
 IDIUse=1 WtCom= 1.00D+00 WtEn= 0.00D+00
 Coeff-Com:  0.877D-05-0.175D-04-0.115D-03-0.199D-03-0.193D-03 0.101D-03
 Coeff-Com:  0.105D-01 0.335D-01 0.920D-01 0.325D+00 0.540D+00
 Coeff:      0.877D-05-0.175D-04-0.115D-03-0.199D-03-0.193D-03 0.101D-03
 Coeff:      0.105D-01 0.335D-01 0.920D-01 0.325D+00 0.540D+00
 Gap=     0.182 Goal=   None    Shift=    0.000
 RMSDP=2.74D-08 MaxDP=2.14D-06 DE=-1.49D-09 OVMax= 5.11D-06

 Cycle  12  Pass 1  IDiag  1:
 E= -400.139216929025     Delta-E=       -0.000000000080 Rises=F Damp=F
 DIIS: error= 2.18D-07 at cycle  12 NSaved=  12.
 NSaved=12 IEnMin=12 EnMin= -400.139216929025     IErMin=12 ErrMin= 2.18D-07
 ErrMax= 2.18D-07  0.00D+00 EMaxC= 1.00D-01 BMatC= 1.88D-11 BMatP= 1.02D-10
 IDIUse=1 WtCom= 1.00D+00 WtEn= 0.00D+00
 Coeff-Com:  0.133D-05-0.628D-06-0.373D-04-0.634D-04-0.121D-03-0.255D-03
 Coeff-Com:  0.683D-03 0.244D-02 0.118D-01 0.752D-01 0.323D+00 0.588D+00
 Coeff:      0.133D-05-0.628D-06-0.373D-04-0.634D-04-0.121D-03-0.255D-03
 Coeff:      0.683D-03 0.244D-02 0.118D-01 0.752D-01 0.323D+00 0.588D+00
 Gap=     0.182 Goal=   None    Shift=    0.000
 RMSDP=9.74D-09 MaxDP=6.59D-07 DE=-7.96D-11 OVMax= 2.00D-06

 SCF Done:  E(RTPSSh) =  -400.139216929     A.U. after   12 cycles
            NFock= 12  Conv=0.97D-08     -V/T= 2.0040
 KE= 3.985368120579D+02 PE=-1.651184655545D+03 EE= 4.948860043895D+02
 Leave Link  502 at Thu Sep  2 22:21:38 2021, MaxMem=  1342177280 cpu:       774.4
 (Enter /gpfs/share/home/1801110325/software/g09e01/l601.exe)
 Copying SCF densities to generalized density rwf, IOpCl= 0 IROHF=0.

 **********************************************************************

            Population analysis using the SCF density.

 **********************************************************************

 Orbital symmetries:
       Occupied  (A) (A) (A) (A) (A) (A) (A) (A) (A) (A) (A) (A)
                 (A) (A) (A) (A) (A) (A) (A) (A) (A) (A) (A) (A)
                 (A) (A) (A) (A) (A) (A)
       Virtual   (A) (A) (A) (A) (A) (A) (A) (A) (A) (A) (A) (A)
                 (A) (A) (A) (A) (A) (A) (A) (A) (A) (A) (A) (A)
                 (A) (A) (A) (A) (A) (A) (A) (A) (A) (A) (A) (A)
                 (A) (A) (A) (A) (A) (A) (A) (A) (A) (A) (A) (A)
                 (A) (A) (A) (A) (A) (A) (A) (A) (A) (A) (A) (A)
                 (A) (A) (A) (A) (A) (A) (A) (A) (A) (A) (A) (A)
                 (A) (A) (A) (A) (A) (A) (A) (A) (A) (A) (A) (A)
                 (A) (A) (A) (A) (A) (A) (A) (A) (A) (A) (A) (A)
                 (A) (A) (A) (A) (A) (A) (A) (A) (A) (A) (A) (A)
                 (A) (A) (A) (A) (A) (A) (A) (A) (A) (A) (A) (A)
                 (A) (A) (A) (A) (A) (A) (A) (A) (A) (A) (A) (A)
                 (A) (A) (A) (A) (A) (A) (A) (A) (A) (A) (A) (A)
                 (A) (A) (A) (A) (A) (A) (A) (A) (A) (A) (A) (A)
                 (A) (A) (A) (A) (A) (A) (A) (A) (A) (A) (A) (A)
                 (A) (A) (A) (A) (A) (A) (A) (A) (A) (A) (A) (A)
                 (A) (A) (A) (A) (A) (A) (A) (A) (A) (A) (A) (A)
                 (A) (A) (A) (A) (A) (A) (A) (A) (A) (A) (A) (A)
                 (A) (A) (A) (A) (A) (A) (A) (A) (A) (A) (A) (A)
                 (A) (A) (A) (A) (A) (A) (A) (A) (A) (A) (A) (A)
                 (A) (A) (A) (A) (A) (A) (A) (A) (A) (A) (A) (A)
                 (A) (A) (A) (A) (A) (A) (A) (A) (A) (A) (A) (A)
                 (A) (A) (A) (A) (A) (A) (A) (A) (A) (A) (A) (A)
                 (A) (A) (A) (A) (A) (A) (A) (A) (A) (A) (A) (A)
                 (A) (A) (A) (A) (A) (A) (A) (A) (A) (A) (A) (A)
                 (A) (A) (A) (A) (A) (A) (A) (A) (A) (A) (A) (A)
                 (A) (A) (A) (A) (A) (A) (A) (A)
 The electronic state is 1-A.
 Alpha  occ. eigenvalues --  -19.07451 -19.05273 -14.25672 -10.21189 -10.15927
 Alpha  occ. eigenvalues --  -10.13997 -10.12563 -10.12293  -1.05017  -0.98896
 Alpha  occ. eigenvalues --   -0.92399  -0.79424  -0.74336  -0.63457  -0.61609
 Alpha  occ. eigenvalues --   -0.54022  -0.52179  -0.49699  -0.47134  -0.43595
 Alpha  occ. eigenvalues --   -0.42453  -0.40118  -0.38683  -0.37231  -0.35220
 Alpha  occ. eigenvalues --   -0.34178  -0.30028  -0.28789  -0.26907  -0.23273
 Alpha virt. eigenvalues --   -0.05070  -0.02198   0.01343   0.02487   0.04278
 Alpha virt. eigenvalues --    0.06041   0.07460   0.09786   0.11607   0.11818
 Alpha virt. eigenvalues --    0.14280   0.15667   0.16674   0.18530   0.18808
 Alpha virt. eigenvalues --    0.19307   0.20363   0.20785   0.22901   0.24250
 Alpha virt. eigenvalues --    0.25772   0.25956   0.27592   0.28066   0.28529
 Alpha virt. eigenvalues --    0.29616   0.30201   0.31002   0.32057   0.32842
 Alpha virt. eigenvalues --    0.34674   0.35757   0.36372   0.36721   0.38529
 Alpha virt. eigenvalues --    0.41727   0.42241   0.43788   0.44224   0.46908
 Alpha virt. eigenvalues --    0.49432   0.51593   0.52234   0.53382   0.53914
 Alpha virt. eigenvalues --    0.58467   0.60684   0.61736   0.62773   0.63540
 Alpha virt. eigenvalues --    0.65142   0.66800   0.68577   0.72214   0.73518
 Alpha virt. eigenvalues --    0.76016   0.77145   0.80357   0.80509   0.84068
 Alpha virt. eigenvalues --    0.87751   0.89570   0.90633   0.91478   0.93572
 Alpha virt. eigenvalues --    0.94939   0.96928   0.97097   0.98784   1.01496
 Alpha virt. eigenvalues --    1.02754   1.08055   1.08400   1.09591   1.11909
 Alpha virt. eigenvalues --    1.13671   1.13835   1.15080   1.16500   1.17208
 Alpha virt. eigenvalues --    1.19615   1.20888   1.23166   1.25514   1.25676
 Alpha virt. eigenvalues --    1.27897   1.27969   1.31244   1.31959   1.33548
 Alpha virt. eigenvalues --    1.40876   1.41104   1.43813   1.43908   1.49129
 Alpha virt. eigenvalues --    1.49579   1.50651   1.51797   1.54097   1.55630
 Alpha virt. eigenvalues --    1.57527   1.58545   1.60837   1.61908   1.64926
 Alpha virt. eigenvalues --    1.66219   1.67439   1.69931   1.69965   1.73826
 Alpha virt. eigenvalues --    1.76595   1.80224   1.82101   1.84984   1.86478
 Alpha virt. eigenvalues --    1.86941   1.87954   1.89564   1.90847   1.95645
 Alpha virt. eigenvalues --    1.97527   1.98277   2.00845   2.04205   2.08224
 Alpha virt. eigenvalues --    2.11763   2.13849   2.15992   2.17743   2.19042
 Alpha virt. eigenvalues --    2.19867   2.23926   2.24734   2.26748   2.29115
 Alpha virt. eigenvalues --    2.33826   2.39434   2.41745   2.51060   2.64864
 Alpha virt. eigenvalues --    2.72162   2.80118   2.87523   2.96716   2.97146
 Alpha virt. eigenvalues --    3.00271   3.03967   3.17119   3.21462   3.22473
 Alpha virt. eigenvalues --    3.26640   3.27788   3.30118   3.33066   3.36606
 Alpha virt. eigenvalues --    3.39587   3.40735   3.40862   3.44226   3.45517
 Alpha virt. eigenvalues --    3.47820   3.49692   3.51831   3.54787   3.59666
 Alpha virt. eigenvalues --    3.60837   3.63615   3.64242   3.65797   3.67006
 Alpha virt. eigenvalues --    3.71935   3.72541   3.73018   3.76848   3.78191
 Alpha virt. eigenvalues --    3.81748   3.83365   3.84185   3.87021   3.91266
 Alpha virt. eigenvalues --    3.93969   3.94382   3.97026   3.98212   3.99768
 Alpha virt. eigenvalues --    4.03422   4.04876   4.08191   4.09411   4.09952
 Alpha virt. eigenvalues --    4.11405   4.12486   4.14041   4.16977   4.20812
 Alpha virt. eigenvalues --    4.21155   4.21428   4.21927   4.23622   4.24448
 Alpha virt. eigenvalues --    4.27089   4.29128   4.30183   4.32524   4.33099
 Alpha virt. eigenvalues --    4.34665   4.36242   4.38443   4.41382   4.42580
 Alpha virt. eigenvalues --    4.43371   4.44270   4.45481   4.47929   4.48778
 Alpha virt. eigenvalues --    4.49916   4.50629   4.50993   4.53870   4.56345
 Alpha virt. eigenvalues --    4.56449   4.58045   4.60703   4.61528   4.62854
 Alpha virt. eigenvalues --    4.65121   4.67857   4.68719   4.69711   4.70604
 Alpha virt. eigenvalues --    4.74601   4.77475   4.79665   4.82019   4.86228
 Alpha virt. eigenvalues --    4.87424   4.91665   4.92839   4.93618   4.94387
 Alpha virt. eigenvalues --    4.95887   5.00629   5.01336   5.05451   5.06687
 Alpha virt. eigenvalues --    5.10381   5.14453   5.15250   5.17798   5.23326
 Alpha virt. eigenvalues --    5.24567   5.28446   5.29034   5.36863   5.37307
 Alpha virt. eigenvalues --    5.38171   5.40532   5.42867   5.45344   5.48558
 Alpha virt. eigenvalues --    5.50176   5.51729   5.52642   5.62736   5.64119
 Alpha virt. eigenvalues --    5.68752   5.69235   5.74043   5.77408   5.83431
 Alpha virt. eigenvalues --    5.86539   5.90666   5.92671   6.00232   6.04719
 Alpha virt. eigenvalues --    6.08869   6.11743   6.13207   6.13659   6.16786
 Alpha virt. eigenvalues --    6.24085   6.28324   6.29590   6.30760   6.34494
 Alpha virt. eigenvalues --    6.36110   6.38144   6.43137   6.47730   6.52423
 Alpha virt. eigenvalues --    6.58552   6.65272   6.70931   6.76169   6.93546
 Alpha virt. eigenvalues --    6.97737   7.05762   7.22873   7.39888   7.49907
 Alpha virt. eigenvalues --    9.36592  12.24329  12.80542  15.61064  15.65101
 Alpha virt. eigenvalues --   17.51077  18.78136  22.46724
          Condensed to atoms (all electrons):
               1          2          3          4          5          6
     1  O    7.903341  -0.084328   0.308483  -0.054730   0.004201   0.008438
     2  N   -0.084328   6.744952   0.445129  -0.014734   0.514529  -0.033506
     3  C    0.308483   0.445129   4.381906   0.535709  -0.073622  -0.054607
     4  C   -0.054730  -0.014734   0.535709   4.790699  -0.038826   0.541471
     5  C    0.004201   0.514529  -0.073622  -0.038826   4.529027  -0.074510
     6  C    0.008438  -0.033506  -0.054607   0.541471  -0.074510   4.664388
     7  C   -0.000182  -0.030582  -0.049871  -0.045329   0.549173   0.515505
     8  H    0.350887   0.007391  -0.028336   0.006857  -0.000338  -0.001169
     9  H    0.006075   0.007744  -0.027925   0.423236  -0.002067  -0.029551
    10  H   -0.000496  -0.036605   0.003836  -0.003211   0.428790   0.007583
    11  H   -0.000409  -0.001467   0.005508  -0.029672   0.005814   0.419835
    12  H    0.000059   0.007455  -0.000276   0.004719  -0.021336  -0.028796
    13  O   -0.026665  -0.040429  -0.005226   0.000860  -0.000797   0.000152
    14  H    0.001227   0.003166   0.000301   0.000125   0.000160  -0.000021
    15  H   -0.000022   0.033083  -0.005345   0.000901   0.003491  -0.000391
               7          8          9         10         11         12
     1  O   -0.000182   0.350887   0.006075  -0.000496  -0.000409   0.000059
     2  N   -0.030582   0.007391   0.007744  -0.036605  -0.001467   0.007455
     3  C   -0.049871  -0.028336  -0.027925   0.003836   0.005508  -0.000276
     4  C   -0.045329   0.006857   0.423236  -0.003211  -0.029672   0.004719
     5  C    0.549173  -0.000338  -0.002067   0.428790   0.005814  -0.021336
     6  C    0.515505  -0.001169  -0.029551   0.007583   0.419835  -0.028796
     7  C    4.873171   0.000384   0.006720  -0.055102  -0.031822   0.419431
     8  H    0.000384   0.394414   0.000155  -0.000164  -0.000002  -0.000012
     9  H    0.006720   0.000155   0.581697   0.000202  -0.006244  -0.000471
    10  H   -0.055102  -0.000164   0.000202   0.607356  -0.000637  -0.002579
    11  H   -0.031822  -0.000002  -0.006244  -0.000637   0.598025  -0.004895
    12  H    0.419431  -0.000012  -0.000471  -0.002579  -0.004895   0.599205
    13  O   -0.000390   0.056175   0.000017   0.000360  -0.000005   0.000011
    14  H    0.000077  -0.003877  -0.000003  -0.000028   0.000000  -0.000001
    15  H    0.001349  -0.008380  -0.000041  -0.000563   0.000024  -0.000036
              13         14         15
     1  O   -0.026665   0.001227  -0.000022
     2  N   -0.040429   0.003166   0.033083
     3  C   -0.005226   0.000301  -0.005345
     4  C    0.000860   0.000125   0.000901
     5  C   -0.000797   0.000160   0.003491
     6  C    0.000152  -0.000021  -0.000391
     7  C   -0.000390   0.000077   0.001349
     8  H    0.056175  -0.003877  -0.008380
     9  H    0.000017  -0.000003  -0.000041
    10  H    0.000360  -0.000028  -0.000563
    11  H   -0.000005   0.000000   0.000024
    12  H    0.000011  -0.000001  -0.000036
    13  O    7.782700   0.354332   0.339091
    14  H    0.354332   0.441491  -0.021071
    15  H    0.339091  -0.021071   0.410588
 Mulliken charges:
               1
     1  O   -0.415879
     2  N   -0.521798
     3  C    0.564335
     4  C   -0.118077
     5  C    0.176309
     6  C    0.065180
     7  C   -0.152531
     8  H    0.226015
     9  H    0.040456
    10  H    0.051261
    11  H    0.045946
    12  H    0.027523
    13  O   -0.460186
    14  H    0.224124
    15  H    0.247321
 Sum of Mulliken charges =  -0.00000
 Mulliken charges with hydrogens summed into heavy atoms:
               1
     1  O   -0.189864
     2  N   -0.521798
     3  C    0.564335
     4  C   -0.077620
     5  C    0.227570
     6  C    0.111126
     7  C   -0.125008
    13  O    0.011259
 Electronic spatial extent (au):  <R**2>=           1069.3657
 Charge=             -0.0000 electrons
 Dipole moment (field-independent basis, Debye):
    X=             -1.7749    Y=             -1.2819    Z=              1.3306  Tot=              2.5620
 Quadrupole moment (field-independent basis, Debye-Ang):
   XX=            -42.0445   YY=            -44.7508   ZZ=            -49.1344
   XY=             -2.7297   XZ=              5.2966   YZ=             -1.3353
 Traceless Quadrupole moment (field-independent basis, Debye-Ang):
   XX=              3.2654   YY=              0.5591   ZZ=             -3.8245
   XY=             -2.7297   XZ=              5.2966   YZ=             -1.3353
 Octapole moment (field-independent basis, Debye-Ang**2):
  XXX=             11.8981  YYY=             -7.5056  ZZZ=              1.0550  XYY=             -0.4804
  XXY=             -4.2355  XXZ=             20.0833  XZZ=             12.4915  YZZ=              0.3386
  YYZ=              1.2764  XYZ=             -5.1344
 Hexadecapole moment (field-independent basis, Debye-Ang**3):
 XXXX=           -834.9278 YYYY=           -354.3139 ZZZZ=            -52.9735 XXXY=            -21.3405
 XXXZ=             75.8357 YYYX=            -12.9595 YYYZ=             -1.5387 ZZZX=              4.9467
 ZZZY=             -1.3871 XXYY=           -200.7216 XXZZ=           -166.4721 YYZZ=            -76.2590
 XXYZ=            -18.5578 YYXZ=              5.2405 ZZXY=             -3.8332
 N-N= 3.576226221683D+02 E-N=-1.651184641279D+03  KE= 3.985368120579D+02
 No NMR shielding tensors so no spin-rotation constants.
 Leave Link  601 at Thu Sep  2 22:21:38 2021, MaxMem=  1342177280 cpu:         0.9
 (Enter /gpfs/share/home/1801110325/software/g09e01/l701.exe)
 Compute integral first derivatives.
 ... and contract with generalized density number  0.
 Leave Link  701 at Thu Sep  2 22:21:39 2021, MaxMem=  1342177280 cpu:         1.8
 (Enter /gpfs/share/home/1801110325/software/g09e01/l702.exe)
 L702 exits ... SP integral derivatives will be done elsewhere.
 Leave Link  702 at Thu Sep  2 22:21:39 2021, MaxMem=  1342177280 cpu:         0.1
 (Enter /gpfs/share/home/1801110325/software/g09e01/l703.exe)
 Compute integral first derivatives, UseDBF=F ICtDFT=           0.
 Integral derivatives from FoFJK, PRISM(SPDF).
 Calling FoFJK, ICntrl=      2127 FMM=F ISym2X=0 I1Cent= 0 IOpClX= 0 NMat=1 NMatS=1 NMatT=0.
 FoFJK:  IHMeth= 1 ICntrl=    2127 DoSepK=F KAlg= 0 I1Cent=   0 FoldK=F
 IRaf=         0 NMat=   1 IRICut=       1 DoRegI=T DoRafI=F ISym2E= 0.
 FoFCou: FMM=F IPFlag=           0 FMFlag=      100000 FMFlg1=         800
         NFxFlg=           0 DoJE=F BraDBF=F KetDBF=F FulRan=T
         wScrn=  0.000000 ICntrl=    2127 IOpCl=  0 I1Cent=           0 NGrid=           0
         NMat0=    1 NMatS0=      1 NMatT0=    0 NMatD0=    1 NMtDS0=    0 NMtDT0=    0
 Symmetry not used in FoFCou.
 Leave Link  703 at Thu Sep  2 22:22:08 2021, MaxMem=  1342177280 cpu:       174.5
 (Enter /gpfs/share/home/1801110325/software/g09e01/l716.exe)
 Dipole        =-6.98305162D-01-5.04335582D-01 5.23497936D-01
 ***** Axes restored to original set *****
 -------------------------------------------------------------------
 Center     Atomic                   Forces (Hartrees/Bohr)
 Number     Number              X              Y              Z
 -------------------------------------------------------------------
      1        8          -0.001981020    0.003322319    0.000029257
      2        7           0.003893059   -0.001940565    0.000084122
      3        6          -0.000806045    0.000903959    0.000030296
      4        6           0.000587169    0.000821896   -0.000025985
      5        6          -0.000893101   -0.000138004   -0.000004875
      6        6          -0.000161470   -0.000308897    0.000017262
      7        6          -0.000461819   -0.000073793   -0.000016644
      8        1           0.002671447   -0.003852278    0.000012268
      9        1          -0.000147672    0.000933557    0.000002536
     10        1           0.000539892   -0.000686997   -0.000000334
     11        1          -0.000802408    0.000431978    0.000003300
     12        1          -0.000834059   -0.000594347   -0.000000842
     13        8           0.000873813    0.002901184   -0.002332348
     14        1           0.000390251   -0.000688323    0.001758968
     15        1          -0.002868035   -0.001031687    0.000443019
 -------------------------------------------------------------------
 Cartesian Forces:  Max     0.003893059 RMS     0.001421092
 Leave Link  716 at Thu Sep  2 22:22:08 2021, MaxMem=  1342177280 cpu:         0.1
 (Enter /gpfs/share/home/1801110325/software/g09e01/l103.exe)

 GradGradGradGradGradGradGradGradGradGradGradGradGradGradGradGradGradGrad
 Berny optimization.
 FormGI is forming the generalized inverse of G from B-inverse, IUseBI=4.
 Internal  Forces:  Max     0.003352529 RMS     0.000741640
 Search for a local minimum.
 Step number   1 out of a maximum of   88
 All quantities printed in internal units (Hartrees-Bohrs-Radians)
 RMS Force = .74164D-03 SwitMx=.10000D-02 MixMth= 2
 Mixed Optimization -- En-DIIS/RFO-DIIS
 Second derivative matrix not updated -- first step.
 ITU=  0
     Eigenvalues ---    0.00525   0.00832   0.01684   0.02094   0.02184
     Eigenvalues ---    0.02225   0.02239   0.02286   0.02319   0.02409
     Eigenvalues ---    0.02460   0.05224   0.06028   0.06507   0.08515
     Eigenvalues ---    0.13089   0.16000   0.16000   0.16000   0.16000
     Eigenvalues ---    0.19207   0.20418   0.22000   0.22270   0.23481
     Eigenvalues ---    0.35621   0.35778   0.36026   0.36038   0.41939
     Eigenvalues ---    0.43696   0.46841   0.47322   0.48462   0.48884
     Eigenvalues ---    0.52273   0.55339   0.55352   0.56565
 RFO step:  Lambda=-1.42933608D-04 EMin= 5.24515301D-03
 Linear search not attempted -- first point.
 Iteration  1 RMS(Cart)=  0.00421181 RMS(Int)=  0.00001272
 Iteration  2 RMS(Cart)=  0.00001035 RMS(Int)=  0.00000291
 Iteration  3 RMS(Cart)=  0.00000000 RMS(Int)=  0.00000291
 ITry= 1 IFail=0 DXMaxC= 2.16D-02 DCOld= 1.00D+10 DXMaxT= 3.00D-01 DXLimC= 3.00D+00 Rises=F
 Variable       Old X    -DE/DX   Delta X   Delta X   Delta X     New X
                                 (Linear)    (Quad)   (Total)
    R1        2.53090   0.00053   0.00000   0.00088   0.00088   2.53178
    R2        1.85517   0.00335   0.00000   0.00651   0.00651   1.86168
    R3        2.51733   0.00234   0.00000   0.00410   0.00410   2.52143
    R4        2.53185   0.00155   0.00000   0.00281   0.00281   2.53466
    R5        3.65357  -0.00113   0.00000  -0.02267  -0.02267   3.63090
    R6        2.64886   0.00078   0.00000   0.00174   0.00174   2.65060
    R7        2.60507   0.00138   0.00000   0.00267   0.00267   2.60774
    R8        2.04022   0.00094   0.00000   0.00261   0.00261   2.04283
    R9        2.60933   0.00139   0.00000   0.00282   0.00282   2.61215
   R10        2.04678   0.00077   0.00000   0.00216   0.00216   2.04894
   R11        2.63885   0.00114   0.00000   0.00232   0.00232   2.64117
   R12        2.04430   0.00091   0.00000   0.00254   0.00254   2.04684
   R13        2.04041   0.00102   0.00000   0.00284   0.00284   2.04325
   R14        3.46012  -0.00115   0.00000  -0.01616  -0.01616   3.44397
   R15        3.61122   0.00000   0.00000  -0.00774  -0.00774   3.60348
   R16        1.81521   0.00182   0.00000   0.00328   0.00328   1.81849
   R17        1.85250   0.00200   0.00000   0.00401   0.00401   1.85651
    A1        1.91487  -0.00091   0.00000  -0.00598  -0.00598   1.90889
    A2        2.06532  -0.00073   0.00000  -0.00280  -0.00280   2.06252
    A3        1.87270   0.00058   0.00000   0.00305   0.00305   1.87575
    A4        2.34514   0.00015   0.00000  -0.00025  -0.00025   2.34489
    A5        2.07766  -0.00026   0.00000  -0.00119  -0.00119   2.07648
    A6        2.06520  -0.00023   0.00000  -0.00112  -0.00113   2.06407
    A7        2.14032   0.00048   0.00000   0.00231   0.00231   2.14264
    A8        2.06244  -0.00022   0.00000  -0.00115  -0.00115   2.06129
    A9        2.08413   0.00020   0.00000   0.00112   0.00112   2.08525
   A10        2.13661   0.00002   0.00000   0.00003   0.00003   2.13664
   A11        2.15286   0.00026   0.00000   0.00150   0.00150   2.15435
   A12        2.02165  -0.00056   0.00000  -0.00343  -0.00343   2.01822
   A13        2.10868   0.00030   0.00000   0.00193   0.00193   2.11061
   A14        2.08831   0.00025   0.00000   0.00062   0.00062   2.08893
   A15        2.09381  -0.00020   0.00000  -0.00076  -0.00076   2.09306
   A16        2.10106  -0.00005   0.00000   0.00013   0.00013   2.10119
   A17        2.05711  -0.00004   0.00000  -0.00048  -0.00048   2.05663
   A18        2.10400   0.00007   0.00000   0.00054   0.00054   2.10455
   A19        2.12207  -0.00003   0.00000  -0.00006  -0.00006   2.12201
   A20        2.78431   0.00082   0.00000   0.00354   0.00354   2.78786
   A21        2.25759   0.00018   0.00000   0.00066   0.00066   2.25824
   A22        2.11576  -0.00026   0.00000  -0.00205  -0.00204   2.11372
   A23        1.86403  -0.00064   0.00000  -0.00648  -0.00648   1.85756
   A24        1.30192   0.00041   0.00000   0.00348   0.00348   1.30540
   A25        2.52674  -0.00043   0.00000  -0.00176  -0.00176   2.52498
    D1        0.00739   0.00005   0.00000  -0.00065  -0.00065   0.00673
    D2       -3.13430   0.00003   0.00000  -0.00046  -0.00047  -3.13477
    D3        0.07175   0.00030   0.00000   0.00144   0.00143   0.07318
    D4       -0.00835  -0.00004   0.00000   0.00230   0.00230  -0.00605
    D5       -3.13923  -0.00003   0.00000   0.00013   0.00013  -3.13910
    D6        0.00246  -0.00000   0.00000  -0.00007  -0.00007   0.00240
    D7       -0.00357  -0.00004   0.00000  -0.00097  -0.00097  -0.00454
    D8        3.13812  -0.00002   0.00000  -0.00117  -0.00117   3.13695
    D9       -0.00196   0.00001   0.00000  -0.00014  -0.00014  -0.00210
   D10        3.13867   0.00000   0.00000  -0.00029  -0.00028   3.13838
   D11       -3.13562   0.00002   0.00000   0.00132   0.00132  -3.13431
   D12        0.00500   0.00002   0.00000   0.00117   0.00117   0.00617
   D13       -0.00000   0.00001   0.00000   0.00131   0.00131   0.00131
   D14       -0.09978  -0.00002   0.00000   0.00793   0.00792  -0.09186
   D15        3.13428  -0.00001   0.00000  -0.00006  -0.00005   3.13423
   D16        3.03451  -0.00004   0.00000   0.00656   0.00655   3.04106
   D17        3.14017   0.00002   0.00000   0.00011   0.00012   3.14029
   D18        0.00037   0.00002   0.00000  -0.00007  -0.00007   0.00030
   D19       -0.00152   0.00000   0.00000   0.00031   0.00031  -0.00121
   D20       -3.14132  -0.00000   0.00000   0.00012   0.00012  -3.14120
   D21       -0.00000  -0.00000   0.00000  -0.00035  -0.00035  -0.00036
   D22       -3.14062  -0.00000   0.00000  -0.00010  -0.00010  -3.14072
   D23        3.13975   0.00001   0.00000  -0.00016  -0.00016   3.13959
   D24       -0.00088   0.00001   0.00000   0.00010   0.00010  -0.00078
   D25        0.00051  -0.00000   0.00000   0.00009   0.00009   0.00060
   D26        3.14103  -0.00000   0.00000   0.00002   0.00002   3.14106
   D27       -3.14007   0.00000   0.00000   0.00025   0.00025  -3.13982
   D28        0.00046   0.00000   0.00000   0.00018   0.00018   0.00063
   D29        0.00048   0.00000   0.00000   0.00017   0.00017   0.00064
   D30       -3.14004   0.00000   0.00000   0.00024   0.00024  -3.13980
   D31        3.14109   0.00000   0.00000  -0.00009  -0.00009   3.14100
   D32        0.00058   0.00000   0.00000  -0.00002  -0.00002   0.00056
   D33       -1.92611   0.00026   0.00000   0.00786   0.00787  -1.91825
   D34        0.00552   0.00002   0.00000  -0.00237  -0.00239   0.00313
   D35        1.52863  -0.00023   0.00000  -0.00107  -0.00107   1.52757
   D36        2.18999  -0.00012   0.00000  -0.00766  -0.00766   2.18232
         Item               Value     Threshold  Converged?
 Maximum Force            0.003353     0.000450     NO 
 RMS     Force            0.000742     0.000300     NO 
 Maximum Displacement     0.021561     0.001800     NO 
 RMS     Displacement     0.004216     0.001200     NO 
 Predicted change in Energy=-7.156709D-05
 Lowest energy point so far.  Saving SCF results.
 GradGradGradGradGradGradGradGradGradGradGradGradGradGradGradGradGradGrad

 Leave Link  103 at Thu Sep  2 22:22:08 2021, MaxMem=  1342177280 cpu:         0.1
 (Enter /gpfs/share/home/1801110325/software/g09e01/l202.exe)
                          Input orientation:                          
 ---------------------------------------------------------------------
 Center     Atomic      Atomic             Coordinates (Angstroms)
 Number     Number       Type             X           Y           Z
 ---------------------------------------------------------------------
      1          8           0        1.217553    1.451182   -0.003665
      2          7           0        0.311017   -0.666670   -0.006053
      3          6           0        0.138961    0.656461   -0.000554
      4          6           0       -1.128546    1.257080    0.008282
      5          6           0       -0.779813   -1.447137   -0.005774
      6          6           0       -2.237232    0.435435    0.009878
      7          6           0       -2.070436   -0.952203    0.002325
      8          1           0        2.031852    0.896840   -0.016254
      9          1           0       -1.206234    2.335298    0.012060
     10          1           0       -0.592534   -2.515067   -0.013492
     11          1           0       -3.230261    0.867927    0.015809
     12          1           0       -2.917370   -1.624355    0.001680
     13          8           0        3.090216   -0.585207   -0.085534
     14          1           0        3.582556   -0.881068    0.686535
     15          1           0        2.202757   -1.002343   -0.025801
 ---------------------------------------------------------------------
                    Distance matrix (angstroms):
                    1          2          3          4          5
     1  O    0.000000
     2  N    2.303717   0.000000
     3  C    1.339758   1.334282   0.000000
     4  C    2.354145   2.402782   1.402638   0.000000
     5  C    3.519905   1.341283   2.295495   2.726646   0.000000
     6  C    3.601036   2.776412   2.386473   1.379959   2.380839
     7  C    4.072734   2.398524   2.732991   2.401691   1.382292
     8  H    0.985158   2.325068   1.908158   3.180958   3.660574
     9  H    2.580049   3.363657   2.151326   1.081020   3.806438
    10  H    4.359776   2.057434   3.254818   3.810102   1.084254
    11  H    4.485935   3.859549   3.375891   2.137453   3.371155
    12  H    5.153305   3.367448   3.813566   3.391549   2.144904
    13  O    2.767752   2.781529   3.202947   4.604430   3.965654
    14  H    3.392493   3.350912   3.833332   5.217872   4.453088
    15  H    2.644031   1.921391   2.647928   4.025386   3.015620
                    6          7          8          9         10
     6  C    0.000000
     7  C    1.397647   0.000000
     8  H    4.294025   4.499786   0.000000
     9  H    2.161582   3.399206   3.543327   0.000000
    10  H    3.378023   2.151043   4.304477   4.889102   0.000000
    11  H    1.083140   2.158298   5.262291   2.499975   4.289885
    12  H    2.169192   1.081243   5.554417   4.313577   2.489671
    13  O    5.425174   5.174431   1.822470   5.195995   4.158389
    14  H    6.005079   5.694693   2.461616   5.807964   4.537772
    15  H    4.667116   4.273579   1.906881   4.771006   3.178386
                   11         12         13         14         15
    11  H    0.000000
    12  H    2.511886   0.000000
    13  O    6.486163   6.097420   0.000000
    14  H    7.065645   6.578035   0.962302   0.000000
    15  H    5.746070   5.157844   0.982423   1.557555   0.000000
 Stoichiometry    C5H7NO2
 Framework group  C1[X(C5H7NO2)]
 Deg. of freedom    39
 Full point group                 C1      NOp   1
 RotChk:  IX=0 Diff= 9.08D-04
 Largest Abelian subgroup         C1      NOp   1
 Largest concise Abelian subgroup C1      NOp   1
                         Standard orientation:                         
 ---------------------------------------------------------------------
 Center     Atomic      Atomic             Coordinates (Angstroms)
 Number     Number       Type             X           Y           Z
 ---------------------------------------------------------------------
      1          8           0        1.217592    1.449882   -0.002968
      2          7           0        0.309841   -0.667450   -0.005911
      3          6           0        0.138543    0.655779   -0.000241
      4          6           0       -1.128621    1.257124    0.008389
      5          6           0       -0.781437   -1.447291   -0.006017
      6          6           0       -2.237778    0.436115    0.009589
      7          6           0       -2.071777   -0.951617    0.001853
      8          1           0        2.031576    0.895074   -0.015452
      9          1           0       -1.205691    2.335385    0.012321
     10          1           0       -0.594769   -2.515327   -0.013862
     11          1           0       -3.230561    0.869176    0.015352
     12          1           0       -2.919097   -1.623283    0.000898
     13          8           0        3.089106   -0.587569   -0.084717
     14          1           0        3.581092   -0.883837    0.687423
     15          1           0        2.201393   -1.004205   -0.025262
 ---------------------------------------------------------------------
 Rotational constants (GHZ):      4.0044988      1.4209831      1.0513216
 Leave Link  202 at Thu Sep  2 22:22:08 2021, MaxMem=  1342177280 cpu:         0.0
 (Enter /gpfs/share/home/1801110325/software/g09e01/l301.exe)
 Basis read from rwf:  (5D, 7F)
 No pseudopotential information found on rwf file.
 There are   385 symmetry adapted cartesian basis functions of A   symmetry.
 There are   338 symmetry adapted basis functions of A   symmetry.
   338 basis functions,   566 primitive gaussians,   385 cartesian basis functions
    30 alpha electrons       30 beta electrons
       nuclear repulsion energy       357.5162676091 Hartrees.
 IExCor= 2523 DFT=T Ex+Corr=TPSSh ExCW=0 ScaHFX=  0.100000
 ScaDFX=  0.900000  0.900000  1.000000  1.000000 ScalE2=  1.000000  1.000000
 IRadAn=      0 IRanWt=     -1 IRanGd=            0 ICorTp=0 IEmpDi=  4
 NAtoms=   15 NActive=   15 NUniq=   15 SFac= 1.00D+00 NAtFMM=   60 NAOKFM=F Big=F
 Integral buffers will be    131072 words long.
 Raffenetti 2 integral format.
 Two-electron integral symmetry is turned on.
 No density basis found on file   724.
 Leave Link  301 at Thu Sep  2 22:22:08 2021, MaxMem=  1342177280 cpu:         0.2
 (Enter /gpfs/share/home/1801110325/software/g09e01/l302.exe)
 NPDir=0 NMtPBC=     1 NCelOv=     1 NCel=       1 NClECP=     1 NCelD=      1
         NCelK=      1 NCelE2=     1 NClLst=     1 CellRange=     0.0.
 One-electron integrals computed using PRISM.
 NBasis=   338 RedAO= T EigKep=  1.47D-04  NBF=   338
 NBsUse=   338 1.00D-06 EigRej= -1.00D+00 NBFU=   338
 Precomputing XC quadrature grid using
 IXCGrd= 4 IRadAn=           0 IRanWt=          -1 IRanGd=           0 AccXCQ= 0.00D+00.
 Generated NRdTot=       0 NPtTot=           0 NUsed=           0 NTot=          32
 NSgBfM=   384   384   384   384   385 MxSgAt=    15 MxSgA2=    15.
 Leave Link  302 at Thu Sep  2 22:22:08 2021, MaxMem=  1342177280 cpu:         1.5
 (Enter /gpfs/share/home/1801110325/software/g09e01/l303.exe)
 DipDrv:  MaxL=1.
 Leave Link  303 at Thu Sep  2 22:22:08 2021, MaxMem=  1342177280 cpu:         0.2
 (Enter /gpfs/share/home/1801110325/software/g09e01/l401.exe)
 Initial guess from the checkpoint file:  "HY_H2O_TPSSh_PC2_OPT_FREQ.chk"
 B after Tr=    -0.000000    0.000000   -0.000000
         Rot=    1.000000   -0.000035    0.000022    0.000160 Ang=  -0.02 deg.
 Guess basis will be translated and rotated to current coordinates.
 JPrj=2 DoOrth=T DoCkMO=T.
 Generating alternative initial guess.
 ExpMin= 7.41D-02 ExpMax= 1.48D+04 ExpMxC= 5.05D+02 IAcc=2 IRadAn=         4 AccDes= 0.00D+00
 Harris functional with IExCor= 1009 and IRadAn=       4 diagonalized for initial guess.
 HarFok:  IExCor= 1009 AccDes= 0.00D+00 IRadAn=         4 IDoV= 1 UseB2=F ITyADJ=14
 ICtDFT=  3500011 ScaDFX=  1.000000  1.000000  1.000000  1.000000
 FoFCou: FMM=F IPFlag=           0 FMFlag=      100000 FMFlg1=           0
         NFxFlg=           0 DoJE=T BraDBF=F KetDBF=T FulRan=T
         wScrn=  0.000000 ICntrl=     500 IOpCl=  0 I1Cent=   200000004 NGrid=           0
         NMat0=    1 NMatS0=      1 NMatT0=    0 NMatD0=    1 NMtDS0=    0 NMtDT0=    0
 Petite list used in FoFCou.
 Harris En= -399.799945567650    
 Leave Link  401 at Thu Sep  2 22:22:09 2021, MaxMem=  1342177280 cpu:         6.4
 (Enter /gpfs/share/home/1801110325/software/g09e01/l502.exe)
 Closed shell SCF:
 Using DIIS extrapolation, IDIIS=  1040.
 Integral symmetry usage will be decided dynamically.
 IVT=      468335 IEndB=      468335 NGot=  1342177280 MDV=  1341874196
 LenX=  1341874196 LenY=  1341725530
 Requested convergence on RMS density matrix=1.00D-08 within 128 cycles.
 Requested convergence on MAX density matrix=1.00D-06.
 Requested convergence on             energy=1.00D-06.
 No special actions if energy rises.

 Cycle   1  Pass 1  IDiag  1:
 FoFJK:  IHMeth= 1 ICntrl=       0 DoSepK=F KAlg= 0 I1Cent=   0 FoldK=F
 IRaf= 940000000 NMat=   1 IRICut=       1 DoRegI=T DoRafI=F ISym2E= 0.
 FoFCou: FMM=F IPFlag=           0 FMFlag=      100000 FMFlg1=           0
         NFxFlg=           0 DoJE=F BraDBF=F KetDBF=F FulRan=T
         wScrn=  0.000000 ICntrl=       0 IOpCl=  0 I1Cent=           0 NGrid=           0
         NMat0=    1 NMatS0=      1 NMatT0=    0 NMatD0=    1 NMtDS0=    0 NMtDT0=    0
 Symmetry not used in FoFCou.
 E= -400.139285059256    
 DIIS: error= 2.25D-04 at cycle   1 NSaved=   1.
 NSaved= 1 IEnMin= 1 EnMin= -400.139285059256     IErMin= 1 ErrMin= 2.25D-04
 ErrMax= 2.25D-04  0.00D+00 EMaxC= 1.00D-01 BMatC= 3.26D-05 BMatP= 3.26D-05
 IDIUse=3 WtCom= 9.98D-01 WtEn= 2.25D-03
 Coeff-Com:  0.100D+01
 Coeff-En:   0.100D+01
 Coeff:      0.100D+01
 Gap=     0.589 Goal=   None    Shift=    0.000
 RMSDP=2.11D-05 MaxDP=8.54D-04              OVMax= 1.86D-03

 Cycle   2  Pass 1  IDiag  1:
 E= -400.139315829538     Delta-E=       -0.000030770282 Rises=F Damp=F
 DIIS: error= 9.19D-05 at cycle   2 NSaved=   2.
 NSaved= 2 IEnMin= 2 EnMin= -400.139315829538     IErMin= 2 ErrMin= 9.19D-05
 ErrMax= 9.19D-05  0.00D+00 EMaxC= 1.00D-01 BMatC= 3.01D-06 BMatP= 3.26D-05
 IDIUse=1 WtCom= 1.00D+00 WtEn= 0.00D+00
 Coeff-Com:  0.114D+00 0.886D+00
 Coeff:      0.114D+00 0.886D+00
 Gap=     0.182 Goal=   None    Shift=    0.000
 RMSDP=7.17D-06 MaxDP=4.31D-04 DE=-3.08D-05 OVMax= 8.74D-04

 Cycle   3  Pass 1  IDiag  1:
 E= -400.139314262993     Delta-E=        0.000001566545 Rises=F Damp=F
 DIIS: error= 1.15D-04 at cycle   3 NSaved=   3.
 NSaved= 3 IEnMin= 2 EnMin= -400.139315829538     IErMin= 2 ErrMin= 9.19D-05
 ErrMax= 1.15D-04  0.00D+00 EMaxC= 1.00D-01 BMatC= 5.11D-06 BMatP= 3.01D-06
 IDIUse=3 WtCom= 4.82D-01 WtEn= 5.18D-01
 Coeff-Com:  0.409D-02 0.568D+00 0.428D+00
 Coeff-En:   0.000D+00 0.612D+00 0.388D+00
 Coeff:      0.197D-02 0.591D+00 0.407D+00
 Gap=     0.181 Goal=   None    Shift=    0.000
 RMSDP=4.32D-06 MaxDP=2.65D-04 DE= 1.57D-06 OVMax= 6.78D-04

 Cycle   4  Pass 1  IDiag  1:
 E= -400.139317927633     Delta-E=       -0.000003664640 Rises=F Damp=F
 DIIS: error= 1.94D-05 at cycle   4 NSaved=   4.
 NSaved= 4 IEnMin= 4 EnMin= -400.139317927633     IErMin= 4 ErrMin= 1.94D-05
 ErrMax= 1.94D-05  0.00D+00 EMaxC= 1.00D-01 BMatC= 1.80D-07 BMatP= 3.01D-06
 IDIUse=1 WtCom= 1.00D+00 WtEn= 0.00D+00
 Coeff-Com: -0.653D-02 0.266D+00 0.218D+00 0.522D+00
 Coeff:     -0.653D-02 0.266D+00 0.218D+00 0.522D+00
 Gap=     0.181 Goal=   None    Shift=    0.000
 RMSDP=1.30D-06 MaxDP=7.39D-05 DE=-3.66D-06 OVMax= 2.17D-04

 Cycle   5  Pass 1  IDiag  1:
 E= -400.139318060349     Delta-E=       -0.000000132716 Rises=F Damp=F
 DIIS: error= 9.54D-06 at cycle   5 NSaved=   5.
 NSaved= 5 IEnMin= 5 EnMin= -400.139318060349     IErMin= 5 ErrMin= 9.54D-06
 ErrMax= 9.54D-06  0.00D+00 EMaxC= 1.00D-01 BMatC= 3.64D-08 BMatP= 1.80D-07
 IDIUse=1 WtCom= 1.00D+00 WtEn= 0.00D+00
 Coeff-Com: -0.382D-02 0.960D-01 0.820D-01 0.340D+00 0.486D+00
[...]
   A10        2.13673  -0.00001   0.00000  -0.00008  -0.00008   2.13664
   A11        2.15429  -0.00000   0.00000  -0.00003  -0.00003   2.15426
   A12        2.01742   0.00000   0.00000   0.00002   0.00002   2.01744
   A13        2.11148   0.00000   0.00000   0.00001   0.00001   2.11149
   A14        2.08960   0.00001   0.00000   0.00006   0.00006   2.08966
   A15        2.09271  -0.00001   0.00000  -0.00006  -0.00006   2.09265
   A16        2.10088  -0.00000   0.00000   0.00000   0.00000   2.10088
   A17        2.05668  -0.00001   0.00000  -0.00004  -0.00004   2.05664
   A18        2.10443   0.00001   0.00000   0.00006   0.00006   2.10449
   A19        2.12208  -0.00000   0.00000  -0.00002  -0.00002   2.12206
   A20        2.79959  -0.00000   0.00000   0.00013   0.00012   2.79971
   A21        2.25168  -0.00000   0.00000   0.00015   0.00015   2.25183
   A22        2.06456  -0.00002   0.00000  -0.00253  -0.00253   2.06202
   A23        1.85465  -0.00001   0.00000  -0.00006  -0.00006   1.85460
   A24        1.33628  -0.00001   0.00000  -0.00043  -0.00043   1.33585
   A25        2.54145  -0.00002   0.00000  -0.00089  -0.00089   2.54056
    D1        0.00665   0.00000   0.00000   0.00067   0.00067   0.00732
    D2       -3.13457   0.00000   0.00000   0.00057   0.00057  -3.13400
    D3        0.07606  -0.00001   0.00000  -0.00544  -0.00544   0.07063
    D4       -0.00031  -0.00001   0.00000  -0.00260  -0.00260  -0.00291
    D5       -3.13871  -0.00000   0.00000  -0.00006  -0.00006  -3.13877
    D6        0.00250  -0.00000   0.00000   0.00004   0.00004   0.00254
    D7       -0.00904   0.00000   0.00000   0.00115   0.00115  -0.00789
    D8        3.13216   0.00000   0.00000   0.00125   0.00125   3.13342
    D9       -0.00207  -0.00000   0.00000  -0.00006  -0.00006  -0.00213
   D10        3.13857   0.00000   0.00000  -0.00006  -0.00006   3.13850
   D11       -3.12750  -0.00000   0.00000  -0.00171  -0.00171  -3.12921
   D12        0.01314  -0.00000   0.00000  -0.00171  -0.00171   0.01142
   D13        0.00609  -0.00000   0.00000  -0.00156  -0.00156   0.00452
   D14       -0.06866  -0.00001   0.00000  -0.00303  -0.00303  -0.07169
   D15        3.13280   0.00000   0.00000  -0.00004  -0.00004   3.13276
   D16        3.05806  -0.00001   0.00000  -0.00151  -0.00151   3.05654
   D17        3.13981   0.00000   0.00000   0.00009   0.00009   3.13990
   D18        0.00003   0.00000   0.00000   0.00009   0.00009   0.00012
   D19       -0.00140  -0.00000   0.00000  -0.00001  -0.00001  -0.00141
   D20       -3.14117  -0.00000   0.00000  -0.00001  -0.00001  -3.14119
   D21       -0.00021   0.00000   0.00000  -0.00000  -0.00000  -0.00021
   D22       -3.14057  -0.00000   0.00000  -0.00004  -0.00004  -3.14061
   D23        3.13951   0.00000   0.00000  -0.00000  -0.00000   3.13951
   D24       -0.00085  -0.00000   0.00000  -0.00004  -0.00004  -0.00089
   D25        0.00054   0.00000   0.00000   0.00004   0.00004   0.00058
   D26        3.14106   0.00000   0.00000   0.00002   0.00002   3.14108
   D27       -3.14005   0.00000   0.00000   0.00005   0.00005  -3.14000
   D28        0.00047   0.00000   0.00000   0.00003   0.00003   0.00050
   D29        0.00061  -0.00000   0.00000  -0.00001  -0.00001   0.00060
   D30       -3.13990  -0.00000   0.00000   0.00001   0.00001  -3.13989
   D31        3.14097   0.00000   0.00000   0.00002   0.00002   3.14099
   D32        0.00046   0.00000   0.00000   0.00004   0.00004   0.00051
   D33       -1.90913  -0.00000   0.00000   0.00385   0.00385  -1.90528
   D34       -0.00388   0.00001   0.00000   0.00278   0.00278  -0.00110
   D35        1.50973   0.00000   0.00000  -0.00007  -0.00007   1.50966
   D36        2.11267  -0.00001   0.00000  -0.00098  -0.00098   2.11168
         Item               Value     Threshold  Converged?
 Maximum Force            0.000023     0.000450     YES
 RMS     Force            0.000007     0.000300     YES
 Maximum Displacement     0.004314     0.001800     NO 
 RMS     Displacement     0.000832     0.001200     YES
 Predicted change in Energy=-1.222837D-07
 GradGradGradGradGradGradGradGradGradGradGradGradGradGradGradGradGradGrad

 Leave Link  103 at Thu Sep  2 22:52:23 2021, MaxMem=  1342177280 cpu:         0.1
 (Enter /gpfs/share/home/1801110325/software/g09e01/l9999.exe)
 1\1\GINC-A8U03N01\Freq\RTPSSh\Gen\C5H7N1O2\1801110325\02-Sep-2021\0\\#
 P Geom=AllCheck Guess=TCheck SCRF=Check GenChk RTPSSh/ChkBas Freq\\HY_
 H2O_TPSSh_PC2_OPT_FREQ\\0,1\O,1.2329033136,1.4380374397,-0.005433633\N
 ,0.318162333,-0.6744104061,-0.0089477368\C,0.1497894145,0.6512052499,-
 0.0011329606\C,-1.1165668967,1.2535832475,0.010953624\C,-0.7751185055,
 -1.4521061254,-0.0079380149\C,-2.2269273201,0.4342951324,0.0131363088\
 C,-2.0639938488,-0.9536878867,0.0031431074\H,2.0430008037,0.8684460549
 ,-0.0206009333\H,-1.1918839042,2.3318534001,0.0164735562\H,-0.58993670
 5,-2.5203239195,-0.0174264089\H,-3.218891257,0.8692052584,0.0214155892
 \H,-2.9126587081,-1.6234911528,0.002969663\O,3.0639888446,-0.571519077
 ,-0.0921959698\H,3.5313743245,-0.8396559737,0.7057520719\H,2.169245111
 5,-0.9852592418,-0.0407262632\\Version=EM64L-G09RevE.01\State=1-A\HF=-
 400.1394548\RMSD=4.472e-09\RMSF=1.434e-05\ZeroPoint=0.1181259\Thermal=
 0.1259095\Dipole=-0.7249404,-0.5016748,0.5343939\DipoleDeriv=-1.537600
 6,-0.4669935,-0.00315,-0.3913651,-0.6540317,0.0031558,-0.003197,0.0042
 181,-0.3280737,-0.8874132,0.1064579,-0.0008316,-0.3647277,-0.565943,-0
 .0000786,-0.0090444,0.0023112,-0.231891,1.4962735,0.7125984,-0.0028066
 ,0.5840563,0.6123524,-0.0023802,-0.007721,-0.0035626,0.1822762,-0.5194
 632,-0.3698647,-0.00103,0.1044492,0.028169,-0.0000745,0.0057776,0.0009
 167,-0.1439413,0.4859725,-0.2336506,-0.0034349,0.2100636,0.3363848,0.0
 067589,-0.0026219,0.0061646,-0.0207265,0.2538535,0.084315,-0.0013753,0
 .0419975,0.4013845,0.0027589,-0.001462,0.0023986,-0.0884298,-0.1950399
 ,0.2905609,0.0012205,0.0588198,-0.3420957,-0.001871,0.0033301,-0.00218
 44,-0.1541622,0.7768362,-0.1663858,0.0018866,-0.3670931,0.3880948,-0.0
 093389,-0.0007749,-0.0104452,0.2592984,0.0671767,0.0057451,0.0002178,0
 .0110177,-0.0507983,-0.0010487,0.0008945,-0.000673,0.1463285,0.0564189
 ,0.030142,0.0000645,-0.0135192,-0.1071774,-0.0015518,-0.0008666,-0.001
 2676,0.1085495,-0.0610796,0.0626341,0.0012676,0.065131,0.0538347,-0.00
 08101,0.0007316,-0.0007774,0.1219427,-0.0321198,-0.0773302,0.000062,-0
 .0752103,0.001426,-0.0004559,0.0002491,-0.0007484,0.1492816,-1.1895238
 ,0.1659868,-0.0034111,0.1759104,-0.583225,-0.108864,0.0429245,-0.09231
 81,-0.3683027,0.3133161,-0.0150972,-0.0081423,0.008029,0.2699849,0.067
 7657,-0.0367913,0.0550684,0.1729355,0.9723927,-0.1291183,0.0194629,-0.
 0475591,0.2116399,0.0460343,0.0085717,0.0408991,0.1949148\Polar=99.837
 3001,2.3772626,84.8984422,0.9122182,-0.1057889,44.2802485\PG=C01 [X(C5
 H7N1O2)]\NImag=0\\0.58716516,-0.04029333,0.40787009,-0.00715645,0.0035
 6318,0.04058950,0.01318525,-0.05161780,-0.00011554,0.47906654,-0.02340
 263,-0.06027226,-0.00032267,0.11335614,0.60802391,0.00004657,0.0000457
 9,0.00686082,-0.00121128,0.00250449,0.08981348,-0.25547054,-0.07555698
 ,0.00194122,-0.15330787,0.02434759,0.00035940,0.73591381,-0.11285588,-
 0.17365177,0.00060971,0.05095736,-0.29885495,-0.00160581,0.00811668,0.
 67120180,0.00090111,-0.00039370,-0.05139645,0.00077206,-0.00125525,-0.
 06920232,-0.00398079,0.00259808,0.18370958,-0.06470942,0.00653489,0.00
 044183,0.02842005,0.07430835,0.00046026,-0.24515210,0.04255165,0.00142
 278,0.66716895,-0.03072803,0.01748115,0.00030133,0.03199484,-0.0289949
 8,-0.00046763,0.10744384,-0.16210333,-0.00126624,0.03109631,0.75947363
 ,0.00054055,0.00018087,0.00931598,-0.00006417,-0.00065414,0.01784885,0
 .00177116,-0.00102928,-0.07431493,-0.00341322,0.00309000,0.12050061,-0
 .00866261,0.00926930,0.00008381,-0.26433059,-0.09028683,0.00079261,0.0
 4739401,-0.07989811,-0.00078710,-0.06551666,-0.00149379,0.00035677,0.6
 6902623,0.00117372,0.00030035,-0.00008182,-0.11221017,-0.19076924,-0.0
 0020073,-0.02813348,-0.07016665,-0.00014474,-0.01015131,0.00097850,0.0
 0006940,-0.03303306,0.74758409,0.00012360,-0.00007890,0.01005748,0.000
 40140,-0.00047616,-0.06048569,-0.00052219,0.00008425,-0.00382888,0.000
 29256,0.00007761,-0.00488053,-0.00321675,0.00453260,0.15303479,0.00289
 898,0.00392252,0.00008140,-0.00746780,-0.02293524,-0.00018138,-0.05709
 874,0.00533423,0.00043273,-0.28505863,-0.14256669,0.00058770,0.0187900
 5,0.03805200,0.00021655,0.74006492,0.01666463,-0.00565976,-0.00009282,
 -0.03173089,-0.05892167,-0.00015991,-0.04263709,0.07040012,0.00066225,
 -0.08504685,-0.21461879,-0.00027142,0.08531461,-0.01403885,-0.00065060
 ,-0.01623934,0.66904498,0.00008975,-0.00006287,0.00442948,-0.00014257,
 -0.00017821,-0.00737017,0.00010971,0.00039294,0.00143804,0.00086339,-0
 .00001419,-0.05633602,0.00044300,-0.00034091,0.00747688,-0.00366621,0.
 00330706,0.14157681,0.00330268,-0.00609778,-0.00003637,-0.06901303,-0.
 05200349,0.00016732,-0.02798244,0.04698911,0.00034922,0.04300721,-0.02
 634825,-0.00033463,-0.30797069,0.10963667,0.00217776,-0.12948277,-0.00
 778645,0.00033392,0.72167154,-0.01155511,0.00014612,0.00001931,0.00291
 276,0.05651190,0.00028497,0.03487423,-0.04119381,-0.00043751,-0.061184
 05,-0.03580805,0.00012425,0.04570315,-0.16321480,-0.00101524,0.0532722
 4,-0.31834797,-0.00199901,0.04727196,0.68174319,-0.00007353,0.00005539
 ,-0.00135153,0.00040857,0.00052462,0.02074220,0.00032991,-0.00050262,-
 0.00855735,-0.00055861,-0.00014246,0.00671731,0.00174273,-0.00133935,-
 0.06545623,0.00069246,-0.00172186,-0.06122693,-0.00307985,0.00366079,0
 .11940777,-0.25845349,0.14473490,0.00448853,0.00151672,0.00971464,-0.0
 0014310,-0.05365167,0.00463602,0.00061384,0.00325010,-0.00272942,-0.00
 003155,0.00022586,0.00038806,-0.00002285,-0.00166644,-0.00086670,0.000
 03207,0.00046931,0.00180468,0.00002826,0.30079553,0.18026943,-0.178756
 19,-0.00414342,0.00323482,-0.00227770,0.00005319,-0.01762319,0.0272058
 6,0.00052338,-0.00859017,-0.00452846,0.00004140,-0.00180677,-0.0018024
 8,-0.00002000,0.00028512,0.00366254,-0.00001266,0.00122134,-0.00216633
 ,-0.00001592,-0.14466718,0.16441963,0.00607177,-0.00418919,-0.01915806
 ,-0.00017320,0.00004773,-0.00281870,-0.00014683,-0.00011668,-0.0009515
 9,0.00006570,-0.00002643,0.00381444,0.00002470,-0.00000533,-0.00070341
 ,-0.00003020,-0.00003702,0.00160797,-0.00001835,0.00002000,0.00039322,
 -0.00517146,0.00533024,0.02615468,0.00212055,-0.00096175,-0.00003288,-
 0.00626652,0.00503680,0.00009208,0.00467532,0.02902396,0.00011701,-0.0
 6037698,0.02160502,0.00029005,-0.00209169,-0.00133994,0.00000252,0.007
 35349,-0.02697571,-0.00016211,-0.00403183,-0.00272789,0.00006389,-0.00
 020911,0.00017020,-0.00001210,0.05658507,-0.00043588,0.00117115,0.0000
 2103,0.00291198,-0.00008699,-0.00005017,-0.00374387,-0.01066244,-0.000
 02334,0.02352419,-0.34030015,-0.00159478,0.00050157,0.00104390,0.00001
 111,0.00357680,-0.01248163,-0.00009130,-0.00355397,0.00097469,-0.00000
 901,0.00025337,-0.00007194,0.00000418,-0.02296938,0.36005369,-0.000031
 77,0.00000368,-0.00188327,0.00011041,-0.00009413,0.00575278,-0.0000685
 8,-0.00024001,0.00200960,0.00032016,-0.00149350,-0.03375244,0.00003500
 ,0.00002575,-0.00041281,-0.00002771,0.00005224,0.00184756,0.00004203,-
 0.00002734,0.00876530,-0.00000697,0.00000772,-0.00066270,-0.00031389,0
 .00171929,0.02407471,-0.00034283,-0.00140780,0.00000076,0.00251612,-0.
 03412273,-0.00028572,-0.00296752,-0.00364501,0.00005700,-0.00058697,-0
 .00075536,-0.00000436,-0.06912019,0.05820936,0.00057223,-0.00599913,0.
 00143869,0.00008870,0.00118184,0.02902662,0.00024949,0.00046587,-0.000
 19031,-0.00000354,0.00019015,-0.00001522,-0.00001192,0.07395234,-0.000
 34953,-0.00120896,-0.00000254,-0.00638398,-0.02117662,-0.00010445,-0.0
 0247958,0.00169852,-0.00008680,0.00001243,0.00048427,0.00001156,0.0561
 5559,-0.31740042,-0.00243924,0.00255596,0.00073037,-0.00007713,-0.0008
 6753,-0.00676641,-0.00009962,0.00041073,-0.00004809,-0.00000550,0.0000
 9913,-0.00010592,0.00001356,-0.04943237,0.34389482,-0.00000489,0.00000
 014,0.00034741,-0.00001088,0.00015063,-0.00340934,0.00008684,-0.000031
 65,0.00999587,-0.00001275,0.00001725,-0.00065485,0.00052072,-0.0026219
 4,-0.04105493,0.00008532,-0.00003253,0.00759435,0.00005120,-0.00024537
 ,0.00668549,-0.00000805,-0.00000329,-0.00018492,-0.00001358,0.00000630
 ,-0.00165997,-0.00060982,0.00275055,0.02642543,-0.00179206,0.00085804,
 0.00001996,0.00023363,-0.00061501,-0.00002288,-0.00128750,-0.00415584,
 0.00003812,-0.01868450,0.01270139,0.00020538,0.00178242,0.00058786,0.0
 0003136,-0.29086634,0.10103769,0.00202169,0.00092666,-0.00082615,0.000
 01394,0.00002937,-0.00046348,-0.00000788,0.00119771,-0.00018540,-0.000
 03674,-0.00007869,-0.00013862,-0.00000329,0.30797989,-0.00102811,0.000
 73209,0.00001760,-0.00080339,-0.00026023,0.00002025,-0.00359480,-0.002
 07303,-0.00004577,-0.01839423,0.01196074,0.00013854,-0.00028379,-0.006
 87880,-0.00009226,0.10169636,-0.10465829,-0.00094816,0.03027873,-0.006
 20200,-0.00023538,-0.00019695,-0.00026149,0.00000207,0.00069172,0.0009
 0522,0.00002662,0.00168553,-0.00047510,-0.00000702,-0.10933717,0.10586
 798,-0.00001242,-0.00001331,-0.00040126,-0.00001087,0.00002095,-0.0030
 9114,0.00005788,-0.00002917,0.01015629,0.00004749,-0.00001041,0.005142
 17,0.00002963,-0.00010576,0.00739365,0.00198559,-0.00093198,-0.0416628
 9,0.00022082,-0.00007742,0.00478664,-0.00000395,-0.00000011,-0.0004809
 3,-0.00003417,0.00002337,-0.00470719,0.00000752,0.00000008,-0.00045491
 ,-0.00225021,0.00108795,0.02684071,0.00030126,-0.00041854,-0.00000862,
 -0.00558136,0.00263368,0.00009782,-0.00033285,0.00216271,0.00001196,0.
 00109735,0.00163243,0.00003384,-0.01615578,-0.02241557,-0.00008486,0.0
 0788553,0.00516181,-0.00000016,-0.23312660,-0.13688947,0.00013080,0.00
 006705,0.00024552,-0.00000379,0.00030946,0.00038252,0.00000200,0.00078
 264,0.00040986,-0.00001776,0.00064848,-0.00064650,-0.00002492,0.243981
 15,-0.00034925,0.00042964,0.00001233,0.00351962,0.00053821,-0.00008103
 ,0.00141794,-0.00136228,-0.00001624,0.00248912,-0.00514350,-0.00009444
 ,0.01066953,0.01135536,0.00002995,-0.02655919,-0.01355550,0.00004030,-
 0.13751666,-0.16616776,-0.00020910,0.00003996,-0.00014652,0.00000128,-
 0.00139720,-0.00058413,0.00000249,-0.00069502,0.00051788,0.00003301,0.
 00040139,0.00127522,0.00003157,0.14801502,0.17270245,-0.00001824,0.000
 00216,-0.00131059,0.00010849,-0.00007142,0.00837438,0.00001469,-0.0000
 1447,0.00024402,0.00005076,-0.00007801,0.00640215,0.00016032,0.0002201
 5,-0.00095366,-0.00020866,-0.00010827,0.00073395,0.00009097,-0.0002612
 1,-0.03142380,0.00000398,-0.00000277,-0.00002689,-0.00001020,-0.000008
 39,0.00061192,-0.00002959,0.00003432,-0.00344625,-0.00001893,0.0000361
 3,-0.00348083,-0.00014065,0.00024749,0.02419616,-0.00897386,0.01232482
 ,0.00007991,-0.02135720,-0.00332915,-0.00078725,-0.00038937,-0.0017947
 5,0.00014975,-0.00049697,0.00073864,0.00013457,-0.00048232,0.00654755,
 0.00003901,-0.00013005,-0.00027103,-0.00002111,-0.00209682,-0.00099776
 ,0.00011814,-0.00208331,-0.00678530,0.00000681,-0.00035873,0.00025234,
 -0.00000007,-0.00019342,-0.00070484,-0.00005929,-0.00020747,0.00002096
 ,-0.00001735,-0.00070415,0.00014301,0.00001156,0.51089429,0.02400780,-
 0.00695550,0.00179551,-0.00277031,0.00804723,-0.00043266,-0.01237476,-
 0.01114822,-0.00004854,0.00382054,0.00222783,-0.00014622,0.00120408,0.
 00069002,-0.00002094,-0.00054450,-0.00183059,-0.00002570,-0.00056689,0
 .00136668,0.00003331,-0.01196379,0.00414464,-0.00590975,-0.00055194,0.
 00022386,-0.00000185,0.00031692,0.00011883,-0.00001262,0.00017048,0.00
 010134,0.00002062,-0.00007717,0.00010461,0.00000607,0.09573646,0.15814
 980,-0.00169080,0.00246125,0.00546692,-0.00165796,0.00010227,0.0065714
 3,-0.00003464,-0.00055402,-0.00061545,0.00006553,0.00006147,-0.0007599
 1,0.00003634,-0.00003239,0.00019538,-0.00002574,-0.00009726,0.00007745
 ,-0.00004510,0.00008626,-0.00060146,0.00098592,-0.00324627,-0.01030505
 ,0.00000022,0.00000268,0.00002162,0.00003299,0.00000980,0.00020998,0.0
 0001062,0.00000532,0.00009708,-0.00001264,-0.00000304,-0.00007108,0.17
 929593,-0.15065949,0.40127920,0.00094589,0.00051578,0.00065433,-0.0019
 6338,-0.00065542,0.00204181,-0.00068365,-0.00049831,-0.00030148,0.0001
 6104,0.00006014,-0.00022468,-0.00053628,0.00025146,0.00002506,-0.00000
 464,-0.00005114,0.00003191,-0.00002346,-0.00012522,-0.00019392,-0.0015
 9308,0.00043657,-0.00129658,0.00000588,0.00000989,0.00000072,-0.000048
 84,-0.00004114,0.00006965,0.00002249,-0.00000406,0.00003053,-0.0000215
 3,0.00001995,-0.00001820,-0.14360771,0.03917952,-0.17405217,0.16247839
 ,0.00238442,-0.00241406,-0.00164720,-0.00125513,0.00026010,0.00039763,
 -0.00015455,-0.00053552,0.00006015,0.00008713,0.00008630,0.00008681,0.
 00005237,0.00039208,-0.00000918,0.00002192,-0.00001796,0.00001567,-0.0
 0009065,-0.00007180,-0.00001068,-0.00121597,0.00318503,0.00471591,-0.0
 0002098,0.00001122,0.00000445,-0.00005363,-0.00007524,-0.00001754,0.00
 000949,-0.00000020,-0.00001528,-0.00003422,0.00000577,0.00000045,0.063
 80651,-0.05892756,0.13358730,-0.05428686,0.05338939,0.00235177,-0.0019
 9213,-0.00023411,0.00126716,-0.00001426,-0.00007694,-0.00049500,-0.000
 10601,0.00004468,0.00012041,-0.00000412,-0.00000154,-0.00001888,-0.000
 07380,0.00001165,0.00001456,-0.00000168,-0.00000636,0.00007819,0.00001
 056,-0.00000531,-0.00186728,0.00285418,0.00041632,0.00000324,-0.000002
 14,0.00000787,-0.00002447,0.00001773,0.00001571,0.00000841,-0.00000259
 ,0.00000508,0.00002589,0.00000475,0.00000700,-0.21680673,0.11678215,-0
 .35735218,0.21064137,-0.11986611,0.35833556,-0.01151495,-0.00180628,-0
 .00044188,0.00434945,-0.00204669,-0.00142625,0.01034113,0.01307618,0.0
 0020379,-0.00252248,-0.00265106,0.00015259,-0.00235176,-0.00756315,-0.
 00003539,0.00078157,0.00198778,-0.00002197,0.00316840,-0.00055998,0.00
 012772,0.01083731,-0.00573661,0.00069496,0.00089722,-0.00050895,-0.000
 01267,0.00024862,0.00075388,-0.00007343,0.00009591,-0.00008431,-0.0000
 2557,0.00084933,-0.00019823,0.00000371,-0.32981290,-0.13558644,-0.0029
 0850,-0.01513112,-0.00924985,0.00470133,0.32976425,-0.00350223,0.00078
 791,-0.00004953,-0.00211587,-0.01176671,-0.00020394,0.01009802,0.00124
 570,-0.00012573,-0.00105800,-0.00119518,0.00004745,-0.00206787,0.00192
 693,0.00006699,0.00012783,0.00029301,-0.00000582,-0.00056613,-0.000803
 66,0.00001187,-0.00034235,-0.01255848,0.00016850,0.00031795,-0.0000905
 4,0.00000104,-0.00035966,-0.00018796,0.00001410,-0.00004468,-0.0000334
 5,-0.00000110,-0.00016208,0.00003057,-0.00000222,-0.16568747,-0.096312
 96,0.01827612,0.01518885,0.00471243,0.00239347,0.15017371,0.11395238,-
 0.00113704,0.00041765,-0.00133232,0.00031837,-0.00028444,-0.00950964,0
 .00057724,0.00054474,0.00126889,-0.00016629,-0.00004466,0.00095872,-0.
 00020291,0.00009887,-0.00039369,0.00004359,0.00008379,-0.00018010,0.00
 000287,-0.00014304,0.00112468,0.00110261,-0.00136568,0.00290562,0.0000
 0993,-0.00000883,-0.00001297,-0.00003928,-0.00002233,-0.00040907,-0.00
 000955,-0.00000329,-0.00014248,-0.00000891,0.00000068,0.00014354,0.037
 85611,0.03862012,-0.04421392,-0.03740832,-0.01730237,-0.00116744,-0.00
 093843,-0.02059120,0.05096018\\0.00002440,0.00000957,-0.00002359,0.000
 01904,-0.00001247,0.00001190,-0.00000379,-0.00001933,0.00000713,-0.000
 01705,-0.00000712,-0.00000162,-0.00003490,0.00000145,-0.00000010,-0.00
 000200,0.00001522,0.00000512,0.00001522,-0.00000277,-0.00000509,-0.000
 02264,-0.00001013,0.00001328,0.00000802,-0.00000025,-0.00000011,-0.000
 00038,0.00000268,0.00000273,0.00000209,-0.00000331,-0.00000095,0.00000
 226,-0.00000294,-0.00000019,0.00000533,-0.00000011,0.00003261,0.000003
 33,-0.00001234,-0.00001469,0.00000108,0.00004185,-0.00002642\\\@


 THE MORE ACCURATE THE CALCULATIONS BECOME, THE MORE THE CONCEPTS
 TEND TO VANISH INTO THIN AIR.
     -- R.S. MULLIKEN, J.C.P. 43,S2(1965)
 Job cpu time:       0 days  1 hours 13 minutes 10.1 seconds.
 File lengths (MBytes):  RWF=   2128 Int=      0 D2E=      0 Chk=     32 Scr=     32
 Normal termination of Gaussian 09 at Thu Sep  2 22:52:23 2021.
