 Entering Gaussian System, Link 0=g09
 AtFile(1): pc-2.gbs
            -H     0
            S    4   1.00
                  0.754230D+02           0.240650D-02
                  0.113500D+02           0.184870D-01
                  0.259930D+01           0.897420D-01
                  0.735130D+00           0.281110D+00
            S    1   1.00
                  0.231670D+00           0.100000D+01
            S    1   1.00
                  0.741470D-01           0.100000D+01
            P    1   1.00
                  0.160000D+01           0.100000D+01
            P    1   1.00
                  0.450000D+00           0.100000D+01
            D    1   1.00
                  0.125000D+01           0.100000D+01
            ****
            -C     0
            S    7   1.00
                  0.785710D+04           0.568250D-03
                  0.117870D+04           0.439150D-02
                  0.268320D+03           0.225040D-01
                  0.759480D+02           0.866530D-01
                  0.245590D+02           0.244050D+00
                  0.862120D+01           0.441480D+00
                  0.312780D+01           0.353320D+00
            S    7   1.00
                  0.117870D+04          -0.594920D-06
                  0.268320D+03          -0.627480D-04
                  0.759480D+02          -0.757730D-03
                  0.245590D+02          -0.733080D-02
                  0.862120D+01          -0.389320D-01
                  0.312780D+01          -0.889080D-01
                  0.822020D+00           0.216890D+00
            S    1   1.00
                  0.330170D+00           0.100000D+01
            S    1   1.00
                  0.114630D+00           0.100000D+01
            P    4   1.00
                  0.337750D+02           0.602940D-02
                  0.767660D+01           0.432280D-01
                  0.223570D+01           0.163010D+00
                  0.764470D+00           0.365040D+00
            P    1   1.00
                  0.262320D+00           0.100000D+01
            P    1   1.00
                  0.846380D-01           0.100000D+01
            D    1   1.00
                  0.140000D+01           0.100000D+01
            D    1   1.00
                  0.450000D+00           0.100000D+01
            F    1   1.00
                  0.950000D+00           0.100000D+01
            ****
            -N     0
            S    7   1.00
                  0.111010D+05           0.545700D-03
                  0.166530D+04           0.421810D-02
                  0.379080D+03           0.216450D-01
                  0.107300D+03           0.837760D-01
                  0.347470D+02           0.238810D+00
                  0.122490D+02           0.439940D+00
                  0.447430D+01           0.363640D+00
            S    7   1.00
                  0.166530D+04          -0.150060D-05
                  0.379080D+03          -0.587530D-04
                  0.107300D+03          -0.774530D-03
                  0.347470D+02          -0.721610D-02
                  0.122490D+02          -0.393380D-01
                  0.447430D+01          -0.906110D-01
                  0.124040D+01           0.198820D+00
            S    1   1.00
                  0.487430D+00           0.100000D+01
            S    1   1.00
                  0.164840D+00           0.100000D+01
            P    4   1.00
                  0.479340D+02           0.617060D-02
                  0.109990D+02           0.442600D-01
                  0.324720D+01           0.168250D+00
                  0.111140D+01           0.368480D+00
            P    1   1.00
                  0.379880D+00           0.100000D+01
            P    1   1.00
                  0.120680D+00           0.100000D+01
            D    1   1.00
                  0.180000D+01           0.100000D+01
            D    1   1.00
                  0.550000D+00           0.100000D+01
            F    1   1.00
                  0.102000D+01           0.100000D+01
            ****
            -O     0
            S    7   1.00
                  0.147820D+05           0.535190D-03
                  0.221730D+04           0.413750D-02
                  0.504740D+03           0.212450D-01
                  0.142870D+03           0.824530D-01
                  0.463000D+02           0.236710D+00
                  0.163370D+02           0.440390D+00
                  0.598280D+01           0.364650D+00
            S    7   1.00
                  0.221730D+04          -0.192750D-05
                  0.504740D+03          -0.579640D-04
                  0.142870D+03          -0.794940D-03
                  0.463000D+02          -0.731250D-02
                  0.163370D+02          -0.405740D-01
                  0.598280D+01          -0.915940D-01
                  0.167180D+01           0.209400D+00
            S    1   1.00
                  0.646620D+00           0.100000D+01
            S    1   1.00
                  0.216690D+00           0.100000D+01
            P    4   1.00
                  0.604240D+02           0.689490D-02
                  0.139350D+02           0.490050D-01
                  0.415310D+01           0.182550D+00
                  0.141580D+01           0.376330D+00
            P    1   1.00
                  0.475490D+00           0.100000D+01
            P    1   1.00
                  0.145290D+00           0.100000D+01
            D    1   1.00
                  0.220000D+01           0.100000D+01
            D    1   1.00
                  0.650000D+00           0.100000D+01
            F    1   1.00
                  0.110000D+01           0.100000D+01
            ****
 Initial command:
 /gpfs/share/home/1801110325/software/g09e01/l1.exe "./Gau-32202.inp" -scrdir="./"
 Entering Link 1 = /gpfs/share/home/1801110325/software/g09e01/l1.exe PID=     32204.
  
 Copyright (c) 1988,1990,1992,1993,1995,1998,2003,2009,2015,
            Gaussian, Inc.  All Rights Reserved.
  
 This is part of the Gaussian(R) 09 program.  It is based on
 the Gaussian(R) 03 system (copyright 2003, Gaussian, Inc.),
 the Gaussian(R) 98 system (copyright 1998, Gaussian, Inc.),
 the Gaussian(R) 94 system (copyright 1995, Gaussian, Inc.),
 the Gaussian 92(TM) system (copyright 1992, Gaussian, Inc.),
 the Gaussian 90(TM) system (copyright 1990, Gaussian, Inc.),
 the Gaussian 88(TM) system (copyright 1988, Gaussian, Inc.),
 the Gaussian 86(TM) system (copyright 1986, Carnegie Mellon
 University), and the Gaussian 82(TM) system (copyright 1983,
 Carnegie Mellon University). Gaussian is a federally registered
 trademark of Gaussian, Inc.
  
 This software contains proprietary and confidential information,
 including trade secrets, belonging to Gaussian, Inc.
  
 This software is provided under written license and may be
 used, copied, transmitted, or stored only in accord with that
 written license.
  
 The following legend is applicable only to US Government
 contracts under FAR:
  
                    RESTRICTED RIGHTS LEGEND
  
 Use, reproduction and disclosure by the US Government is
 subject to restrictions as set forth in subparagraphs (a)
 and (c) of the Commercial Computer Software - Restricted
 Rights clause in FAR 52.227-19.
  
 Gaussian, Inc.
 340 Quinnipiac St., Bldg. 40, Wallingford CT 06492
  
  
 ---------------------------------------------------------------
 Warning -- This program may not be used in any manner that
 competes with the business of Gaussian, Inc. or will provide
 assistance to any competitor of Gaussian, Inc.  The licensee
 of this program is prohibited from giving any competitor of
 Gaussian, Inc. access to this program.  By using this program,
 the user acknowledges that Gaussian, Inc. is engaged in the
 business of creating and licensing software in the field of
 computational chemistry and represents and warrants to the
 licensee that it is not a competitor of Gaussian, Inc. and that
 it will not use this program in any manner prohibited above.
 ---------------------------------------------------------------
  

 Cite this work as:
 Gaussian 09, Revision E.01,
 M. J. Frisch, G. W. Trucks, H. B. Schlegel, G. E. Scuseria, 
 M. A. Robb, J. R. Cheeseman, G. Scalmani, V. Barone, B. Mennucci, 
 G. A. Petersson, H. Nakatsuji, M. Caricato, X. Li, H. P. Hratchian, 
 A. F. Izmaylov, J. Bloino, G. Zheng, J. L. Sonnenberg, M. Hada, 
 M. Ehara, K. Toyota, R. Fukuda, J. Hasegawa, M. Ishida, T. Nakajima, 
 Y. Honda, O. Kitao, H. Nakai, T. Vreven, J. A. Montgomery, Jr., 
 J. E. Peralta, F. Ogliaro, M. Bearpark, J. J. Heyd, E. Brothers, 
 K. N. Kudin, V. N. Staroverov, T. Keith, R. Kobayashi, J. Normand, 
 K. Raghavachari, A. Rendell, J. C. Burant, S. S. Iyengar, J. Tomasi, 
 M. Cossi, N. Rega, J. M. Millam, M. Klene, J. E. Knox, J. B. Cross, 
 V. Bakken, C. Adamo, J. Jaramillo, R. Gomperts, R. E. Stratmann, 
 O. Yazyev, A. J. Austin, R. Cammi, C. Pomelli, J. W. Ochterski, 
 R. L. Martin, K. Morokuma, V. G. Zakrzewski, G. A. Voth, 
 P. Salvador, J. J. Dannenberg, S. Dapprich, A. D. Daniels, 
 O. Farkas, J. B. Foresman, J. V. Ortiz, J. Cioslowski, 
 and D. J. Fox, Gaussian, Inc., Wallingford CT, 2013.
 
 ******************************************
 Gaussian 09:  EM64L-G09RevE.01 30-Nov-2015
                 2-Sep-2021 
 ******************************************
 %nprocshared=6
 Will use up to    6 processors via shared memory.
 %mem=10GB
 %chk=PY_H2O_TPSSh_PC2_OPT_FREQ.chk
 ----------------------------------------------------------
 #p opt freq TPSSh/gen SCF(novaracc,noincfock) int=acc2e=12
 ----------------------------------------------------------
 1/14=-1,18=20,19=15,26=3,38=1/1,3;
 2/9=110,12=2,17=6,18=5,40=1/2;
 3/5=7,11=2,16=1,25=1,30=1,71=1,74=-35/1,2,3;
 4//1;
 5/5=100002,38=1,87=12/2;
 6/7=2,8=2,9=2,10=2,28=1/1;
 7/87=12/1,2,3,16;
 1/14=-1,18=20,19=15,26=3/3(2);
 2/9=110/2;
 99//99;
 2/9=110/2;
 3/5=7,6=1,11=2,16=1,25=1,30=1,71=1,74=-35,82=7/1,2,3;
 4/5=5,16=3,69=1/1;
 5/5=100002,38=1,87=12/2;
 7/87=12/1,2,3,16;
 1/14=-1,18=20,19=15,26=3/3(-5);
 2/9=110/2;
 6/7=2,8=2,9=2,10=2,19=2,28=1/1;
 99/9=1/99;
 Leave Link    1 at Thu Sep  2 22:19:27 2021, MaxMem=  1342177280 cpu:         2.3
 (Enter /gpfs/share/home/1801110325/software/g09e01/l101.exe)
 -------------------------
 PY_H2O_TPSSh_PC2_OPT_FREQ
 -------------------------
 Symbolic Z-matrix:
 Charge =  0 Multiplicity = 1
 O                     1.26148   1.38785   0.00541 
 N                     0.24943  -0.65888   0.01158 
 C                     0.21021   0.736     0.00592 
 C                    -1.11959   1.28763   0.00047 
 C                    -0.84358  -1.46082   0.0067 
 C                    -2.21816   0.48191  -0.00352 
 C                    -2.09559  -0.93059  -0.00106 
 H                     2.7014    0.27314  -0.04162 
 H                    -1.19683   2.36437  -0.00254 
 H                    -0.64999  -2.52343   0.00862 
 H                    -3.20534   0.92605  -0.00928 
 H                    -2.96087  -1.57362  -0.00584 
 O                     3.10667  -0.61979  -0.08598 
 H                     3.83344  -0.62425   0.54074 
 H                     1.18728  -1.05929   0.02234 
 
 Add virtual bond connecting atoms H8         and O1         Dist= 3.44D+00.
 Add virtual bond connecting atoms O13        and H15        Dist= 3.73D+00.
 NAtoms=     15 NQM=       15 NQMF=       0 NMMI=      0 NMMIF=      0
                NMic=       0 NMicF=      0.
                    Isotopes and Nuclear Properties:
 (Nuclear quadrupole moments (NQMom) in fm**2, nuclear magnetic moments (NMagM)
  in nuclear magnetons)

  Atom         1           2           3           4           5           6           7           8           9          10
 IAtWgt=          16          14          12          12          12          12          12           1           1           1
 AtmWgt=  15.9949146  14.0030740  12.0000000  12.0000000  12.0000000  12.0000000  12.0000000   1.0078250   1.0078250   1.0078250
 NucSpn=           0           2           0           0           0           0           0           1           1           1
 AtZEff=   0.0000000   0.0000000   0.0000000   0.0000000   0.0000000   0.0000000   0.0000000   0.0000000   0.0000000   0.0000000
 NQMom=    0.0000000   2.0440000   0.0000000   0.0000000   0.0000000   0.0000000   0.0000000   0.0000000   0.0000000   0.0000000
 NMagM=    0.0000000   0.4037610   0.0000000   0.0000000   0.0000000   0.0000000   0.0000000   2.7928460   2.7928460   2.7928460
 AtZNuc=   8.0000000   7.0000000   6.0000000   6.0000000   6.0000000   6.0000000   6.0000000   1.0000000   1.0000000   1.0000000

  Atom        11          12          13          14          15
 IAtWgt=           1           1          16           1           1
 AtmWgt=   1.0078250   1.0078250  15.9949146   1.0078250   1.0078250
 NucSpn=           1           1           0           1           1
 AtZEff=   0.0000000   0.0000000   0.0000000   0.0000000   0.0000000
 NQMom=    0.0000000   0.0000000   0.0000000   0.0000000   0.0000000
 NMagM=    2.7928460   2.7928460   0.0000000   2.7928460   2.7928460
 AtZNuc=   1.0000000   1.0000000   8.0000000   1.0000000   1.0000000
 Leave Link  101 at Thu Sep  2 22:19:29 2021, MaxMem=  1342177280 cpu:         1.5
 (Enter /gpfs/share/home/1801110325/software/g09e01/l103.exe)

 GradGradGradGradGradGradGradGradGradGradGradGradGradGradGradGradGradGrad
 Berny optimization.
 Initialization pass.
                           ----------------------------
                           !    Initial Parameters    !
                           ! (Angstroms and Degrees)  !
 --------------------------                            --------------------------
 ! Name  Definition              Value          Derivative Info.                !
 --------------------------------------------------------------------------------
 ! R1    R(1,3)                  1.237          estimate D2E/DX2                !
 ! R2    R(1,8)                  1.8216         estimate D2E/DX2                !
 ! R3    R(2,3)                  1.3954         estimate D2E/DX2                !
 ! R4    R(2,5)                  1.3556         estimate D2E/DX2                !
 ! R5    R(2,15)                 1.0198         estimate D2E/DX2                !
 ! R6    R(3,4)                  1.4397         estimate D2E/DX2                !
 ! R7    R(4,6)                  1.3624         estimate D2E/DX2                !
 ! R8    R(4,9)                  1.0795         estimate D2E/DX2                !
 ! R9    R(5,7)                  1.3597         estimate D2E/DX2                !
 ! R10   R(5,10)                 1.0801         estimate D2E/DX2                !
 ! R11   R(6,7)                  1.4178         estimate D2E/DX2                !
 ! R12   R(6,11)                 1.0825         estimate D2E/DX2                !
 ! R13   R(7,12)                 1.0781         estimate D2E/DX2                !
 ! R14   R(8,13)                 0.9816         estimate D2E/DX2                !
 ! R15   R(13,14)                0.9597         estimate D2E/DX2                !
 ! R16   R(13,15)                1.972          estimate D2E/DX2                !
 ! A1    A(3,1,8)              110.4468         estimate D2E/DX2                !
 ! A2    A(3,2,5)              124.6558         estimate D2E/DX2                !
 ! A3    A(3,2,15)             114.7312         estimate D2E/DX2                !
 ! A4    A(5,2,15)             120.6129         estimate D2E/DX2                !
 ! A5    A(1,3,2)              120.1911         estimate D2E/DX2                !
 ! A6    A(1,3,4)              125.6683         estimate D2E/DX2                !
 ! A7    A(2,3,4)              114.1406         estimate D2E/DX2                !
 ! A8    A(3,4,6)              121.2133         estimate D2E/DX2                !
 ! A9    A(3,4,9)              116.6328         estimate D2E/DX2                !
 ! A10   A(6,4,9)              122.1537         estimate D2E/DX2                !
 ! A11   A(2,5,7)              120.7801         estimate D2E/DX2                !
 ! A12   A(2,5,10)             115.9423         estimate D2E/DX2                !
 ! A13   A(7,5,10)             123.2776         estimate D2E/DX2                !
 ! A14   A(4,6,7)              121.2972         estimate D2E/DX2                !
 ! A15   A(4,6,11)             119.5197         estimate D2E/DX2                !
 ! A16   A(7,6,11)             119.1831         estimate D2E/DX2                !
 ! A17   A(5,7,6)              117.9124         estimate D2E/DX2                !
 ! A18   A(5,7,12)             120.4308         estimate D2E/DX2                !
 ! A19   A(6,7,12)             121.6568         estimate D2E/DX2                !
 ! A20   A(1,8,13)             152.1528         estimate D2E/DX2                !
 ! A21   A(8,13,14)            106.7015         estimate D2E/DX2                !
 ! A22   A(8,13,15)             78.3702         estimate D2E/DX2                !
 ! A23   A(14,13,15)           134.4412         estimate D2E/DX2                !
 ! A24   A(2,15,13)            143.8035         estimate D2E/DX2                !
 ! D1    D(8,1,3,2)              1.8252         estimate D2E/DX2                !
 ! D2    D(8,1,3,4)           -178.1461         estimate D2E/DX2                !
 ! D3    D(3,1,8,13)             2.218          estimate D2E/DX2                !
 ! D4    D(5,2,3,1)           -179.6964         estimate D2E/DX2                !
 ! D5    D(5,2,3,4)              0.278          estimate D2E/DX2                !
 ! D6    D(15,2,3,1)             0.4507         estimate D2E/DX2                !
 ! D7    D(15,2,3,4)          -179.5749         estimate D2E/DX2                !
 ! D8    D(3,2,5,7)             -0.1672         estimate D2E/DX2                !
 ! D9    D(3,2,5,10)           179.7881         estimate D2E/DX2                !
 ! D10   D(15,2,5,7)           179.6776         estimate D2E/DX2                !
 ! D11   D(15,2,5,10)           -0.3671         estimate D2E/DX2                !
 ! D12   D(3,2,15,13)           -6.1898         estimate D2E/DX2                !
 ! D13   D(5,2,15,13)          173.9508         estimate D2E/DX2                !
 ! D14   D(1,3,4,6)            179.7501         estimate D2E/DX2                !
 ! D15   D(1,3,4,9)             -0.1145         estimate D2E/DX2                !
 ! D16   D(2,3,4,6)             -0.2227         estimate D2E/DX2                !
 ! D17   D(2,3,4,9)            179.9126         estimate D2E/DX2                !
 ! D18   D(3,4,6,7)              0.0669         estimate D2E/DX2                !
 ! D19   D(3,4,6,11)          -179.8963         estimate D2E/DX2                !
 ! D20   D(9,4,6,7)            179.924          estimate D2E/DX2                !
 ! D21   D(9,4,6,11)            -0.0392         estimate D2E/DX2                !
 ! D22   D(2,5,7,6)             -0.0156         estimate D2E/DX2                !
 ! D23   D(2,5,7,12)           179.9426         estimate D2E/DX2                !
 ! D24   D(10,5,7,6)          -179.9675         estimate D2E/DX2                !
 ! D25   D(10,5,7,12)           -0.0093         estimate D2E/DX2                !
 ! D26   D(4,6,7,5)              0.0605         estimate D2E/DX2                !
 ! D27   D(4,6,7,12)          -179.8972         estimate D2E/DX2                !
 ! D28   D(11,6,7,5)          -179.9762         estimate D2E/DX2                !
 ! D29   D(11,6,7,12)            0.0661         estimate D2E/DX2                !
 ! D30   D(1,8,13,14)         -137.6226         estimate D2E/DX2                !
 ! D31   D(1,8,13,15)           -4.4198         estimate D2E/DX2                !
 ! D32   D(8,13,15,2)            7.3388         estimate D2E/DX2                !
 ! D33   D(14,13,15,2)         109.4095         estimate D2E/DX2                !
 --------------------------------------------------------------------------------
 Trust Radius=3.00D-01 FncErr=1.00D-07 GrdErr=1.00D-06
 Number of steps in this run=     83 maximum allowed number of steps=    100.
 GradGradGradGradGradGradGradGradGradGradGradGradGradGradGradGradGradGrad

 Leave Link  103 at Thu Sep  2 22:19:29 2021, MaxMem=  1342177280 cpu:         0.4
 (Enter /gpfs/share/home/1801110325/software/g09e01/l202.exe)
                          Input orientation:                          
 ---------------------------------------------------------------------
 Center     Atomic      Atomic             Coordinates (Angstroms)
 Number     Number       Type             X           Y           Z
 ---------------------------------------------------------------------
      1          8           0        1.261476    1.387852    0.005408
      2          7           0        0.249425   -0.658880    0.011581
      3          6           0        0.210209    0.735997    0.005920
      4          6           0       -1.119592    1.287625    0.000474
      5          6           0       -0.843575   -1.460822    0.006702
      6          6           0       -2.218160    0.481905   -0.003521
      7          6           0       -2.095586   -0.930593   -0.001061
      8          1           0        2.701404    0.273138   -0.041623
      9          1           0       -1.196826    2.364370   -0.002539
     10          1           0       -0.649991   -2.523426    0.008616
     11          1           0       -3.205344    0.926047   -0.009282
     12          1           0       -2.960874   -1.573618   -0.005843
     13          8           0        3.106669   -0.619787   -0.085978
     14          1           0        3.833439   -0.624251    0.540740
     15          1           0        1.187279   -1.059291    0.022340
 ---------------------------------------------------------------------
                    Distance matrix (angstroms):
                    1          2          3          4          5
     1  O    0.000000
     2  N    2.283286   0.000000
     3  C    1.236963   1.395440   0.000000
     4  C    2.383182   2.379751   1.439685   0.000000
     5  C    3.542059   1.355649   2.436488   2.762279   0.000000
     6  C    3.595648   2.718565   2.441645   1.362370   2.379869
     7  C    4.079840   2.360734   2.845042   2.423439   1.359682
     8  H    1.821590   2.623679   2.534275   3.953602   3.946622
     9  H    2.645165   3.351400   2.152073   1.079516   3.841480
    10  H    4.353368   2.070142   3.371022   3.839883   1.080095
    11  H    4.490653   3.801034   3.420870   2.116883   3.357879
    12  H    5.157390   3.338124   3.923038   3.402509   2.120339
    13  O    2.728315   2.859176   3.199387   4.637561   4.039846
    14  H    3.309098   3.623033   3.906930   5.336635   4.781162
    15  H    2.448326   1.019811   2.044014   3.290919   2.070227
                    6          7          8          9         10
     6  C    0.000000
     7  C    1.417809   0.000000
     8  H    4.924139   4.945880   0.000000
     9  H    2.141681   3.415341   4.423910   0.000000
    10  H    3.389884   2.151036   4.365220   4.918303   0.000000
    11  H    1.082510   2.163040   5.942811   2.470418   4.292903
    12  H    2.185590   1.078066   5.955937   4.315046   2.498504
    13  O    5.438228   5.212223   0.981592   5.237578   4.212515
    14  H    6.175893   5.961605   1.557548   5.876272   4.898078
    15  H    3.738043   3.285470   2.017928   4.172053   2.349349
                   11         12         13         14         15
    11  H    0.000000
    12  H    2.511594   0.000000
    13  O    6.498999   6.142580   0.000000
    14  H    7.228445   6.882059   0.959682   0.000000
    15  H    4.820550   4.180012   1.972043   2.731330   0.000000
 Stoichiometry    C5H7NO2
 Framework group  C1[X(C5H7NO2)]
 Deg. of freedom    39
 Full point group                 C1      NOp   1
 Largest Abelian subgroup         C1      NOp   1
 Largest concise Abelian subgroup C1      NOp   1
                         Standard orientation:                         
 ---------------------------------------------------------------------
 Center     Atomic      Atomic             Coordinates (Angstroms)
 Number     Number       Type             X           Y           Z
 ---------------------------------------------------------------------
      1          8           0        1.261476    1.387852    0.005408
      2          7           0        0.249425   -0.658880    0.011581
      3          6           0        0.210209    0.735997    0.005920
      4          6           0       -1.119592    1.287625    0.000474
      5          6           0       -0.843575   -1.460822    0.006702
      6          6           0       -2.218160    0.481905   -0.003521
      7          6           0       -2.095586   -0.930593   -0.001061
      8          1           0        2.701404    0.273138   -0.041623
      9          1           0       -1.196826    2.364370   -0.002539
     10          1           0       -0.649991   -2.523426    0.008616
     11          1           0       -3.205344    0.926047   -0.009282
     12          1           0       -2.960874   -1.573618   -0.005843
     13          8           0        3.106669   -0.619787   -0.085978
     14          1           0        3.833439   -0.624251    0.540740
     15          1           0        1.187279   -1.059291    0.022340
 ---------------------------------------------------------------------
 Rotational constants (GHZ):      4.0248921      1.3974909      1.0390436
 Leave Link  202 at Thu Sep  2 22:19:29 2021, MaxMem=  1342177280 cpu:         1.0
 (Enter /gpfs/share/home/1801110325/software/g09e01/l301.exe)
 General basis read from cards:  (5D, 7F)
 Centers:       8      9     10     11     12     14     15
 S 4 1.00
     Exponent=  7.5423000000D+01 Coefficients=  2.4065000000D-03
     Exponent=  1.1350000000D+01 Coefficients=  1.8487000000D-02
     Exponent=  2.5993000000D+00 Coefficients=  8.9742000000D-02
     Exponent=  7.3513000000D-01 Coefficients=  2.8111000000D-01
 S 1 1.00
     Exponent=  2.3167000000D-01 Coefficients=  1.0000000000D+00
 S 1 1.00
     Exponent=  7.4147000000D-02 Coefficients=  1.0000000000D+00
 P 1 1.00
     Exponent=  1.6000000000D+00 Coefficients=  1.0000000000D+00
 P 1 1.00
     Exponent=  4.5000000000D-01 Coefficients=  1.0000000000D+00
 D 1 1.00
     Exponent=  1.2500000000D+00 Coefficients=  1.0000000000D+00
 ****
 Centers:       3      4      5      6      7
 S 7 1.00
     Exponent=  7.8571000000D+03 Coefficients=  5.6825000000D-04
     Exponent=  1.1787000000D+03 Coefficients=  4.3915000000D-03
     Exponent=  2.6832000000D+02 Coefficients=  2.2504000000D-02
     Exponent=  7.5948000000D+01 Coefficients=  8.6653000000D-02
     Exponent=  2.4559000000D+01 Coefficients=  2.4405000000D-01
     Exponent=  8.6212000000D+00 Coefficients=  4.4148000000D-01
     Exponent=  3.1278000000D+00 Coefficients=  3.5332000000D-01
 S 7 1.00
     Exponent=  1.1787000000D+03 Coefficients= -5.9492000000D-07
     Exponent=  2.6832000000D+02 Coefficients= -6.2748000000D-05
     Exponent=  7.5948000000D+01 Coefficients= -7.5773000000D-04
     Exponent=  2.4559000000D+01 Coefficients= -7.3308000000D-03
     Exponent=  8.6212000000D+00 Coefficients= -3.8932000000D-02
     Exponent=  3.1278000000D+00 Coefficients= -8.8908000000D-02
     Exponent=  8.2202000000D-01 Coefficients=  2.1689000000D-01
 S 1 1.00
     Exponent=  3.3017000000D-01 Coefficients=  1.0000000000D+00
 S 1 1.00
     Exponent=  1.1463000000D-01 Coefficients=  1.0000000000D+00
 P 4 1.00
     Exponent=  3.3775000000D+01 Coefficients=  6.0294000000D-03
     Exponent=  7.6766000000D+00 Coefficients=  4.3228000000D-02
     Exponent=  2.2357000000D+00 Coefficients=  1.6301000000D-01
     Exponent=  7.6447000000D-01 Coefficients=  3.6504000000D-01
 P 1 1.00
     Exponent=  2.6232000000D-01 Coefficients=  1.0000000000D+00
 P 1 1.00
     Exponent=  8.4638000000D-02 Coefficients=  1.0000000000D+00
 D 1 1.00
     Exponent=  1.4000000000D+00 Coefficients=  1.0000000000D+00
 D 1 1.00
     Exponent=  4.5000000000D-01 Coefficients=  1.0000000000D+00
 F 1 1.00
     Exponent=  9.5000000000D-01 Coefficients=  1.0000000000D+00
 ****
 Centers:       2
 S 7 1.00
     Exponent=  1.1101000000D+04 Coefficients=  5.4570000000D-04
     Exponent=  1.6653000000D+03 Coefficients=  4.2181000000D-03
     Exponent=  3.7908000000D+02 Coefficients=  2.1645000000D-02
     Exponent=  1.0730000000D+02 Coefficients=  8.3776000000D-02
     Exponent=  3.4747000000D+01 Coefficients=  2.3881000000D-01
     Exponent=  1.2249000000D+01 Coefficients=  4.3994000000D-01
     Exponent=  4.4743000000D+00 Coefficients=  3.6364000000D-01
 S 7 1.00
     Exponent=  1.6653000000D+03 Coefficients= -1.5006000000D-06
     Exponent=  3.7908000000D+02 Coefficients= -5.8753000000D-05
     Exponent=  1.0730000000D+02 Coefficients= -7.7453000000D-04
     Exponent=  3.4747000000D+01 Coefficients= -7.2161000000D-03
     Exponent=  1.2249000000D+01 Coefficients= -3.9338000000D-02
     Exponent=  4.4743000000D+00 Coefficients= -9.0611000000D-02
     Exponent=  1.2404000000D+00 Coefficients=  1.9882000000D-01
 S 1 1.00
     Exponent=  4.8743000000D-01 Coefficients=  1.0000000000D+00
 S 1 1.00
     Exponent=  1.6484000000D-01 Coefficients=  1.0000000000D+00
 P 4 1.00
     Exponent=  4.7934000000D+01 Coefficients=  6.1706000000D-03
     Exponent=  1.0999000000D+01 Coefficients=  4.4260000000D-02
     Exponent=  3.2472000000D+00 Coefficients=  1.6825000000D-01
     Exponent=  1.1114000000D+00 Coefficients=  3.6848000000D-01
 P 1 1.00
     Exponent=  3.7988000000D-01 Coefficients=  1.0000000000D+00
 P 1 1.00
     Exponent=  1.2068000000D-01 Coefficients=  1.0000000000D+00
 D 1 1.00
     Exponent=  1.8000000000D+00 Coefficients=  1.0000000000D+00
 D 1 1.00
     Exponent=  5.5000000000D-01 Coefficients=  1.0000000000D+00
 F 1 1.00
     Exponent=  1.0200000000D+00 Coefficients=  1.0000000000D+00
 ****
 Centers:       1     13
 S 7 1.00
     Exponent=  1.4782000000D+04 Coefficients=  5.3519000000D-04
     Exponent=  2.2173000000D+03 Coefficients=  4.1375000000D-03
     Exponent=  5.0474000000D+02 Coefficients=  2.1245000000D-02
     Exponent=  1.4287000000D+02 Coefficients=  8.2453000000D-02
     Exponent=  4.6300000000D+01 Coefficients=  2.3671000000D-01
     Exponent=  1.6337000000D+01 Coefficients=  4.4039000000D-01
     Exponent=  5.9828000000D+00 Coefficients=  3.6465000000D-01
 S 7 1.00
     Exponent=  2.2173000000D+03 Coefficients= -1.9275000000D-06
     Exponent=  5.0474000000D+02 Coefficients= -5.7964000000D-05
     Exponent=  1.4287000000D+02 Coefficients= -7.9494000000D-04
     Exponent=  4.6300000000D+01 Coefficients= -7.3125000000D-03
     Exponent=  1.6337000000D+01 Coefficients= -4.0574000000D-02
     Exponent=  5.9828000000D+00 Coefficients= -9.1594000000D-02
     Exponent=  1.6718000000D+00 Coefficients=  2.0940000000D-01
 S 1 1.00
     Exponent=  6.4662000000D-01 Coefficients=  1.0000000000D+00
 S 1 1.00
     Exponent=  2.1669000000D-01 Coefficients=  1.0000000000D+00
 P 4 1.00
     Exponent=  6.0424000000D+01 Coefficients=  6.8949000000D-03
     Exponent=  1.3935000000D+01 Coefficients=  4.9005000000D-02
     Exponent=  4.1531000000D+00 Coefficients=  1.8255000000D-01
     Exponent=  1.4158000000D+00 Coefficients=  3.7633000000D-01
 P 1 1.00
     Exponent=  4.7549000000D-01 Coefficients=  1.0000000000D+00
 P 1 1.00
     Exponent=  1.4529000000D-01 Coefficients=  1.0000000000D+00
 D 1 1.00
     Exponent=  2.2000000000D+00 Coefficients=  1.0000000000D+00
 D 1 1.00
     Exponent=  6.5000000000D-01 Coefficients=  1.0000000000D+00
 F 1 1.00
     Exponent=  1.1000000000D+00 Coefficients=  1.0000000000D+00
 ****
 Ernie: Thresh=  0.10000D-02 Tol=  0.10000D-05 Strict=F.
 Ernie:  8 primitive shells out of 263 were deleted.
 There are   385 symmetry adapted cartesian basis functions of A   symmetry.
 There are   338 symmetry adapted basis functions of A   symmetry.
   338 basis functions,   566 primitive gaussians,   385 cartesian basis functions
    30 alpha electrons       30 beta electrons
       nuclear repulsion energy       356.8539014902 Hartrees.
 IExCor= 2523 DFT=T Ex+Corr=TPSSh ExCW=0 ScaHFX=  0.100000
 ScaDFX=  0.900000  0.900000  1.000000  1.000000 ScalE2=  1.000000  1.000000
 IRadAn=      0 IRanWt=     -1 IRanGd=            0 ICorTp=0 IEmpDi=  4
 NAtoms=   15 NActive=   15 NUniq=   15 SFac= 1.00D+00 NAtFMM=   60 NAOKFM=F Big=F
 Integral buffers will be    131072 words long.
 Raffenetti 2 integral format.
 Two-electron integral symmetry is turned on.
 Leave Link  301 at Thu Sep  2 22:19:29 2021, MaxMem=  1342177280 cpu:         2.6
 (Enter /gpfs/share/home/1801110325/software/g09e01/l302.exe)
 NPDir=0 NMtPBC=     1 NCelOv=     1 NCel=       1 NClECP=     1 NCelD=      1
         NCelK=      1 NCelE2=     1 NClLst=     1 CellRange=     0.0.
 One-electron integrals computed using PRISM.
 NBasis=   338 RedAO= T EigKep=  1.57D-04  NBF=   338
 NBsUse=   338 1.00D-06 EigRej= -1.00D+00 NBFU=   338
 Precomputing XC quadrature grid using
 IXCGrd= 4 IRadAn=           0 IRanWt=          -1 IRanGd=           0 AccXCQ= 0.00D+00.
 Generated NRdTot=       0 NPtTot=           0 NUsed=           0 NTot=          32
 NSgBfM=   385   385   385   385   385 MxSgAt=    15 MxSgA2=    15.
 Leave Link  302 at Thu Sep  2 22:19:30 2021, MaxMem=  1342177280 cpu:         1.9
 (Enter /gpfs/share/home/1801110325/software/g09e01/l303.exe)
 DipDrv:  MaxL=1.
 Leave Link  303 at Thu Sep  2 22:19:30 2021, MaxMem=  1342177280 cpu:         0.2
 (Enter /gpfs/share/home/1801110325/software/g09e01/l401.exe)
 ExpMin= 7.41D-02 ExpMax= 1.48D+04 ExpMxC= 5.05D+02 IAcc=2 IRadAn=         4 AccDes= 0.00D+00
 Harris functional with IExCor= 1009 and IRadAn=       4 diagonalized for initial guess.
 HarFok:  IExCor= 1009 AccDes= 0.00D+00 IRadAn=         4 IDoV= 1 UseB2=F ITyADJ=14
 ICtDFT=  3500011 ScaDFX=  1.000000  1.000000  1.000000  1.000000
 FoFCou: FMM=F IPFlag=           0 FMFlag=      100000 FMFlg1=           0
         NFxFlg=           0 DoJE=T BraDBF=F KetDBF=T FulRan=T
         wScrn=  0.000000 ICntrl=     500 IOpCl=  0 I1Cent=   200000004 NGrid=           0
         NMat0=    1 NMatS0=      1 NMatT0=    0 NMatD0=    1 NMtDS0=    0 NMtDT0=    0
 Petite list used in FoFCou.
 Harris En= -399.816960565454    
 JPrj=0 DoOrth=F DoCkMO=F.
 Leave Link  401 at Thu Sep  2 22:19:31 2021, MaxMem=  1342177280 cpu:         6.8
 (Enter /gpfs/share/home/1801110325/software/g09e01/l502.exe)
 Closed shell SCF:
 Using DIIS extrapolation, IDIIS=  1040.
 Integral symmetry usage will be decided dynamically.
 IVT=      468335 IEndB=      468335 NGot=  1342177280 MDV=  1341874196
 LenX=  1341874196 LenY=  1341725530
 Requested convergence on RMS density matrix=1.00D-08 within 128 cycles.
 Requested convergence on MAX density matrix=1.00D-06.
 Requested convergence on             energy=1.00D-06.
 No special actions if energy rises.

 Cycle   1  Pass 1  IDiag  1:
 FoFJK:  IHMeth= 1 ICntrl=       0 DoSepK=F KAlg= 0 I1Cent=   0 FoldK=F
 IRaf= 940000000 NMat=   1 IRICut=       1 DoRegI=T DoRafI=F ISym2E= 0.
 FoFCou: FMM=F IPFlag=           0 FMFlag=      100000 FMFlg1=           0
         NFxFlg=           0 DoJE=F BraDBF=F KetDBF=F FulRan=T
         wScrn=  0.000000 ICntrl=       0 IOpCl=  0 I1Cent=           0 NGrid=           0
         NMat0=    1 NMatS0=      1 NMatT0=    0 NMatD0=    1 NMtDS0=    0 NMtDT0=    0
 Symmetry not used in FoFCou.
 E= -399.907563640616    
 DIIS: error= 2.69D-02 at cycle   1 NSaved=   1.
 NSaved= 1 IEnMin= 1 EnMin= -399.907563640616     IErMin= 1 ErrMin= 2.69D-02
 ErrMax= 2.69D-02  0.00D+00 EMaxC= 1.00D-01 BMatC= 2.92D-01 BMatP= 2.92D-01
 IDIUse=3 WtCom= 7.31D-01 WtEn= 2.69D-01
 Coeff-Com:  0.100D+01
 Coeff-En:   0.100D+01
 Coeff:      0.100D+01
 Gap=     0.129 Goal=   None    Shift=    0.000
 GapD=    0.129 DampG=1.000 DampE=0.500 DampFc=0.5000 IDamp=-1.
 Damping current iteration by 5.00D-01
 RMSDP=3.29D-03 MaxDP=1.29D-01              OVMax= 3.48D-01

 Cycle   2  Pass 1  IDiag  1:
 E= -399.946545059490     Delta-E=       -0.038981418874 Rises=F Damp=T
 DIIS: error= 9.81D-03 at cycle   2 NSaved=   2.
 NSaved= 2 IEnMin= 2 EnMin= -399.946545059490     IErMin= 2 ErrMin= 9.81D-03
 ErrMax= 9.81D-03  0.00D+00 EMaxC= 1.00D-01 BMatC= 6.05D-02 BMatP= 2.92D-01
 IDIUse=3 WtCom= 9.02D-01 WtEn= 9.81D-02
 Coeff-Com:  0.258D+00 0.742D+00
 Coeff-En:   0.421D+00 0.579D+00
 Coeff:      0.274D+00 0.726D+00
 Gap=     0.216 Goal=   None    Shift=    0.000
 RMSDP=1.11D-03 MaxDP=4.08D-02 DE=-3.90D-02 OVMax= 3.13D-01

 Cycle   3  Pass 1  IDiag  1:
 E= -400.099886938054     Delta-E=       -0.153341878564 Rises=F Damp=F
 DIIS: error= 1.30D-02 at cycle   3 NSaved=   3.
 NSaved= 3 IEnMin= 3 EnMin= -400.099886938054     IErMin= 2 ErrMin= 9.81D-03
 ErrMax= 1.30D-02  0.00D+00 EMaxC= 1.00D-01 BMatC= 4.61D-02 BMatP= 6.05D-02
 IDIUse=3 WtCom= 8.70D-01 WtEn= 1.30D-01
 Coeff-Com:  0.932D-01 0.459D+00 0.448D+00
 Coeff-En:   0.000D+00 0.000D+00 0.100D+01
 Coeff:      0.811D-01 0.399D+00 0.520D+00
 Gap=     0.152 Goal=   None    Shift=    0.000
 RMSDP=7.01D-04 MaxDP=3.85D-02 DE=-1.53D-01 OVMax= 1.49D-01

 Cycle   4  Pass 1  IDiag  1:
 E= -400.126779600814     Delta-E=       -0.026892662760 Rises=F Damp=F
 DIIS: error= 7.49D-03 at cycle   4 NSaved=   4.
 NSaved= 4 IEnMin= 4 EnMin= -400.126779600814     IErMin= 4 ErrMin= 7.49D-03
 ErrMax= 7.49D-03  0.00D+00 EMaxC= 1.00D-01 BMatC= 1.76D-02 BMatP= 4.61D-02
 IDIUse=3 WtCom= 9.25D-01 WtEn= 7.49D-02
 Coeff-Com:  0.103D-01 0.104D+00 0.379D+00 0.507D+00
 Coeff-En:   0.000D+00 0.000D+00 0.313D+00 0.687D+00
 Coeff:      0.952D-02 0.964D-01 0.374D+00 0.520D+00
 Gap=     0.158 Goal=   None    Shift=    0.000
 RMSDP=3.12D-04 MaxDP=1.79D-02 DE=-2.69D-02 OVMax= 6.46D-02

 Cycle   5  Pass 1  IDiag  1:
 E= -400.140938221351     Delta-E=       -0.014158620537 Rises=F Damp=F
 DIIS: error= 1.47D-03 at cycle   5 NSaved=   5.
 NSaved= 5 IEnMin= 5 EnMin= -400.140938221351     IErMin= 5 ErrMin= 1.47D-03
 ErrMax= 1.47D-03  0.00D+00 EMaxC= 1.00D-01 BMatC= 1.04D-03 BMatP= 1.76D-02
 IDIUse=3 WtCom= 9.85D-01 WtEn= 1.47D-02
 Coeff-Com: -0.340D-02 0.128D-01 0.178D+00 0.316D+00 0.496D+00
 Coeff-En:   0.000D+00 0.000D+00 0.000D+00 0.000D+00 0.100D+01
 Coeff:     -0.335D-02 0.126D-01 0.176D+00 0.311D+00 0.504D+00
 Gap=     0.155 Goal=   None    Shift=    0.000
 RMSDP=8.69D-05 MaxDP=3.49D-03 DE=-1.42D-02 OVMax= 1.35D-02

 Cycle   6  Pass 1  IDiag  1:
 E= -400.141743785732     Delta-E=       -0.000805564381 Rises=F Damp=F
 DIIS: error= 5.09D-04 at cycle   6 NSaved=   6.
 NSaved= 6 IEnMin= 6 EnMin= -400.141743785732     IErMin= 6 ErrMin= 5.09D-04
 ErrMax= 5.09D-04  0.00D+00 EMaxC= 1.00D-01 BMatC= 8.73D-05 BMatP= 1.04D-03
 IDIUse=3 WtCom= 9.95D-01 WtEn= 5.09D-03
 Coeff-Com: -0.238D-02-0.159D-02 0.604D-01 0.120D+00 0.285D+00 0.539D+00
 Coeff-En:   0.000D+00 0.000D+00 0.000D+00 0.000D+00 0.510D-01 0.949D+00
 Coeff:     -0.236D-02-0.158D-02 0.601D-01 0.119D+00 0.284D+00 0.541D+00
 Gap=     0.156 Goal=   None    Shift=    0.000
 RMSDP=2.64D-05 MaxDP=1.22D-03 DE=-8.06D-04 OVMax= 5.34D-03

 Cycle   7  Pass 1  IDiag  1:
 E= -400.141814501796     Delta-E=       -0.000070716064 Rises=F Damp=F
 DIIS: error= 2.50D-04 at cycle   7 NSaved=   7.
 NSaved= 7 IEnMin= 7 EnMin= -400.141814501796     IErMin= 7 ErrMin= 2.50D-04
 ErrMax= 2.50D-04  0.00D+00 EMaxC= 1.00D-01 BMatC= 1.56D-05 BMatP= 8.73D-05
 IDIUse=3 WtCom= 9.97D-01 WtEn= 2.50D-03
 Coeff-Com: -0.115D-02-0.200D-02 0.233D-01 0.492D-01 0.138D+00 0.357D+00
 Coeff-Com:  0.435D+00
 Coeff-En:   0.000D+00 0.000D+00 0.000D+00 0.000D+00 0.000D+00 0.160D+00
 Coeff-En:   0.840D+00
 Coeff:     -0.115D-02-0.200D-02 0.233D-01 0.491D-01 0.138D+00 0.357D+00
 Coeff:      0.436D+00
 Gap=     0.156 Goal=   None    Shift=    0.000
 RMSDP=9.69D-06 MaxDP=3.99D-04 DE=-7.07D-05 OVMax= 1.79D-03

 Cycle   8  Pass 1  IDiag  1:
 E= -400.141830440421     Delta-E=       -0.000015938625 Rises=F Damp=F
 DIIS: error= 3.50D-05 at cycle   8 NSaved=   8.
 NSaved= 8 IEnMin= 8 EnMin= -400.141830440421     IErMin= 8 ErrMin= 3.50D-05
 ErrMax= 3.50D-05  0.00D+00 EMaxC= 1.00D-01 BMatC= 4.11D-07 BMatP= 1.56D-05
 IDIUse=1 WtCom= 1.00D+00 WtEn= 0.00D+00
 Coeff-Com: -0.379D-04-0.487D-03 0.134D-02 0.357D-02 0.193D-01 0.783D-01
 Coeff-Com:  0.178D+00 0.720D+00
 Coeff:     -0.379D-04-0.487D-03 0.134D-02 0.357D-02 0.193D-01 0.783D-01
 Coeff:      0.178D+00 0.720D+00
 Gap=     0.156 Goal=   None    Shift=    0.000
 RMSDP=1.81D-06 MaxDP=1.03D-04 DE=-1.59D-05 OVMax= 3.11D-04

 Cycle   9  Pass 1  IDiag  1:
 E= -400.141830754786     Delta-E=       -0.000000314365 Rises=F Damp=F
 DIIS: error= 1.91D-05 at cycle   9 NSaved=   9.
 NSaved= 9 IEnMin= 9 EnMin= -400.141830754786     IErMin= 9 ErrMin= 1.91D-05
 ErrMax= 1.91D-05  0.00D+00 EMaxC= 1.00D-01 BMatC= 6.05D-08 BMatP= 4.11D-07
 IDIUse=1 WtCom= 1.00D+00 WtEn= 0.00D+00
 Coeff-Com:  0.282D-04-0.157D-03-0.127D-03 0.504D-05 0.501D-02 0.277D-01
 Coeff-Com:  0.757D-01 0.382D+00 0.510D+00
 Coeff:      0.282D-04-0.157D-03-0.127D-03 0.504D-05 0.501D-02 0.277D-01
 Coeff:      0.757D-01 0.382D+00 0.510D+00
 Gap=     0.156 Goal=   None    Shift=    0.000
 RMSDP=6.78D-07 MaxDP=3.65D-05 DE=-3.14D-07 OVMax= 1.52D-04

 Cycle  10  Pass 1  IDiag  1:
 E= -400.141830809431     Delta-E=       -0.000000054646 Rises=F Damp=F
 DIIS: error= 6.36D-06 at cycle  10 NSaved=  10.
 NSaved=10 IEnMin=10 EnMin= -400.141830809431     IErMin=10 ErrMin= 6.36D-06
 ErrMax= 6.36D-06  0.00D+00 EMaxC= 1.00D-01 BMatC= 4.68D-09 BMatP= 6.05D-08
 IDIUse=1 WtCom= 1.00D+00 WtEn= 0.00D+00
 Coeff-Com:  0.145D-04-0.265D-04-0.221D-03-0.405D-03 0.760D-03 0.686D-02
 Coeff-Com:  0.224D-01 0.125D+00 0.273D+00 0.572D+00
 Coeff:      0.145D-04-0.265D-04-0.221D-03-0.405D-03 0.760D-03 0.686D-02
 Coeff:      0.224D-01 0.125D+00 0.273D+00 0.572D+00
 Gap=     0.156 Goal=   None    Shift=    0.000
 RMSDP=1.96D-07 MaxDP=1.12D-05 DE=-5.46D-08 OVMax= 4.50D-05

 Cycle  11  Pass 1  IDiag  1:
 E= -400.141830813313     Delta-E=       -0.000000003881 Rises=F Damp=F
 DIIS: error= 2.59D-06 at cycle  11 NSaved=  11.
 NSaved=11 IEnMin=11 EnMin= -400.141830813313     IErMin=11 ErrMin= 2.59D-06
 ErrMax= 2.59D-06  0.00D+00 EMaxC= 1.00D-01 BMatC= 1.00D-09 BMatP= 4.68D-09
 IDIUse=1 WtCom= 1.00D+00 WtEn= 0.00D+00
 Coeff-Com:  0.466D-05 0.431D-05-0.148D-03-0.303D-03-0.100D-03 0.144D-02
 Coeff-Com:  0.631D-02 0.400D-01 0.132D+00 0.376D+00 0.445D+00
 Coeff:      0.466D-05 0.431D-05-0.148D-03-0.303D-03-0.100D-03 0.144D-02
 Coeff:      0.631D-02 0.400D-01 0.132D+00 0.376D+00 0.445D+00
 Gap=     0.156 Goal=   None    Shift=    0.000
 RMSDP=7.73D-08 MaxDP=5.00D-06 DE=-3.88D-09 OVMax= 1.71D-05

 Cycle  12  Pass 1  IDiag  1:
 E= -400.141830814277     Delta-E=       -0.000000000964 Rises=F Damp=F
 DIIS: error= 4.36D-07 at cycle  12 NSaved=  12.
 NSaved=12 IEnMin=12 EnMin= -400.141830814277     IErMin=12 ErrMin= 4.36D-07
 ErrMax= 4.36D-07  0.00D+00 EMaxC= 1.00D-01 BMatC= 3.03D-11 BMatP= 1.00D-09
 IDIUse=1 WtCom= 1.00D+00 WtEn= 0.00D+00
 Coeff-Com: -0.196D-05 0.719D-05-0.255D-04-0.490D-04-0.986D-04-0.132D-03
 Coeff-Com: -0.284D-03 0.289D-03 0.189D-01 0.595D-01 0.159D+00 0.763D+00
 Coeff:     -0.196D-05 0.719D-05-0.255D-04-0.490D-04-0.986D-04-0.132D-03
 Coeff:     -0.284D-03 0.289D-03 0.189D-01 0.595D-01 0.159D+00 0.763D+00
 Gap=     0.156 Goal=   None    Shift=    0.000
 RMSDP=1.53D-08 MaxDP=8.27D-07 DE=-9.64D-10 OVMax= 3.18D-06

 Cycle  13  Pass 1  IDiag  1:
 E= -400.141830814300     Delta-E=       -0.000000000024 Rises=F Damp=F
 DIIS: error= 1.70D-07 at cycle  13 NSaved=  13.
 NSaved=13 IEnMin=13 EnMin= -400.141830814300     IErMin=13 ErrMin= 1.70D-07
 ErrMax= 1.70D-07  0.00D+00 EMaxC= 1.00D-01 BMatC= 4.44D-12 BMatP= 3.03D-11
 IDIUse=1 WtCom= 1.00D+00 WtEn= 0.00D+00
 Coeff-Com: -0.161D-05 0.396D-05-0.794D-05-0.132D-04-0.504D-04-0.136D-03
 Coeff-Com: -0.465D-03-0.172D-02 0.507D-02 0.147D-01 0.690D-01 0.445D+00
 Coeff-Com:  0.469D+00
 Coeff:     -0.161D-05 0.396D-05-0.794D-05-0.132D-04-0.504D-04-0.136D-03
 Coeff:     -0.465D-03-0.172D-02 0.507D-02 0.147D-01 0.690D-01 0.445D+00
 Coeff:      0.469D+00
 Gap=     0.156 Goal=   None    Shift=    0.000
 RMSDP=4.41D-09 MaxDP=2.90D-07 DE=-2.38D-11 OVMax= 5.77D-07

 SCF Done:  E(RTPSSh) =  -400.141830814     A.U. after   13 cycles
            NFock= 13  Conv=0.44D-08     -V/T= 2.0040
 KE= 3.985440533546D+02 PE=-1.649602128002D+03 EE= 4.940623423429D+02
 Leave Link  502 at Thu Sep  2 22:21:51 2021, MaxMem=  1342177280 cpu:       835.8
 (Enter /gpfs/share/home/1801110325/software/g09e01/l601.exe)
 Copying SCF densities to generalized density rwf, IOpCl= 0 IROHF=0.

 **********************************************************************

            Population analysis using the SCF density.

 **********************************************************************

 Orbital symmetries:
       Occupied  (A) (A) (A) (A) (A) (A) (A) (A) (A) (A) (A) (A)
                 (A) (A) (A) (A) (A) (A) (A) (A) (A) (A) (A) (A)
                 (A) (A) (A) (A) (A) (A)
       Virtual   (A) (A) (A) (A) (A) (A) (A) (A) (A) (A) (A) (A)
                 (A) (A) (A) (A) (A) (A) (A) (A) (A) (A) (A) (A)
                 (A) (A) (A) (A) (A) (A) (A) (A) (A) (A) (A) (A)
                 (A) (A) (A) (A) (A) (A) (A) (A) (A) (A) (A) (A)
                 (A) (A) (A) (A) (A) (A) (A) (A) (A) (A) (A) (A)
                 (A) (A) (A) (A) (A) (A) (A) (A) (A) (A) (A) (A)
                 (A) (A) (A) (A) (A) (A) (A) (A) (A) (A) (A) (A)
                 (A) (A) (A) (A) (A) (A) (A) (A) (A) (A) (A) (A)
                 (A) (A) (A) (A) (A) (A) (A) (A) (A) (A) (A) (A)
                 (A) (A) (A) (A) (A) (A) (A) (A) (A) (A) (A) (A)
                 (A) (A) (A) (A) (A) (A) (A) (A) (A) (A) (A) (A)
                 (A) (A) (A) (A) (A) (A) (A) (A) (A) (A) (A) (A)
                 (A) (A) (A) (A) (A) (A) (A) (A) (A) (A) (A) (A)
                 (A) (A) (A) (A) (A) (A) (A) (A) (A) (A) (A) (A)
                 (A) (A) (A) (A) (A) (A) (A) (A) (A) (A) (A) (A)
                 (A) (A) (A) (A) (A) (A) (A) (A) (A) (A) (A) (A)
                 (A) (A) (A) (A) (A) (A) (A) (A) (A) (A) (A) (A)
                 (A) (A) (A) (A) (A) (A) (A) (A) (A) (A) (A) (A)
                 (A) (A) (A) (A) (A) (A) (A) (A) (A) (A) (A) (A)
                 (A) (A) (A) (A) (A) (A) (A) (A) (A) (A) (A) (A)
                 (A) (A) (A) (A) (A) (A) (A) (A) (A) (A) (A) (A)
                 (A) (A) (A) (A) (A) (A) (A) (A) (A) (A) (A) (A)
                 (A) (A) (A) (A) (A) (A) (A) (A) (A) (A) (A) (A)
                 (A) (A) (A) (A) (A) (A) (A) (A) (A) (A) (A) (A)
                 (A) (A) (A) (A) (A) (A) (A) (A) (A) (A) (A) (A)
                 (A) (A) (A) (A) (A) (A) (A) (A)
 The electronic state is 1-A.
 Alpha  occ. eigenvalues --  -19.03943 -19.01691 -14.30796 -10.21640 -10.18068
 Alpha  occ. eigenvalues --  -10.14546 -10.12941 -10.12653  -1.01926  -0.97488
 Alpha  occ. eigenvalues --   -0.94169  -0.80784  -0.74683  -0.64351  -0.62492
 Alpha  occ. eigenvalues --   -0.55068  -0.50897  -0.49321  -0.47164  -0.45352
 Alpha  occ. eigenvalues --   -0.43135  -0.41999  -0.37982  -0.37096  -0.35520
 Alpha  occ. eigenvalues --   -0.33849  -0.30427  -0.28698  -0.24952  -0.22077
 Alpha virt. eigenvalues --   -0.06493  -0.01560   0.01073   0.02694   0.03833
 Alpha virt. eigenvalues --    0.05528   0.07636   0.10082   0.10551   0.11863
 Alpha virt. eigenvalues --    0.13735   0.14920   0.16103   0.17673   0.18346
 Alpha virt. eigenvalues --    0.18841   0.20186   0.20714   0.21840   0.24412
 Alpha virt. eigenvalues --    0.25931   0.26189   0.26968   0.27352   0.27922
 Alpha virt. eigenvalues --    0.29400   0.29832   0.30809   0.32782   0.33284
 Alpha virt. eigenvalues --    0.34245   0.34788   0.36499   0.38505   0.39307
 Alpha virt. eigenvalues --    0.41070   0.41984   0.44222   0.45359   0.48047
 Alpha virt. eigenvalues --    0.49126   0.50777   0.52191   0.53843   0.55519
 Alpha virt. eigenvalues --    0.56162   0.59458   0.61342   0.62155   0.62708
 Alpha virt. eigenvalues --    0.65618   0.67151   0.70667   0.73534   0.74512
 Alpha virt. eigenvalues --    0.75154   0.76877   0.79717   0.81093   0.83425
 Alpha virt. eigenvalues --    0.86008   0.88355   0.90586   0.91410   0.91938
 Alpha virt. eigenvalues --    0.93996   0.96879   0.98659   1.00634   1.03608
 Alpha virt. eigenvalues --    1.05228   1.07224   1.09146   1.09865   1.11990
 Alpha virt. eigenvalues --    1.13012   1.14740   1.16319   1.17049   1.17515
 Alpha virt. eigenvalues --    1.19699   1.21781   1.23255   1.24258   1.24773
 Alpha virt. eigenvalues --    1.26267   1.27462   1.31496   1.33141   1.37464
 Alpha virt. eigenvalues --    1.39229   1.39937   1.41184   1.43886   1.44900
 Alpha virt. eigenvalues --    1.46814   1.47450   1.47877   1.49752   1.52806
 Alpha virt. eigenvalues --    1.55784   1.57917   1.60530   1.64278   1.64758
 Alpha virt. eigenvalues --    1.65720   1.67775   1.68417   1.72285   1.72843
 Alpha virt. eigenvalues --    1.77819   1.78357   1.80856   1.85094   1.85719
 Alpha virt. eigenvalues --    1.87817   1.88467   1.90290   1.92714   1.96213
 Alpha virt. eigenvalues --    1.99952   2.00766   2.01953   2.05693   2.05930
 Alpha virt. eigenvalues --    2.09294   2.12006   2.14764   2.17952   2.21153
 Alpha virt. eigenvalues --    2.21460   2.21946   2.24441   2.27779   2.30592
 Alpha virt. eigenvalues --    2.33512   2.41548   2.49126   2.52380   2.63755
 Alpha virt. eigenvalues --    2.69885   2.86256   2.89835   2.92452   2.95787
 Alpha virt. eigenvalues --    2.95907   3.01948   3.18457   3.19095   3.21918
 Alpha virt. eigenvalues --    3.25269   3.26484   3.27019   3.30321   3.32971
 Alpha virt. eigenvalues --    3.34399   3.36531   3.39780   3.43920   3.44696
 Alpha virt. eigenvalues --    3.47869   3.49581   3.52432   3.56042   3.57474
 Alpha virt. eigenvalues --    3.58726   3.61835   3.64879   3.66726   3.69866
 Alpha virt. eigenvalues --    3.70954   3.71458   3.73523   3.74714   3.79183
 Alpha virt. eigenvalues --    3.82685   3.87123   3.90115   3.92833   3.93276
 Alpha virt. eigenvalues --    3.95343   3.97132   3.97688   3.99580   4.02096
 Alpha virt. eigenvalues --    4.05322   4.06984   4.08957   4.10083   4.10791
 Alpha virt. eigenvalues --    4.12711   4.13461   4.15970   4.17688   4.19835
 Alpha virt. eigenvalues --    4.20327   4.21104   4.23473   4.24443   4.26112
 Alpha virt. eigenvalues --    4.26863   4.28403   4.28740   4.30402   4.30715
 Alpha virt. eigenvalues --    4.32308   4.33975   4.36190   4.37516   4.38592
 Alpha virt. eigenvalues --    4.40274   4.43507   4.44709   4.45478   4.48104
 Alpha virt. eigenvalues --    4.49643   4.50122   4.51765   4.53343   4.54776
 Alpha virt. eigenvalues --    4.55207   4.57411   4.58622   4.60508   4.61979
 Alpha virt. eigenvalues --    4.64178   4.64918   4.68982   4.69476   4.69631
 Alpha virt. eigenvalues --    4.73803   4.75806   4.76146   4.82406   4.86386
 Alpha virt. eigenvalues --    4.87711   4.89508   4.91786   4.93314   4.96172
 Alpha virt. eigenvalues --    4.96750   4.99175   4.99817   5.01357   5.02649
 Alpha virt. eigenvalues --    5.07145   5.11047   5.13026   5.17667   5.22831
 Alpha virt. eigenvalues --    5.24014   5.30015   5.30476   5.35516   5.38446
 Alpha virt. eigenvalues --    5.39213   5.40789   5.42211   5.46214   5.48783
 Alpha virt. eigenvalues --    5.52341   5.52601   5.60675   5.62336   5.65750
 Alpha virt. eigenvalues --    5.66499   5.71401   5.74869   5.80532   5.81693
 Alpha virt. eigenvalues --    5.83383   5.86526   5.92605   5.98673   6.02180
 Alpha virt. eigenvalues --    6.02905   6.04717   6.10015   6.14393   6.15918
 Alpha virt. eigenvalues --    6.16694   6.17402   6.25634   6.29746   6.32825
 Alpha virt. eigenvalues --    6.35431   6.39104   6.42321   6.48190   6.54585
 Alpha virt. eigenvalues --    6.57349   6.58586   6.68357   6.83531   6.94499
 Alpha virt. eigenvalues --    6.99289   7.04465   7.17870   7.31984   7.48567
 Alpha virt. eigenvalues --    9.57668  12.38485  13.26430  14.80636  15.51323
 Alpha virt. eigenvalues --   18.08854  18.44180  22.87372
          Condensed to atoms (all electrons):
               1          2          3          4          5          6
     1  O    8.147136  -0.100973   0.526468  -0.059261   0.009348   0.006320
     2  N   -0.100973   6.382041   0.364496  -0.036121   0.397317  -0.020080
     3  C    0.526468   0.364496   4.318531   0.468417  -0.039109  -0.042118
     4  C   -0.059261  -0.036121   0.468417   4.871847  -0.034600   0.558570
     5  C    0.009348   0.397317  -0.039109  -0.034600   4.559473  -0.080602
     6  C    0.006320  -0.020080  -0.042118   0.558570  -0.080602   4.677052
     7  C    0.001748  -0.053206  -0.023371  -0.066244   0.619254   0.483561
     8  H    0.040945   0.002791  -0.004146   0.000798   0.002321  -0.000278
     9  H    0.007346   0.007349  -0.035561   0.431765  -0.000539  -0.030456
    10  H   -0.000813  -0.031441   0.001148  -0.002889   0.412555   0.006624
    11  H   -0.000609  -0.002384   0.006334  -0.025551   0.006875   0.411655
    12  H    0.000030   0.006614  -0.000613   0.004455  -0.024478  -0.026531
    13  O   -0.036347  -0.032097   0.001036   0.000073  -0.004810   0.000088
    14  H    0.003294   0.000478   0.000816   0.000113   0.000056  -0.000016
    15  H    0.002009   0.391695  -0.022999   0.006952  -0.020650  -0.002511
               7          8          9         10         11         12
     1  O    0.001748   0.040945   0.007346  -0.000813  -0.000609   0.000030
     2  N   -0.053206   0.002791   0.007349  -0.031441  -0.002384   0.006614
     3  C   -0.023371  -0.004146  -0.035561   0.001148   0.006334  -0.000613
     4  C   -0.066244   0.000798   0.431765  -0.002889  -0.025551   0.004455
     5  C    0.619254   0.002321  -0.000539   0.412555   0.006875  -0.024478
     6  C    0.483561  -0.000278  -0.030456   0.006624   0.411655  -0.026531
     7  C    4.807404  -0.000051   0.005893  -0.028930  -0.033249   0.425664
     8  H   -0.000051   0.398564   0.000189   0.000148   0.000003  -0.000016
     9  H    0.005893   0.000189   0.579469   0.000296  -0.007578  -0.000434
    10  H   -0.028930   0.000148   0.000296   0.585764  -0.000761  -0.003109
    11  H   -0.033249   0.000003  -0.007578  -0.000761   0.601493  -0.005099
    12  H    0.425664  -0.000016  -0.000434  -0.003109  -0.005099   0.589759
    13  O   -0.000089   0.336938   0.000037  -0.000817  -0.000004   0.000024
    14  H    0.000029  -0.019877  -0.000007  -0.000055   0.000001   0.000000
    15  H    0.004757  -0.010933  -0.000490  -0.007433   0.000198   0.000044
              13         14         15
     1  O   -0.036347   0.003294   0.002009
     2  N   -0.032097   0.000478   0.391695
     3  C    0.001036   0.000816  -0.022999
     4  C    0.000073   0.000113   0.006952
     5  C   -0.004810   0.000056  -0.020650
     6  C    0.000088  -0.000016  -0.002511
     7  C   -0.000089   0.000029   0.004757
     8  H    0.336938  -0.019877  -0.010933
     9  H    0.000037  -0.000007  -0.000490
    10  H   -0.000817  -0.000055  -0.007433
    11  H   -0.000004   0.000001   0.000198
    12  H    0.000024   0.000000   0.000044
    13  O    7.814904   0.351139   0.056174
    14  H    0.351139   0.450686  -0.003770
    15  H    0.056174  -0.003770   0.437600
 Mulliken charges:
               1
     1  O   -0.546640
     2  N   -0.276480
     3  C    0.480672
     4  C   -0.118325
     5  C    0.197591
     6  C    0.058722
     7  C   -0.143168
     8  H    0.252604
     9  H    0.042722
    10  H    0.069712
    11  H    0.048677
    12  H    0.033690
    13  O   -0.486249
    14  H    0.217112
    15  H    0.169357
 Sum of Mulliken charges =  -0.00000
 Mulliken charges with hydrogens summed into heavy atoms:
               1
     1  O   -0.546640
     2  N   -0.107122
     3  C    0.480672
     4  C   -0.075603
     5  C    0.267303
     6  C    0.107399
     7  C   -0.109477
    13  O   -0.016532
 Electronic spatial extent (au):  <R**2>=           1079.7721
 Charge=             -0.0000 electrons
 Dipole moment (field-independent basis, Debye):
    X=             -2.4321    Y=             -2.1622    Z=              1.1047  Tot=              3.4367
 Quadrupole moment (field-independent basis, Debye-Ang):
   XX=            -41.4430   YY=            -45.5258   ZZ=            -49.5339
   XY=             -2.0608   XZ=              4.7137   YZ=             -0.8719
 Traceless Quadrupole moment (field-independent basis, Debye-Ang):
   XX=              4.0579   YY=             -0.0249   ZZ=             -4.0330
   XY=             -2.0608   XZ=              4.7137   YZ=             -0.8719
 Octapole moment (field-independent basis, Debye-Ang**2):
  XXX=             23.4560  YYY=            -11.7218  ZZZ=              0.7265  XYY=             -6.4446
  XXY=              0.3161  XXZ=             18.5811  XZZ=             11.1551  YZZ=              0.6215
  YYZ=              0.5996  XYZ=             -3.2731
 Hexadecapole moment (field-independent basis, Debye-Ang**3):
 XXXX=           -766.1728 YYYY=           -348.7359 ZZZZ=            -53.0121 XXXY=             -4.5753
 XXXZ=             75.3247 YYYX=            -12.8332 YYYZ=             -0.8503 ZZZX=              3.5496
 ZZZY=             -0.5504 XXYY=           -218.6826 XXZZ=           -174.4108 YYZZ=            -76.7346
 XXYZ=            -12.6038 YYXZ=              2.7772 ZZXY=             -2.1766
 N-N= 3.568539014902D+02 E-N=-1.649602119398D+03  KE= 3.985440533546D+02
 No NMR shielding tensors so no spin-rotation constants.
 Leave Link  601 at Thu Sep  2 22:21:51 2021, MaxMem=  1342177280 cpu:         0.9
 (Enter /gpfs/share/home/1801110325/software/g09e01/l701.exe)
 Compute integral first derivatives.
 ... and contract with generalized density number  0.
 Leave Link  701 at Thu Sep  2 22:21:51 2021, MaxMem=  1342177280 cpu:         1.7
 (Enter /gpfs/share/home/1801110325/software/g09e01/l702.exe)
 L702 exits ... SP integral derivatives will be done elsewhere.
 Leave Link  702 at Thu Sep  2 22:21:51 2021, MaxMem=  1342177280 cpu:         0.1
 (Enter /gpfs/share/home/1801110325/software/g09e01/l703.exe)
 Compute integral first derivatives, UseDBF=F ICtDFT=           0.
 Integral derivatives from FoFJK, PRISM(SPDF).
 Calling FoFJK, ICntrl=      2127 FMM=F ISym2X=0 I1Cent= 0 IOpClX= 0 NMat=1 NMatS=1 NMatT=0.
 FoFJK:  IHMeth= 1 ICntrl=    2127 DoSepK=F KAlg= 0 I1Cent=   0 FoldK=F
 IRaf=         0 NMat=   1 IRICut=       1 DoRegI=T DoRafI=F ISym2E= 0.
 FoFCou: FMM=F IPFlag=           0 FMFlag=      100000 FMFlg1=         800
         NFxFlg=           0 DoJE=F BraDBF=F KetDBF=F FulRan=T
         wScrn=  0.000000 ICntrl=    2127 IOpCl=  0 I1Cent=           0 NGrid=           0
         NMat0=    1 NMatS0=      1 NMatT0=    0 NMatD0=    1 NMtDS0=    0 NMtDT0=    0
 Symmetry not used in FoFCou.
 Leave Link  703 at Thu Sep  2 22:22:20 2021, MaxMem=  1342177280 cpu:       172.0
 (Enter /gpfs/share/home/1801110325/software/g09e01/l716.exe)
 Dipole        =-9.56867995D-01-8.50676193D-01 4.34640014D-01
 ***** Axes restored to original set *****
 -------------------------------------------------------------------
 Center     Atomic                   Forces (Hartrees/Bohr)
 Number     Number              X              Y              Z
 -------------------------------------------------------------------
      1        8           0.004083986    0.001428578    0.000022398
      2        7          -0.001781482   -0.000254676   -0.000095629
      3        6          -0.002741334    0.000551538    0.000060353
      4        6           0.001815198   -0.000303925   -0.000007742
      5        6           0.000930561   -0.000915824    0.000057477
      6        6          -0.000949927   -0.001396855    0.000010555
      7        6          -0.001276863    0.001437922   -0.000031745
      8        1          -0.001311433    0.002463935    0.000367714
      9        1          -0.000021072    0.000827844   -0.000007771
     10        1           0.000479099   -0.000749261   -0.000008395
     11        1          -0.000888535    0.000331557   -0.000010147
     12        1          -0.000738625   -0.000597889   -0.000001762
     13        8          -0.001518799   -0.002788367   -0.001913806
     14        1           0.001082055    0.000451889    0.001473695
     15        1           0.002837170   -0.000486466    0.000084804
 -------------------------------------------------------------------
 Cartesian Forces:  Max     0.004083986 RMS     0.001318491
 Leave Link  716 at Thu Sep  2 22:22:20 2021, MaxMem=  1342177280 cpu:         0.1
 (Enter /gpfs/share/home/1801110325/software/g09e01/l103.exe)

 GradGradGradGradGradGradGradGradGradGradGradGradGradGradGradGradGradGrad
 Berny optimization.
 FormGI is forming the generalized inverse of G from B-inverse, IUseBI=4.
 Internal  Forces:  Max     0.003737526 RMS     0.000801368
 Search for a local minimum.
 Step number   1 out of a maximum of   83
 All quantities printed in internal units (Hartrees-Bohrs-Radians)
 RMS Force = .80137D-03 SwitMx=.10000D-02 MixMth= 2
 Mixed Optimization -- En-DIIS/RFO-DIIS
 Second derivative matrix not updated -- first step.
 ITU=  0
     Eigenvalues ---    0.00646   0.00900   0.01671   0.02019   0.02045
     Eigenvalues ---    0.02138   0.02190   0.02305   0.02392   0.02435
     Eigenvalues ---    0.02516   0.04986   0.06334   0.06909   0.09520
     Eigenvalues ---    0.16000   0.16000   0.16000   0.16000   0.19047
     Eigenvalues ---    0.20437   0.21968   0.22000   0.22256   0.23654
     Eigenvalues ---    0.35693   0.35983   0.36053   0.36229   0.38136
     Eigenvalues ---    0.40185   0.42590   0.44184   0.49041   0.49982
     Eigenvalues ---    0.52121   0.53321   0.55542   0.84771
 RFO step:  Lambda=-1.25476196D-04 EMin= 6.46442552D-03
 Linear search not attempted -- first point.
 Iteration  1 RMS(Cart)=  0.00375370 RMS(Int)=  0.00000897
 Iteration  2 RMS(Cart)=  0.00000985 RMS(Int)=  0.00000178
 Iteration  3 RMS(Cart)=  0.00000000 RMS(Int)=  0.00000178
 ITry= 1 IFail=0 DXMaxC= 1.50D-02 DCOld= 1.00D+10 DXMaxT= 3.00D-01 DXLimC= 3.00D+00 Rises=F
 Variable       Old X    -DE/DX   Delta X   Delta X   Delta X     New X
                                 (Linear)    (Quad)   (Total)
    R1        2.33752   0.00374   0.00000   0.00422   0.00422   2.34174
    R2        3.44231  -0.00084   0.00000  -0.01351  -0.01351   3.42879
    R3        2.63700   0.00165   0.00000   0.00338   0.00338   2.64037
    R4        2.56181   0.00076   0.00000   0.00143   0.00143   2.56324
    R5        1.92716   0.00200   0.00000   0.00444   0.00444   1.93160
    R6        2.72061  -0.00005   0.00000  -0.00024  -0.00024   2.72037
    R7        2.57451   0.00233   0.00000   0.00442   0.00442   2.57893
    R8        2.03999   0.00083   0.00000   0.00229   0.00229   2.04228
    R9        2.56943   0.00207   0.00000   0.00398   0.00398   2.57341
   R10        2.04108   0.00082   0.00000   0.00229   0.00229   2.04337
   R11        2.67927   0.00011   0.00000   0.00033   0.00033   2.67960
   R12        2.04565   0.00095   0.00000   0.00265   0.00265   2.04830
   R13        2.03725   0.00095   0.00000   0.00262   0.00262   2.03987
   R14        1.85494   0.00216   0.00000   0.00433   0.00433   1.85927
   R15        1.81354   0.00178   0.00000   0.00320   0.00320   1.81674
   R16        3.72662  -0.00098   0.00000  -0.02168  -0.02168   3.70495
    A1        1.92766  -0.00051   0.00000  -0.00283  -0.00283   1.92483
    A2        2.17565   0.00051   0.00000   0.00229   0.00229   2.17794
    A3        2.00244  -0.00022   0.00000  -0.00118  -0.00118   2.00125
    A4        2.10509  -0.00030   0.00000  -0.00111  -0.00111   2.10399
    A5        2.09773  -0.00025   0.00000  -0.00098  -0.00099   2.09674
    A6        2.19333   0.00077   0.00000   0.00336   0.00336   2.19669
    A7        1.99213  -0.00052   0.00000  -0.00238  -0.00237   1.98975
    A8        2.11557   0.00040   0.00000   0.00151   0.00151   2.11708
    A9        2.03563  -0.00024   0.00000  -0.00098  -0.00098   2.03465
   A10        2.13199  -0.00017   0.00000  -0.00053  -0.00053   2.13146
   A11        2.10801  -0.00023   0.00000  -0.00091  -0.00091   2.10710
   A12        2.02357  -0.00023   0.00000  -0.00171  -0.00171   2.02186
   A13        2.15160   0.00046   0.00000   0.00262   0.00262   2.15422
   A14        2.11704   0.00004   0.00000   0.00019   0.00019   2.11722
   A15        2.08601   0.00005   0.00000   0.00033   0.00033   2.08634
   A16        2.08014  -0.00009   0.00000  -0.00052  -0.00052   2.07962
   A17        2.05796  -0.00021   0.00000  -0.00070  -0.00070   2.05726
   A18        2.10191   0.00006   0.00000   0.00007   0.00007   2.10199
   A19        2.12331   0.00015   0.00000   0.00062   0.00062   2.12393
   A20        2.65557   0.00020   0.00000   0.00146   0.00147   2.65704
   A21        1.86229  -0.00063   0.00000  -0.00634  -0.00634   1.85595
   A22        1.36782   0.00050   0.00000   0.00247   0.00247   1.37029
   A23        2.34644  -0.00030   0.00000  -0.00242  -0.00242   2.34402
   A24        2.50984   0.00027   0.00000   0.00101   0.00101   2.51086
    D1        0.03186  -0.00000   0.00000  -0.00007  -0.00007   0.03178
    D2       -3.10924  -0.00000   0.00000   0.00073   0.00073  -3.10851
    D3        0.03871   0.00002   0.00000  -0.00217  -0.00217   0.03654
    D4       -3.13629  -0.00003   0.00000   0.00009   0.00009  -3.13620
    D5        0.00485  -0.00003   0.00000  -0.00062  -0.00062   0.00424
    D6        0.00787  -0.00000   0.00000   0.00100   0.00100   0.00887
    D7       -3.13417  -0.00000   0.00000   0.00029   0.00029  -3.13388
    D8       -0.00292   0.00003   0.00000   0.00067   0.00067  -0.00225
    D9        3.13789   0.00001   0.00000   0.00019   0.00019   3.13809
   D10        3.13597   0.00000   0.00000  -0.00029  -0.00029   3.13568
   D11       -0.00641  -0.00001   0.00000  -0.00076  -0.00076  -0.00717
   D12       -0.10803  -0.00011   0.00000  -0.00209  -0.00209  -0.11012
   D13        3.03601  -0.00009   0.00000  -0.00123  -0.00123   3.03479
   D14        3.13723   0.00001   0.00000  -0.00043  -0.00043   3.13681
   D15       -0.00200   0.00001   0.00000  -0.00035  -0.00035  -0.00235
   D16       -0.00389   0.00001   0.00000   0.00033   0.00033  -0.00356
   D17        3.14007   0.00001   0.00000   0.00041   0.00041   3.14047
   D18        0.00117   0.00000   0.00000  -0.00010  -0.00011   0.00106
   D19       -3.13978   0.00000   0.00000   0.00007   0.00007  -3.13971
   D20        3.14027   0.00001   0.00000  -0.00018  -0.00019   3.14008
   D21       -0.00068   0.00000   0.00000  -0.00001  -0.00001  -0.00069
   D22       -0.00027  -0.00001   0.00000  -0.00039  -0.00038  -0.00066
   D23        3.14059  -0.00001   0.00000  -0.00025  -0.00025   3.14034
   D24       -3.14103   0.00001   0.00000   0.00013   0.00013  -3.14090
   D25       -0.00016   0.00001   0.00000   0.00026   0.00026   0.00010
   D26        0.00106  -0.00000   0.00000   0.00012   0.00012   0.00118
   D27       -3.13980  -0.00000   0.00000  -0.00001  -0.00001  -3.13981
   D28       -3.14118   0.00000   0.00000  -0.00005  -0.00005  -3.14123
   D29        0.00115  -0.00000   0.00000  -0.00018  -0.00018   0.00097
   D30       -2.40197   0.00013   0.00000   0.00342   0.00342  -2.39855
   D31       -0.07714  -0.00008   0.00000   0.00143   0.00144  -0.07570
   D32        0.12809   0.00012   0.00000   0.00088   0.00088   0.12897
   D33        1.90956  -0.00029   0.00000  -0.00562  -0.00562   1.90394
         Item               Value     Threshold  Converged?
 Maximum Force            0.003738     0.000450     NO 
 RMS     Force            0.000801     0.000300     NO 
 Maximum Displacement     0.014969     0.001800     NO 
 RMS     Displacement     0.003754     0.001200     NO 
 Predicted change in Energy=-6.279220D-05
 Lowest energy point so far.  Saving SCF results.
 GradGradGradGradGradGradGradGradGradGradGradGradGradGradGradGradGradGrad

 Leave Link  103 at Thu Sep  2 22:22:20 2021, MaxMem=  1342177280 cpu:         0.1
 (Enter /gpfs/share/home/1801110325/software/g09e01/l202.exe)
                          Input orientation:                          
 ---------------------------------------------------------------------
 Center     Atomic      Atomic             Coordinates (Angstroms)
 Number     Number       Type             X           Y           Z
 ---------------------------------------------------------------------
      1          8           0        1.267062    1.390055    0.004961
      2          7           0        0.250811   -0.657751    0.011172
      3          6           0        0.212709    0.738946    0.005989
      4          6           0       -1.117823    1.288476    0.000728
      5          6           0       -0.841637   -1.461728    0.006707
      6          6           0       -2.218251    0.481335   -0.003172
      7          6           0       -2.095878   -0.931357   -0.000915
      8          1           0        2.696119    0.273064   -0.043167
      9          1           0       -1.195752    2.366387   -0.002310
     10          1           0       -0.644472   -2.524906    0.008367
     11          1           0       -3.206875    0.925694   -0.008867
     12          1           0       -2.961978   -1.575616   -0.005613
     13          8           0        3.099439   -0.623278   -0.087083
     14          1           0        3.825518   -0.624297    0.543039
     15          1           0        1.190962   -1.058758    0.022100
 ---------------------------------------------------------------------
                    Distance matrix (angstroms):
                    1          2          3          4          5
     1  O    0.000000
     2  N    2.286113   0.000000
     3  C    1.239195   1.397226   0.000000
     4  C    2.387051   2.379301   1.439558   0.000000
     5  C    3.546728   1.356408   2.440207   2.764044   0.000000
     6  C    3.601838   2.719189   2.444588   1.364710   2.381314
     7  C    4.086362   2.362617   2.849479   2.425748   1.361790
     8  H    1.814439   2.617040   2.527210   3.947043   3.940522
     9  H    2.649288   3.352333   2.152300   1.080728   3.844469
    10  H    4.356706   2.070702   3.374536   3.842656   1.081307
    11  H    4.497992   3.803064   3.424712   2.120340   3.360710
    12  H    5.165278   3.341373   3.928863   3.406460   2.123433
    13  O    2.723892   2.850530   3.193357   4.631179   4.030369
    14  H    3.300430   3.614212   3.898620   5.328172   4.771926
    15  H    2.450055   1.022160   2.046699   3.292485   2.072217
                    6          7          8          9         10
     6  C    0.000000
     7  C    1.417984   0.000000
     8  H    4.918944   4.941220   0.000000
     9  H    2.144510   3.418383   4.419313   0.000000
    10  H    3.393287   2.155473   4.357848   4.922272   0.000000
    11  H    1.083912   2.164027   5.939061   2.473915   4.298004
    12  H    2.187277   1.079454   5.952570   4.319600   2.504433
    13  O    5.431854   5.205157   0.983882   5.233923   4.200258
    14  H    6.168298   5.954251   1.557060   5.869816   4.886614
    15  H    3.741024   3.289389   2.010847   4.174760   2.349169
                   11         12         13         14         15
    11  H    0.000000
    12  H    2.513271   0.000000
    13  O    6.494230   6.136315   0.000000
    14  H    7.222300   6.875764   0.961377   0.000000
    15  H    4.824933   4.185072   1.960573   2.720481   0.000000
 Stoichiometry    C5H7NO2
 Framework group  C1[X(C5H7NO2)]
 Deg. of freedom    39
 Full point group                 C1      NOp   1
 RotChk:  IX=0 Diff= 6.39D-04
 Largest Abelian subgroup         C1      NOp   1
 Largest concise Abelian subgroup C1      NOp   1
                         Standard orientation:                         
 ---------------------------------------------------------------------
 Center     Atomic      Atomic             Coordinates (Angstroms)
 Number     Number       Type             X           Y           Z
 ---------------------------------------------------------------------
      1          8           0        1.267185    1.389455    0.005207
      2          7           0        0.250114   -0.657943    0.011438
      3          6           0        0.212572    0.738769    0.006107
      4          6           0       -1.117739    1.288832    0.000547
      5          6           0       -0.842656   -1.461482    0.006853
      6          6           0       -2.218489    0.482131   -0.003474
      7          6           0       -2.096683   -0.930610   -0.001052
      8          1           0        2.695804    0.271887   -0.042548
      9          1           0       -1.195236    2.366773   -0.002613
     10          1           0       -0.645917   -2.524739    0.008655
     11          1           0       -3.206934    0.926885   -0.009393
     12          1           0       -2.963040   -1.574522   -0.005844
     13          8           0        3.098773   -0.624621   -0.086300
     14          1           0        3.824736   -0.625867    0.543956
     15          1           0        1.190102   -1.059325    0.022577
 ---------------------------------------------------------------------
 Rotational constants (GHZ):      4.0156005      1.3998277      1.0397315
 Leave Link  202 at Thu Sep  2 22:22:20 2021, MaxMem=  1342177280 cpu:         0.0
 (Enter /gpfs/share/home/1801110325/software/g09e01/l301.exe)
 Basis read from rwf:  (5D, 7F)
 No pseudopotential information found on rwf file.
 There are   385 symmetry adapted cartesian basis functions of A   symmetry.
 There are   338 symmetry adapted basis functions of A   symmetry.
   338 basis functions,   566 primitive gaussians,   385 cartesian basis functions
    30 alpha electrons       30 beta electrons
       nuclear repulsion energy       356.6954155861 Hartrees.
 IExCor= 2523 DFT=T Ex+Corr=TPSSh ExCW=0 ScaHFX=  0.100000
 ScaDFX=  0.900000  0.900000  1.000000  1.000000 ScalE2=  1.000000  1.000000
 IRadAn=      0 IRanWt=     -1 IRanGd=            0 ICorTp=0 IEmpDi=  4
 NAtoms=   15 NActive=   15 NUniq=   15 SFac= 1.00D+00 NAtFMM=   60 NAOKFM=F Big=F
 Integral buffers will be    131072 words long.
 Raffenetti 2 integral format.
 Two-electron integral symmetry is turned on.
 No density basis found on file   724.
 Leave Link  301 at Thu Sep  2 22:22:20 2021, MaxMem=  1342177280 cpu:         0.3
 (Enter /gpfs/share/home/1801110325/software/g09e01/l302.exe)
 NPDir=0 NMtPBC=     1 NCelOv=     1 NCel=       1 NClECP=     1 NCelD=      1
         NCelK=      1 NCelE2=     1 NClLst=     1 CellRange=     0.0.
 One-electron integrals computed using PRISM.
 NBasis=   338 RedAO= T EigKep=  1.58D-04  NBF=   338
 NBsUse=   338 1.00D-06 EigRej= -1.00D+00 NBFU=   338
 Precomputing XC quadrature grid using
 IXCGrd= 4 IRadAn=           0 IRanWt=          -1 IRanGd=           0 AccXCQ= 0.00D+00.
 Generated NRdTot=       0 NPtTot=           0 NUsed=           0 NTot=          32
 NSgBfM=   385   385   385   385   385 MxSgAt=    15 MxSgA2=    15.
 Leave Link  302 at Thu Sep  2 22:22:20 2021, MaxMem=  1342177280 cpu:         1.4
 (Enter /gpfs/share/home/1801110325/software/g09e01/l303.exe)
 DipDrv:  MaxL=1.
 Leave Link  303 at Thu Sep  2 22:22:20 2021, MaxMem=  1342177280 cpu:         0.2
 (Enter /gpfs/share/home/1801110325/software/g09e01/l401.exe)
 Initial guess from the checkpoint file:  "PY_H2O_TPSSh_PC2_OPT_FREQ.chk"
 B after Tr=     0.000000    0.000000    0.000000
         Rot=    1.000000    0.000038   -0.000007    0.000431 Ang=   0.05 deg.
 Guess basis will be translated and rotated to current coordinates.
 JPrj=2 DoOrth=T DoCkMO=T.
 Leave Link  401 at Thu Sep  2 22:22:20 2021, MaxMem=  1342177280 cpu:         1.1
 (Enter /gpfs/share/home/1801110325/software/g09e01/l502.exe)
 Closed shell SCF:
 Using DIIS extrapolation, IDIIS=  1040.
 Integral symmetry usage will be decided dynamically.
 IVT=      468335 IEndB=      468335 NGot=  1342177280 MDV=  1341874196
 LenX=  1341874196 LenY=  1341725530
 Requested convergence on RMS density matrix=1.00D-08 within 128 cycles.
 Requested convergence on MAX density matrix=1.00D-06.
 Requested convergence on             energy=1.00D-06.
 No special actions if energy rises.

 Cycle   1  Pass 1  IDiag  1:
 FoFJK:  IHMeth= 1 ICntrl=       0 DoSepK=F KAlg= 0 I1Cent=   0 FoldK=F
 IRaf= 940000000 NMat=   1 IRICut=       1 DoRegI=T DoRafI=F ISym2E= 0.
 FoFCou: FMM=F IPFlag=           0 FMFlag=      100000 FMFlg1=           0
         NFxFlg=           0 DoJE=F BraDBF=F KetDBF=F FulRan=T
         wScrn=  0.000000 ICntrl=       0 IOpCl=  0 I1Cent=           0 NGrid=           0
         NMat0=    1 NMatS0=      1 NMatT0=    0 NMatD0=    1 NMtDS0=    0 NMtDT0=    0
 Symmetry not used in FoFCou.
 E= -400.141890802933    
 DIIS: error= 1.73D-04 at cycle   1 NSaved=   1.
 NSaved= 1 IEnMin= 1 EnMin= -400.141890802933     IErMin= 1 ErrMin= 1.73D-04
 ErrMax= 1.73D-04  0.00D+00 EMaxC= 1.00D-01 BMatC= 2.36D-05 BMatP= 2.36D-05
 IDIUse=3 WtCom= 9.98D-01 WtEn= 1.73D-03
 Coeff-Com:  0.100D+01
 Coeff-En:   0.100D+01
 Coeff:      0.100D+01
 Gap=     0.550 Goal=   None    Shift=    0.000
 RMSDP=1.94D-05 MaxDP=5.73D-04              OVMax= 2.97D-03

 Cycle   2  Pass 1  IDiag  1:
 E= -400.141912279936     Delta-E=       -0.000021477003 Rises=F Damp=F
 DIIS: error= 1.25D-04 at cycle   2 NSaved=   2.
 NSaved= 2 IEnMin= 2 EnMin= -400.141912279936     IErMin= 2 ErrMin= 1.25D-04
 ErrMax= 1.25D-04  0.00D+00 EMaxC= 1.00D-01 BMatC= 5.15D-06 BMatP= 2.36D-05
 IDIUse=3 WtCom= 9.99D-01 WtEn= 1.25D-03
 Coeff-Com:  0.222D+00 0.778D+00
 Coeff-En:   0.000D+00 0.100D+01
 Coeff:      0.222D+00 0.778D+00
 Gap=     0.155 Goal=   None    Shift=    0.000
 RMSDP=1.15D-05 MaxDP=6.10D-04 DE=-2.15D-05 OVMax= 2.57D-03

 Cycle   3  Pass 1  IDiag  1:
 E= -400.141906836395     Delta-E=        0.000005443541 Rises=F Damp=F
 DIIS: error= 1.88D-04 at cycle   3 NSaved=   3.
 NSaved= 3 IEnMin= 2 EnMin= -400.141912279936     IErMin= 2 ErrMin= 1.25D-04
 ErrMax= 1.88D-04  0.00D+00 EMaxC= 1.00D-01 BMatC= 1.12D-05 BMatP= 5.15D-06
 IDIUse=3 WtCom= 4.22D-01 WtEn= 5.78D-01
 Coeff-Com:  0.344D-01 0.586D+00 0.380D+00
 Coeff-En:   0.000D+00 0.645D+00 0.355D+00
 Coeff:      0.145D-01 0.620D+00 0.366D+00
 Gap=     0.155 Goal=   None    Shift=    0.000
 RMSDP=7.16D-06 MaxDP=4.05D-04 DE= 5.44D-06 OVMax= 1.70D-03

 Cycle   4  Pass 1  IDiag  1:
 E= -400.141916698533     Delta-E=       -0.000009862138 Rises=F Damp=F
 DIIS: error= 3.48D-05 at cycle   4 NSaved=   4.
 NSaved= 4 IEnMin= 4 EnMin= -400.141916698533     IErMin= 4 ErrMin= 3.48D-05
 ErrMax= 3.48D-05  0.00D+00 EMaxC= 1.00D-01 BMatC= 3.49D-07 BMatP= 5.15D-06
 IDIUse=1 WtCom= 1.00D+00 WtEn= 0.00D+00
 Coeff-Com: -0.349D-02 0.292D+00 0.188D+00 0.524D+00
 Coeff:     -0.349D-02 0.292D+00 0.188D+00 0.524D+00
 Gap=     0.155 Goal=   None    Shift=    0.000
 RMSDP=1.52D-06 MaxDP=7.93D-05 DE=-9.86D-06 OVMax= 1.19D-04

 Cycle   5  Pass 1  IDiag  1:
 E= -400.141916934318     Delta-E=       -0.000000235785 Rises=F Damp=F
 DIIS: error= 1.12D-05 at cycle   5 NSaved=   5.
 NSaved= 5 IEnMin= 5 EnMin= -400.141916934318     IErMin= 5 ErrMin= 1.12D-05
 ErrMax= 1.12D-05  0.00D+00 EMaxC= 1.00D-01 BMatC= 3.86D-08 BMatP= 3.49D-07
 IDIUse=1 WtCom= 1.00D+00 WtEn= 0.00D+00
 Coeff-Com: -0.421D-02 0.104D+00 0.672D-01 0.300D+00 0.533D+00
 Coeff:     -0.421D-02 0.104D+00 0.672D-01 0.300D+00 0.533D+00
 Gap=     0.155 Goal=   None    Shift=    0.000
 RMSDP=4.67D-07 MaxDP=2.53D-05 DE=-2.36D-07 OVMax= 6.93D-05

 Cycle   6  Pass 1  IDiag  1:
 E= -400.141916959919     Delta-E=       -0.000000025600 Rises=F Damp=F
 DIIS: error= 3.17D-06 at cycle   6 NSaved=   6.
 NSaved= 6 IEnMin= 6 EnMin= -400.141916959919     IErMin= 6 ErrMin= 3.17D-06
 ErrMax= 3.17D-06  0.00D+00 EMaxC= 1.00D-01 BMatC= 3.44D-09 BMatP= 3.86D-08
 IDIUse=1 WtCom= 1.00D+00 WtEn= 0.00D+00
 Coeff-Com: -0.196D-02 0.382D-01 0.261D-01 0.135D+00 0.312D+00 0.491D+00
 Coeff:     -0.196D-02 0.382D-01 0.261D-01 0.135D+00 0.312D+00 0.491D+00
 Gap=     0.155 Goal=   None    Shift=    0.000
 RMSDP=1.72D-07 MaxDP=8.93D-06 DE=-2.56D-08 OVMax= 3.81D-05

 Cycle   7  Pass 1  IDiag  1:
 E= -400.141916963037     Delta-E=       -0.000000003119 Rises=F Damp=F
[...]
    A5        2.09351   0.00001   0.00000   0.00013   0.00013   2.09365
    A6        2.19788  -0.00002   0.00000  -0.00020  -0.00020   2.19767
    A7        1.99179   0.00001   0.00000   0.00007   0.00007   1.99186
    A8        2.11533   0.00000   0.00000   0.00002   0.00002   2.11535
    A9        2.03783  -0.00002   0.00000  -0.00020  -0.00020   2.03764
   A10        2.13001   0.00001   0.00000   0.00017   0.00017   2.13019
   A11        2.10663   0.00000   0.00000   0.00004   0.00004   2.10667
   A12        2.02188  -0.00000   0.00000  -0.00004  -0.00004   2.02184
   A13        2.15467   0.00000   0.00000   0.00000   0.00000   2.15467
   A14        2.11811  -0.00001   0.00000  -0.00008  -0.00008   2.11803
   A15        2.08485   0.00001   0.00000   0.00014   0.00014   2.08499
   A16        2.08022  -0.00000   0.00000  -0.00005  -0.00005   2.08017
   A17        2.05688   0.00001   0.00000   0.00004   0.00004   2.05692
   A18        2.10183  -0.00000   0.00000   0.00001   0.00001   2.10183
   A19        2.12448  -0.00000   0.00000  -0.00005  -0.00005   2.12443
   A20        2.67508  -0.00004   0.00000  -0.00096  -0.00096   2.67412
   A21        1.85269  -0.00001   0.00000  -0.00011  -0.00011   1.85259
   A22        1.36989   0.00003   0.00000   0.00098   0.00098   1.37087
   A23        2.26947  -0.00000   0.00000  -0.00038  -0.00038   2.26909
   A24        2.52234  -0.00002   0.00000  -0.00046  -0.00046   2.52188
    D1        0.03462   0.00000   0.00000   0.00027   0.00027   0.03489
    D2       -3.10577   0.00000   0.00000   0.00026   0.00026  -3.10551
    D3        0.01976  -0.00001   0.00000  -0.00410  -0.00410   0.01566
    D4       -3.13567   0.00000   0.00000  -0.00004  -0.00004  -3.13571
    D5        0.00486  -0.00000   0.00000  -0.00004  -0.00004   0.00482
    D6        0.00946   0.00000   0.00000   0.00012   0.00012   0.00958
    D7       -3.13320   0.00000   0.00000   0.00013   0.00013  -3.13307
    D8       -0.00262  -0.00000   0.00000   0.00000   0.00000  -0.00262
    D9        3.13743   0.00000   0.00000   0.00005   0.00005   3.13748
   D10        3.13521  -0.00000   0.00000  -0.00017  -0.00017   3.13503
   D11       -0.00792  -0.00000   0.00000  -0.00012  -0.00012  -0.00805
   D12       -0.11557   0.00000   0.00000   0.00077   0.00077  -0.11480
   D13        3.02941   0.00000   0.00000   0.00093   0.00093   3.03034
   D14        3.13644  -0.00000   0.00000   0.00002   0.00002   3.13646
   D15       -0.00244  -0.00000   0.00000  -0.00001  -0.00001  -0.00245
   D16       -0.00401   0.00000   0.00000   0.00001   0.00001  -0.00399
   D17        3.14030  -0.00000   0.00000  -0.00002  -0.00002   3.14028
   D18        0.00113   0.00000   0.00000   0.00004   0.00004   0.00117
   D19       -3.13942  -0.00000   0.00000  -0.00004  -0.00004  -3.13946
   D20        3.13987   0.00000   0.00000   0.00007   0.00007   3.13994
   D21       -0.00069  -0.00000   0.00000  -0.00001  -0.00001  -0.00070
   D22       -0.00072   0.00000   0.00000   0.00006   0.00006  -0.00066
   D23        3.14022   0.00000   0.00000   0.00004   0.00004   3.14026
   D24       -3.14065   0.00000   0.00000   0.00000   0.00000  -3.14065
   D25        0.00028  -0.00000   0.00000  -0.00001  -0.00001   0.00027
   D26        0.00138  -0.00000   0.00000  -0.00008  -0.00008   0.00130
   D27       -3.13954  -0.00000   0.00000  -0.00006  -0.00006  -3.13961
   D28       -3.14125   0.00000   0.00000   0.00001   0.00001  -3.14125
   D29        0.00101   0.00000   0.00000   0.00002   0.00002   0.00103
   D30       -2.30841   0.00000   0.00000   0.00411   0.00411  -2.30431
   D31       -0.06326   0.00001   0.00000   0.00392   0.00392  -0.05934
   D32        0.12847  -0.00000   0.00000  -0.00208  -0.00209   0.12639
   D33        1.90030   0.00000   0.00000  -0.00141  -0.00141   1.89889
         Item               Value     Threshold  Converged?
 Maximum Force            0.000036     0.000450     YES
 RMS     Force            0.000011     0.000300     YES
 Maximum Displacement     0.002005     0.001800     NO 
 RMS     Displacement     0.000486     0.001200     YES
 Predicted change in Energy=-1.103890D-07
 GradGradGradGradGradGradGradGradGradGradGradGradGradGradGradGradGradGrad

 Leave Link  103 at Thu Sep  2 22:54:01 2021, MaxMem=  1342177280 cpu:         0.1
 (Enter /gpfs/share/home/1801110325/software/g09e01/l9999.exe)
 1\1\GINC-A8U03N01\Freq\RTPSSh\Gen\C5H7N1O2\1801110325\02-Sep-2021\0\\#
 P Geom=AllCheck Guess=TCheck SCRF=Check GenChk RTPSSh/ChkBas Freq\\PY_
 H2O_TPSSh_PC2_OPT_FREQ\\0,1\O,1.2773762117,1.394803351,-0.0028412727\N
 ,0.2639325241,-0.6538568467,0.0066983246\C,0.2212123889,0.7424650598,0
 .0019293607\C,-1.1079793704,1.2894778024,0.0017647011\C,-0.8249323746,
 -1.460195578,0.0054901002\C,-2.206676989,0.4785211371,0.0013101947\C,-
 2.0814262924,-0.932583594,0.0023504542\H,2.6574253156,0.2751699242,-0.
 0603012012\H,-1.1907097662,2.3670343403,-0.0006004578\H,-0.6246220043,
 -2.5227810037,0.0056643937\H,-3.1959300296,0.9213575892,-0.0008536157\
 H,-2.9457955088,-1.579128781,0.0001174325\O,3.0621832468,-0.6252546139
 ,-0.1007997505\H,3.7441476348,-0.6428162579,0.5773321611\H,1.211748013
 5,-1.0459465288,0.0146731752\\Version=EM64L-G09RevE.01\State=1-A\HF=-4
 00.1420348\RMSD=2.337e-09\RMSF=2.308e-05\ZeroPoint=0.1181922\Thermal=0
 .1261373\Dipole=-0.9854908,-0.8634327,0.4666851\DipoleDeriv=-1.7298527
 ,-0.5325634,-0.0027265,-0.4143925,-0.7873023,-0.0008853,0.0003669,-0.0
 036183,-0.3825788,-0.8064593,0.2359531,-0.000336,-0.6026601,-0.4955807
 ,0.0011703,-0.0113825,0.0020364,-0.1584831,1.7313069,0.7582333,0.00066
 42,0.7797652,0.8157637,-0.0012308,-0.0067514,-0.0068722,0.2203883,-0.6
 499526,-0.4305463,-0.0009051,0.0765582,0.0178722,-0.0009311,0.0043214,
 -0.0008723,-0.1664977,0.671925,-0.3245246,0.0020761,0.2633286,0.116320
 5,0.0024111,-0.0008518,0.0020609,-0.0101614,0.2719056,0.0778925,0.0006
 677,0.1190786,0.5635153,-0.0003878,-0.0007205,-0.0010366,-0.073947,-0.
 238064,0.3438205,-0.0003303,0.0294714,-0.4311885,0.0010207,0.0030446,0
 .0016503,-0.1968629,0.7951956,-0.159384,-0.0248633,-0.4576714,0.347923
 4,-0.0426654,-0.0365886,-0.0314086,0.2212262,0.0597987,-0.0067,-0.0002
 426,0.0110867,-0.0336707,0.0002793,0.0004343,0.0006615,0.1454224,0.057
 9712,0.0235261,-0.0003604,0.0001893,-0.0407623,0.000487,-0.0011003,-0.
 0005563,0.1394267,-0.0688657,0.0650167,-0.0004058,0.0665319,0.0514316,
 0.000138,-0.0010729,0.0001561,0.1217983,-0.002319,-0.0620748,-0.000461
 1,-0.0640204,0.0072322,-0.0000809,-0.0006472,-0.0002484,0.1587409,-1.0
 734293,0.1185356,0.1029305,0.3142103,-0.5747991,0.0893436,0.1273237,0.
 0524748,-0.4600188,0.2559482,0.0007737,-0.0788808,-0.0502505,0.2737288
 ,-0.0500883,-0.0851258,-0.0207625,0.2141622,0.7248915,-0.1079584,0.003
 1733,-0.0712252,0.169516,0.0014195,0.00875,0.0063351,0.2273846\Polar=1
 02.3305591,5.7412247,85.050658,0.9507412,-0.3213943,44.0234256\PG=C01 
 [X(C5H7N1O2)]\NImag=0\\0.51617855,0.25441453,0.27610689,-0.00196551,-0
 .00159897,0.03663358,0.01293863,-0.06506010,0.00033703,0.83064985,-0.0
 4090669,-0.06452870,0.00035104,-0.00437847,0.63347161,0.00071388,0.000
 33510,0.01690405,0.00302860,-0.00205512,0.08605652,-0.44357885,-0.2008
 0110,0.00151439,-0.16679740,0.00973001,-0.00081183,0.83507678,-0.19511
 229,-0.21421207,0.00086682,0.05593752,-0.19226074,0.00013492,0.1114726
 9,0.58148556,0.00128705,0.00071532,-0.07007744,-0.00039079,0.00041201,
 -0.06081564,-0.00097999,-0.00123573,0.19380921,-0.07271361,-0.00474445
 ,0.00025983,0.02597424,0.04721664,0.00008563,-0.20432863,0.04452290,-0
 .00010069,0.65524188,-0.02966076,0.02045394,0.00013987,0.03773954,-0.0
 2319496,0.00018025,0.07374893,-0.14846255,-0.00003870,0.06819381,0.755
 90116,0.00023695,0.00032799,0.01947364,-0.00009564,0.00019256,0.005775
 23,-0.00003809,-0.00017631,-0.07530875,0.00007712,-0.00099192,0.115100
 78,-0.01376287,0.01341875,-0.00010386,-0.26638366,-0.06269263,-0.00033
 402,0.04795024,-0.07282454,0.00020443,-0.04870761,-0.00477213,-0.00007
 504,0.73022351,-0.00304420,-0.00153317,0.00004321,-0.11299302,-0.21140
 387,0.00028761,-0.01817326,-0.03981390,-0.00000035,-0.00454628,-0.0000
 3263,-0.00001103,-0.07065612,0.75213280,-0.00003277,0.00006660,0.00573
 926,-0.00039601,0.00008032,-0.04588877,0.00012053,0.00002767,-0.003404
 56,-0.00006781,0.00000621,-0.00021443,0.00142064,-0.00054321,0.1373617
 7,0.00285628,0.00515159,-0.00001228,-0.00734854,-0.00873966,0.00000227
 ,-0.04447648,-0.00893723,-0.00003204,-0.31329839,-0.15638575,-0.000087
 73,0.01321260,0.03557474,-0.00000785,0.75019753,0.02127266,-0.00398552
 ,-0.00002173,-0.03493032,-0.03792237,-0.00005319,-0.03036319,0.0558692
 1,-0.00008203,-0.11023465,-0.22799860,0.00018529,0.07371805,-0.0211513
 6,0.00014264,0.01098898,0.65437335,-0.00002944,0.00000494,0.00451243,0
 .00006199,0.00002434,-0.00506192,0.00001792,-0.00004241,-0.00065372,-0
 .00029585,-0.00002407,-0.05380709,-0.00007567,0.00011288,0.00687507,0.
 00088758,-0.00044842,0.14008017,0.00671019,-0.00607252,0.00001311,-0.0
 7571129,-0.03035193,-0.00025091,-0.02026565,0.03549166,-0.00005600,0.0
 3477654,-0.02580326,0.00007112,-0.35269078,0.12554344,-0.00075868,-0.1
 2289100,-0.01175376,-0.00011156,0.77111492,-0.01357422,0.00029703,-0.0
 0000059,0.00174978,0.04270388,-0.00005884,0.02561072,-0.02762254,0.000
 05204,-0.04884060,-0.03592094,-0.00005968,0.07947229,-0.16927865,0.000
 27750,0.04068694,-0.28723785,0.00019206,0.03220505,0.65185931,0.000039
 47,0.00002617,-0.00039600,-0.00018529,-0.00008522,0.01141574,-0.000072
 14,0.00004827,-0.00707343,0.00014419,-0.00003338,0.00664125,-0.0007795
 3,0.00039487,-0.06105179,-0.00018128,0.00001332,-0.05920222,0.00160601
 ,-0.00010328,0.11233057,0.01543358,-0.00340247,-0.00134573,-0.00210485
 ,0.00637749,-0.00042480,-0.02037933,-0.01215890,0.00027719,0.00509324,
 0.00164727,0.00017581,0.00030197,-0.00014292,-0.00003622,-0.00045530,-
 0.00254359,0.00001590,-0.00011556,0.00189491,0.00003176,0.09876396,-0.
 01745227,-0.01220914,0.00121509,0.00250271,-0.00451044,0.00041099,0.01
 207213,0.01881113,-0.00005029,-0.00627178,-0.00263427,-0.00017368,-0.0
 0222983,-0.00238942,-0.00001175,0.00055420,0.00380138,-0.00002400,0.00
 157225,-0.00243683,-0.00001752,-0.12599627,0.35033162,0.00001231,0.000
 02575,-0.00947931,-0.00076006,-0.00017478,-0.00078902,-0.00008577,-0.0
 0010153,0.00065797,0.00003390,-0.00000535,0.00121857,0.00010652,0.0002
 1579,-0.00023070,-0.00005917,-0.00010182,0.00016102,-0.00015462,0.0000
 5334,0.00010676,0.01701891,0.01451263,0.04324669,0.00215977,-0.0026034
 6,-0.00001390,-0.00640847,0.00384356,-0.00003172,0.00359898,0.03020973
 ,-0.00007217,-0.05935903,0.02427936,-0.00002690,-0.00222047,-0.0009593
 9,-0.00000288,0.00654731,-0.02752802,0.00006249,-0.00382903,-0.0025450
 4,-0.00000964,-0.00020764,0.00030502,-0.00001006,0.05744464,0.00019772
 ,0.00186878,-0.00000923,0.00262021,-0.00039593,0.00001746,-0.00397250,
 -0.00984305,0.00005348,0.02620883,-0.34147507,0.00062522,0.00072443,0.
 00096008,0.00000266,0.00355178,-0.01287608,0.00003853,-0.00358078,0.00
 116738,0.00001597,0.00006070,-0.00009777,0.00001040,-0.02554354,0.3608
 0680,0.00001202,-0.00002473,-0.00232367,-0.00001077,-0.00000500,0.0050
 9188,-0.00003477,0.00006295,0.00250690,-0.00001665,0.00071722,-0.03357
 595,0.00002100,0.00000549,-0.00070983,-0.00002523,-0.00004634,0.002427
 24,-0.00002623,0.00000636,0.00924051,-0.00001721,0.00000832,-0.0000308
 9,0.00007474,-0.00070877,0.02410455,-0.00100448,-0.00234251,0.00002084
 ,0.00533887,-0.03590012,0.00003217,-0.00389546,0.00192278,-0.00003251,
 -0.00005044,-0.00062221,0.00000093,-0.07216097,0.06050795,-0.00008331,
 -0.00599100,0.00110192,-0.00003584,0.00312242,0.02815992,-0.00000696,0
 .00039185,-0.00034110,0.00000948,0.00018224,0.00000803,0.00000153,0.07
 202578,-0.00073174,-0.00196943,0.00002191,0.00114343,-0.02092003,0.000
 00089,-0.00284319,0.00504538,-0.00005098,0.00028988,0.00057638,-0.0000
 0040,0.05402341,-0.32975519,0.00011646,0.00242751,0.00054460,0.0000042
 9,-0.00100425,-0.00522038,-0.00001569,0.00035062,-0.00024658,-0.000011
 59,0.00004171,-0.00008236,-0.00000020,-0.05378332,0.35114943,-0.000011
 85,-0.00001433,-0.00015165,0.00008539,0.00005856,0.00237808,0.00000241
 ,-0.00001208,0.00589433,-0.00000440,0.00000977,-0.00008836,-0.00014936
 ,-0.00005774,-0.03778588,-0.00005234,0.00002337,0.00793016,0.00003201,
 0.00008095,0.00622347,-0.00002572,0.00000481,-0.00003443,-0.00000186,-
 0.00000195,-0.00128721,0.00010067,-0.00008002,0.02475369,-0.00228472,0
 .00045509,0.00001775,0.00031832,-0.00033136,0.00000269,-0.00019205,-0.
 00444715,-0.00002738,-0.02009497,0.01269059,-0.00007316,0.00144517,0.0
 0042669,-0.00000768,-0.28722741,0.10252138,-0.00049736,0.00145552,-0.0
 0111829,-0.00001719,0.00031707,-0.00030396,-0.00001482,0.00126659,-0.0
 0021260,0.00001452,0.00001113,-0.00010457,0.00000190,0.30458950,-0.001
 02666,0.00064509,0.00000593,-0.00110573,0.00028548,-0.00000398,-0.0029
 4261,-0.00293045,0.00001334,-0.01885328,0.01209676,-0.00004205,-0.0002
 4446,-0.00694632,0.00000687,0.10302538,-0.10582510,0.00022387,0.029751
 25,-0.00716802,0.00006303,0.00006901,-0.00012707,-0.00000259,0.0005235
 8,0.00090824,-0.00000841,0.00167221,-0.00042252,0.00000893,-0.11023181
 ,0.10801862,-0.00001448,-0.00003757,-0.00218153,0.00000599,-0.00000866
 ,-0.00095484,-0.00000520,0.00002822,0.01199817,0.00002315,0.00006747,0
 .00657415,-0.00000733,-0.00000757,0.00519762,-0.00055640,0.00020423,-0
 .04229459,-0.00002690,0.00001383,0.00435643,-0.00002620,0.00002511,-0.
 00017165,0.00000287,-0.00001969,-0.00566724,0.00000002,0.00000051,-0.0
 0044537,0.00057508,-0.00025783,0.02670977,0.00018889,-0.00029630,0.000
 00355,-0.00411692,0.00432224,-0.00004418,-0.00009611,0.00117052,-0.000
 01300,0.00073614,0.00150278,-0.00001000,-0.01790970,-0.02081349,-0.000
 05441,0.00766411,0.00474254,0.00001337,-0.24317171,-0.13715429,-0.0005
 2879,0.00006203,0.00012615,-0.00002388,0.00026283,0.00030481,-0.000003
 04,0.00083635,0.00024277,0.00001861,0.00055905,-0.00060452,0.00001062,
 0.25542256,-0.00045943,0.00046704,0.00000116,0.00388450,-0.00043089,0.
 00001984,0.00126389,-0.00124377,-0.00000150,0.00261126,-0.00518312,0.0
 0001150,0.01204088,0.01155332,0.00001787,-0.02662915,-0.01257146,-0.00
 007494,-0.13943584,-0.16055281,-0.00033955,0.00007227,-0.00015783,0.00
 000909,-0.00135622,-0.00061830,0.00000108,-0.00062541,0.00059669,-0.00
 000107,0.00040706,0.00128694,0.00000267,0.14773906,0.16615015,0.000006
 45,-0.00001853,-0.00060008,-0.00005134,-0.00000143,0.00774941,-0.00000
 534,0.00001381,-0.00034488,-0.00000694,0.00001234,0.00438103,-0.000034
 79,-0.00006438,-0.00144082,0.00004018,0.00004004,-0.00026421,-0.000566
 15,-0.00037014,-0.02780019,0.00000586,-0.00000210,0.00002571,-0.000002
 38,0.00000386,0.00062510,0.00001435,0.00000446,-0.00454788,0.00000847,
 -0.00000261,-0.00245255,0.00059488,0.00036539,0.02302550,-0.01266321,0
 .01272158,0.00016008,-0.01541237,-0.00410945,-0.00074817,0.00341711,0.
 00160188,0.00022969,-0.00107434,-0.00013327,0.00009340,0.00151432,0.00
 488712,-0.00006756,-0.00014115,-0.00019932,-0.00003144,-0.00205476,-0.
 00052090,0.00007201,-0.08718022,0.15092984,-0.00218394,-0.00014038,0.0
 0014329,0.00001194,-0.00005426,-0.00033773,-0.00001672,-0.00024221,-0.
 00000757,-0.00001172,-0.00043320,0.00012444,0.00001745,0.37124447,0.02
 606172,-0.00388235,0.00041124,-0.00240577,0.00602071,-0.00113212,-0.01
 171598,-0.01456783,0.00012096,0.00464291,0.00232742,-0.00009927,0.0017
 2076,0.00102252,-0.00006058,-0.00036364,-0.00279617,0.00000597,-0.0009
 4787,0.00191773,0.00002762,0.11101639,-0.34778085,-0.04667709,-0.00031
 803,0.00010441,-0.00000534,0.00040131,0.00025601,0.00002214,0.00024323
 ,0.00011518,0.00001949,-0.00003858,0.00010686,0.00003240,-0.15939345,0
 .40184089,-0.00095231,0.00118363,0.00624029,-0.00292364,0.00003467,0.0
 0357295,0.00056434,-0.00003909,-0.00043247,-0.00014981,0.00004498,-0.0
 0081389,-0.00032409,0.00017226,0.00032395,0.00007024,0.00006095,0.0000
 2469,0.00002366,-0.00019121,-0.00022946,-0.01735022,-0.01148048,-0.035
 70601,0.00001924,-0.00000831,-0.00000111,-0.00002996,-0.00006268,0.000
 00162,0.00001179,0.00000181,0.00010717,-0.00002427,0.00000323,-0.00009
 038,0.26502797,0.03034267,0.29318785,0.00043683,0.00120448,0.00104028,
 -0.00128772,-0.00051658,0.00074376,-0.00059358,-0.00048649,-0.00020083
 ,0.00015725,0.00009909,-0.00019302,-0.00027813,0.00035723,0.00006125,-
 0.00000684,-0.00009793,0.00001291,-0.00007362,-0.00009565,-0.00005247,
 -0.01285223,-0.00534086,-0.01539466,-0.00000352,0.00001544,-0.00000586
 ,-0.00002134,-0.00006120,-0.00000735,0.00001316,-0.00000491,0.00002575
 ,-0.00002964,0.00002120,-0.00002070,-0.26151636,0.02775928,-0.24677831
 ,0.27550661,0.00237304,-0.00222479,-0.00138406,-0.00234060,0.00049594,
 0.00057744,-0.00083458,-0.00099380,-0.00006750,0.00016869,0.00016212,0
 .00017632,0.00019230,0.00059814,0.00002140,0.00001412,-0.00011588,0.00
 000798,-0.00026067,-0.00003214,-0.00000496,0.02876858,0.00293136,0.031
 66810,-0.00003777,0.00002211,-0.00000185,-0.00000818,-0.00004704,-0.00
 003589,0.00000192,0.00000392,-0.00002904,-0.00005470,0.00002037,-0.000
 01692,-0.00729028,-0.04050772,-0.02094761,-0.02378270,0.03968215,0.000
 90535,-0.00092546,-0.00006606,0.00286356,0.00002202,-0.00002711,-0.000
 23996,0.00014717,0.00000580,0.00006593,-0.00004364,-0.00001949,0.00009
 768,-0.00035965,-0.00000072,0.00000334,0.00003415,-0.00000347,0.000147
 11,0.00008737,-0.00000982,0.00122774,-0.00417211,-0.00125669,0.0000045
 8,-0.00000443,0.00001183,0.00000167,0.00005323,0.00003094,0.00000456,-
 0.00000181,0.00000890,0.00004318,-0.00001097,0.00000686,-0.26471673,0.
 01406705,-0.25985701,0.26257870,-0.00829659,0.26098118,-0.01089496,-0.
 00204312,0.00007442,-0.32964867,0.11643695,-0.00196335,0.01456043,0.01
 163692,-0.00009296,-0.00235227,-0.00252399,-0.00005575,-0.02053362,0.0
 0403150,-0.00008723,0.00135829,0.00330525,0.00000500,0.00362382,-0.005
 93062,-0.00006016,0.00293143,-0.01012624,0.00150587,0.00070619,-0.0005
 2581,0.00000401,0.00126932,0.00034668,0.00002861,0.00006585,-0.0000198
 9,0.00000472,0.00002532,0.00034149,0.,0.00473657,0.00333771,0.00281538
 ,0.00054912,0.00309084,-0.00298671,0.33360317,-0.00235142,0.00470641,-
 0.00004168,0.11763632,-0.12740968,0.00133877,0.03774805,-0.00926057,0.
 00015993,-0.00036387,-0.00661562,0.00003545,-0.02189118,0.01603766,-0.
 00015068,-0.00091980,-0.00210815,-0.00000103,-0.00535278,-0.00247518,0
 .00001035,-0.00601309,-0.00328528,0.00057964,0.00168851,-0.00044922,-0
 .00000078,-0.00015128,0.00049504,-0.00000544,0.00000376,0.00005926,-0.
 00000116,-0.00118899,0.00057681,0.00000380,0.00158383,-0.00417680,0.00
 088520,0.00092959,0.00000525,-0.00059631,-0.12135767,0.13390008,-0.000
 20712,-0.00006590,-0.00422750,-0.00156904,0.00115468,-0.02540656,0.000
 05351,0.00027732,0.00323853,-0.00004759,-0.00004105,0.00466330,0.00003
 342,-0.00018820,-0.00477017,0.00001070,0.00004954,-0.00072358,0.000058
 06,0.00002030,0.00544819,0.00047292,-0.00024503,0.00228196,0.00000759,
 -0.00001516,-0.00041211,0.00000692,0.00001981,-0.00287150,0.00000084,-
 0.00000450,-0.00078445,0.00001737,-0.00000379,0.00172738,0.00216374,0.
 00292486,-0.00632817,-0.00180945,-0.00166683,0.00019486,0.00080814,-0.
 00221605,0.02796982\\-0.00000318,0.00001249,-0.00001553,-0.00003521,-0
 .00006429,-0.00000329,-0.00001377,0.00005335,0.00000096,0.00004535,0.0
 0000308,0.00000201,0.00004200,0.00000737,0.00000402,-0.00001210,-0.000
 04216,0.00000897,-0.00002456,0.00002178,-0.00000645,-0.00002773,-0.000
 04670,0.00003745,-0.00001746,-0.00000404,0.00000089,0.00000180,-0.0000
 0070,-0.00000249,0.00000256,0.00000329,-0.00000065,0.00000471,-0.00000
 347,-0.00000271,0.00002793,0.00002082,-0.00002354,0.00000274,0.0000003
 3,-0.00000458,0.00000693,0.00003884,0.00000495\\\@


 NOTHING MAKES A PERSON MORE PRODUCTIVE THAN THE LAST MINUTE.
 Job cpu time:       0 days  1 hours 14 minutes 24.0 seconds.
 File lengths (MBytes):  RWF=   2128 Int=      0 D2E=      0 Chk=     32 Scr=     32
 Normal termination of Gaussian 09 at Thu Sep  2 22:54:02 2021.
