 Entering Gaussian System, Link 0=g09
 AtFile(1): pc-2.gbs
            -H     0
            S    4   1.00
                  0.754230D+02           0.240650D-02
                  0.113500D+02           0.184870D-01
                  0.259930D+01           0.897420D-01
                  0.735130D+00           0.281110D+00
            S    1   1.00
                  0.231670D+00           0.100000D+01
            S    1   1.00
                  0.741470D-01           0.100000D+01
            P    1   1.00
                  0.160000D+01           0.100000D+01
            P    1   1.00
                  0.450000D+00           0.100000D+01
            D    1   1.00
                  0.125000D+01           0.100000D+01
            ****
            -C     0
            S    7   1.00
                  0.785710D+04           0.568250D-03
                  0.117870D+04           0.439150D-02
                  0.268320D+03           0.225040D-01
                  0.759480D+02           0.866530D-01
                  0.245590D+02           0.244050D+00
                  0.862120D+01           0.441480D+00
                  0.312780D+01           0.353320D+00
            S    7   1.00
                  0.117870D+04          -0.594920D-06
                  0.268320D+03          -0.627480D-04
                  0.759480D+02          -0.757730D-03
                  0.245590D+02          -0.733080D-02
                  0.862120D+01          -0.389320D-01
                  0.312780D+01          -0.889080D-01
                  0.822020D+00           0.216890D+00
            S    1   1.00
                  0.330170D+00           0.100000D+01
            S    1   1.00
                  0.114630D+00           0.100000D+01
            P    4   1.00
                  0.337750D+02           0.602940D-02
                  0.767660D+01           0.432280D-01
                  0.223570D+01           0.163010D+00
                  0.764470D+00           0.365040D+00
            P    1   1.00
                  0.262320D+00           0.100000D+01
            P    1   1.00
                  0.846380D-01           0.100000D+01
            D    1   1.00
                  0.140000D+01           0.100000D+01
            D    1   1.00
                  0.450000D+00           0.100000D+01
            F    1   1.00
                  0.950000D+00           0.100000D+01
            ****
            -N     0
            S    7   1.00
                  0.111010D+05           0.545700D-03
                  0.166530D+04           0.421810D-02
                  0.379080D+03           0.216450D-01
                  0.107300D+03           0.837760D-01
                  0.347470D+02           0.238810D+00
                  0.122490D+02           0.439940D+00
                  0.447430D+01           0.363640D+00
            S    7   1.00
                  0.166530D+04          -0.150060D-05
                  0.379080D+03          -0.587530D-04
                  0.107300D+03          -0.774530D-03
                  0.347470D+02          -0.721610D-02
                  0.122490D+02          -0.393380D-01
                  0.447430D+01          -0.906110D-01
                  0.124040D+01           0.198820D+00
            S    1   1.00
                  0.487430D+00           0.100000D+01
            S    1   1.00
                  0.164840D+00           0.100000D+01
            P    4   1.00
                  0.479340D+02           0.617060D-02
                  0.109990D+02           0.442600D-01
                  0.324720D+01           0.168250D+00
                  0.111140D+01           0.368480D+00
            P    1   1.00
                  0.379880D+00           0.100000D+01
            P    1   1.00
                  0.120680D+00           0.100000D+01
            D    1   1.00
                  0.180000D+01           0.100000D+01
            D    1   1.00
                  0.550000D+00           0.100000D+01
            F    1   1.00
                  0.102000D+01           0.100000D+01
            ****
            -O     0
            S    7   1.00
                  0.147820D+05           0.535190D-03
                  0.221730D+04           0.413750D-02
                  0.504740D+03           0.212450D-01
                  0.142870D+03           0.824530D-01
                  0.463000D+02           0.236710D+00
                  0.163370D+02           0.440390D+00
                  0.598280D+01           0.364650D+00
            S    7   1.00
                  0.221730D+04          -0.192750D-05
                  0.504740D+03          -0.579640D-04
                  0.142870D+03          -0.794940D-03
                  0.463000D+02          -0.731250D-02
                  0.163370D+02          -0.405740D-01
                  0.598280D+01          -0.915940D-01
                  0.167180D+01           0.209400D+00
            S    1   1.00
                  0.646620D+00           0.100000D+01
            S    1   1.00
                  0.216690D+00           0.100000D+01
            P    4   1.00
                  0.604240D+02           0.689490D-02
                  0.139350D+02           0.490050D-01
                  0.415310D+01           0.182550D+00
                  0.141580D+01           0.376330D+00
            P    1   1.00
                  0.475490D+00           0.100000D+01
            P    1   1.00
                  0.145290D+00           0.100000D+01
            D    1   1.00
                  0.220000D+01           0.100000D+01
            D    1   1.00
                  0.650000D+00           0.100000D+01
            F    1   1.00
                  0.110000D+01           0.100000D+01
            ****
 Initial command:
 /gpfs/share/home/1801110325/software/g09e01/l1.exe "./Gau-25059.inp" -scrdir="./"
 Entering Link 1 = /gpfs/share/home/1801110325/software/g09e01/l1.exe PID=     25060.
  
 Copyright (c) 1988,1990,1992,1993,1995,1998,2003,2009,2015,
            Gaussian, Inc.  All Rights Reserved.
  
 This is part of the Gaussian(R) 09 program.  It is based on
 the Gaussian(R) 03 system (copyright 2003, Gaussian, Inc.),
 the Gaussian(R) 98 system (copyright 1998, Gaussian, Inc.),
 the Gaussian(R) 94 system (copyright 1995, Gaussian, Inc.),
 the Gaussian 92(TM) system (copyright 1992, Gaussian, Inc.),
 the Gaussian 90(TM) system (copyright 1990, Gaussian, Inc.),
 the Gaussian 88(TM) system (copyright 1988, Gaussian, Inc.),
 the Gaussian 86(TM) system (copyright 1986, Carnegie Mellon
 University), and the Gaussian 82(TM) system (copyright 1983,
 Carnegie Mellon University). Gaussian is a federally registered
 trademark of Gaussian, Inc.
  
 This software contains proprietary and confidential information,
 including trade secrets, belonging to Gaussian, Inc.
  
 This software is provided under written license and may be
 used, copied, transmitted, or stored only in accord with that
 written license.
  
 The following legend is applicable only to US Government
 contracts under FAR:
  
                    RESTRICTED RIGHTS LEGEND
  
 Use, reproduction and disclosure by the US Government is
 subject to restrictions as set forth in subparagraphs (a)
 and (c) of the Commercial Computer Software - Restricted
 Rights clause in FAR 52.227-19.
  
 Gaussian, Inc.
 340 Quinnipiac St., Bldg. 40, Wallingford CT 06492
  
  
 ---------------------------------------------------------------
 Warning -- This program may not be used in any manner that
 competes with the business of Gaussian, Inc. or will provide
 assistance to any competitor of Gaussian, Inc.  The licensee
 of this program is prohibited from giving any competitor of
 Gaussian, Inc. access to this program.  By using this program,
 the user acknowledges that Gaussian, Inc. is engaged in the
 business of creating and licensing software in the field of
 computational chemistry and represents and warrants to the
 licensee that it is not a competitor of Gaussian, Inc. and that
 it will not use this program in any manner prohibited above.
 ---------------------------------------------------------------
  

 Cite this work as:
 Gaussian 09, Revision E.01,
 M. J. Frisch, G. W. Trucks, H. B. Schlegel, G. E. Scuseria, 
 M. A. Robb, J. R. Cheeseman, G. Scalmani, V. Barone, B. Mennucci, 
 G. A. Petersson, H. Nakatsuji, M. Caricato, X. Li, H. P. Hratchian, 
 A. F. Izmaylov, J. Bloino, G. Zheng, J. L. Sonnenberg, M. Hada, 
 M. Ehara, K. Toyota, R. Fukuda, J. Hasegawa, M. Ishida, T. Nakajima, 
 Y. Honda, O. Kitao, H. Nakai, T. Vreven, J. A. Montgomery, Jr., 
 J. E. Peralta, F. Ogliaro, M. Bearpark, J. J. Heyd, E. Brothers, 
 K. N. Kudin, V. N. Staroverov, T. Keith, R. Kobayashi, J. Normand, 
 K. Raghavachari, A. Rendell, J. C. Burant, S. S. Iyengar, J. Tomasi, 
 M. Cossi, N. Rega, J. M. Millam, M. Klene, J. E. Knox, J. B. Cross, 
 V. Bakken, C. Adamo, J. Jaramillo, R. Gomperts, R. E. Stratmann, 
 O. Yazyev, A. J. Austin, R. Cammi, C. Pomelli, J. W. Ochterski, 
 R. L. Martin, K. Morokuma, V. G. Zakrzewski, G. A. Voth, 
 P. Salvador, J. J. Dannenberg, S. Dapprich, A. D. Daniels, 
 O. Farkas, J. B. Foresman, J. V. Ortiz, J. Cioslowski, 
 and D. J. Fox, Gaussian, Inc., Wallingford CT, 2013.
 
 ******************************************
 Gaussian 09:  EM64L-G09RevE.01 30-Nov-2015
                 3-Sep-2021 
 ******************************************
 %nprocshared=6
 Will use up to    6 processors via shared memory.
 %mem=10GB
 %chk=TST_H2O_TPSSh.chk
 ----------------------------------------------------------------------
 #p opt=(calcfc,qst3,cartesian) freq TPSSh/gen int=acc2e=12 scf=(novara
 cc,noincfock)
 ----------------------------------------------------------------------
 1/5=1,10=4,14=-1,18=20,26=3,27=203,38=1/1,3;
 2/9=110,12=2,17=6,18=5,40=1/2;
 3/5=7,11=2,16=1,25=1,30=1,71=2,74=-35,140=1/1,2,3;
 4//1;
 5/5=100002,38=1,87=12/2;
 8/6=4,10=90,11=11,87=12/1;
 11/6=1,8=1,9=11,15=111,16=1,87=12/1,2,10;
 10/6=1,13=1,87=12/2;
 6/7=2,8=2,9=2,10=2,28=1/1;
 7/10=1,18=20,25=1,87=12/1,2,3,16;
 1/5=1,10=4,14=-1,18=20,26=3,27=203/3(2);
 2/9=110/2;
 99//99;
 2/9=110/2;
 3/5=7,6=1,11=2,16=1,25=1,30=1,71=1,74=-35,82=7/1,2,3;
 4/5=5,16=3,69=1/1;
 5/5=100002,38=1,87=12/2;
 7/87=12/1,2,3,16;
 1/5=1,14=-1,18=20,26=3,27=203/3(-5);
 2/9=110/2;
 6/7=2,8=2,9=2,10=2,19=2,28=1/1;
 99/9=1/99;
 Leave Link    1 at Fri Sep  3 02:25:28 2021, MaxMem=  1342177280 cpu:         1.4
 (Enter /gpfs/share/home/1801110325/software/g09e01/l101.exe)
 -------------------------
 HY_H2O_TPSSh_PC2_OPT_FREQ
 -------------------------
 Symbolic Z-matrix:
 Charge =  0 Multiplicity = 1
 O                     1.23964   1.43033  -0.00424 
 N                     0.30924  -0.67527  -0.00646 
 C                     0.15071   0.65157  -0.00064 
 C                    -1.11116   1.26336   0.00866 
 C                    -0.78979  -1.44482  -0.00618 
 C                    -2.22758   0.45234   0.01014 
 C                    -2.07494  -0.93683   0.00221 
 H                     2.04551   0.85472  -0.01738 
 H                    -1.17847   2.34216   0.01265 
 H                    -0.61253  -2.51439  -0.01398 
 H                    -3.21629   0.89461   0.01628 
 H                    -2.92856  -1.60031   0.00156 
 O                     3.05588  -0.59288  -0.08548 
 H                     3.52     -0.86343   0.71356 
 H                     2.15801  -0.99989  -0.03489 
 
 Add virtual bond connecting atoms O13        and H8         Dist= 3.34D+00.
 Add virtual bond connecting atoms H15        and N2         Dist= 3.55D+00.
 Add virtual bond connecting atoms H15        and H8         Dist= 3.51D+00.
 Add atom     13 valence  3 ND=      2 dihedral       8     13     14     15
 -------------------------
 PY_H2O_TPSSh_PC2_OPT_FREQ
 -------------------------
 Symbolic Z-matrix:
 Charge =  0 Multiplicity = 1
 O                     1.27588   1.39182   0.00375 
 N                     0.25918  -0.65524   0.01012 
 C                     0.21868   0.74115   0.00548 
 C                    -1.10964   1.29026   0.00173 
 C                    -0.83095  -1.45986   0.00576 
 C                    -2.20961   0.48104  -0.00191 
 C                    -2.08659  -0.93027  -0.00077 
 H                     2.65431   0.27002  -0.05008 
 H                    -1.19067   2.36794  -0.00068 
 H                    -0.63232  -2.52276   0.0063 
 H                    -3.19816   0.92543  -0.00674 
 H                    -2.95197  -1.57545  -0.00552 
 O                     3.05776  -0.63104  -0.08961 
 H                     3.73781  -0.64979   0.5904 
 H                     1.20635  -1.04883   0.02066 
 
 Add virtual bond connecting atoms H8         and O1         Dist= 3.36D+00.
 Add virtual bond connecting atoms O13        and H15        Dist= 3.59D+00.
 -------------
 TST_H2O_TPSSh
 -------------
 Symbolic Z-matrix:
 Charge =  0 Multiplicity = 1
 O                     1.3017    1.38973  -0.00693 
 N                     0.3713   -0.71586  -0.00915 
 C                     0.21276   0.61097  -0.00333 
 C                    -1.0491    1.22276   0.00597 
 C                    -0.72773  -1.48542  -0.00887 
 C                    -2.16552   0.41174   0.00745 
 C                    -2.01289  -0.97743  -0.00048 
 H                     2.2245    0.59113  -0.03119 
 H                    -1.11641   2.30156   0.00996 
 H                    -0.55048  -2.55499  -0.01667 
 H                    -3.15424   0.85401   0.01359 
 H                    -2.8665   -1.64091  -0.00113 
 O                     2.61146  -0.43784  -0.06979 
 H                     3.07558  -0.70839   0.72925 
 H                     1.58914  -0.88832  -0.01334 
 
 NAtoms=     15 NQM=       15 NQMF=       0 NMMI=      0 NMMIF=      0
                NMic=       0 NMicF=      0.
                    Isotopes and Nuclear Properties:
 (Nuclear quadrupole moments (NQMom) in fm**2, nuclear magnetic moments (NMagM)
  in nuclear magnetons)

  Atom         1           2           3           4           5           6           7           8           9          10
 IAtWgt=          16          14          12          12          12          12          12           1           1           1
 AtmWgt=  15.9949146  14.0030740  12.0000000  12.0000000  12.0000000  12.0000000  12.0000000   1.0078250   1.0078250   1.0078250
 NucSpn=           0           2           0           0           0           0           0           1           1           1
 AtZEff=   0.0000000   0.0000000   0.0000000   0.0000000   0.0000000   0.0000000   0.0000000   0.0000000   0.0000000   0.0000000
 NQMom=    0.0000000   2.0440000   0.0000000   0.0000000   0.0000000   0.0000000   0.0000000   0.0000000   0.0000000   0.0000000
 NMagM=    0.0000000   0.4037610   0.0000000   0.0000000   0.0000000   0.0000000   0.0000000   2.7928460   2.7928460   2.7928460
 AtZNuc=   8.0000000   7.0000000   6.0000000   6.0000000   6.0000000   6.0000000   6.0000000   1.0000000   1.0000000   1.0000000

  Atom        11          12          13          14          15
 IAtWgt=           1           1          16           1           1
 AtmWgt=   1.0078250   1.0078250  15.9949146   1.0078250   1.0078250
 NucSpn=           1           1           0           1           1
 AtZEff=   0.0000000   0.0000000   0.0000000   0.0000000   0.0000000
 NQMom=    0.0000000   0.0000000   0.0000000   0.0000000   0.0000000
 NMagM=    2.7928460   2.7928460   0.0000000   2.7928460   2.7928460
 AtZNuc=   1.0000000   1.0000000   8.0000000   1.0000000   1.0000000
 Leave Link  101 at Fri Sep  3 02:25:28 2021, MaxMem=  1342177280 cpu:         1.0
 (Enter /gpfs/share/home/1801110325/software/g09e01/l103.exe)

 GradGradGradGradGradGradGradGradGradGradGradGradGradGradGradGradGradGrad
 Berny optimization.
 Initialization pass.
                           ----------------------------
                           !    Initial Parameters    !
                           ! (Angstroms and Degrees)  !
 --------------------------                            --------------------------
 ! Name  Definition        TS        Reactant  Product Derivative Info.         !
 --------------------------------------------------------------------------------
 ! R1    R(1,3)             1.3388    1.3388    1.2414 calculate D2E/DX2 analyti!
 ! R2    R(1,8)             1.2206    0.9904    1.778  calculate D2E/DX2 analyti!
 ! R3    R(2,3)             1.3363    1.3363    1.397  calculate D2E/DX2 analyti!
 ! R4    R(2,5)             1.3417    1.3417    1.3549 calculate D2E/DX2 analyti!
 ! R5    R(2,15)            1.23      1.8773    1.0257 calculate D2E/DX2 analyti!
 ! R6    R(3,4)             1.4024    1.4024    1.4373 calculate D2E/DX2 analyti!
 ! R7    R(4,6)             1.3799    1.3799    1.3656 calculate D2E/DX2 analyti!
 ! R8    R(4,9)             1.0809    1.0809    1.0807 calculate D2E/DX2 analyti!
 ! R9    R(5,7)             1.3819    1.3819    1.3628 calculate D2E/DX2 analyti!
 ! R10   R(5,10)            1.0842    1.0842    1.0813 calculate D2E/DX2 analyti!
 ! R11   R(6,7)             1.3975    1.3975    1.4167 calculate D2E/DX2 analyti!
 ! R12   R(6,11)            1.0831    1.0831    1.0839 calculate D2E/DX2 analyti!
 ! R13   R(7,12)            1.0811    1.0811    1.0794 calculate D2E/DX2 analyti!
 ! R14   R(8,13)            1.1       1.7666    0.988  calculate D2E/DX2 analyti!
 ! R15   R(8,15)            1.6102    1.8581    1.9598 calculate D2E/DX2 analyti!
 ! R16   R(13,14)           0.9628    0.9628    0.9619 calculate D2E/DX2 analyti!
 ! R17   R(13,15)           1.1186    0.9871    1.9012 calculate D2E/DX2 analyti!
 ! A1    A(3,1,8)         103.5562  108.8923  109.243  calculate D2E/DX2 analyti!
 ! A2    A(3,2,5)         118.1863  118.1863  124.7682 calculate D2E/DX2 analyti!
 ! A3    A(3,2,15)        104.874   106.7744  114.2269 calculate D2E/DX2 analyti!
 ! A4    A(5,2,15)        136.9397  135.0343  121.0046 calculate D2E/DX2 analyti!
 ! A5    A(1,3,2)         118.7561  118.7561  119.9495 calculate D2E/DX2 analyti!
 ! A6    A(1,3,4)         118.5644  118.5644  125.9291 calculate D2E/DX2 analyti!
 ! A7    A(2,3,4)         122.6795  122.6795  114.1213 calculate D2E/DX2 analyti!
 ! A8    A(3,4,6)         118.1383  118.1383  121.1997 calculate D2E/DX2 analyti!
 ! A9    A(3,4,9)         119.4363  119.4363  116.7593 calculate D2E/DX2 analyti!
 ! A10   A(6,4,9)         122.4254  122.4254  122.0408 calculate D2E/DX2 analyti!
 ! A11   A(2,5,7)         123.4315  123.4315  120.701  calculate D2E/DX2 analyti!
 ! A12   A(2,5,10)        115.5895  115.5895  115.8454 calculate D2E/DX2 analyti!
 ! A13   A(7,5,10)        120.9789  120.9789  123.4535 calculate D2E/DX2 analyti!
 ! A14   A(4,6,7)         119.7252  119.7252  121.359  calculate D2E/DX2 analyti!
 ! A15   A(4,6,11)        119.9035  119.9035  119.4531 calculate D2E/DX2 analyti!
 ! A16   A(7,6,11)        120.3712  120.3712  119.1879 calculate D2E/DX2 analyti!
 ! A17   A(5,7,6)         117.839   117.839   117.8503 calculate D2E/DX2 analyti!
 ! A18   A(5,7,12)        120.5749  120.5749  120.4259 calculate D2E/DX2 analyti!
 ! A19   A(6,7,12)        121.586   121.586   121.7239 calculate D2E/DX2 analyti!
 ! A20   A(1,8,13)        151.4811  160.4045  153.271  calculate D2E/DX2 analyti!
 ! A21   A(1,8,15)        107.6139  129.0117   81.4138 calculate D2E/DX2 analyti!
 ! A22   A(8,13,14)       113.7843  118.2903  106.1515 calculate D2E/DX2 analyti!
 ! A23   A(8,13,15)        93.0629   79.3784   78.489  calculate D2E/DX2 analyti!
 ! A24   A(14,13,15)      106.5891  106.2639  130.0309 calculate D2E/DX2 analyti!
 ! A25   A(2,15,8)        105.1829   76.5633  115.0647 calculate D2E/DX2 analyti!
 ! A26   A(2,15,13)       148.0606  145.6146  144.5196 calculate D2E/DX2 analyti!
 ! D1    D(8,1,3,2)         0.7649    0.3812    1.9836 calculate D2E/DX2 analyti!
 ! D2    D(8,1,3,4)      -179.214  -179.5976 -177.9477 calculate D2E/DX2 analyti!
 ! D3    D(3,1,8,13)        2.0006    4.3579    1.1323 calculate D2E/DX2 analyti!
 ! D4    D(3,1,8,15)       -1.1439   -0.0179   -2.3519 calculate D2E/DX2 analyti!
 ! D5    D(5,2,3,1)      -179.8347 -179.8347 -179.6606 calculate D2E/DX2 analyti!
 ! D6    D(5,2,3,4)         0.1433    0.1433    0.2784 calculate D2E/DX2 analyti!
 ! D7    D(15,2,3,1)        0.1769   -0.5183    0.5418 calculate D2E/DX2 analyti!
 ! D8    D(15,2,3,4)     -179.8451  179.4597 -179.5192 calculate D2E/DX2 analyti!
 ! D9    D(3,2,5,7)        -0.1188   -0.1188   -0.1505 calculate D2E/DX2 analyti!
 ! D10   D(3,2,5,10)      179.8266  179.8266  179.7615 calculate D2E/DX2 analyti!
 ! D11   D(15,2,5,7)      179.8648 -179.1926  179.6342 calculate D2E/DX2 analyti!
 ! D12   D(15,2,5,10)      -0.1897    0.7528   -0.4539 calculate D2E/DX2 analyti!
 ! D13   D(3,2,15,8)       -0.8112    0.3488   -2.6149 calculate D2E/DX2 analyti!
 ! D14   D(3,2,15,13)      -5.3649   -3.9336   -6.6215 calculate D2E/DX2 analyti!
 ! D15   D(5,2,15,8)      179.2037  179.4961  177.579  calculate D2E/DX2 analyti!
 ! D16   D(5,2,15,13)     174.65    175.2137  173.5725 calculate D2E/DX2 analyti!
 ! D17   D(1,3,4,6)       179.8979  179.8979  179.705  calculate D2E/DX2 analyti!
 ! D18   D(1,3,4,9)         0.002     0.002    -0.1395 calculate D2E/DX2 analyti!
 ! D19   D(2,3,4,6)        -0.0801   -0.0801   -0.2297 calculate D2E/DX2 analyti!
 ! D20   D(2,3,4,9)      -179.976  -179.976   179.9258 calculate D2E/DX2 analyti!
 ! D21   D(3,4,6,7)        -0.012    -0.012     0.0648 calculate D2E/DX2 analyti!
 ! D22   D(3,4,6,11)     -179.9415 -179.9415 -179.8755 calculate D2E/DX2 analyti!
 ! D23   D(9,4,6,7)       179.8806  179.8806  179.901  calculate D2E/DX2 analyti!
 ! D24   D(9,4,6,11)       -0.0489   -0.0489   -0.0393 calculate D2E/DX2 analyti!
 ! D25   D(2,5,7,6)         0.0309    0.0309   -0.0411 calculate D2E/DX2 analyti!
 ! D26   D(2,5,7,12)      179.9696  179.9696  179.9211 calculate D2E/DX2 analyti!
 ! D27   D(10,5,7,6)     -179.9117 -179.9117 -179.9461 calculate D2E/DX2 analyti!
 ! D28   D(10,5,7,12)       0.027     0.027     0.0161 calculate D2E/DX2 analyti!
 ! D29   D(4,6,7,5)         0.0351    0.0351    0.0791 calculate D2E/DX2 analyti!
 ! D30   D(4,6,7,12)     -179.9029 -179.9029 -179.8826 calculate D2E/DX2 analyti!
 ! D31   D(11,6,7,5)      179.9643  179.9643 -179.9805 calculate D2E/DX2 analyti!
 ! D32   D(11,6,7,12)       0.0263    0.0263    0.0578 calculate D2E/DX2 analyti!
 ! D33   D(1,8,13,14)    -113.9578 -109.3848 -132.2625 calculate D2E/DX2 analyti!
 ! D34   D(1,8,13,15)      -4.3224   -6.5195   -3.6246 calculate D2E/DX2 analyti!
 ! D35   D(1,8,15,2)        1.3663   -0.2225    3.061  calculate D2E/DX2 analyti!
 ! D36   D(8,13,14,15)    101.0825   86.5011   88.3925 calculate D2E/DX2 analyti!
 ! D37   D(8,13,15,2)       6.4492    4.4576    7.3608 calculate D2E/DX2 analyti!
 ! D38   D(14,13,15,2)    122.3844  121.0468  108.8793 calculate D2E/DX2 analyti!
 --------------------------------------------------------------------------------
 Trust Radius=3.00D-01 FncErr=1.00D-07 GrdErr=1.00D-06
 Number of steps in this run=     91 maximum allowed number of steps=    100.
 Search for a saddle point of order  1.
 GradGradGradGradGradGradGradGradGradGradGradGradGradGradGradGradGradGrad

 Leave Link  103 at Fri Sep  3 02:25:29 2021, MaxMem=  1342177280 cpu:         0.3
 (Enter /gpfs/share/home/1801110325/software/g09e01/l202.exe)
                          Input orientation:                          
 ---------------------------------------------------------------------
 Center     Atomic      Atomic             Coordinates (Angstroms)
 Number     Number       Type             X           Y           Z
 ---------------------------------------------------------------------
      1          8           0        1.301698    1.389735   -0.006927
      2          7           0        0.371297   -0.715864   -0.009148
      3          6           0        0.212764    0.610975   -0.003325
      4          6           0       -1.049100    1.222756    0.005966
      5          6           0       -0.727731   -1.485417   -0.008865
      6          6           0       -2.165518    0.411740    0.007449
      7          6           0       -2.012885   -0.977427   -0.000481
      8          1           0        2.224501    0.591126   -0.031187
      9          1           0       -1.116414    2.301562    0.009964
     10          1           0       -0.550475   -2.554992   -0.016670
     11          1           0       -3.154236    0.854015    0.013586
     12          1           0       -2.866500   -1.640908   -0.001132
     13          8           0        2.611464   -0.437840   -0.069790
     14          1           0        3.075583   -0.708393    0.729248
     15          1           0        1.589140   -0.888318   -0.013345
 ---------------------------------------------------------------------
                    Distance matrix (angstroms):
                    1          2          3          4          5
     1  O    0.000000
     2  N    2.301999   0.000000
     3  C    1.338752   1.336289   0.000000
     4  C    2.356756   2.403332   1.402378   0.000000
     5  C    3.519245   1.341669   2.297699   2.727215   0.000000
     6  C    3.602536   2.776184   2.386637   1.379905   2.380484
     7  C    4.073077   2.398502   2.734327   2.402026   1.381935
     8  H    1.220627   2.267835   2.012028   3.334187   3.609460
     9  H    2.584372   3.364299   2.150576   1.080911   3.806920
    10  H    4.357925   2.057210   3.256694   3.810580   1.084192
    11  H    4.488069   3.859329   3.375803   2.137200   3.370664
    12  H    5.153514   3.367358   3.814820   3.391691   2.144428
    13  O    2.249326   2.258168   2.618815   4.020329   3.500193
    14  H    2.844426   2.803292   3.236221   4.611451   3.951427
    15  H    2.296125   1.230000   2.035287   3.378952   2.392580
                    6          7          8          9         10
     6  C    0.000000
     7  C    1.397550   0.000000
     8  H    4.393853   4.518489   0.000000
     9  H    2.161493   3.399344   3.753532   0.000000
    10  H    3.377935   2.151190   4.195088   4.889490   0.000000
    11  H    1.083147   2.158022   5.385344   2.499625   4.289734
    12  H    2.169058   1.081141   5.558882   4.313467   2.489932
    13  O    4.852557   4.656239   1.100000   4.626852   3.805656
    14  H    5.407849   5.147562   1.729552   5.210570   4.136982
    15  H    3.973417   3.603150   1.610204   4.182810   2.712152
                   11         12         13         14         15
    11  H    0.000000
    12  H    2.511503   0.000000
    13  O    5.909242   5.608937   0.000000
    14  H    6.462502   6.058993   0.962843   0.000000
    15  H    5.053322   4.518769   1.118599   1.671326   0.000000
 Stoichiometry    C5H7NO2
 Framework group  C1[X(C5H7NO2)]
 Deg. of freedom    39
 Full point group                 C1      NOp   1
 Largest Abelian subgroup         C1      NOp   1
 Largest concise Abelian subgroup C1      NOp   1
                         Standard orientation:                         
 ---------------------------------------------------------------------
 Center     Atomic      Atomic             Coordinates (Angstroms)
 Number     Number       Type             X           Y           Z
 ---------------------------------------------------------------------
      1          8           0        1.432101    1.291740   -0.008476
      2          7           0        0.336204   -0.732660   -0.011814
      3          6           0        0.284361    0.602595   -0.003166
      4          6           0       -0.924477    1.313354    0.010814
      5          6           0       -0.820870   -1.411814   -0.009777
      6          6           0       -2.102199    0.594259    0.014027
      7          6           0       -2.061230   -0.802647    0.003176
      8          1           0        2.287978    0.421910   -0.036793
      9          1           0       -0.905245    2.394077    0.016934
     10          1           0       -0.729784   -2.492124   -0.020001
     11          1           0       -3.052339    1.114209    0.023771
     12          1           0       -2.965194   -1.395703    0.003770
     13          8           0        2.591263   -0.634637   -0.078339
     14          1           0        3.034399   -0.943063    0.718888
     15          1           0        1.536329   -1.001990   -0.019789
 ---------------------------------------------------------------------
 Rotational constants (GHZ):      4.2304645      1.6716173      1.2016519
 Leave Link  202 at Fri Sep  3 02:25:29 2021, MaxMem=  1342177280 cpu:         1.1
 (Enter /gpfs/share/home/1801110325/software/g09e01/l301.exe)
 General basis read from cards:  (5D, 7F)
 Centers:       8      9     10     11     12     14     15
 S 4 1.00
     Exponent=  7.5423000000D+01 Coefficients=  2.4065000000D-03
     Exponent=  1.1350000000D+01 Coefficients=  1.8487000000D-02
     Exponent=  2.5993000000D+00 Coefficients=  8.9742000000D-02
     Exponent=  7.3513000000D-01 Coefficients=  2.8111000000D-01
 S 1 1.00
     Exponent=  2.3167000000D-01 Coefficients=  1.0000000000D+00
 S 1 1.00
     Exponent=  7.4147000000D-02 Coefficients=  1.0000000000D+00
 P 1 1.00
     Exponent=  1.6000000000D+00 Coefficients=  1.0000000000D+00
 P 1 1.00
     Exponent=  4.5000000000D-01 Coefficients=  1.0000000000D+00
 D 1 1.00
     Exponent=  1.2500000000D+00 Coefficients=  1.0000000000D+00
 ****
 Centers:       3      4      5      6      7
 S 7 1.00
     Exponent=  7.8571000000D+03 Coefficients=  5.6825000000D-04
     Exponent=  1.1787000000D+03 Coefficients=  4.3915000000D-03
     Exponent=  2.6832000000D+02 Coefficients=  2.2504000000D-02
     Exponent=  7.5948000000D+01 Coefficients=  8.6653000000D-02
     Exponent=  2.4559000000D+01 Coefficients=  2.4405000000D-01
     Exponent=  8.6212000000D+00 Coefficients=  4.4148000000D-01
     Exponent=  3.1278000000D+00 Coefficients=  3.5332000000D-01
 S 7 1.00
     Exponent=  1.1787000000D+03 Coefficients= -5.9492000000D-07
     Exponent=  2.6832000000D+02 Coefficients= -6.2748000000D-05
     Exponent=  7.5948000000D+01 Coefficients= -7.5773000000D-04
     Exponent=  2.4559000000D+01 Coefficients= -7.3308000000D-03
     Exponent=  8.6212000000D+00 Coefficients= -3.8932000000D-02
     Exponent=  3.1278000000D+00 Coefficients= -8.8908000000D-02
     Exponent=  8.2202000000D-01 Coefficients=  2.1689000000D-01
 S 1 1.00
     Exponent=  3.3017000000D-01 Coefficients=  1.0000000000D+00
 S 1 1.00
     Exponent=  1.1463000000D-01 Coefficients=  1.0000000000D+00
 P 4 1.00
     Exponent=  3.3775000000D+01 Coefficients=  6.0294000000D-03
     Exponent=  7.6766000000D+00 Coefficients=  4.3228000000D-02
     Exponent=  2.2357000000D+00 Coefficients=  1.6301000000D-01
     Exponent=  7.6447000000D-01 Coefficients=  3.6504000000D-01
 P 1 1.00
     Exponent=  2.6232000000D-01 Coefficients=  1.0000000000D+00
 P 1 1.00
     Exponent=  8.4638000000D-02 Coefficients=  1.0000000000D+00
 D 1 1.00
     Exponent=  1.4000000000D+00 Coefficients=  1.0000000000D+00
 D 1 1.00
     Exponent=  4.5000000000D-01 Coefficients=  1.0000000000D+00
 F 1 1.00
     Exponent=  9.5000000000D-01 Coefficients=  1.0000000000D+00
 ****
 Centers:       2
 S 7 1.00
     Exponent=  1.1101000000D+04 Coefficients=  5.4570000000D-04
     Exponent=  1.6653000000D+03 Coefficients=  4.2181000000D-03
     Exponent=  3.7908000000D+02 Coefficients=  2.1645000000D-02
     Exponent=  1.0730000000D+02 Coefficients=  8.3776000000D-02
     Exponent=  3.4747000000D+01 Coefficients=  2.3881000000D-01
     Exponent=  1.2249000000D+01 Coefficients=  4.3994000000D-01
     Exponent=  4.4743000000D+00 Coefficients=  3.6364000000D-01
 S 7 1.00
     Exponent=  1.6653000000D+03 Coefficients= -1.5006000000D-06
     Exponent=  3.7908000000D+02 Coefficients= -5.8753000000D-05
     Exponent=  1.0730000000D+02 Coefficients= -7.7453000000D-04
     Exponent=  3.4747000000D+01 Coefficients= -7.2161000000D-03
     Exponent=  1.2249000000D+01 Coefficients= -3.9338000000D-02
     Exponent=  4.4743000000D+00 Coefficients= -9.0611000000D-02
     Exponent=  1.2404000000D+00 Coefficients=  1.9882000000D-01
 S 1 1.00
     Exponent=  4.8743000000D-01 Coefficients=  1.0000000000D+00
 S 1 1.00
     Exponent=  1.6484000000D-01 Coefficients=  1.0000000000D+00
 P 4 1.00
     Exponent=  4.7934000000D+01 Coefficients=  6.1706000000D-03
     Exponent=  1.0999000000D+01 Coefficients=  4.4260000000D-02
     Exponent=  3.2472000000D+00 Coefficients=  1.6825000000D-01
     Exponent=  1.1114000000D+00 Coefficients=  3.6848000000D-01
 P 1 1.00
     Exponent=  3.7988000000D-01 Coefficients=  1.0000000000D+00
 P 1 1.00
     Exponent=  1.2068000000D-01 Coefficients=  1.0000000000D+00
 D 1 1.00
     Exponent=  1.8000000000D+00 Coefficients=  1.0000000000D+00
 D 1 1.00
     Exponent=  5.5000000000D-01 Coefficients=  1.0000000000D+00
 F 1 1.00
     Exponent=  1.0200000000D+00 Coefficients=  1.0000000000D+00
 ****
 Centers:       1     13
 S 7 1.00
     Exponent=  1.4782000000D+04 Coefficients=  5.3519000000D-04
     Exponent=  2.2173000000D+03 Coefficients=  4.1375000000D-03
     Exponent=  5.0474000000D+02 Coefficients=  2.1245000000D-02
     Exponent=  1.4287000000D+02 Coefficients=  8.2453000000D-02
     Exponent=  4.6300000000D+01 Coefficients=  2.3671000000D-01
     Exponent=  1.6337000000D+01 Coefficients=  4.4039000000D-01
     Exponent=  5.9828000000D+00 Coefficients=  3.6465000000D-01
 S 7 1.00
     Exponent=  2.2173000000D+03 Coefficients= -1.9275000000D-06
     Exponent=  5.0474000000D+02 Coefficients= -5.7964000000D-05
     Exponent=  1.4287000000D+02 Coefficients= -7.9494000000D-04
     Exponent=  4.6300000000D+01 Coefficients= -7.3125000000D-03
     Exponent=  1.6337000000D+01 Coefficients= -4.0574000000D-02
     Exponent=  5.9828000000D+00 Coefficients= -9.1594000000D-02
     Exponent=  1.6718000000D+00 Coefficients=  2.0940000000D-01
 S 1 1.00
     Exponent=  6.4662000000D-01 Coefficients=  1.0000000000D+00
 S 1 1.00
     Exponent=  2.1669000000D-01 Coefficients=  1.0000000000D+00
 P 4 1.00
     Exponent=  6.0424000000D+01 Coefficients=  6.8949000000D-03
     Exponent=  1.3935000000D+01 Coefficients=  4.9005000000D-02
     Exponent=  4.1531000000D+00 Coefficients=  1.8255000000D-01
     Exponent=  1.4158000000D+00 Coefficients=  3.7633000000D-01
 P 1 1.00
     Exponent=  4.7549000000D-01 Coefficients=  1.0000000000D+00
 P 1 1.00
     Exponent=  1.4529000000D-01 Coefficients=  1.0000000000D+00
 D 1 1.00
     Exponent=  2.2000000000D+00 Coefficients=  1.0000000000D+00
 D 1 1.00
     Exponent=  6.5000000000D-01 Coefficients=  1.0000000000D+00
 F 1 1.00
     Exponent=  1.1000000000D+00 Coefficients=  1.0000000000D+00
 ****
 Ernie: Thresh=  0.10000D-02 Tol=  0.10000D-05 Strict=F.
 Ernie:  8 primitive shells out of 263 were deleted.
 There are   385 symmetry adapted cartesian basis functions of A   symmetry.
 There are   338 symmetry adapted basis functions of A   symmetry.
   338 basis functions,   566 primitive gaussians,   385 cartesian basis functions
    30 alpha electrons       30 beta electrons
       nuclear repulsion energy       371.1724109625 Hartrees.
 IExCor= 2523 DFT=T Ex+Corr=TPSSh ExCW=0 ScaHFX=  0.100000
 ScaDFX=  0.900000  0.900000  1.000000  1.000000 ScalE2=  1.000000  1.000000
 IRadAn=      0 IRanWt=     -1 IRanGd=            0 ICorTp=0 IEmpDi=  4
 NAtoms=   15 NActive=   15 NUniq=   15 SFac= 1.00D+00 NAtFMM=   60 NAOKFM=F Big=F
 Integral buffers will be    131072 words long.
 Raffenetti 2 integral format.
 Two-electron integral symmetry is turned on.
 Leave Link  301 at Fri Sep  3 02:25:30 2021, MaxMem=  1342177280 cpu:         1.6
 (Enter /gpfs/share/home/1801110325/software/g09e01/l302.exe)
 NPDir=0 NMtPBC=     1 NCelOv=     1 NCel=       1 NClECP=     1 NCelD=      1
         NCelK=      1 NCelE2=     1 NClLst=     1 CellRange=     0.0.
 One-electron integrals computed using PRISM.
 NBasis=   338 RedAO= T EigKep=  1.48D-04  NBF=   338
 NBsUse=   338 1.00D-06 EigRej= -1.00D+00 NBFU=   338
 Precomputing XC quadrature grid using
 IXCGrd= 4 IRadAn=           0 IRanWt=          -1 IRanGd=           0 AccXCQ= 0.00D+00.
 Generated NRdTot=       0 NPtTot=           0 NUsed=           0 NTot=          32
 NSgBfM=   385   385   385   385   385 MxSgAt=    15 MxSgA2=    15.
 Leave Link  302 at Fri Sep  3 02:25:35 2021, MaxMem=  1342177280 cpu:        12.0
 (Enter /gpfs/share/home/1801110325/software/g09e01/l303.exe)
 DipDrv:  MaxL=1.
 Leave Link  303 at Fri Sep  3 02:25:35 2021, MaxMem=  1342177280 cpu:         1.1
 (Enter /gpfs/share/home/1801110325/software/g09e01/l401.exe)
 ExpMin= 7.41D-02 ExpMax= 1.48D+04 ExpMxC= 5.05D+02 IAcc=2 IRadAn=         4 AccDes= 0.00D+00
 Harris functional with IExCor= 1009 and IRadAn=       4 diagonalized for initial guess.
 HarFok:  IExCor= 1009 AccDes= 0.00D+00 IRadAn=         4 IDoV= 1 UseB2=F ITyADJ=14
 ICtDFT=  3500011 ScaDFX=  1.000000  1.000000  1.000000  1.000000
 FoFCou: FMM=F IPFlag=           0 FMFlag=      100000 FMFlg1=           0
         NFxFlg=           0 DoJE=T BraDBF=F KetDBF=T FulRan=T
         wScrn=  0.000000 ICntrl=     500 IOpCl=  0 I1Cent=   200000004 NGrid=           0
         NMat0=    1 NMatS0=      1 NMatT0=    0 NMatD0=    1 NMtDS0=    0 NMtDT0=    0
 Petite list used in FoFCou.
 Harris En= -399.771865603953    
 JPrj=0 DoOrth=F DoCkMO=F.
 Leave Link  401 at Fri Sep  3 02:25:37 2021, MaxMem=  1342177280 cpu:         6.2
 (Enter /gpfs/share/home/1801110325/software/g09e01/l502.exe)
 Closed shell SCF:
 Using DIIS extrapolation, IDIIS=  1040.
 Integral symmetry usage will be decided dynamically.
 IVT=      468335 IEndB=      468335 NGot=  1342177280 MDV=  1341874196
 LenX=  1341874196 LenY=  1341725530
 Requested convergence on RMS density matrix=1.00D-08 within 128 cycles.
 Requested convergence on MAX density matrix=1.00D-06.
 Requested convergence on             energy=1.00D-06.
 No special actions if energy rises.

 Cycle   1  Pass 1  IDiag  1:
 FoFJK:  IHMeth= 1 ICntrl=       0 DoSepK=F KAlg= 0 I1Cent=   0 FoldK=F
 IRaf= 950000000 NMat=   1 IRICut=       1 DoRegI=T DoRafI=F ISym2E= 0.
 FoFCou: FMM=F IPFlag=           0 FMFlag=      100000 FMFlg1=           0
         NFxFlg=           0 DoJE=F BraDBF=F KetDBF=F FulRan=T
         wScrn=  0.000000 ICntrl=       0 IOpCl=  0 I1Cent=           0 NGrid=           0
         NMat0=    1 NMatS0=      1 NMatT0=    0 NMatD0=    1 NMtDS0=    0 NMtDT0=    0
 Symmetry not used in FoFCou.
 E= -399.897163535871    
 DIIS: error= 1.99D-02 at cycle   1 NSaved=   1.
 NSaved= 1 IEnMin= 1 EnMin= -399.897163535871     IErMin= 1 ErrMin= 1.99D-02
 ErrMax= 1.99D-02  0.00D+00 EMaxC= 1.00D-01 BMatC= 2.57D-01 BMatP= 2.57D-01
 IDIUse=3 WtCom= 8.01D-01 WtEn= 1.99D-01
 Coeff-Com:  0.100D+01
 Coeff-En:   0.100D+01
 Coeff:      0.100D+01
 Gap=     0.133 Goal=   None    Shift=    0.000
 GapD=    0.133 DampG=1.000 DampE=0.500 DampFc=0.5000 IDamp=-1.
 Damping current iteration by 5.00D-01
 RMSDP=3.02D-03 MaxDP=1.11D-01              OVMax= 2.52D-01

 Cycle   2  Pass 1  IDiag  1:
 E= -399.951227991088     Delta-E=       -0.054064455218 Rises=F Damp=T
 DIIS: error= 6.53D-03 at cycle   2 NSaved=   2.
 NSaved= 2 IEnMin= 2 EnMin= -399.951227991088     IErMin= 2 ErrMin= 6.53D-03
 ErrMax= 6.53D-03  0.00D+00 EMaxC= 1.00D-01 BMatC= 3.94D-02 BMatP= 2.57D-01
 IDIUse=3 WtCom= 9.35D-01 WtEn= 6.53D-02
 Coeff-Com:  0.205D+00 0.795D+00
 Coeff-En:   0.351D+00 0.649D+00
 Coeff:      0.215D+00 0.785D+00
 Gap=     0.217 Goal=   None    Shift=    0.000
 RMSDP=9.78D-04 MaxDP=3.25D-02 DE=-5.41D-02 OVMax= 2.36D-01

 Cycle   3  Pass 1  IDiag  1:
 E= -400.068943633378     Delta-E=       -0.117715642289 Rises=F Damp=F
 DIIS: error= 6.98D-03 at cycle   3 NSaved=   3.
 NSaved= 3 IEnMin= 3 EnMin= -400.068943633378     IErMin= 2 ErrMin= 6.53D-03
 ErrMax= 6.98D-03  0.00D+00 EMaxC= 1.00D-01 BMatC= 3.76D-02 BMatP= 3.94D-02
 IDIUse=3 WtCom= 9.30D-01 WtEn= 6.98D-02
 Coeff-Com:  0.536D-01 0.489D+00 0.457D+00
 Coeff-En:   0.000D+00 0.000D+00 0.100D+01
 Coeff:      0.498D-01 0.455D+00 0.495D+00
 Gap=     0.159 Goal=   None    Shift=    0.000
 RMSDP=5.95D-04 MaxDP=2.85D-02 DE=-1.18D-01 OVMax= 1.12D-01

 Cycle   4  Pass 1  IDiag  1:
 E= -400.094641416648     Delta-E=       -0.025697783270 Rises=F Damp=F
 DIIS: error= 3.64D-03 at cycle   4 NSaved=   4.
 NSaved= 4 IEnMin= 4 EnMin= -400.094641416648     IErMin= 4 ErrMin= 3.64D-03
 ErrMax= 3.64D-03  0.00D+00 EMaxC= 1.00D-01 BMatC= 9.06D-03 BMatP= 3.76D-02
 IDIUse=3 WtCom= 9.64D-01 WtEn= 3.64D-02
 Coeff-Com: -0.109D-01 0.112D+00 0.341D+00 0.558D+00
 Coeff-En:   0.000D+00 0.000D+00 0.238D+00 0.762D+00
 Coeff:     -0.105D-01 0.108D+00 0.337D+00 0.565D+00
 Gap=     0.162 Goal=   None    Shift=    0.000
 RMSDP=2.27D-04 MaxDP=1.05D-02 DE=-2.57D-02 OVMax= 4.71D-02

 Cycle   5  Pass 1  IDiag  1:
 E= -400.102054480013     Delta-E=       -0.007413063365 Rises=F Damp=F
 DIIS: error= 1.14D-03 at cycle   5 NSaved=   5.
 NSaved= 5 IEnMin= 5 EnMin= -400.102054480013     IErMin= 5 ErrMin= 1.14D-03
 ErrMax= 1.14D-03  0.00D+00 EMaxC= 1.00D-01 BMatC= 6.02D-04 BMatP= 9.06D-03
 IDIUse=3 WtCom= 9.89D-01 WtEn= 1.14D-02
 Coeff-Com: -0.989D-02 0.256D-01 0.156D+00 0.330D+00 0.498D+00
 Coeff-En:   0.000D+00 0.000D+00 0.000D+00 0.000D+00 0.100D+01
 Coeff:     -0.977D-02 0.253D-01 0.155D+00 0.327D+00 0.503D+00
 Gap=     0.160 Goal=   None    Shift=    0.000
 RMSDP=6.79D-05 MaxDP=3.00D-03 DE=-7.41D-03 OVMax= 1.01D-02

 Cycle   6  Pass 1  IDiag  1:
 E= -400.102531618270     Delta-E=       -0.000477138257 Rises=F Damp=F
 DIIS: error= 4.25D-04 at cycle   6 NSaved=   6.
 NSaved= 6 IEnMin= 6 EnMin= -400.102531618270     IErMin= 6 ErrMin= 4.25D-04
 ErrMax= 4.25D-04  0.00D+00 EMaxC= 1.00D-01 BMatC= 5.31D-05 BMatP= 6.02D-04
 IDIUse=3 WtCom= 9.96D-01 WtEn= 4.25D-03
 Coeff-Com: -0.424D-02 0.366D-02 0.486D-01 0.119D+00 0.283D+00 0.550D+00
 Coeff-En:   0.000D+00 0.000D+00 0.000D+00 0.000D+00 0.474D-01 0.953D+00
 Coeff:     -0.422D-02 0.364D-02 0.484D-01 0.119D+00 0.282D+00 0.551D+00
 Gap=     0.161 Goal=   None    Shift=    0.000
 RMSDP=1.95D-05 MaxDP=7.72D-04 DE=-4.77D-04 OVMax= 3.82D-03

 Cycle   7  Pass 1  IDiag  1:
 E= -400.102575168941     Delta-E=       -0.000043550671 Rises=F Damp=F
 DIIS: error= 1.58D-04 at cycle   7 NSaved=   7.
 NSaved= 7 IEnMin= 7 EnMin= -400.102575168941     IErMin= 7 ErrMin= 1.58D-04
 ErrMax= 1.58D-04  0.00D+00 EMaxC= 1.00D-01 BMatC= 7.38D-06 BMatP= 5.31D-05
 IDIUse=3 WtCom= 9.98D-01 WtEn= 1.58D-03
 Coeff-Com: -0.216D-02 0.919D-03 0.218D-01 0.574D-01 0.153D+00 0.359D+00
 Coeff-Com:  0.410D+00
 Coeff-En:   0.000D+00 0.000D+00 0.000D+00 0.000D+00 0.000D+00 0.971D-01
 Coeff-En:   0.903D+00
 Coeff:     -0.216D-02 0.918D-03 0.218D-01 0.573D-01 0.153D+00 0.359D+00
 Coeff:      0.411D+00
 Gap=     0.160 Goal=   None    Shift=    0.000
 RMSDP=6.98D-06 MaxDP=2.60D-04 DE=-4.36D-05 OVMax= 1.43D-03

 Cycle   8  Pass 1  IDiag  1:
 E= -400.102582804275     Delta-E=       -0.000007635334 Rises=F Damp=F
 DIIS: error= 2.36D-05 at cycle   8 NSaved=   8.
 NSaved= 8 IEnMin= 8 EnMin= -400.102582804275     IErMin= 8 ErrMin= 2.36D-05
 ErrMax= 2.36D-05  0.00D+00 EMaxC= 1.00D-01 BMatC= 3.06D-07 BMatP= 7.38D-06
 IDIUse=1 WtCom= 1.00D+00 WtEn= 0.00D+00
 Coeff-Com: -0.239D-03-0.956D-04 0.161D-02 0.630D-02 0.246D-01 0.774D-01
 Coeff-Com:  0.192D+00 0.699D+00
 Coeff:     -0.239D-03-0.956D-04 0.161D-02 0.630D-02 0.246D-01 0.774D-01
 Coeff:      0.192D+00 0.699D+00
 Gap=     0.160 Goal=   None    Shift=    0.000
 RMSDP=1.56D-06 MaxDP=6.59D-05 DE=-7.64D-06 OVMax= 2.84D-04

 Cycle   9  Pass 1  IDiag  1:
 E= -400.102583044114     Delta-E=       -0.000000239838 Rises=F Damp=F
 DIIS: error= 1.96D-05 at cycle   9 NSaved=   9.
 NSaved= 9 IEnMin= 9 EnMin= -400.102583044114     IErMin= 9 ErrMin= 1.96D-05
 ErrMax= 1.96D-05  0.00D+00 EMaxC= 1.00D-01 BMatC= 5.12D-08 BMatP= 3.06D-07
 IDIUse=1 WtCom= 1.00D+00 WtEn= 0.00D+00
 Coeff-Com: -0.223D-04-0.932D-04-0.213D-03 0.564D-03 0.607D-02 0.253D-01
 Coeff-Com:  0.859D-01 0.392D+00 0.490D+00
 Coeff:     -0.223D-04-0.932D-04-0.213D-03 0.564D-03 0.607D-02 0.253D-01
 Coeff:      0.859D-01 0.392D+00 0.490D+00
 Gap=     0.160 Goal=   None    Shift=    0.000
 RMSDP=6.79D-07 MaxDP=3.57D-05 DE=-2.40D-07 OVMax= 1.69D-04

 Cycle  10  Pass 1  IDiag  1:
 E= -400.102583089999     Delta-E=       -0.000000045886 Rises=F Damp=F
 DIIS: error= 6.71D-06 at cycle  10 NSaved=  10.
 NSaved=10 IEnMin=10 EnMin= -400.102583089999     IErMin=10 ErrMin= 6.71D-06
 ErrMax= 6.71D-06  0.00D+00 EMaxC= 1.00D-01 BMatC= 6.20D-09 BMatP= 5.12D-08
 IDIUse=1 WtCom= 1.00D+00 WtEn= 0.00D+00
 Coeff-Com:  0.101D-04-0.290D-04-0.301D-03-0.374D-03 0.736D-03 0.584D-02
 Coeff-Com:  0.274D-01 0.143D+00 0.300D+00 0.524D+00
 Coeff:      0.101D-04-0.290D-04-0.301D-03-0.374D-03 0.736D-03 0.584D-02
 Coeff:      0.274D-01 0.143D+00 0.300D+00 0.524D+00
 Gap=     0.160 Goal=   None    Shift=    0.000
 RMSDP=2.11D-07 MaxDP=1.01D-05 DE=-4.59D-08 OVMax= 4.51D-05

 Cycle  11  Pass 1  IDiag  1:
 E= -400.102583096047     Delta-E=       -0.000000006048 Rises=F Damp=F
 DIIS: error= 9.45D-07 at cycle  11 NSaved=  11.
 NSaved=11 IEnMin=11 EnMin= -400.102583096047     IErMin=11 ErrMin= 9.45D-07
 ErrMax= 9.45D-07  0.00D+00 EMaxC= 1.00D-01 BMatC= 7.21D-10 BMatP= 6.20D-09
 IDIUse=1 WtCom= 1.00D+00 WtEn= 0.00D+00
 Coeff-Com:  0.772D-05-0.665D-05-0.191D-03-0.336D-03-0.249D-03 0.105D-02
 Coeff-Com:  0.833D-02 0.497D-01 0.145D+00 0.324D+00 0.472D+00
 Coeff:      0.772D-05-0.665D-05-0.191D-03-0.336D-03-0.249D-03 0.105D-02
 Coeff:      0.833D-02 0.497D-01 0.145D+00 0.324D+00 0.472D+00
 Gap=     0.160 Goal=   None    Shift=    0.000
 RMSDP=5.93D-08 MaxDP=4.49D-06 DE=-6.05D-09 OVMax= 9.30D-06

 Cycle  12  Pass 1  IDiag  1:
 E= -400.102583096626     Delta-E=       -0.000000000578 Rises=F Damp=F
 DIIS: error= 2.50D-07 at cycle  12 NSaved=  12.
 NSaved=12 IEnMin=12 EnMin= -400.102583096626     IErMin=12 ErrMin= 2.50D-07
 ErrMax= 2.50D-07  0.00D+00 EMaxC= 1.00D-01 BMatC= 3.19D-11 BMatP= 7.21D-10
 IDIUse=1 WtCom= 1.00D+00 WtEn= 0.00D+00
 Coeff-Com: -0.284D-06 0.412D-05-0.372D-04-0.685D-04-0.170D-03-0.173D-03
 Coeff-Com: -0.296D-03 0.210D-02 0.218D-01 0.602D-01 0.187D+00 0.730D+00
 Coeff:     -0.284D-06 0.412D-05-0.372D-04-0.685D-04-0.170D-03-0.173D-03
 Coeff:     -0.296D-03 0.210D-02 0.218D-01 0.602D-01 0.187D+00 0.730D+00
 Gap=     0.160 Goal=   None    Shift=    0.000
 RMSDP=1.56D-08 MaxDP=4.87D-07 DE=-5.78D-10 OVMax= 2.20D-06

 Cycle  13  Pass 1  IDiag  1:
 E= -400.102583096652     Delta-E=       -0.000000000026 Rises=F Damp=F
 DIIS: error= 7.56D-08 at cycle  13 NSaved=  13.
 NSaved=13 IEnMin=13 EnMin= -400.102583096652     IErMin=13 ErrMin= 7.56D-08
 ErrMax= 7.56D-08  0.00D+00 EMaxC= 1.00D-01 BMatC= 2.34D-12 BMatP= 3.19D-11
 IDIUse=1 WtCom= 1.00D+00 WtEn= 0.00D+00
 Coeff-Com: -0.676D-06 0.248D-05-0.121D-04-0.203D-04-0.745D-04-0.117D-03
 Coeff-Com: -0.479D-03-0.752D-03 0.587D-02 0.172D-01 0.734D-01 0.362D+00
 Coeff-Com:  0.543D+00
 Coeff:     -0.676D-06 0.248D-05-0.121D-04-0.203D-04-0.745D-04-0.117D-03
 Coeff:     -0.479D-03-0.752D-03 0.587D-02 0.172D-01 0.734D-01 0.362D+00
 Coeff:      0.543D+00
 Gap=     0.160 Goal=   None    Shift=    0.000
 RMSDP=3.72D-09 MaxDP=2.36D-07 DE=-2.64D-11 OVMax= 4.51D-07

 SCF Done:  E(RTPSSh) =  -400.102583097     A.U. after   13 cycles
            NFock= 13  Conv=0.37D-08     -V/T= 2.0031
 KE= 3.988606471531D+02 PE=-1.678693747769D+03 EE= 5.085581065563D+02
 Leave Link  502 at Fri Sep  3 02:28:06 2021, MaxMem=  1342177280 cpu:       892.7
 (Enter /gpfs/share/home/1801110325/software/g09e01/l801.exe)
 DoSCS=F DFT=T ScalE2(SS,OS)=  1.000000  1.000000
 Range of M.O.s used for correlation:     1   338
 NBasis=   338 NAE=    30 NBE=    30 NFC=     0 NFV=     0
 NROrb=    338 NOA=    30 NOB=    30 NVA=   308 NVB=   308

 **** Warning!!: The largest alpha MO coefficient is  0.15800394D+02

 Leave Link  801 at Fri Sep  3 02:28:06 2021, MaxMem=  1342177280 cpu:         0.1
 (Enter /gpfs/share/home/1801110325/software/g09e01/l1101.exe)
 Using compressed storage, NAtomX=    15.
 Will process     16 centers per pass.
 Leave Link 1101 at Fri Sep  3 02:28:07 2021, MaxMem=  1342177280 cpu:         3.3
 (Enter /gpfs/share/home/1801110325/software/g09e01/l1102.exe)
 Symmetrizing basis deriv contribution to polar:
 IMax=3 JMax=2 DiffMx= 0.00D+00
 Leave Link 1102 at Fri Sep  3 02:28:07 2021, MaxMem=  1342177280 cpu:         0.2
 (Enter /gpfs/share/home/1801110325/software/g09e01/l1110.exe)
 Forming Gx(P) for the SCF density, NAtomX=    15.
 Integral derivatives from FoFJK, PRISM(SPDF).
 Do as many integral derivatives as possible in FoFJK.
 G2DrvN: MDV=    1342177056.
 G2DrvN: will do    16 centers at a time, making    1 passes.
 Calling FoFCou, ICntrl=  3107 FMM=F I1Cent=   0 AccDes= 1.00D-12.
 FoFJK:  IHMeth= 1 ICntrl=    3107 DoSepK=F KAlg= 0 I1Cent=   0 FoldK=F
 IRaf=         0 NMat=   1 IRICut=       1 DoRegI=T DoRafI=F ISym2E= 0.
 FoFCou: FMM=F IPFlag=           0 FMFlag=      100000 FMFlg1=           0
         NFxFlg=           0 DoJE=F BraDBF=F KetDBF=F FulRan=T
         wScrn=  0.000000 ICntrl=    3107 IOpCl=  0 I1Cent=           0 NGrid=           0
         NMat0=    1 NMatS0=      1 NMatT0=    0 NMatD0=    1 NMtDS0=    0 NMtDT0=    0
 Symmetry not used in FoFCou.
 End of G2Drv F.D. properties file   721 does not exist.
 End of G2Drv F.D. properties file   722 does not exist.
 End of G2Drv F.D. properties file   788 does not exist.
 Leave Link 1110 at Fri Sep  3 02:30:34 2021, MaxMem=  1342177280 cpu:       879.2
 (Enter /gpfs/share/home/1801110325/software/g09e01/l1002.exe)
 Minotr:  Closed shell wavefunction.
          IDoAtm=111111111111111
          Direct CPHF calculation.
          Differentiating once with respect to nuclear coordinates.
          Requested convergence is 1.0D-08 RMS, and 1.0D-07 maximum.
          Secondary convergence is 1.0D-12 RMS, and 1.0D-12 maximum.
          NewPWx=T KeepS1=F KeepF1=F KeepIn=T MapXYZ=F SortEE=F KeepMc=T.
          MDV=    1342176788 using IRadAn=       2.
 Generate precomputed XC quadrature information.
          Solving linear equations simultaneously, MaxMat=       0.
 FoFJK:  IHMeth= 1 ICntrl=       0 DoSepK=F KAlg= 0 I1Cent=   0 FoldK=F
 IRaf= 950000000 NMat=  48 IRICut=     120 DoRegI=T DoRafI=T ISym2E= 2.
 FoFCou: FMM=F IPFlag=           0 FMFlag=      100000 FMFlg1=           0
         NFxFlg=           0 DoJE=F BraDBF=F KetDBF=F FulRan=T
         wScrn=  0.000000 ICntrl=       0 IOpCl=  0 I1Cent=           0 NGrid=           0
         NMat0=   48 NMatS0=     48 NMatT0=    0 NMatD0=   48 NMtDS0=    0 NMtDT0=    0
 Integrals replicated using symmetry in FoFCou.
          There are    48 degrees of freedom in the 1st order CPHF.  IDoFFX=6 NUNeed=     0.
     42 vectors produced by pass  0 Test12= 1.92D-14 2.08D-09 XBig12= 1.47D-01 1.27D-01.
 AX will form    42 AO Fock derivatives at one time.
     42 vectors produced by pass  1 Test12= 1.92D-14 2.08D-09 XBig12= 3.73D-02 4.73D-02.
     42 vectors produced by pass  2 Test12= 1.92D-14 2.08D-09 XBig12= 3.11D-04 2.56D-03.
     42 vectors produced by pass  3 Test12= 1.92D-14 2.08D-09 XBig12= 1.33D-06 1.12D-04.
     42 vectors produced by pass  4 Test12= 1.92D-14 2.08D-09 XBig12= 1.93D-09 5.95D-06.
     34 vectors produced by pass  5 Test12= 1.92D-14 2.08D-09 XBig12= 2.05D-12 1.55D-07.
      8 vectors produced by pass  6 Test12= 1.92D-14 2.08D-09 XBig12= 1.59D-15 3.78D-09.
 InvSVY:  IOpt=1 It=  1 EMax= 1.78D-15
 Solved reduced A of dimension   252 with    42 vectors.
 End of Minotr F.D. properties file   721 does not exist.
 End of Minotr F.D. properties file   722 does not exist.
 End of Minotr F.D. properties file   788 does not exist.
 Leave Link 1002 at Fri Sep  3 02:36:43 2021, MaxMem=  1342177280 cpu:      2215.5
 (Enter /gpfs/share/home/1801110325/software/g09e01/l601.exe)
 Copying SCF densities to generalized density rwf, IOpCl= 0 IROHF=0.

 **********************************************************************

            Population analysis using the SCF density.

 **********************************************************************

 Orbital symmetries:
       Occupied  (A) (A) (A) (A) (A) (A) (A) (A) (A) (A) (A) (A)
                 (A) (A) (A) (A) (A) (A) (A) (A) (A) (A) (A) (A)
                 (A) (A) (A) (A) (A) (A)
       Virtual   (A) (A) (A) (A) (A) (A) (A) (A) (A) (A) (A) (A)
                 (A) (A) (A) (A) (A) (A) (A) (A) (A) (A) (A) (A)
                 (A) (A) (A) (A) (A) (A) (A) (A) (A) (A) (A) (A)
                 (A) (A) (A) (A) (A) (A) (A) (A) (A) (A) (A) (A)
                 (A) (A) (A) (A) (A) (A) (A) (A) (A) (A) (A) (A)
                 (A) (A) (A) (A) (A) (A) (A) (A) (A) (A) (A) (A)
                 (A) (A) (A) (A) (A) (A) (A) (A) (A) (A) (A) (A)
                 (A) (A) (A) (A) (A) (A) (A) (A) (A) (A) (A) (A)
                 (A) (A) (A) (A) (A) (A) (A) (A) (A) (A) (A) (A)
                 (A) (A) (A) (A) (A) (A) (A) (A) (A) (A) (A) (A)
                 (A) (A) (A) (A) (A) (A) (A) (A) (A) (A) (A) (A)
                 (A) (A) (A) (A) (A) (A) (A) (A) (A) (A) (A) (A)
                 (A) (A) (A) (A) (A) (A) (A) (A) (A) (A) (A) (A)
                 (A) (A) (A) (A) (A) (A) (A) (A) (A) (A) (A) (A)
                 (A) (A) (A) (A) (A) (A) (A) (A) (A) (A) (A) (A)
                 (A) (A) (A) (A) (A) (A) (A) (A) (A) (A) (A) (A)
                 (A) (A) (A) (A) (A) (A) (A) (A) (A) (A) (A) (A)
                 (A) (A) (A) (A) (A) (A) (A) (A) (A) (A) (A) (A)
                 (A) (A) (A) (A) (A) (A) (A) (A) (A) (A) (A) (A)
                 (A) (A) (A) (A) (A) (A) (A) (A) (A) (A) (A) (A)
                 (A) (A) (A) (A) (A) (A) (A) (A) (A) (A) (A) (A)
                 (A) (A) (A) (A) (A) (A) (A) (A) (A) (A) (A) (A)
                 (A) (A) (A) (A) (A) (A) (A) (A) (A) (A) (A) (A)
                 (A) (A) (A) (A) (A) (A) (A) (A) (A) (A) (A) (A)
                 (A) (A) (A) (A) (A) (A) (A) (A) (A) (A) (A) (A)
                 (A) (A) (A) (A) (A) (A) (A) (A)
 The electronic state is 1-A.
 Alpha  occ. eigenvalues --  -19.05134 -19.01461 -14.27014 -10.20381 -10.16876
 Alpha  occ. eigenvalues --  -10.14046 -10.12508 -10.12194  -1.03867  -0.97449
 Alpha  occ. eigenvalues --   -0.92376  -0.79976  -0.73821  -0.64199  -0.60868
 Alpha  occ. eigenvalues --   -0.55151  -0.53483  -0.48419  -0.46973  -0.45177
 Alpha  occ. eigenvalues --   -0.42534  -0.41476  -0.38529  -0.36853  -0.35133
 Alpha  occ. eigenvalues --   -0.32041  -0.29474  -0.28860  -0.24974  -0.21769
 Alpha virt. eigenvalues --   -0.05726  -0.01802   0.01201   0.02502   0.04212
 Alpha virt. eigenvalues --    0.05983   0.08012   0.10981   0.11310   0.12088
 Alpha virt. eigenvalues --    0.14376   0.15627   0.16926   0.17823   0.18777
 Alpha virt. eigenvalues --    0.19371   0.20608   0.21181   0.23442   0.24565
 Alpha virt. eigenvalues --    0.26404   0.27558   0.28339   0.28404   0.29948
 Alpha virt. eigenvalues --    0.30328   0.31093   0.31470   0.33620   0.33793
 Alpha virt. eigenvalues --    0.35818   0.36328   0.38460   0.39276   0.40981
 Alpha virt. eigenvalues --    0.41634   0.43705   0.44065   0.45379   0.46627
 Alpha virt. eigenvalues --    0.49989   0.52037   0.53026   0.54465   0.56881
 Alpha virt. eigenvalues --    0.58121   0.61564   0.61698   0.62780   0.63337
 Alpha virt. eigenvalues --    0.64618   0.66359   0.68038   0.71378   0.74382
 Alpha virt. eigenvalues --    0.75871   0.77711   0.80039   0.82082   0.83630
 Alpha virt. eigenvalues --    0.87635   0.89818   0.90873   0.92280   0.92951
 Alpha virt. eigenvalues --    0.95955   0.96956   0.99850   1.02582   1.05808
 Alpha virt. eigenvalues --    1.06818   1.08790   1.10382   1.12721   1.14089
 Alpha virt. eigenvalues --    1.14582   1.15233   1.16696   1.18300   1.20264
 Alpha virt. eigenvalues --    1.22165   1.24006   1.25157   1.26110   1.27089
 Alpha virt. eigenvalues --    1.30058   1.31344   1.33570   1.37895   1.41006
 Alpha virt. eigenvalues --    1.42134   1.44251   1.46920   1.48288   1.49722
 Alpha virt. eigenvalues --    1.51066   1.52551   1.54328   1.57947   1.58649
 Alpha virt. eigenvalues --    1.60554   1.61324   1.63898   1.67035   1.67966
 Alpha virt. eigenvalues --    1.68950   1.71558   1.73639   1.76287   1.79161
 Alpha virt. eigenvalues --    1.82057   1.83252   1.85638   1.86471   1.87461
 Alpha virt. eigenvalues --    1.89126   1.90349   1.94343   1.98165   2.01367
 Alpha virt. eigenvalues --    2.02495   2.06219   2.06539   2.08357   2.10911
 Alpha virt. eigenvalues --    2.12631   2.17722   2.19074   2.21386   2.22539
 Alpha virt. eigenvalues --    2.24539   2.27359   2.29316   2.30995   2.35405
 Alpha virt. eigenvalues --    2.37827   2.47182   2.60768   2.66073   2.77387
 Alpha virt. eigenvalues --    2.85139   2.86957   2.90767   2.95369   2.97515
 Alpha virt. eigenvalues --    3.14599   3.18435   3.19339   3.20132   3.22468
 Alpha virt. eigenvalues --    3.26529   3.26860   3.29529   3.32680   3.34796
 Alpha virt. eigenvalues --    3.36694   3.38186   3.44359   3.45456   3.46818
 Alpha virt. eigenvalues --    3.47628   3.51162   3.53607   3.58116   3.60191
 Alpha virt. eigenvalues --    3.60702   3.63667   3.64299   3.66486   3.67352
 Alpha virt. eigenvalues --    3.69432   3.72247   3.73536   3.77435   3.80614
 Alpha virt. eigenvalues --    3.82047   3.82718   3.87310   3.92158   3.93399
 Alpha virt. eigenvalues --    3.95495   3.99296   3.99650   4.01369   4.06551
 Alpha virt. eigenvalues --    4.07030   4.08604   4.10700   4.10975   4.13255
 Alpha virt. eigenvalues --    4.14321   4.14796   4.18114   4.18767   4.20946
 Alpha virt. eigenvalues --    4.22025   4.23485   4.23501   4.26380   4.26784
 Alpha virt. eigenvalues --    4.28113   4.28662   4.30300   4.32327   4.32830
 Alpha virt. eigenvalues --    4.35033   4.37955   4.38089   4.39451   4.41325
 Alpha virt. eigenvalues --    4.42392   4.44834   4.46415   4.47989   4.49027
 Alpha virt. eigenvalues --    4.50323   4.51440   4.52892   4.54422   4.55262
 Alpha virt. eigenvalues --    4.58961   4.60490   4.61308   4.62549   4.65196
 Alpha virt. eigenvalues --    4.66330   4.69241   4.73236   4.75356   4.78354
 Alpha virt. eigenvalues --    4.81632   4.84196   4.87209   4.87890   4.90580
 Alpha virt. eigenvalues --    4.92037   4.95578   4.97287   4.99064   5.03215
 Alpha virt. eigenvalues --    5.04923   5.08178   5.08945   5.12029   5.14285
 Alpha virt. eigenvalues --    5.18211   5.20166   5.22984   5.26382   5.30182
 Alpha virt. eigenvalues --    5.33215   5.36516   5.37252   5.39495   5.40762
 Alpha virt. eigenvalues --    5.42893   5.45502   5.49318   5.50372   5.53368
 Alpha virt. eigenvalues --    5.54191   5.56932   5.62166   5.63439   5.66494
 Alpha virt. eigenvalues --    5.68153   5.69089   5.71841   5.79955   5.83242
 Alpha virt. eigenvalues --    5.85524   5.89565   5.92843   6.02489   6.07942
 Alpha virt. eigenvalues --    6.09274   6.14177   6.16623   6.19516   6.24455
 Alpha virt. eigenvalues --    6.33937   6.36712   6.39933   6.41291   6.49505
 Alpha virt. eigenvalues --    6.55020   6.55571   6.60695   6.66383   6.69197
 Alpha virt. eigenvalues --    6.71505   6.78501   6.85540   6.88901   7.13093
 Alpha virt. eigenvalues --    7.18605   7.25003   7.38580   7.59456   7.92241
 Alpha virt. eigenvalues --    9.49390  12.20054  13.23530  15.52525  17.27427
 Alpha virt. eigenvalues --   18.72380  18.83757  22.82751
          Condensed to atoms (all electrons):
               1          2          3          4          5          6
     1  O    8.265012  -0.092912   0.378696  -0.062458   0.004635   0.007670
     2  N   -0.092912   6.749769   0.394067  -0.011847   0.471738  -0.029569
     3  C    0.378696   0.394067   4.392227   0.538018  -0.065635  -0.058099
     4  C   -0.062458  -0.011847   0.538018   4.781888  -0.043592   0.543293
     5  C    0.004635   0.471738  -0.065635  -0.043592   4.537962  -0.071424
     6  C    0.007670  -0.029569  -0.058099   0.543293  -0.071424   4.680289
     7  C    0.001264  -0.031198  -0.032941  -0.056412   0.573949   0.502419
     8  H    0.205260   0.005310  -0.013996   0.004717  -0.000737  -0.001044
     9  H    0.006986   0.008138  -0.030487   0.429586  -0.001522  -0.031354
    10  H   -0.000817  -0.038757   0.001586  -0.002423   0.421487   0.007646
    11  H   -0.000659  -0.001609   0.007058  -0.026724   0.006204   0.414742
    12  H    0.000062   0.006234  -0.001389   0.005363  -0.022155  -0.028324
    13  O   -0.155309  -0.189230  -0.003812  -0.000759  -0.000704   0.000820
    14  H    0.008345   0.007467   0.001425   0.000489  -0.000429  -0.000100
    15  H    0.007663   0.177415  -0.014918   0.002305  -0.000384  -0.001610
               7          8          9         10         11         12
     1  O    0.001264   0.205260   0.006986  -0.000817  -0.000659   0.000062
     2  N   -0.031198   0.005310   0.008138  -0.038757  -0.001609   0.006234
     3  C   -0.032941  -0.013996  -0.030487   0.001586   0.007058  -0.001389
     4  C   -0.056412   0.004717   0.429586  -0.002423  -0.026724   0.005363
     5  C    0.573949  -0.000737  -0.001522   0.421487   0.006204  -0.022155
     6  C    0.502419  -0.001044  -0.031354   0.007646   0.414742  -0.028324
     7  C    4.845132   0.000575   0.006038  -0.044829  -0.033655   0.421977
     8  H    0.000575   0.337483   0.000566   0.000018  -0.000005  -0.000027
     9  H    0.006038   0.000566   0.573920   0.000251  -0.006206  -0.000434
    10  H   -0.044829   0.000018   0.000251   0.601312  -0.000658  -0.002607
    11  H   -0.033655  -0.000005  -0.006206  -0.000658   0.601173  -0.005358
    12  H    0.421977  -0.000027  -0.000434  -0.002607  -0.005358   0.596886
    13  O   -0.002013   0.225314   0.000363   0.000705  -0.000026   0.000066
    14  H    0.000265  -0.013359  -0.000047  -0.000270   0.000005  -0.000010
    15  H    0.001440  -0.017846  -0.000302  -0.002190   0.000132  -0.000019
              13         14         15
     1  O   -0.155309   0.008345   0.007663
     2  N   -0.189230   0.007467   0.177415
     3  C   -0.003812   0.001425  -0.014918
     4  C   -0.000759   0.000489   0.002305
     5  C   -0.000704  -0.000429  -0.000384
     6  C    0.000820  -0.000100  -0.001610
     7  C   -0.002013   0.000265   0.001440
     8  H    0.225314  -0.013359  -0.017846
     9  H    0.000363  -0.000047  -0.000302
    10  H    0.000705  -0.000270  -0.002190
    11  H   -0.000026   0.000005   0.000132
    12  H    0.000066  -0.000010  -0.000019
    13  O    7.944276   0.348958   0.251110
    14  H    0.348958   0.440599  -0.012237
    15  H    0.251110  -0.012237   0.367262
 Mulliken charges:
               1
     1  O   -0.573437
     2  N   -0.425014
     3  C    0.508199
     4  C   -0.101445
     5  C    0.190608
     6  C    0.064644
     7  C   -0.152010
     8  H    0.267771
     9  H    0.044503
    10  H    0.059544
    11  H    0.045586
    12  H    0.029735
    13  O   -0.419759
    14  H    0.218898
    15  H    0.242179
 Sum of Mulliken charges =  -0.00000
 Mulliken charges with hydrogens summed into heavy atoms:
               1
     1  O   -0.573437
     2  N   -0.425014
     3  C    0.508199
     4  C   -0.056942
     5  C    0.250151
     6  C    0.110230
     7  C   -0.122275
    13  O    0.309089
 APT charges:
               1
     1  O   -0.411178
     2  N   -0.482593
     3  C    0.084776
     4  C   -0.515296
     5  C   -0.283936
     6  C   -0.359323
     7  C   -0.531970
     8  H    0.285171
     9  H    0.474733
    10  H    0.461919
    11  H    0.599915
    12  H    0.614243
    13  O   -0.793174
    14  H    0.672734
    15  H    0.183977
 Sum of APT charges =  -0.00000
 APT charges with hydrogens summed into heavy atoms:
               1
     1  O   -0.411178
     2  N   -0.482593
     3  C    0.084776
     4  C   -0.040563
     5  C    0.177984
     6  C    0.240592
     7  C    0.082273
    13  O    0.348708
 Electronic spatial extent (au):  <R**2>=            949.5350
 Charge=             -0.0000 electrons
 Dipole moment (field-independent basis, Debye):
    X=             -1.9167    Y=             -2.2776    Z=              1.3373  Tot=              3.2634
 Quadrupole moment (field-independent basis, Debye-Ang):
   XX=            -42.5943   YY=            -45.3360   ZZ=            -48.8527
   XY=             -4.4563   XZ=              4.5556   YZ=             -1.4787
 Traceless Quadrupole moment (field-independent basis, Debye-Ang):
   XX=              3.0001   YY=              0.2584   ZZ=             -3.2584
   XY=             -4.4563   XZ=              4.5556   YZ=             -1.4787
 Octapole moment (field-independent basis, Debye-Ang**2):
  XXX=             10.7838  YYY=             -9.5533  ZZZ=              1.0971  XYY=             -3.8050
  XXY=             -6.2023  XXZ=             14.7496  XZZ=             12.2573  YZZ=             -0.9147
  YYZ=              1.5469  XYZ=             -4.9325
 Hexadecapole moment (field-independent basis, Debye-Ang**3):
 XXXX=           -722.8119 YYYY=           -337.0676 ZZZZ=            -52.7174 XXXY=            -17.8562
 XXXZ=             47.2892 YYYX=            -17.1402 YYYZ=             -1.7534 ZZZX=              4.5724
 ZZZY=             -1.6620 XXYY=           -186.2965 XXZZ=           -144.8939 YYZZ=            -73.8591
 XXYZ=            -14.9663 YYXZ=              5.2797 ZZXY=             -4.5715
 N-N= 3.711724109625D+02 E-N=-1.678693743261D+03  KE= 3.988606471531D+02
  Exact polarizability:   0.000   0.000   0.000   0.000   0.000   0.000
 Approx polarizability: 170.373  12.908 152.333   1.134  -0.774  68.680
 No NMR shielding tensors so no spin-rotation constants.
 Leave Link  601 at Fri Sep  3 02:36:44 2021, MaxMem=  1342177280 cpu:         3.7
 (Enter /gpfs/share/home/1801110325/software/g09e01/l701.exe)
 Compute integral second derivatives.
 ... and contract with generalized density number  0.
 Leave Link  701 at Fri Sep  3 02:36:45 2021, MaxMem=  1342177280 cpu:         2.7
 (Enter /gpfs/share/home/1801110325/software/g09e01/l702.exe)
 L702 exits ... SP integral derivatives will be done elsewhere.
 Leave Link  702 at Fri Sep  3 02:36:45 2021, MaxMem=  1342177280 cpu:         0.0
 (Enter /gpfs/share/home/1801110325/software/g09e01/l703.exe)
 Compute integral second derivatives, UseDBF=F ICtDFT=           0.
 Integral derivatives from FoFJK, PRISM(SPDF).
 Calling FoFJK, ICntrl=    100147 FMM=F ISym2X=0 I1Cent= 0 IOpClX= 0 NMat=1 NMatS=1 NMatT=0.
 FoFJK:  IHMeth= 1 ICntrl=  100147 DoSepK=F KAlg= 0 I1Cent=   0 FoldK=F
 IRaf=         0 NMat=   1 IRICut=       1 DoRegI=T DoRafI=F ISym2E= 0.
 FoFCou: FMM=F IPFlag=           0 FMFlag=      100000 FMFlg1=         800
         NFxFlg=           0 DoJE=F BraDBF=F KetDBF=F FulRan=T
         wScrn=  0.000000 ICntrl=  100147 IOpCl=  0 I1Cent=           0 NGrid=           0
         NMat0=    1 NMatS0=      1 NMatT0=    0 NMatD0=    1 NMtDS0=    0 NMtDT0=    0
 Symmetry not used in FoFCou.
 Leave Link  703 at Fri Sep  3 02:40:19 2021, MaxMem=  1342177280 cpu:      1282.6
 (Enter /gpfs/share/home/1801110325/software/g09e01/l716.exe)
 Dipole        =-7.54105264D-01-8.96061179D-01 5.26138859D-01
 Polarizability= 0.00000000D+00 0.00000000D+00 0.00000000D+00
                 0.00000000D+00 0.00000000D+00 0.00000000D+00
 ***** Axes restored to original set *****
 -------------------------------------------------------------------
 Center     Atomic                   Forces (Hartrees/Bohr)
 Number     Number              X              Y              Z
 -------------------------------------------------------------------
      1        8          -0.038007204   -0.003895128   -0.000568669
      2        7          -0.046588143   -0.011064035    0.000914141
      3        6           0.038643757    0.055112992    0.000088725
      4        6          -0.016434385   -0.007708484    0.000109137
      5        6          -0.008868464   -0.009987909    0.000036935
      6        6           0.002830388    0.009567926   -0.000004799
      7        6           0.006366133   -0.007018800   -0.000047830
      8        1          -0.012193808    0.019677892    0.003480721
      9        1           0.001892642   -0.001120927   -0.000007269
     10        1          -0.000114187    0.000229925   -0.000055667
     11        1          -0.000573827   -0.000292835   -0.000014619
     12        1           0.001011257   -0.000476032   -0.000021455
     13        8           0.070248782   -0.037517209    0.000168293
     14        1           0.006419922    0.003129240   -0.000408018
     15        1          -0.004632863   -0.008636616   -0.003669624
 -------------------------------------------------------------------
 Cartesian Forces:  Max     0.070248782 RMS     0.018879483
 FormGI is forming the generalized inverse of G from B-inverse, IUseBI=4.
 Leave Link  716 at Fri Sep  3 02:40:19 2021, MaxMem=  1342177280 cpu:         0.1
 (Enter /gpfs/share/home/1801110325/software/g09e01/l103.exe)

 GradGradGradGradGradGradGradGradGradGradGradGradGradGradGradGradGradGrad
 Berny optimization.
 Red2BG is reusing G-inverse.
 Internal  Forces:  Max     0.039423696 RMS     0.010161484
 Search for a saddle point.
 Step number   1 out of a maximum of   91
 All quantities printed in internal units (Hartrees-Bohrs-Radians)
 Second derivative matrix not updated -- analytic derivatives used.
 ITU=  0
 LST/QST climbing along tangent vector
     Eigenvalues ---   -0.00198   0.00164   0.00415   0.00581   0.01031
     Eigenvalues ---    0.01200   0.01687   0.01835   0.02081   0.02314
     Eigenvalues ---    0.02690   0.03040   0.03338   0.04671   0.05083
     Eigenvalues ---    0.05634   0.07506   0.10202   0.10737   0.12097
     Eigenvalues ---    0.13095   0.14816   0.19276   0.19821   0.21157
     Eigenvalues ---    0.26474   0.28027   0.30463   0.34657   0.35220
     Eigenvalues ---    0.35752   0.36277   0.36480   0.41386   0.42695
     Eigenvalues ---    0.45660   0.47844   0.52622   0.531231000.00000
     Eigenvalues --- 1000.000001000.000001000.000001000.000001000.00000
     Eigenvalues --- 1000.000001000.000001000.000001000.000001000.00000
     Eigenvalues --- 1000.000001000.000001000.000001000.000001000.00000
     Eigenvalues --- 1000.000001000.000001000.000001000.000001000.00000
     Eigenvalues --- 1000.000001000.000001000.000001000.000001000.00000
     Eigenvalues --- 1000.000001000.000001000.000001000.000001000.00000
     Eigenvalues --- 1000.000001000.000001000.000001000.000001000.00000
     Eigenvalues --- 1000.000001000.000001000.000001000.000001000.00000
     Eigenvalues --- 1000.00000
 Eigenvectors required to have negative eigenvalues:
                          R5        R17       R14       R2        A21
   1                    0.48392  -0.47857   0.45329  -0.41697   0.24247
                          A25       A24       D33       A22       A4
   1                   -0.21772  -0.11417   0.10038   0.07666   0.06808
 QST in optimization variable space.
                        Tangent   TS vect  // Eig F  Eigenval
   1         R1        -0.05752   0.05752   0.00449  -0.00198
   2         R2         0.41697  -0.41697   0.00027   0.00164
   3         R3         0.02818  -0.02818   0.00007   0.00415
   4         R4         0.00732  -0.00732   0.00016   0.00581
   5         R5        -0.48392   0.48392  -0.00103   0.01031
   6         R6         0.01716  -0.01716  -0.00021   0.01200
   7         R7        -0.00786   0.00786   0.00001   0.01687
   8         R8        -0.00009   0.00009  -0.00001   0.01835
   9         R9        -0.00911   0.00911   0.00002   0.02081
  10         R10       -0.00146   0.00146  -0.00005   0.02314
  11         R11        0.00968  -0.00968  -0.00002   0.02690
  12         R12        0.00036  -0.00036  -0.00014   0.03040
  13         R13       -0.00087   0.00087   0.00020   0.03338
  14         R14       -0.45329   0.45329   0.00051   0.04671
  15         R15        0.03121  -0.03121  -0.00532   0.05083
  16         R16       -0.00048   0.00048   0.00399   0.05634
  17         R17        0.47857  -0.47857   0.00182   0.07506
  18         A1        -0.01566   0.01566  -0.00067   0.10202
  19         A2         0.02788  -0.02788   0.00141   0.10737
  20         A3         0.04020  -0.04020  -0.00083   0.12097
  21         A4        -0.06808   0.06808   0.00043   0.13095
  22         A5        -0.00021   0.00021  -0.01034   0.14816
  23         A6         0.03771  -0.03771  -0.00587   0.19276
  24         A7        -0.03750   0.03750  -0.00998   0.19821
  25         A8         0.01325  -0.01325   0.00090   0.21157
  26         A9        -0.01199   0.01199   0.01838   0.26474
  27         A10       -0.00126   0.00126   0.02353   0.28027
  28         A11       -0.01153   0.01153   0.02381   0.30463
  29         A12        0.00057  -0.00057  -0.00767   0.34657
  30         A13        0.01096  -0.01096  -0.00241   0.35220
  31         A14        0.00715  -0.00715  -0.00235   0.35752
  32         A15       -0.00186   0.00186  -0.00111   0.36277
  33         A16       -0.00529   0.00529   0.00237   0.36480
  34         A17        0.00075  -0.00075  -0.00937   0.41386
  35         A18       -0.00104   0.00104  -0.00095   0.42695
  36         A19        0.00030  -0.00030   0.01060   0.45660
  37         A20       -0.03444   0.03444   0.00312   0.47844
  38         A21       -0.24247   0.24247   0.00150   0.52622
  39         A22       -0.07666   0.07666   0.00660   0.53123
  40         A23        0.00539  -0.00539   0.000001000.00000
  41         A24        0.11417  -0.11417   0.000001000.00000
  42         A25        0.21772  -0.21772  -0.000001000.00000
  43         A26        0.00432  -0.00432  -0.000001000.00000
  44         D1         0.00757  -0.00757  -0.000001000.00000
  45         D2         0.00763  -0.00763  -0.000001000.00000
  46         D3        -0.01202   0.01202   0.000001000.00000
  47         D4        -0.01022   0.01022  -0.000001000.00000
  48         D5         0.00109  -0.00109   0.000001000.00000
  49         D6         0.00104  -0.00104  -0.000001000.00000
  50         D7         0.00469  -0.00469   0.000001000.00000
  51         D8         0.00464  -0.00464  -0.000001000.00000
  52         D9        -0.00056   0.00056   0.000001000.00000
  53         D10       -0.00069   0.00069   0.000001000.00000
  54         D11       -0.00563   0.00563   0.000001000.00000
  55         D12       -0.00577   0.00577   0.000001000.00000
  56         D13       -0.01459   0.01459  -0.000001000.00000
  57         D14       -0.01010   0.01010  -0.000001000.00000
  58         D15       -0.00996   0.00996   0.000001000.00000
  59         D16       -0.00547   0.00547   0.000001000.00000
  60         D17       -0.00092   0.00092   0.000001000.00000
  61         D18       -0.00067   0.00067  -0.000001000.00000
  62         D19       -0.00087   0.00087   0.000001000.00000
  63         D20       -0.00062   0.00062   0.000001000.00000
  64         D21        0.00023  -0.00023  -0.000001000.00000
  65         D22        0.00030  -0.00030   0.000001000.00000
  66         D23       -0.00004   0.00004  -0.000001000.00000
  67         D24        0.00002  -0.00002   0.000001000.00000
  68         D25       -0.00012   0.00012   0.000001000.00000
  69         D26       -0.00012   0.00012   0.000001000.00000
  70         D27        0.00003  -0.00003  -0.000001000.00000
  71         D28        0.00003  -0.00003   0.000001000.00000
  72         D29        0.00026  -0.00026  -0.000001000.00000
  73         D30        0.00025  -0.00025   0.000001000.00000
  74         D31        0.00019  -0.00019  -0.000001000.00000
  75         D32        0.00018  -0.00018  -0.000001000.00000
  76         D33       -0.10038   0.10038   0.000001000.00000
  77         D34        0.01297  -0.01297  -0.000001000.00000
  78         D35        0.01720  -0.01720   0.000001000.00000
  79         D36        0.03430  -0.03430  -0.000001000.00000
  80         D37        0.01279  -0.01279  -0.000001000.00000
  81         D38       -0.04345   0.04345  -0.000001000.00000
 RFO step:  Lambda0=3.608466676D-03 Lambda=-7.96138151D-03.
 Linear search not attempted -- option 19 set.
 Maximum step size (   0.300) exceeded in Quadratic search.
    -- Step size scaled by   0.366
 Iteration  1 RMS(Cart)=  0.02552536 RMS(Int)=  0.00125160
 Iteration  2 RMS(Cart)=  0.00071176 RMS(Int)=  0.00044709
 Iteration  3 RMS(Cart)=  0.00000140 RMS(Int)=  0.00044708
 Iteration  4 RMS(Cart)=  0.00000000 RMS(Int)=  0.00044708
 ITry= 1 IFail=0 DXMaxC= 1.47D-01 DCOld= 1.00D+10 DXMaxT= 3.00D-01 DXLimC= 3.00D+00 Rises=F
 Variable       Old X    -DE/DX   Delta X   Delta X   Delta X     New X
                                 (Linear)    (Quad)   (Total)
    R1        2.52987  -0.02543   0.00000  -0.03593  -0.03635   2.49352
    R2        2.30665   0.02644   0.00000   0.12743   0.12769   2.43434
    R3        2.52522   0.02605   0.00000   0.01784   0.01731   2.54253
    R4        2.53539   0.00606   0.00000   0.00255   0.00254   2.53793
    R5        2.32436   0.03942   0.00000  -0.12860  -0.12856   2.19581
    R6        2.65011   0.00809   0.00000   0.00978   0.00978   2.65989
    R7        2.60764  -0.00202   0.00000  -0.00438  -0.00437   2.60327
    R8        2.04263  -0.00123   0.00000  -0.00007  -0.00007   2.04255
    R9        2.61148  -0.00704   0.00000  -0.00541  -0.00541   2.60607
   R10        2.04883  -0.00025   0.00000  -0.00076  -0.00076   2.04807
   R11        2.64099   0.00816   0.00000   0.00560   0.00561   2.64659
   R12        2.04685   0.00040   0.00000   0.00027   0.00027   2.04712
   R13        2.04306  -0.00051   0.00000  -0.00053  -0.00053   2.04253
   R14        2.07870   0.03509   0.00000  -0.10495  -0.10599   1.97271
   R15        3.04284   0.01243   0.00000   0.00774   0.01018   3.05303
   R16        1.81951   0.00188   0.00000  -0.00011  -0.00011   1.81940
   R17        2.11385   0.03223   0.00000   0.17094   0.16930   2.28315
    A1        1.80740   0.01029   0.00000   0.00159   0.00161   1.80900
    A2        2.06274   0.00775   0.00000   0.01829   0.01834   2.08108
    A3        1.83040  -0.00363   0.00000   0.01445   0.01422   1.84461
    A4        2.39005  -0.00412   0.00000  -0.03274  -0.03256   2.35749
    A5        2.07268   0.00441   0.00000  -0.00232  -0.00288   2.06980
    A6        2.06934   0.01033   0.00000   0.02601   0.02635   2.09569
    A7        2.14116  -0.01474   0.00000  -0.02369  -0.02347   2.11769
    A8        2.06190   0.00430   0.00000   0.00777   0.00770   2.06960
    A9        2.08456  -0.00401   0.00000  -0.00710  -0.00706   2.07749
   A10        2.13673  -0.00029   0.00000  -0.00067  -0.00064   2.13609
   A11        2.15429  -0.00338   0.00000  -0.00738  -0.00746   2.14683
   A12        2.01742   0.00177   0.00000   0.00096   0.00100   2.01841
   A13        2.11148   0.00161   0.00000   0.00642   0.00646   2.11794
   A14        2.08960   0.00376   0.00000   0.00495   0.00489   2.09449
   A15        2.09271  -0.00137   0.00000  -0.00142  -0.00139   2.09132
   A16        2.10087  -0.00239   0.00000  -0.00353  -0.00350   2.09738
   A17        2.05668   0.00231   0.00000   0.00007  -0.00000   2.05668
   A18        2.10443  -0.00216   0.00000  -0.00036  -0.00033   2.10410
   A19        2.12208  -0.00014   0.00000   0.00030   0.00033   2.12240
   A20        2.64384   0.00928   0.00000   0.00734   0.00841   2.65225
   A21        1.87822  -0.00283   0.00000  -0.06958  -0.06944   1.80877
   A22        1.98591   0.00631   0.00000  -0.02732  -0.02642   1.95949
   A23        1.62425  -0.02525   0.00000  -0.02889  -0.02941   1.59485
   A24        1.86033   0.01627   0.00000   0.04864   0.04884   1.90917
   A25        1.83579  -0.00825   0.00000   0.05572   0.05635   1.89214
   A26        2.58415   0.00501   0.00000   0.00755   0.00778   2.59192
    D1        0.01335  -0.00000   0.00000   0.00160   0.00166   0.01501
    D2       -3.12787   0.00013   0.00000   0.00158   0.00159  -3.12628
    D3        0.03492  -0.00117   0.00000  -0.00102  -0.00113   0.03379
    D4       -0.01996  -0.00035   0.00000  -0.00312  -0.00303  -0.02299
    D5       -3.13871   0.00012   0.00000   0.00044   0.00033  -3.13838
    D6        0.00250  -0.00002   0.00000   0.00046   0.00041   0.00291
[...]
   A13        2.13539  -0.00000   0.00000   0.00000   0.00000   2.13539
   A14        2.10778  -0.00000   0.00000   0.00000   0.00000   2.10778
   A15        2.08645   0.00000   0.00000   0.00000   0.00000   2.08645
   A16        2.08895   0.00000   0.00000  -0.00000  -0.00000   2.08895
   A17        2.05675   0.00000   0.00000  -0.00000  -0.00000   2.05675
   A18        2.10397  -0.00000   0.00000   0.00000   0.00000   2.10397
   A19        2.12247  -0.00000   0.00000  -0.00000  -0.00000   2.12247
   A20        2.76439  -0.00001   0.00000   0.00001   0.00001   2.76440
   A21        1.90272  -0.00000   0.00000  -0.00016  -0.00016   1.90256
   A22        1.94532   0.00001   0.00000  -0.00035  -0.00035   1.94498
   A23        1.41940  -0.00000   0.00000   0.00000   0.00000   1.41940
   A24        1.97557   0.00000   0.00000  -0.00037  -0.00037   1.97520
   A25        1.76902   0.00000   0.00000   0.00014   0.00014   1.76917
   A26        2.62232   0.00002   0.00000   0.00032   0.00032   2.62264
    D1       -0.00013  -0.00000   0.00000   0.00009   0.00009  -0.00005
    D2       -3.14049  -0.00000   0.00000  -0.00001  -0.00001  -3.14050
    D3        0.10480  -0.00001   0.00000  -0.00427  -0.00427   0.10053
    D4       -0.01056   0.00000   0.00000  -0.00038  -0.00038  -0.01094
    D5       -3.13788   0.00000   0.00000  -0.00014  -0.00014  -3.13802
    D6        0.00254   0.00000   0.00000  -0.00005  -0.00005   0.00249
    D7        0.01387   0.00000   0.00000   0.00034   0.00034   0.01421
    D8       -3.12890   0.00000   0.00000   0.00043   0.00043  -3.12847
    D9       -0.00150  -0.00000   0.00000   0.00004   0.00004  -0.00146
   D10        3.13739  -0.00000   0.00000   0.00003   0.00003   3.13742
   D11        3.12698  -0.00000   0.00000  -0.00058  -0.00058   3.12640
   D12       -0.01732  -0.00000   0.00000  -0.00058  -0.00058  -0.01790
   D13       -0.01684   0.00000   0.00000  -0.00047  -0.00048  -0.01731
   D14       -0.13076   0.00001   0.00000   0.00143   0.00143  -0.12933
   D15        3.13639   0.00000   0.00000   0.00007   0.00007   3.13646
   D16        3.02246   0.00001   0.00000   0.00198   0.00198   3.02444
   D17        3.13818  -0.00000   0.00000   0.00012   0.00012   3.13830
   D18       -0.00085  -0.00000   0.00000   0.00011   0.00011  -0.00074
   D19       -0.00217  -0.00000   0.00000   0.00002   0.00002  -0.00214
   D20       -3.14120  -0.00000   0.00000   0.00001   0.00001  -3.14119
   D21        0.00081   0.00000   0.00000   0.00001   0.00001   0.00082
   D22       -3.13975   0.00000   0.00000  -0.00001  -0.00001  -3.13976
   D23        3.13974   0.00000   0.00000   0.00002   0.00002   3.13976
   D24       -0.00082  -0.00000   0.00000   0.00000   0.00000  -0.00082
   D25        0.00006   0.00000   0.00000  -0.00000  -0.00000   0.00006
   D26        3.13974   0.00000   0.00000  -0.00000  -0.00000   3.13973
   D27       -3.13865   0.00000   0.00000   0.00000   0.00000  -3.13865
   D28        0.00102  -0.00000   0.00000   0.00000   0.00000   0.00103
   D29        0.00025  -0.00000   0.00000  -0.00002  -0.00002   0.00023
   D30       -3.13941  -0.00000   0.00000  -0.00002  -0.00002  -3.13942
   D31        3.14081  -0.00000   0.00000  -0.00000  -0.00000   3.14080
   D32        0.00115  -0.00000   0.00000  -0.00000  -0.00000   0.00115
   D33       -2.09123   0.00001   0.00000   0.00524   0.00524  -2.08599
   D34       -0.14350   0.00002   0.00000   0.00484   0.00484  -0.13866
   D35        0.01893  -0.00000   0.00000   0.00059   0.00059   0.01951
   D36        1.56291   0.00000   0.00000  -0.00029  -0.00029   1.56262
   D37        0.14793  -0.00001   0.00000  -0.00249  -0.00249   0.14544
   D38        2.06270  -0.00000   0.00000  -0.00286  -0.00286   2.05984
         Item               Value     Threshold  Converged?
 Maximum Force            0.000033     0.000450     YES
 RMS     Force            0.000007     0.000300     YES
 Maximum Displacement     0.003081     0.001800     NO 
 RMS     Displacement     0.000604     0.001200     YES
 Predicted change in Energy=-1.250180D-07
 GradGradGradGradGradGradGradGradGradGradGradGradGradGradGradGradGradGrad

 Leave Link  103 at Fri Sep  3 03:19:21 2021, MaxMem=  1342177280 cpu:         9.1
 (Enter /gpfs/share/home/1801110325/software/g09e01/l9999.exe)
 1\1\GINC-A5U03N09\Freq\RTPSSh\Gen\C5H7N1O2\1801110325\03-Sep-2021\0\\#
 P Geom=AllCheck Guess=TCheck SCRF=Check GenChk RTPSSh/ChkBas Freq\\HY_
 H2O_TPSSh_PC2_OPT_FREQ\\0,1\O,1.2939207344,1.3801783524,-0.0070543153\
 N,0.3272808144,-0.6806820315,-0.0092244696\C,0.2071932219,0.6777132647
 ,-0.0037035575\C,-1.0871205813,1.2460268154,0.0038715171\C,-0.74915932
 5,-1.4838270891,-0.0105314441\C,-2.1834960966,0.4162505785,0.002847214
 6\C,-2.0280148533,-0.9803350899,-0.0046256763\H,2.1847790635,0.5871849
 769,-0.014557042\H,-1.1774037194,2.32288982,0.0078535029\H,-0.54519729
 77,-2.5471735443,-0.0191360165\H,-3.1783434325,0.8454219218,0.00688999
 97\H,-2.8797374842,-1.6448319046,-0.0075336137\O,2.7498476044,-0.53076
 34206,-0.069762885\H,3.2555091854,-0.709835062,0.7300945244\H,1.553529
 9359,-0.9254701376,-0.0000848288\\Version=EM64L-G09RevE.01\State=1-A\H
 F=-400.1209331\RMSD=3.894e-09\RMSF=2.215e-05\ZeroPoint=0.1120659\Therm
 al=0.1186705\Dipole=-1.1051513,-0.6781755,0.5346962\DipoleDeriv=-1.873
 0039,-0.3007619,-0.0149898,-0.1577323,-0.8388698,0.0052785,-0.0136457,
 0.0031031,-0.3273145,-1.3086552,0.1666207,-0.0090602,-0.4626951,-0.466
 1232,-0.0015578,-0.0419712,0.0005732,-0.150898,1.6342682,0.7165616,0.0
 030639,0.6646231,0.5964167,0.0018102,-0.0068154,-0.0037318,0.1909853,-
 0.6076714,-0.4246137,-0.0032074,0.0940332,0.0426291,-0.0002705,0.01102
 2,-0.0004447,-0.160055,0.5732869,-0.285919,-0.0017013,0.2918173,0.2499
 729,0.0088634,0.0012158,0.0064777,-0.0057669,0.274681,0.0997296,-0.000
 039,0.076191,0.4999133,0.0029281,-0.0019067,0.001807,-0.0742003,-0.239
 0163,0.3262502,0.0005946,0.0415228,-0.4082556,-0.0018421,0.0081618,-0.
 0012266,-0.1786371,1.1163793,-0.4241652,0.0042826,-0.9480825,0.7087954
 ,-0.0352264,-0.0094715,-0.0216943,0.1999142,0.0619966,-0.0025256,-0.00
 0079,0.0133004,-0.0365491,-0.0007159,0.0003565,-0.0005688,0.1468809,0.
 0598804,0.0290857,-0.000392,-0.0123829,-0.067847,-0.0011841,-0.0038328
 ,-0.0016838,0.1251396,-0.0619745,0.0627983,0.0004202,0.0643152,0.05706
 87,-0.0005145,-0.0010984,0.0000032,0.1216243,-0.0221156,-0.0691018,-0.
 0006893,-0.067653,0.005831,-0.0006569,-0.0004981,-0.0006914,0.1539378,
 -1.7556558,0.2204708,0.020627,0.3482552,-0.7664687,-0.0096037,0.093552
 5,-0.0279424,-0.3554104,0.2693672,0.0028792,-0.0323415,-0.0103638,0.26
 27474,0.0124935,-0.0582244,0.0252037,0.1432446,1.8782331,-0.117309,0.0
 335113,0.0648513,0.160739,0.0201983,0.0231556,0.0208158,0.1705554\Pola
 r=105.7210168,3.1959303,85.1034515,1.4113666,-0.2540722,43.8798352\PG=
 C01 [X(C5H7N1O2)]\NImag=1\\0.43447456,0.13927465,0.33515151,-0.0018353
 8,-0.00092116,0.05270005,0.02641134,-0.05895712,0.00043213,0.59856541,
 -0.03792453,-0.05752791,-0.00030061,0.11610610,0.61144672,0.00131102,-
 0.00043852,0.01299632,0.00089274,0.00196077,0.10106726,-0.31507156,-0.
 13140340,0.00109773,-0.17438107,0.01732930,-0.00123093,0.78465091,-0.1
 3064626,-0.19515968,0.00107193,0.04340669,-0.24656363,-0.00122353,0.03
 519472,0.62736280,0.00034513,0.00017712,-0.06420108,0.00009498,-0.0008
 2552,-0.07071451,-0.00143482,0.00138559,0.19298497,-0.07220273,0.00472
 995,0.00030633,0.02985377,0.06167300,0.00066855,-0.23273130,0.04813626
 ,0.00056879,0.66101758,-0.03035594,0.02074244,0.00011243,0.03684921,-0
 .02488313,-0.00019802,0.09361731,-0.15783605,-0.00077886,0.04087310,0.
 75930889,0.00038410,0.00052620,0.01301042,-0.00023368,-0.00037294,0.01
 221521,0.00108586,-0.00094739,-0.07419075,-0.00159104,0.00247843,0.117
 87918,-0.01372970,0.01253076,-0.00005682,-0.26708629,-0.08562773,0.000
 23570,0.05285436,-0.07553587,-0.00044599,-0.05950453,-0.00364294,0.000
 15152,0.69672319,-0.00292544,-0.00001368,-0.00014886,-0.11040771,-0.20
 771836,-0.00021005,-0.02219424,-0.05630423,-0.00005220,-0.00960714,0.0
 0044381,0.00008182,-0.04568118,0.75289962,-0.00003955,0.00005457,0.008
 17416,-0.00018651,-0.00049092,-0.05389848,-0.00024223,-0.00008386,-0.0
 0281871,0.00006946,0.00008947,-0.00310397,-0.00144439,0.00392310,0.146
 52049,0.00462276,0.00413458,-0.00001619,-0.00814482,-0.01603186,-0.000
 28274,-0.05281637,-0.00253147,0.00019881,-0.29162470,-0.14783411,0.000
 02326,0.01593634,0.03739937,0.00024114,0.74213230,0.02226845,-0.006553
 75,-0.00001203,-0.03588864,-0.05052672,-0.00025612,-0.03993807,0.06337
 828,0.00049518,-0.09407641,-0.22225065,-0.00044386,0.08171854,-0.01464
 871,-0.00033903,-0.00527386,0.66179012,0.00010407,-0.00006946,0.004794
 21,-0.00008019,-0.00017537,-0.00643420,-0.00007997,0.00032817,0.000136
 71,0.00013646,-0.00039762,-0.05503798,0.00040756,-0.00019633,0.0069751
 2,-0.00140038,0.00247454,0.14200695,0.00655617,-0.00639474,0.00003042,
 -0.07632109,-0.04393489,-0.00007319,-0.02628834,0.04178539,0.00022860,
 0.04110805,-0.02519219,-0.00023187,-0.32613336,0.11556370,0.00117693,-
 0.12776114,-0.00904661,0.00005076,0.74227096,-0.01554179,0.00142563,-0
 .00000330,0.00280175,0.05011005,0.00033070,0.03322045,-0.03429401,-0.0
 0028862,-0.05619862,-0.03658944,-0.00007418,0.05767855,-0.16537402,-0.
 00081309,0.04989533,-0.30447803,-0.00130486,0.04227907,0.66952899,-0.0
 0016210,0.00012901,-0.00089585,0.00000675,0.00027964,0.01604259,0.0003
 0425,-0.00031698,-0.00775353,-0.00038421,-0.00021340,0.00659704,0.0007
 8230,-0.00081012,-0.06338085,0.00038893,-0.00130802,-0.06027702,-0.000
 87156,0.00312174,0.11584681,-0.00381990,-0.00810152,-0.00128121,-0.016
 01850,0.01416576,-0.00127891,-0.06388656,-0.02008979,0.00036033,0.0112
 7361,0.00187845,0.00012743,0.00184800,0.00316220,0.00001665,-0.0020788
 1,-0.00528184,-0.00002013,-0.00144643,0.00415452,0.00016888,0.06659762
 ,-0.03215644,-0.05044943,0.00070093,0.01788542,-0.01265192,0.00142041,
 0.02334651,0.04880170,-0.00004391,-0.01744882,-0.00689523,-0.00009450,
 -0.00404994,-0.00562889,-0.00009949,0.00179586,0.00877816,0.00003191,0
 .00355607,-0.00571182,-0.00017529,0.05608332,0.04284834,0.00163753,-0.
 00169224,-0.03443897,-0.00106744,0.00008087,-0.00156497,-0.00063809,-0
 .00037992,0.00096864,0.00021644,0.00001331,0.00357543,-0.00000324,0.00
 013201,-0.00076092,-0.00006209,-0.00012504,0.00096132,-0.00011520,0.00
 005693,0.00031205,0.00521515,0.00466618,0.06674554,0.00266555,-0.00202
 942,-0.00002314,-0.00672079,0.00445817,0.00000630,0.00361096,0.0298800
 7,0.00009174,-0.06042032,0.02575196,0.00021775,-0.00210571,-0.00110309
 ,-0.00000359,0.00725372,-0.02698977,-0.00011314,-0.00389094,-0.0026569
 7,0.00002412,-0.00080781,0.00098010,-0.00002839,0.05739189,-0.00029137
 ,0.00152419,0.00001685,0.00289429,-0.00024079,-0.00001008,-0.00331696,
 -0.00985842,-0.00000424,0.02768501,-0.34084036,-0.00118742,0.00055830,
 0.00093011,0.00000793,0.00368095,-0.01280508,-0.00004969,-0.00352770,0
 .00101234,-0.00001175,0.00047878,-0.00041846,0.00001114,-0.02753050,0.
 36028144,-0.00001742,-0.00000863,-0.00232415,0.00006579,-0.00003234,0.
 00553213,-0.00001207,-0.00011783,0.00231535,0.00019984,-0.00105911,-0.
 03345980,0.00001494,0.00000873,-0.00055022,-0.00001135,-0.00002862,0.0
 0188400,0.00000517,-0.00004291,0.00887849,-0.00001655,0.00001094,-0.00
 034860,-0.00020380,0.00125546,0.02403736,-0.00092620,-0.00167389,-0.00
 000213,0.00502809,-0.03460313,-0.00023619,-0.00351801,-0.00111040,0.00
 002370,-0.00038273,-0.00070953,0.00000284,-0.07243294,0.06196339,0.000
 49533,-0.00602547,0.00128751,0.00003325,0.00205279,0.02841036,0.000219
 01,0.00087575,-0.00082676,0.00001246,0.00018449,0.00000008,-0.00000716
 ,0.07389041,-0.00053194,-0.00150415,0.00000757,-0.00300455,-0.02158424
 ,-0.00015569,-0.00286966,0.00320293,-0.00009154,0.00018145,0.00043763,
 0.00000473,0.05798424,-0.32232081,-0.00217153,0.00227690,0.00066281,-0
 .00006193,-0.00085943,-0.00552309,-0.00010262,0.00049048,-0.00039144,0
 .00000266,0.00008242,-0.00009005,0.00001125,-0.05426832,0.34673617,0.0
 0003706,-0.00004060,0.00004454,0.00013391,0.00011550,-0.00051925,-0.00
 000446,-0.00001331,0.00834647,0.00004001,0.00002034,-0.00037375,0.0004
 2753,-0.00247908,-0.03995947,0.00000020,-0.00005376,0.00769228,0.00002
 749,-0.00008083,0.00651268,-0.00007210,0.00006549,-0.00013043,-0.00000
 773,0.00000493,-0.00150309,-0.00048187,0.00249618,0.02585300,-0.002028
 76,0.00082163,0.00000733,0.00027177,-0.00058697,-0.00000409,-0.0010851
 5,-0.00415018,-0.00000891,-0.01906855,0.01234270,0.00009392,0.00165163
 ,0.00053512,0.00000648,-0.29130716,0.09994756,0.00098071,0.00093027,-0
 .00083364,-0.00001068,0.00044062,-0.00079840,-0.00000145,0.00121355,-0
 .00017015,-0.00000967,-0.00004650,-0.00013539,-0.00000042,0.30860100,-
 0.00101616,0.00076905,0.00001117,-0.00096554,-0.00015669,0.00000659,-0
 .00353976,-0.00246804,-0.00005037,-0.01884612,0.01194865,0.00007031,-0
 .00001989,-0.00690296,-0.00006863,0.10050984,-0.10346017,-0.00048951,0
 .03009459,-0.00642221,-0.00010567,0.00004932,-0.00035731,0.00000278,0.
 00062509,0.00089478,0.00002308,0.00166694,-0.00041370,0.00000069,-0.10
 781422,0.10504327,-0.00001377,-0.00006115,-0.00111115,0.00004238,0.000
 00733,-0.00200658,0.00000801,-0.00001208,0.01087124,0.00000478,0.00004
 901,0.00577540,0.00002666,-0.00009319,0.00656504,0.00089434,-0.0004921
 7,-0.04239252,0.00015457,-0.00004147,0.00475513,-0.00003202,0.00002580
 ,-0.00046169,-0.00001572,0.00001095,-0.00503093,0.00000387,0.00000277,
 -0.00049548,-0.00106439,0.00057598,0.02694314,0.00051840,-0.00032497,0
 .00000606,-0.00565682,0.00347974,0.00003898,-0.00031080,0.00142509,-0.
 00000810,0.00095988,0.00166691,0.00000821,-0.01688089,-0.02164785,-0.0
 0014729,0.00795814,0.00509752,0.00000876,-0.23639640,-0.13767922,-0.00
 051361,-0.00023592,0.00053684,-0.00002298,0.00029337,0.00035658,0.0000
 0014,0.00081044,0.00029684,-0.00000025,0.00062516,-0.00061459,-0.00000
 177,0.24773095,-0.00050548,0.00046389,0.00000499,0.00398903,0.00011390
 ,-0.00005513,0.00133402,-0.00119870,-0.00000627,0.00261475,-0.00506730
 ,-0.00006347,0.01110970,0.01138588,0.00006287,-0.02642898,-0.01340262,
 -0.00005336,-0.13902771,-0.16549465,-0.00062351,0.00022327,-0.00036981
 ,0.00000833,-0.00136011,-0.00059466,-0.00000204,-0.00067700,0.00053467
 ,0.00002892,0.00037887,0.00128132,0.00002731,0.14848189,0.17174138,-0.
 00000330,-0.00003966,-0.00091756,0.00003294,-0.00008625,0.00825642,-0.
 00000661,0.00003225,-0.00025544,0.00001584,-0.00005626,0.00560135,0.00
 011430,0.00011354,-0.00129387,-0.00014493,-0.00003090,0.00021617,-0.00
 058459,-0.00070470,-0.02968109,0.00001498,-0.00001503,-0.00000224,-0.0
 0000868,-0.00000400,0.00062724,-0.00001530,0.00003933,-0.00384333,-0.0
 0000187,0.00002422,-0.00309994,0.00059009,0.00068570,0.02366861,-0.021
 68764,0.04038109,0.00078649,-0.08623035,-0.00953283,-0.00275630,-0.002
 87707,-0.00476414,0.00041709,0.00048758,0.00140477,0.00023399,-0.00189
 805,0.01504407,-0.00011808,-0.00054368,-0.00177837,-0.00008021,-0.0053
 9142,-0.00161177,0.00031694,-0.02705792,0.00454142,-0.00210343,-0.0006
 3235,0.00040983,-0.00000580,-0.00026480,-0.00107745,-0.00014298,-0.000
 31322,0.00005395,-0.00002772,-0.00146788,0.00043398,0.00005108,0.29426
 085,0.08857866,-0.04453931,0.00344659,-0.02672808,0.02008274,-0.003817
 78,-0.03079312,-0.03219707,0.00022672,0.01093144,0.00578965,-0.0003237
 6,0.00401754,0.00502511,-0.00007916,-0.00125817,-0.00602134,-0.0000737
 2,-0.00296521,0.00383282,0.00029088,-0.04087309,-0.00496033,-0.0225307
 0,-0.00119609,0.00054868,-0.00002456,0.00068033,0.00004853,-0.00009594
 ,0.00044703,0.00023884,0.00006359,-0.00044887,0.00031401,0.00006338,-0
 .07350185,0.12658761,-0.00348959,0.00510534,0.01531761,-0.00645949,-0.
 00078552,0.01606875,0.00099785,-0.00055549,-0.00039217,-0.00014153,0.0
 0005177,-0.00184182,-0.00049283,0.00041482,0.00083436,0.00009816,-0.00
 003889,0.00011941,-0.00010775,-0.00018842,-0.00123707,-0.00373849,-0.0
 0731275,-0.03926285,0.00003537,-0.00000724,0.00014950,0.00000857,-0.00
 008359,0.00054333,0.00001359,0.00000949,0.00024718,-0.00008694,0.00000
 119,-0.00022984,0.21749017,-0.07711779,0.40873489,0.00098817,0.0020599
 3,0.00162463,-0.00762123,-0.00184712,0.00395255,-0.00062871,-0.0011775
 4,-0.00060699,0.00017313,0.00017039,-0.00047811,-0.00085895,0.00106655
 ,0.00010519,0.00003249,-0.00016621,0.00005919,-0.00028642,-0.00029212,
 -0.00034492,-0.00439385,-0.00112245,-0.00559491,0.00000309,0.00003518,
 0.00000789,-0.00005493,-0.00013722,0.00013707,0.00002045,0.00000021,0.
 00006521,-0.00011670,0.00004322,-0.00004081,-0.15115460,0.04368073,-0.
 20838386,0.16091861,0.00703106,-0.00697570,-0.00394659,-0.00577893,0.0
 0095209,0.00200811,-0.00164497,-0.00190906,-0.00009728,0.00048261,0.00
 024362,0.00034512,0.00002438,0.00101156,0.00000234,-0.00003604,-0.0002
 3066,0.00003008,-0.00036271,-0.00004384,-0.00010278,0.00241095,0.00890
 356,0.01877836,-0.00007720,0.00005078,0.00000869,-0.00004732,-0.000133
 07,0.00000117,0.00002015,0.00000408,-0.00006513,-0.00010337,0.00003007
 ,-0.00002123,0.04223985,-0.04308265,0.07292722,-0.04974728,0.03958721,
 0.00321437,-0.00330861,-0.00000975,0.00470995,0.00018979,-0.00014090,-
 0.00041896,-0.00008667,0.00003871,0.00007111,0.00000586,-0.00001517,0.
 00032331,-0.00037377,0.00003485,0.00002173,0.00002826,-0.00001318,0.00
 017856,0.00010545,0.00000487,-0.00092436,0.00288149,0.00022420,0.00000
 849,0.00000083,0.00000484,-0.00001989,0.00005612,0.00001059,0.00000794
 ,-0.00000523,0.00000941,0.00007842,-0.00000281,0.00000394,-0.22906993,
 0.08251485,-0.36039376,0.22551207,-0.08038343,0.35929410,-0.04677045,0
 .00495247,-0.00107626,-0.01194943,0.01287700,-0.00124349,0.03247871,0.
 04017742,0.00017561,-0.00893874,-0.00682010,0.00020581,-0.00838310,-0.
 02116774,0.00007047,0.00236638,0.00812019,-0.00000673,0.01099730,-0.00
 362590,0.00007590,0.03871008,-0.05232274,0.00255563,0.00196130,-0.0012
 6230,-0.00000996,0.00080959,0.00157164,-0.00009345,0.00009488,-0.00018
 365,-0.00004445,0.00216906,-0.00060945,-0.00001314,0.00477053,0.029428
 74,0.00425679,0.00297944,0.00558884,-0.00369280,-0.02129557,-0.0052574
 6,0.00264691,-0.00003991,0.01779808,-0.06085211,0.00063834,0.03165788,
 -0.00495682,-0.00004580,-0.00113046,-0.00455252,0.00000089,-0.01106446
 ,0.00721558,0.00000542,-0.00029832,-0.00023164,0.00000714,-0.00196763,
 -0.00197871,-0.00005113,-0.00875080,-0.02149713,0.00097533,0.00116535,
 -0.00039450,-0.00000212,-0.00009228,0.00033782,0.00003030,-0.00000412,
 0.00000108,0.00000245,-0.00052255,0.00026262,-0.00000037,-0.01224255,-
 0.03166727,0.00757986,0.00743374,0.00159202,-0.00162213,-0.01672442,0.
 11407468,-0.00147217,0.00058779,-0.00313880,0.00161574,0.00043557,-0.0
 3689979,0.00057443,0.00091911,0.00466411,-0.00018082,-0.00011734,0.003
 36919,-0.00004054,-0.00031042,-0.00333753,0.00005111,0.00013045,-0.000
 63127,0.00013167,-0.00007243,0.00427575,0.00146034,-0.00206218,0.00418
 348,0.00002043,-0.00003367,-0.00021212,-0.00003649,0.00004628,-0.00217
 810,-0.00000852,-0.00000489,-0.00056826,0.00005028,-0.00001274,0.00094
 958,0.01500869,0.01745741,-0.03865753,-0.01601421,-0.00948467,0.000947
 24,-0.00115994,-0.00747827,0.06723407\\0.00001542,-0.00003322,-0.00004
 886,-0.00001136,-0.00000095,-0.00001497,0.00002092,0.00001062,0.000007
 14,0.00000755,0.00000490,-0.00000005,-0.00000263,0.00000179,-0.0000034
 9,0.00000004,0.00000214,0.00000141,-0.00000291,0.00000615,-0.00000025,
 -0.00001996,-0.00001910,0.00009081,0.00000514,0.00000217,0.00000187,-0
 .00000555,0.00000124,-0.00000115,0.00000247,0.00000701,0.00000184,-0.0
 0000354,0.00000624,-0.00000003,-0.00000689,0.00002691,-0.00007362,0.00
 000265,-0.00000221,-0.00000139,-0.00000135,-0.00001370,0.00004076\\\@


 We find comfort among those who agree with us -- growth among those who don't.
 -- Frank A. Clark
 Job cpu time:       0 days  1 hours 15 minutes 55.3 seconds.
 File lengths (MBytes):  RWF=   2128 Int=      0 D2E=      0 Chk=     32 Scr=     32
 Normal termination of Gaussian 09 at Fri Sep  3 03:19:22 2021.
