 Entering Gaussian System, Link 0=g09
 Initial command:
 /gpfs/share/home/1801110325/software/g09e01/l1.exe "./Gau-30470.inp" -scrdir="./"
 Entering Link 1 = /gpfs/share/home/1801110325/software/g09e01/l1.exe PID=     30471.
  
 Copyright (c) 1988,1990,1992,1993,1995,1998,2003,2009,2015,
            Gaussian, Inc.  All Rights Reserved.
  
 This is part of the Gaussian(R) 09 program.  It is based on
 the Gaussian(R) 03 system (copyright 2003, Gaussian, Inc.),
 the Gaussian(R) 98 system (copyright 1998, Gaussian, Inc.),
 the Gaussian(R) 94 system (copyright 1995, Gaussian, Inc.),
 the Gaussian 92(TM) system (copyright 1992, Gaussian, Inc.),
 the Gaussian 90(TM) system (copyright 1990, Gaussian, Inc.),
 the Gaussian 88(TM) system (copyright 1988, Gaussian, Inc.),
 the Gaussian 86(TM) system (copyright 1986, Carnegie Mellon
 University), and the Gaussian 82(TM) system (copyright 1983,
 Carnegie Mellon University). Gaussian is a federally registered
 trademark of Gaussian, Inc.
  
 This software contains proprietary and confidential information,
 including trade secrets, belonging to Gaussian, Inc.
  
 This software is provided under written license and may be
 used, copied, transmitted, or stored only in accord with that
 written license.
  
 The following legend is applicable only to US Government
 contracts under FAR:
  
                    RESTRICTED RIGHTS LEGEND
  
 Use, reproduction and disclosure by the US Government is
 subject to restrictions as set forth in subparagraphs (a)
 and (c) of the Commercial Computer Software - Restricted
 Rights clause in FAR 52.227-19.
  
 Gaussian, Inc.
 340 Quinnipiac St., Bldg. 40, Wallingford CT 06492
  
  
 ---------------------------------------------------------------
 Warning -- This program may not be used in any manner that
 competes with the business of Gaussian, Inc. or will provide
 assistance to any competitor of Gaussian, Inc.  The licensee
 of this program is prohibited from giving any competitor of
 Gaussian, Inc. access to this program.  By using this program,
 the user acknowledges that Gaussian, Inc. is engaged in the
 business of creating and licensing software in the field of
 computational chemistry and represents and warrants to the
 licensee that it is not a competitor of Gaussian, Inc. and that
 it will not use this program in any manner prohibited above.
 ---------------------------------------------------------------
  

 Cite this work as:
 Gaussian 09, Revision E.01,
 M. J. Frisch, G. W. Trucks, H. B. Schlegel, G. E. Scuseria, 
 M. A. Robb, J. R. Cheeseman, G. Scalmani, V. Barone, B. Mennucci, 
 G. A. Petersson, H. Nakatsuji, M. Caricato, X. Li, H. P. Hratchian, 
 A. F. Izmaylov, J. Bloino, G. Zheng, J. L. Sonnenberg, M. Hada, 
 M. Ehara, K. Toyota, R. Fukuda, J. Hasegawa, M. Ishida, T. Nakajima, 
 Y. Honda, O. Kitao, H. Nakai, T. Vreven, J. A. Montgomery, Jr., 
 J. E. Peralta, F. Ogliaro, M. Bearpark, J. J. Heyd, E. Brothers, 
 K. N. Kudin, V. N. Staroverov, T. Keith, R. Kobayashi, J. Normand, 
 K. Raghavachari, A. Rendell, J. C. Burant, S. S. Iyengar, J. Tomasi, 
 M. Cossi, N. Rega, J. M. Millam, M. Klene, J. E. Knox, J. B. Cross, 
 V. Bakken, C. Adamo, J. Jaramillo, R. Gomperts, R. E. Stratmann, 
 O. Yazyev, A. J. Austin, R. Cammi, C. Pomelli, J. W. Ochterski, 
 R. L. Martin, K. Morokuma, V. G. Zakrzewski, G. A. Voth, 
 P. Salvador, J. J. Dannenberg, S. Dapprich, A. D. Daniels, 
 O. Farkas, J. B. Foresman, J. V. Ortiz, J. Cioslowski, 
 and D. J. Fox, Gaussian, Inc., Wallingford CT, 2013.
 
 ******************************************
 Gaussian 09:  EM64L-G09RevE.01 30-Nov-2015
                 5-Sep-2021 
 ******************************************
 %nprocshared=6
 Will use up to    6 processors via shared memory.
 %mem=18GB
 %oldchk=4HY_B3LYP_PC2_OPT_FREQ.chk
 %chk=4HY_G3.chk
 Copying data from "4HY_B3LYP_PC2_OPT_FREQ.chk" to current chk file "4HY_G3.chk".
 ---------------------
 #p G3 geom=checkpoint
 ---------------------
 1/18=20,19=15,29=2,38=1/1,3;
 2/9=110,12=2,40=1/2;
 3/5=33,7=1,11=9,14=-4,16=1,25=1,30=1,71=1/1,2,3;
 4//1;
 5/5=2,38=5/2;
 6/7=2,8=2,9=2,10=2,28=1/1;
 7//1,2,3,16;
 1/18=20,19=15/3(2);
 2/9=110/2;
 99//99;
 2/9=110/2;
 3/5=33,7=1,11=9,14=-2,16=1,25=1,30=1,71=1/1,2,3;
 4/5=5,16=3,69=1/1;
 5/5=2,38=5/2;
 7//1,2,3,16;
 1/18=20,19=15/3(-5);
 2/9=110/2;
 6/7=2,8=2,9=2,10=2,19=2,28=1/1;
 99/9=1/99;
 Leave Link    1 at Sun Sep  5 14:57:30 2021, MaxMem=  2415919104 cpu:         3.4
 (Enter /gpfs/share/home/1801110325/software/g09e01/l101.exe)
 ------
 4HY_G3
 ------
 Structure from the checkpoint file:  "4HY_G3.chk"
 Charge =  0 Multiplicity = 1
 Redundant internal coordinates found in file.
 C,0,1.1491249349,1.1505605846,-0.00008087
 C,0,-0.2388341706,1.1845168759,0.0000279858
 C,0,-0.9280206229,-0.0244062566,-0.0000225451
 C,0,-0.1955617493,-1.207276029,-0.0000905418
 C,0,1.1871527728,-1.1197933428,-0.0000030884
 N,0,1.8682104053,0.029259951,-0.0000847615
 H,0,1.7075119814,2.0797927759,-0.0000033718
 H,0,-0.7654394519,2.1307904583,0.000094631
 H,0,-0.7017522898,-2.1615706886,-0.0001880629
 H,0,1.7811265567,-2.0264071963,-0.0002009321
 O,0,-2.2831154904,-0.1086089389,-0.0000131807
 H,0,-2.6687948763,0.7727208063,0.0001577376
 Recover connectivity data from disk.
 NAtoms=     12 NQM=       12 NQMF=       0 NMMI=      0 NMMIF=      0
                NMic=       0 NMicF=      0.
                    Isotopes and Nuclear Properties:
 (Nuclear quadrupole moments (NQMom) in fm**2, nuclear magnetic moments (NMagM)
  in nuclear magnetons)

  Atom         1           2           3           4           5           6           7           8           9          10
 IAtWgt=          12          12          12          12          12          14           1           1           1           1
 AtmWgt=  12.0000000  12.0000000  12.0000000  12.0000000  12.0000000  14.0030740   1.0078250   1.0078250   1.0078250   1.0078250
 NucSpn=           0           0           0           0           0           2           1           1           1           1
 AtZEff=  -3.6000000  -3.6000000  -3.6000000  -3.6000000  -3.6000000  -4.5500000  -1.0000000  -1.0000000  -1.0000000  -1.0000000
 NQMom=    0.0000000   0.0000000   0.0000000   0.0000000   0.0000000   2.0440000   0.0000000   0.0000000   0.0000000   0.0000000
 NMagM=    0.0000000   0.0000000   0.0000000   0.0000000   0.0000000   0.4037610   2.7928460   2.7928460   2.7928460   2.7928460
 AtZNuc=   6.0000000   6.0000000   6.0000000   6.0000000   6.0000000   7.0000000   1.0000000   1.0000000   1.0000000   1.0000000

  Atom        11          12
 IAtWgt=          16           1
 AtmWgt=  15.9949146   1.0078250
 NucSpn=           0           1
 AtZEff=  -5.6000000  -1.0000000
 NQMom=    0.0000000   0.0000000
 NMagM=    0.0000000   2.7928460
 AtZNuc=   8.0000000   1.0000000
 Leave Link  101 at Sun Sep  5 14:57:30 2021, MaxMem=  2415919104 cpu:         2.5
 (Enter /gpfs/share/home/1801110325/software/g09e01/l103.exe)

 GradGradGradGradGradGradGradGradGradGradGradGradGradGradGradGradGradGrad
 Berny optimization.
 Initialization pass.
                           ----------------------------
                           !    Initial Parameters    !
                           ! (Angstroms and Degrees)  !
 --------------------------                            --------------------------
 ! Name  Definition              Value          Derivative Info.                !
 --------------------------------------------------------------------------------
 ! R1    R(1,2)                  1.3884         estimate D2E/DX2                !
 ! R2    R(1,6)                  1.3321         estimate D2E/DX2                !
 ! R3    R(1,7)                  1.0841         estimate D2E/DX2                !
 ! R4    R(2,3)                  1.3916         estimate D2E/DX2                !
 ! R5    R(2,8)                  1.0829         estimate D2E/DX2                !
 ! R6    R(3,4)                  1.3913         estimate D2E/DX2                !
 ! R7    R(3,11)                 1.3577         estimate D2E/DX2                !
 ! R8    R(4,5)                  1.3855         estimate D2E/DX2                !
 ! R9    R(4,9)                  1.0802         estimate D2E/DX2                !
 ! R10   R(5,6)                  1.3357         estimate D2E/DX2                !
 ! R11   R(5,10)                 1.0839         estimate D2E/DX2                !
 ! R12   R(11,12)                0.962          estimate D2E/DX2                !
 ! A1    A(2,1,6)              124.0733         estimate D2E/DX2                !
 ! A2    A(2,1,7)              119.6007         estimate D2E/DX2                !
 ! A3    A(6,1,7)              116.3259         estimate D2E/DX2                !
 ! A4    A(1,2,3)              118.2853         estimate D2E/DX2                !
 ! A5    A(1,2,8)              120.4976         estimate D2E/DX2                !
 ! A6    A(3,2,8)              121.2171         estimate D2E/DX2                !
 ! A7    A(2,3,4)              118.5466         estimate D2E/DX2                !
 ! A8    A(2,3,11)             123.2424         estimate D2E/DX2                !
 ! A9    A(4,3,11)             118.211          estimate D2E/DX2                !
 ! A10   A(3,4,5)              118.1465         estimate D2E/DX2                !
 ! A11   A(3,4,9)              120.2903         estimate D2E/DX2                !
 ! A12   A(5,4,9)              121.5632         estimate D2E/DX2                !
 ! A13   A(4,5,6)              124.2759         estimate D2E/DX2                !
 ! A14   A(4,5,10)             119.6109         estimate D2E/DX2                !
 ! A15   A(6,5,10)             116.1132         estimate D2E/DX2                !
 ! A16   A(1,6,5)              116.6724         estimate D2E/DX2                !
 ! A17   A(3,11,12)            110.079          estimate D2E/DX2                !
 ! D1    D(6,1,2,3)             -0.0076         estimate D2E/DX2                !
 ! D2    D(6,1,2,8)            179.9957         estimate D2E/DX2                !
 ! D3    D(7,1,2,3)           -179.9975         estimate D2E/DX2                !
 ! D4    D(7,1,2,8)              0.0058         estimate D2E/DX2                !
 ! D5    D(2,1,6,5)              0.0013         estimate D2E/DX2                !
 ! D6    D(7,1,6,5)            179.9915         estimate D2E/DX2                !
 ! D7    D(1,2,3,4)              0.0042         estimate D2E/DX2                !
 ! D8    D(1,2,3,11)          -179.9956         estimate D2E/DX2                !
 ! D9    D(8,2,3,4)           -179.9992         estimate D2E/DX2                !
 ! D10   D(8,2,3,11)             0.001          estimate D2E/DX2                !
 ! D11   D(2,3,4,5)              0.0048         estimate D2E/DX2                !
 ! D12   D(2,3,4,9)           -179.9965         estimate D2E/DX2                !
 ! D13   D(11,3,4,5)          -179.9955         estimate D2E/DX2                !
 ! D14   D(11,3,4,9)             0.0033         estimate D2E/DX2                !
 ! D15   D(2,3,11,12)           -0.0079         estimate D2E/DX2                !
 ! D16   D(4,3,11,12)          179.9923         estimate D2E/DX2                !
 ! D17   D(3,4,5,6)             -0.0118         estimate D2E/DX2                !
 ! D18   D(3,4,5,10)          -179.991          estimate D2E/DX2                !
 ! D19   D(9,4,5,6)            179.9894         estimate D2E/DX2                !
 ! D20   D(9,4,5,10)             0.0102         estimate D2E/DX2                !
 ! D21   D(4,5,6,1)              0.0087         estimate D2E/DX2                !
 ! D22   D(10,5,6,1)           179.9886         estimate D2E/DX2                !
 --------------------------------------------------------------------------------
 Trust Radius=3.00D-01 FncErr=1.00D-07 GrdErr=1.00D-07
 Number of steps in this run=     61 maximum allowed number of steps=    100.
 GradGradGradGradGradGradGradGradGradGradGradGradGradGradGradGradGradGrad

 Leave Link  103 at Sun Sep  5 14:57:30 2021, MaxMem=  2415919104 cpu:         0.6
 (Enter /gpfs/share/home/1801110325/software/g09e01/l202.exe)
                          Input orientation:                          
 ---------------------------------------------------------------------
 Center     Atomic      Atomic             Coordinates (Angstroms)
 Number     Number       Type             X           Y           Z
 ---------------------------------------------------------------------
      1          6           0        1.149125    1.150561   -0.000081
      2          6           0       -0.238834    1.184517    0.000028
      3          6           0       -0.928021   -0.024406   -0.000023
      4          6           0       -0.195562   -1.207276   -0.000091
      5          6           0        1.187153   -1.119793   -0.000003
      6          7           0        1.868210    0.029260   -0.000085
      7          1           0        1.707512    2.079793   -0.000003
      8          1           0       -0.765439    2.130790    0.000095
      9          1           0       -0.701752   -2.161571   -0.000188
     10          1           0        1.781127   -2.026407   -0.000201
     11          8           0       -2.283115   -0.108609   -0.000013
     12          1           0       -2.668795    0.772721    0.000158
 ---------------------------------------------------------------------
                    Distance matrix (angstroms):
                    1          2          3          4          5
     1  C    0.000000
     2  C    1.388374   0.000000
     3  C    2.386437   1.391572   0.000000
     4  C    2.714328   2.392184   1.391286   0.000000
     5  C    2.270672   2.709850   2.381981   1.385479   0.000000
     6  N    1.332066   2.402968   2.796746   2.405863   1.335726
     7  H    1.084098   2.142378   3.372490   3.798225   3.241624
     8  H    2.150909   1.082934   2.161320   3.386362   3.791954
     9  H    3.794201   3.377957   2.149109   1.080235   2.157142
    10  H    3.239221   3.793452   3.368603   2.139690   1.083860
    11  O    3.655924   2.418938   1.357708   2.359015   3.614589
    12  H    3.836571   2.464606   1.914604   3.168165   4.295340
                    6          7          8          9         10
     6  N    0.000000
     7  H    2.056820   0.000000
     8  H    3.369353   2.473477   0.000000
     9  H    3.377047   4.877881   4.292834   0.000000
    10  H    2.057511   4.106860   4.875171   2.486555   0.000000
    11  O    4.153615   4.551287   2.705226   2.591401   4.493998
    12  H    4.597516   4.567330   2.338186   3.532609   5.257083
                   11         12
    11  O    0.000000
    12  H    0.962024   0.000000
 Stoichiometry    C5H5NO
 Framework group  C1[X(C5H5NO)]
 Deg. of freedom    30
 Full point group                 C1      NOp   1
 RotChk:  IX=2 Diff= 7.24D-16
 Largest Abelian subgroup         C1      NOp   1
 Largest concise Abelian subgroup C1      NOp   1
                         Standard orientation:                         
 ---------------------------------------------------------------------
 Center     Atomic      Atomic             Coordinates (Angstroms)
 Number     Number       Type             X           Y           Z
 ---------------------------------------------------------------------
      1          6           0       -1.147702    1.151156    0.000044
      2          6           0        0.240294    1.183598   -0.000065
      3          6           0        0.928160   -0.026077   -0.000015
      4          6           0        0.194410   -1.208147    0.000053
      5          6           0       -1.188208   -1.119155   -0.000034
      6          7           0       -1.868011    0.030641    0.000048
      7          1           0       -1.705074    2.080998   -0.000034
      8          1           0        0.767932    2.129296   -0.000132
      9          1           0        0.699559   -2.162993    0.000151
     10          1           0       -1.783171   -2.025120    0.000164
     11          8           0        2.283162   -0.111759   -0.000024
     12          1           0        2.669803    0.769149   -0.000195
 ---------------------------------------------------------------------
 Rotational constants (GHZ):      6.0304138      2.6470402      1.8395658
 Leave Link  202 at Sun Sep  5 14:57:31 2021, MaxMem=  2415919104 cpu:         1.2
 (Enter /gpfs/share/home/1801110325/software/g09e01/l301.exe)
 Standard basis: GTBas1 (6D, 7F)
 Ernie: Thresh=  0.10000D-02 Tol=  0.10000D-05 Strict=F.
 There are   115 symmetry adapted cartesian basis functions of A   symmetry.
 There are   115 symmetry adapted basis functions of A   symmetry.
   115 basis functions,   216 primitive gaussians,   115 cartesian basis functions
    25 alpha electrons       25 beta electrons
       nuclear repulsion energy       274.8169568516 Hartrees.
 IExCor=    0 DFT=F Ex=HF Corr=None ExCW=0 ScaHFX=  1.000000
 ScaDFX=  1.000000  1.000000  1.000000  1.000000 ScalE2=  1.000000  1.000000
 IRadAn=      0 IRanWt=     -1 IRanGd=            0 ICorTp=0 IEmpDi=  4
 NAtoms=   12 NActive=   12 NUniq=   12 SFac= 1.00D+00 NAtFMM=   60 NAOKFM=F Big=F
 Integral buffers will be    131072 words long.
 Raffenetti 1 integral format.
 Two-electron integral symmetry is turned on.
 Leave Link  301 at Sun Sep  5 14:57:31 2021, MaxMem=  2415919104 cpu:         2.2
 (Enter /gpfs/share/home/1801110325/software/g09e01/l302.exe)
 NPDir=0 NMtPBC=     1 NCelOv=     1 NCel=       1 NClECP=     1 NCelD=      1
         NCelK=      1 NCelE2=     1 NClLst=     1 CellRange=     0.0.
 One-electron integrals computed using PRISM.
 NBasis=   115 RedAO= T EigKep=  7.92D-04  NBF=   115
 NBsUse=   115 1.00D-06 EigRej= -1.00D+00 NBFU=   115
 Leave Link  302 at Sun Sep  5 14:57:31 2021, MaxMem=  2415919104 cpu:         0.8
 (Enter /gpfs/share/home/1801110325/software/g09e01/l303.exe)
 DipDrv:  MaxL=1.
 Leave Link  303 at Sun Sep  5 14:57:31 2021, MaxMem=  2415919104 cpu:         0.4
 (Enter /gpfs/share/home/1801110325/software/g09e01/l401.exe)
 ExpMin= 1.61D-01 ExpMax= 5.48D+03 ExpMxC= 8.25D+02 IAcc=1 IRadAn=         1 AccDes= 0.00D+00
 Harris functional with IExCor=  205 and IRadAn=       1 diagonalized for initial guess.
 HarFok:  IExCor=  205 AccDes= 0.00D+00 IRadAn=         1 IDoV= 1 UseB2=F ITyADJ=14
 ICtDFT=  3500011 ScaDFX=  1.000000  1.000000  1.000000  1.000000
 FoFCou: FMM=F IPFlag=           0 FMFlag=      100000 FMFlg1=           0
         NFxFlg=           0 DoJE=T BraDBF=F KetDBF=T FulRan=T
         wScrn=  0.000000 ICntrl=     500 IOpCl=  0 I1Cent=   200000004 NGrid=           0
         NMat0=    1 NMatS0=      1 NMatT0=    0 NMatD0=    1 NMtDS0=    0 NMtDT0=    0
 Petite list used in FoFCou.
 Harris En= -321.888319362366    
 JPrj=0 DoOrth=F DoCkMO=F.
 Leave Link  401 at Sun Sep  5 14:57:32 2021, MaxMem=  2415919104 cpu:         2.1
 (Enter /gpfs/share/home/1801110325/software/g09e01/l502.exe)
 Closed shell SCF:
 Using DIIS extrapolation, IDIIS=  1040.
 Integral symmetry usage will be decided dynamically.
 Keep R1 ints in memory in canonical form, NReq=23187686.
 IVT=       59782 IEndB=       59782 NGot=  2415919104 MDV=  2393611538
 LenX=  2393611538 LenY=  2393597872
 Requested convergence on RMS density matrix=1.00D-08 within 128 cycles.
 Requested convergence on MAX density matrix=1.00D-06.
 Requested convergence on             energy=1.00D-06.
 No special actions if energy rises.
 FoFCou: FMM=F IPFlag=           0 FMFlag=           0 FMFlg1=           0
         NFxFlg=           0 DoJE=F BraDBF=F KetDBF=F FulRan=T
         wScrn=  0.000000 ICntrl=     600 IOpCl=  0 I1Cent=           0 NGrid=           0
         NMat0=    1 NMatS0=   6670 NMatT0=    0 NMatD0=    1 NMtDS0=    0 NMtDT0=    0
 Symmetry not used in FoFCou.

 Cycle   1  Pass 1  IDiag  1:
 E= -321.309982576517    
 DIIS: error= 6.57D-02 at cycle   1 NSaved=   1.
 NSaved= 1 IEnMin= 1 EnMin= -321.309982576517     IErMin= 1 ErrMin= 6.57D-02
 ErrMax= 6.57D-02  0.00D+00 EMaxC= 1.00D-01 BMatC= 4.22D-01 BMatP= 4.22D-01
 IDIUse=3 WtCom= 3.43D-01 WtEn= 6.57D-01
 Coeff-Com:  0.100D+01
 Coeff-En:   0.100D+01
 Coeff:      0.100D+01
 Gap=     0.520 Goal=   None    Shift=    0.000
 GapD=    0.520 DampG=2.000 DampE=0.500 DampFc=1.0000 IDamp=-1.
 RMSDP=6.33D-03 MaxDP=9.42D-02              OVMax= 1.16D-01

 Cycle   2  Pass 1  IDiag  1:
 E= -321.529490064090     Delta-E=       -0.219507487573 Rises=F Damp=F
 DIIS: error= 1.30D-02 at cycle   2 NSaved=   2.
 NSaved= 2 IEnMin= 2 EnMin= -321.529490064090     IErMin= 2 ErrMin= 1.30D-02
 ErrMax= 1.30D-02  0.00D+00 EMaxC= 1.00D-01 BMatC= 2.90D-02 BMatP= 4.22D-01
 IDIUse=3 WtCom= 8.70D-01 WtEn= 1.30D-01
 Coeff-Com:  0.108D+00 0.892D+00
 Coeff-En:   0.000D+00 0.100D+01
 Coeff:      0.943D-01 0.906D+00
 Gap=     0.580 Goal=   None    Shift=    0.000
 RMSDP=1.89D-03 MaxDP=3.06D-02 DE=-2.20D-01 OVMax= 3.28D-02

 Cycle   3  Pass 1  IDiag  1:
 E= -321.551414416769     Delta-E=       -0.021924352679 Rises=F Damp=F
 DIIS: error= 4.61D-03 at cycle   3 NSaved=   3.
 NSaved= 3 IEnMin= 3 EnMin= -321.551414416769     IErMin= 3 ErrMin= 4.61D-03
 ErrMax= 4.61D-03  0.00D+00 EMaxC= 1.00D-01 BMatC= 2.23D-03 BMatP= 2.90D-02
 IDIUse=3 WtCom= 9.54D-01 WtEn= 4.61D-02
 Coeff-Com: -0.220D-01 0.177D+00 0.845D+00
 Coeff-En:   0.000D+00 0.000D+00 0.100D+01
 Coeff:     -0.210D-01 0.169D+00 0.852D+00
 Gap=     0.486 Goal=   None    Shift=    0.000
 RMSDP=3.78D-04 MaxDP=7.13D-03 DE=-2.19D-02 OVMax= 1.03D-02

 Cycle   4  Pass 1  IDiag  1:
 E= -321.553413644028     Delta-E=       -0.001999227259 Rises=F Damp=F
 DIIS: error= 7.76D-04 at cycle   4 NSaved=   4.
 NSaved= 4 IEnMin= 4 EnMin= -321.553413644028     IErMin= 4 ErrMin= 7.76D-04
 ErrMax= 7.76D-04  0.00D+00 EMaxC= 1.00D-01 BMatC= 6.87D-05 BMatP= 2.23D-03
 IDIUse=3 WtCom= 9.92D-01 WtEn= 7.76D-03
 Coeff-Com: -0.422D-02 0.114D-01 0.127D+00 0.866D+00
 Coeff-En:   0.000D+00 0.000D+00 0.000D+00 0.100D+01
 Coeff:     -0.419D-02 0.114D-01 0.126D+00 0.867D+00
 Gap=     0.486 Goal=   None    Shift=    0.000
 RMSDP=1.13D-04 MaxDP=1.76D-03 DE=-2.00D-03 OVMax= 3.04D-03

 Cycle   5  Pass 1  IDiag  1:
 E= -321.553496470308     Delta-E=       -0.000082826280 Rises=F Damp=F
 DIIS: error= 3.96D-04 at cycle   5 NSaved=   5.
 NSaved= 5 IEnMin= 5 EnMin= -321.553496470308     IErMin= 5 ErrMin= 3.96D-04
 ErrMax= 3.96D-04  0.00D+00 EMaxC= 1.00D-01 BMatC= 1.47D-05 BMatP= 6.87D-05
 IDIUse=3 WtCom= 9.96D-01 WtEn= 3.96D-03
 Coeff-Com:  0.186D-02-0.215D-01-0.874D-01 0.218D+00 0.889D+00
 Coeff-En:   0.000D+00 0.000D+00 0.000D+00 0.000D+00 0.100D+01
 Coeff:      0.185D-02-0.214D-01-0.870D-01 0.217D+00 0.890D+00
 Gap=     0.486 Goal=   None    Shift=    0.000
 RMSDP=4.79D-05 MaxDP=7.56D-04 DE=-8.28D-05 OVMax= 1.87D-03

 Cycle   6  Pass 1  IDiag  1:
 E= -321.553518709919     Delta-E=       -0.000022239611 Rises=F Damp=F
 DIIS: error= 1.06D-04 at cycle   6 NSaved=   6.
 NSaved= 6 IEnMin= 6 EnMin= -321.553518709919     IErMin= 6 ErrMin= 1.06D-04
 ErrMax= 1.06D-04  0.00D+00 EMaxC= 1.00D-01 BMatC= 9.98D-07 BMatP= 1.47D-05
 IDIUse=3 WtCom= 9.99D-01 WtEn= 1.06D-03
 Coeff-Com:  0.437D-03-0.210D-02-0.160D-01-0.840D-01 0.400D-01 0.106D+01
 Coeff-En:   0.000D+00 0.000D+00 0.000D+00 0.000D+00 0.000D+00 0.100D+01
 Coeff:      0.436D-03-0.210D-02-0.160D-01-0.839D-01 0.399D-01 0.106D+01
 Gap=     0.486 Goal=   None    Shift=    0.000
 RMSDP=1.88D-05 MaxDP=3.37D-04 DE=-2.22D-05 OVMax= 5.32D-04

 Cycle   7  Pass 1  IDiag  1:
 E= -321.553521133585     Delta-E=       -0.000002423666 Rises=F Damp=F
 DIIS: error= 4.15D-05 at cycle   7 NSaved=   7.
 NSaved= 7 IEnMin= 7 EnMin= -321.553521133585     IErMin= 7 ErrMin= 4.15D-05
 ErrMax= 4.15D-05  0.00D+00 EMaxC= 1.00D-01 BMatC= 1.17D-07 BMatP= 9.98D-07
 IDIUse=1 WtCom= 1.00D+00 WtEn= 0.00D+00
 Coeff-Com: -0.902D-04 0.158D-02 0.531D-02-0.220D-01-0.545D-01 0.470D-01
 Coeff-Com:  0.102D+01
 Coeff:     -0.902D-04 0.158D-02 0.531D-02-0.220D-01-0.545D-01 0.470D-01
 Coeff:      0.102D+01
 Gap=     0.486 Goal=   None    Shift=    0.000
 RMSDP=5.86D-06 MaxDP=1.48D-04 DE=-2.42D-06 OVMax= 2.95D-04

 Cycle   8  Pass 1  IDiag  1:
 E= -321.553521461775     Delta-E=       -0.000000328190 Rises=F Damp=F
 DIIS: error= 1.72D-05 at cycle   8 NSaved=   8.
 NSaved= 8 IEnMin= 8 EnMin= -321.553521461775     IErMin= 8 ErrMin= 1.72D-05
 ErrMax= 1.72D-05  0.00D+00 EMaxC= 1.00D-01 BMatC= 2.92D-08 BMatP= 1.17D-07
 IDIUse=1 WtCom= 1.00D+00 WtEn= 0.00D+00
 Coeff-Com: -0.110D-03 0.780D-03 0.402D-02 0.141D-01-0.150D-01-0.234D+00
 Coeff-Com:  0.178D+00 0.105D+01
 Coeff:     -0.110D-03 0.780D-03 0.402D-02 0.141D-01-0.150D-01-0.234D+00
 Coeff:      0.178D+00 0.105D+01
 Gap=     0.486 Goal=   None    Shift=    0.000
 RMSDP=3.59D-06 MaxDP=6.20D-05 DE=-3.28D-07 OVMax= 1.70D-04

 Cycle   9  Pass 1  IDiag  1:
 E= -321.553521555004     Delta-E=       -0.000000093230 Rises=F Damp=F
 DIIS: error= 7.71D-06 at cycle   9 NSaved=   9.
 NSaved= 9 IEnMin= 9 EnMin= -321.553521555004     IErMin= 9 ErrMin= 7.71D-06
 ErrMax= 7.71D-06  0.00D+00 EMaxC= 1.00D-01 BMatC= 3.72D-09 BMatP= 2.92D-08
 IDIUse=1 WtCom= 1.00D+00 WtEn= 0.00D+00
 Coeff-Com:  0.214D-04-0.263D-03-0.123D-02 0.205D-02 0.755D-02 0.128D-01
 Coeff-Com: -0.124D+00-0.835D-01 0.119D+01
 Coeff:      0.214D-04-0.263D-03-0.123D-02 0.205D-02 0.755D-02 0.128D-01
 Coeff:     -0.124D+00-0.835D-01 0.119D+01
 Gap=     0.486 Goal=   None    Shift=    0.000
 RMSDP=1.25D-06 MaxDP=2.46D-05 DE=-9.32D-08 OVMax= 7.76D-05

 Cycle  10  Pass 1  IDiag  1:
 E= -321.553521570227     Delta-E=       -0.000000015222 Rises=F Damp=F
 DIIS: error= 3.40D-06 at cycle  10 NSaved=  10.
 NSaved=10 IEnMin=10 EnMin= -321.553521570227     IErMin=10 ErrMin= 3.40D-06
 ErrMax= 3.40D-06  0.00D+00 EMaxC= 1.00D-01 BMatC= 7.18D-10 BMatP= 3.72D-09
 IDIUse=1 WtCom= 1.00D+00 WtEn= 0.00D+00
 Coeff-Com:  0.286D-04-0.208D-03-0.114D-02-0.263D-02 0.369D-02 0.566D-01
 Coeff-Com: -0.529D-01-0.232D+00-0.492D-02 0.123D+01
 Coeff:      0.286D-04-0.208D-03-0.114D-02-0.263D-02 0.369D-02 0.566D-01
 Coeff:     -0.529D-01-0.232D+00-0.492D-02 0.123D+01
 Gap=     0.486 Goal=   None    Shift=    0.000
 RMSDP=7.52D-07 MaxDP=1.54D-05 DE=-1.52D-08 OVMax= 4.90D-05

 Cycle  11  Pass 1  IDiag  1:
 E= -321.553521574221     Delta-E=       -0.000000003994 Rises=F Damp=F
 DIIS: error= 9.59D-07 at cycle  11 NSaved=  11.
 NSaved=11 IEnMin=11 EnMin= -321.553521574221     IErMin=11 ErrMin= 9.59D-07
 ErrMax= 9.59D-07  0.00D+00 EMaxC= 1.00D-01 BMatC= 1.12D-10 BMatP= 7.18D-10
 IDIUse=1 WtCom= 1.00D+00 WtEn= 0.00D+00
 Coeff-Com: -0.650D-05 0.679D-04 0.311D-03 0.129D-03-0.215D-02-0.796D-02
 Coeff-Com:  0.247D-01 0.491D-01-0.250D+00-0.148D-01 0.120D+01
 Coeff:     -0.650D-05 0.679D-04 0.311D-03 0.129D-03-0.215D-02-0.796D-02
 Coeff:      0.247D-01 0.491D-01-0.250D+00-0.148D-01 0.120D+01
 Gap=     0.486 Goal=   None    Shift=    0.000
 RMSDP=2.84D-07 MaxDP=5.43D-06 DE=-3.99D-09 OVMax= 1.62D-05

 Cycle  12  Pass 1  IDiag  1:
 E= -321.553521574657     Delta-E=       -0.000000000437 Rises=F Damp=F
 DIIS: error= 2.31D-07 at cycle  12 NSaved=  12.
 NSaved=12 IEnMin=12 EnMin= -321.553521574657     IErMin=12 ErrMin= 2.31D-07
 ErrMax= 2.31D-07  0.00D+00 EMaxC= 1.00D-01 BMatC= 8.12D-12 BMatP= 1.12D-10
 IDIUse=1 WtCom= 1.00D+00 WtEn= 0.00D+00
 Coeff-Com: -0.327D-05 0.271D-04 0.136D-03 0.253D-03-0.709D-03-0.570D-02
 Coeff-Com:  0.670D-02 0.260D-01-0.403D-01-0.103D+00 0.115D+00 0.100D+01
 Coeff:     -0.327D-05 0.271D-04 0.136D-03 0.253D-03-0.709D-03-0.570D-02
 Coeff:      0.670D-02 0.260D-01-0.403D-01-0.103D+00 0.115D+00 0.100D+01
 Gap=     0.486 Goal=   None    Shift=    0.000
 RMSDP=7.32D-08 MaxDP=1.32D-06 DE=-4.37D-10 OVMax= 4.31D-06

 Cycle  13  Pass 1  IDiag  1:
 E= -321.553521574677     Delta-E=       -0.000000000020 Rises=F Damp=F
 DIIS: error= 8.62D-08 at cycle  13 NSaved=  13.
 NSaved=13 IEnMin=13 EnMin= -321.553521574677     IErMin=13 ErrMin= 8.62D-08
 ErrMax= 8.62D-08  0.00D+00 EMaxC= 1.00D-01 BMatC= 9.86D-13 BMatP= 8.12D-12
 IDIUse=1 WtCom= 1.00D+00 WtEn= 0.00D+00
 Coeff-Com:  0.206D-06-0.322D-05-0.150D-04 0.422D-04 0.104D-03 0.360D-04
 Coeff-Com: -0.180D-02-0.598D-03 0.241D-01-0.618D-02-0.131D+00 0.172D+00
 Coeff-Com:  0.944D+00
 Coeff:      0.206D-06-0.322D-05-0.150D-04 0.422D-04 0.104D-03 0.360D-04
 Coeff:     -0.180D-02-0.598D-03 0.241D-01-0.618D-02-0.131D+00 0.172D+00
 Coeff:      0.944D+00
 Gap=     0.486 Goal=   None    Shift=    0.000
 RMSDP=1.59D-08 MaxDP=2.15D-07 DE=-1.99D-11 OVMax= 5.75D-07

 Cycle  14  Pass 1  IDiag  1:
 E= -321.553521574681     Delta-E=       -0.000000000003 Rises=F Damp=F
 DIIS: error= 3.26D-08 at cycle  14 NSaved=  14.
 NSaved=14 IEnMin=14 EnMin= -321.553521574681     IErMin=14 ErrMin= 3.26D-08
 ErrMax= 3.26D-08  0.00D+00 EMaxC= 1.00D-01 BMatC= 6.37D-14 BMatP= 9.86D-13
 IDIUse=1 WtCom= 1.00D+00 WtEn= 0.00D+00
 Coeff-Com:  0.261D-06-0.214D-05-0.109D-04-0.191D-04 0.457D-04 0.499D-03
 Coeff-Com: -0.440D-03-0.218D-02 0.655D-03 0.116D-01-0.509D-02-0.945D-01
 Coeff-Com: -0.695D-01 0.116D+01
 Coeff:      0.261D-06-0.214D-05-0.109D-04-0.191D-04 0.457D-04 0.499D-03
 Coeff:     -0.440D-03-0.218D-02 0.655D-03 0.116D-01-0.509D-02-0.945D-01
 Coeff:     -0.695D-01 0.116D+01
 Gap=     0.486 Goal=   None    Shift=    0.000
 RMSDP=5.31D-09 MaxDP=7.75D-08 DE=-3.41D-12 OVMax= 2.76D-07

 SCF Done:  E(RHF) =  -321.553521575     A.U. after   14 cycles
            NFock= 14  Conv=0.53D-08     -V/T= 2.0021
 KE= 3.208755003736D+02 PE=-1.302134242676D+03 EE= 3.848882638757D+02
 Leave Link  502 at Sun Sep  5 14:57:33 2021, MaxMem=  2415919104 cpu:         3.6
 (Enter /gpfs/share/home/1801110325/software/g09e01/l601.exe)
 Copying SCF densities to generalized density rwf, IOpCl= 0 IROHF=0.

 **********************************************************************

            Population analysis using the SCF density.

 **********************************************************************

 Orbital symmetries:
       Occupied  (A) (A) (A) (A) (A) (A) (A) (A) (A) (A) (A) (A)
                 (A) (A) (A) (A) (A) (A) (A) (A) (A) (A) (A) (A)
                 (A)
       Virtual   (A) (A) (A) (A) (A) (A) (A) (A) (A) (A) (A) (A)
                 (A) (A) (A) (A) (A) (A) (A) (A) (A) (A) (A) (A)
                 (A) (A) (A) (A) (A) (A) (A) (A) (A) (A) (A) (A)
                 (A) (A) (A) (A) (A) (A) (A) (A) (A) (A) (A) (A)
                 (A) (A) (A) (A) (A) (A) (A) (A) (A) (A) (A) (A)
                 (A) (A) (A) (A) (A) (A) (A) (A) (A) (A) (A) (A)
                 (A) (A) (A) (A) (A) (A) (A) (A) (A) (A) (A) (A)
                 (A) (A) (A) (A) (A) (A)
 The electronic state is 1-A.
 Alpha  occ. eigenvalues --  -20.61329 -15.55821 -11.32726 -11.27986 -11.27677
 Alpha  occ. eigenvalues --  -11.24063 -11.23377  -1.42372  -1.25565  -1.07788
 Alpha  occ. eigenvalues --   -1.03735  -0.87388  -0.85376  -0.75558  -0.69669
 Alpha  occ. eigenvalues --   -0.66216  -0.62940  -0.60514  -0.59984  -0.58534
 Alpha  occ. eigenvalues --   -0.52137  -0.51314  -0.41488  -0.35521  -0.35031
 Alpha virt. eigenvalues --    0.13566   0.14109   0.20788   0.24652   0.28785
 Alpha virt. eigenvalues --    0.31562   0.33251   0.36252   0.38907   0.45253
 Alpha virt. eigenvalues --    0.50063   0.51850   0.52924   0.64467   0.70443
 Alpha virt. eigenvalues --    0.73563   0.73777   0.74582   0.80922   0.81544
 Alpha virt. eigenvalues --    0.82302   0.83227   0.85181   0.89451   0.91297
 Alpha virt. eigenvalues --    0.94490   0.95793   1.00108   1.08751   1.08981
 Alpha virt. eigenvalues --    1.10536   1.11774   1.13706   1.16235   1.17187
 Alpha virt. eigenvalues --    1.19340   1.20794   1.22440   1.29262   1.32680
 Alpha virt. eigenvalues --    1.38571   1.40370   1.45921   1.49251   1.53464
 Alpha virt. eigenvalues --    1.56236   1.59905   1.70358   1.73186   1.73299
 Alpha virt. eigenvalues --    1.78173   1.80436   1.90574   1.97818   2.01117
 Alpha virt. eigenvalues --    2.08453   2.09697   2.12465   2.23543   2.26605
 Alpha virt. eigenvalues --    2.28521   2.30207   2.39532   2.44416   2.50267
 Alpha virt. eigenvalues --    2.50502   2.59486   2.60073   2.65530   2.68465
 Alpha virt. eigenvalues --    2.73682   2.83583   2.85332   2.91190   2.96197
 Alpha virt. eigenvalues --    3.03317   3.04920   3.09445   3.10792   3.27765
 Alpha virt. eigenvalues --    3.30283   3.47961   3.78447   4.33554   4.50743
 Alpha virt. eigenvalues --    4.52357   4.57731   4.73405   4.74920   5.09490
          Condensed to atoms (all electrons):
               1          2          3          4          5          6
     1  C    4.684481   0.489405  -0.038116  -0.021400  -0.085439   0.490364
     2  C    0.489405   5.189018   0.541341  -0.064153  -0.019817  -0.059029
     3  C   -0.038116   0.541341   4.343082   0.562036  -0.044734  -0.025824
     4  C   -0.021400  -0.064153   0.562036   5.085743   0.516428  -0.054660
     5  C   -0.085439  -0.019817  -0.044734   0.516428   4.690221   0.475015
     6  N    0.490364  -0.059029  -0.025824  -0.054660   0.475015   6.796136
     7  H    0.406258  -0.053770   0.001713  -0.000443   0.004374  -0.041470
     8  H   -0.018424   0.371510  -0.034419   0.003069  -0.000030   0.002891
     9  H   -0.000176   0.003854  -0.027153   0.371874  -0.023442   0.002734
    10  H    0.004354  -0.000467   0.002576  -0.053529   0.406906  -0.042460
    11  O    0.003005  -0.055672   0.278937  -0.046858   0.001435   0.000072
    12  H    0.000439   0.000138  -0.029642   0.004567  -0.000169   0.000021
               7          8          9         10         11         12
     1  C    0.406258  -0.018424  -0.000176   0.004354   0.003005   0.000439
     2  C   -0.053770   0.371510   0.003854  -0.000467  -0.055672   0.000138
     3  C    0.001713  -0.034419  -0.027153   0.002576   0.278937  -0.029642
     4  C   -0.000443   0.003069   0.371874  -0.053529  -0.046858   0.004567
     5  C    0.004374  -0.000030  -0.023442   0.406906   0.001435  -0.000169
     6  N   -0.041470   0.002891   0.002734  -0.042460   0.000072   0.000021
     7  H    0.476401  -0.000071   0.000013  -0.000049  -0.000036  -0.000005
     8  H   -0.000071   0.472204  -0.000070   0.000012  -0.002261   0.004006
     9  H    0.000013  -0.000070   0.447085  -0.000389  -0.000324  -0.000126
    10  H   -0.000049   0.000012  -0.000389   0.475192  -0.000038   0.000004
    11  O   -0.000036  -0.002261  -0.000324  -0.000038   8.308437   0.264476
    12  H   -0.000005   0.004006  -0.000126   0.000004   0.264476   0.293687
 Mulliken charges:
               1
     1  C    0.085249
     2  C   -0.342356
     3  C    0.470202
     4  C   -0.302674
     5  C    0.079252
     6  N   -0.543788
     7  H    0.207086
     8  H    0.201584
     9  H    0.226121
    10  H    0.207890
    11  O   -0.751171
    12  H    0.462604
 Sum of Mulliken charges =  -0.00000
 Mulliken charges with hydrogens summed into heavy atoms:
               1
     1  C    0.292335
     2  C   -0.140772
     3  C    0.470202
     4  C   -0.076553
     5  C    0.287143
     6  N   -0.543788
    11  O   -0.288567
 Electronic spatial extent (au):  <R**2>=            637.1278
 Charge=             -0.0000 electrons
 Dipole moment (field-independent basis, Debye):
    X=              2.1677    Y=              1.4512    Z=             -0.0003  Tot=              2.6086
 Quadrupole moment (field-independent basis, Debye-Ang):
   XX=            -43.8893   YY=            -32.6166   ZZ=            -43.0904
   XY=              4.9246   XZ=             -0.0008   YZ=             -0.0010
 Traceless Quadrupole moment (field-independent basis, Debye-Ang):
   XX=             -4.0239   YY=              7.2488   ZZ=             -3.2249
   XY=              4.9246   XZ=             -0.0008   YZ=             -0.0010
 Octapole moment (field-independent basis, Debye-Ang**2):
  XXX=             32.2936  YYY=              0.6060  ZZZ=             -0.0002  XYY=              1.2692
  XXY=             13.0759  XXZ=             -0.0030  XZZ=              3.4704  YZZ=              0.0768
  YYZ=              0.0004  XYZ=             -0.0008
 Hexadecapole moment (field-independent basis, Debye-Ang**3):
 XXXX=           -512.8665 YYYY=           -246.3359 ZZZZ=            -42.4900 XXXY=             40.8252
 XXXZ=             -0.0028 YYYX=              3.1629 YYYZ=             -0.0015 ZZZX=              0.0041
 ZZZY=              0.0033 XXYY=           -101.9073 XXZZ=            -92.5678 YYZZ=            -58.9116
 XXYZ=             -0.0032 YYXZ=             -0.0001 ZZXY=              0.6131
 N-N= 2.748169568516D+02 E-N=-1.302134242723D+03  KE= 3.208755003736D+02
 No NMR shielding tensors so no spin-rotation constants.
 Leave Link  601 at Sun Sep  5 14:57:33 2021, MaxMem=  2415919104 cpu:         0.4
 (Enter /gpfs/share/home/1801110325/software/g09e01/l701.exe)
 Compute integral first derivatives.
 ... and contract with generalized density number  0.
 Leave Link  701 at Sun Sep  5 14:57:33 2021, MaxMem=  2415919104 cpu:         0.5
 (Enter /gpfs/share/home/1801110325/software/g09e01/l702.exe)
 L702 exits ... SP integral derivatives will be done elsewhere.
 Leave Link  702 at Sun Sep  5 14:57:33 2021, MaxMem=  2415919104 cpu:         0.1
 (Enter /gpfs/share/home/1801110325/software/g09e01/l703.exe)
 Compute integral first derivatives, UseDBF=F ICtDFT=           0.
 Integral derivatives from FoFJK, PRISM(SPDF).
 Calling FoFJK, ICntrl=      2127 FMM=F ISym2X=0 I1Cent= 0 IOpClX= 0 NMat=1 NMatS=1 NMatT=0.
 FoFJK:  IHMeth= 1 ICntrl=    2127 DoSepK=F KAlg= 0 I1Cent=   0 FoldK=F
 IRaf=         0 NMat=   1 IRICut=       1 DoRegI=T DoRafI=F ISym2E= 0.
 FoFCou: FMM=F IPFlag=           0 FMFlag=      100000 FMFlg1=         800
         NFxFlg=           0 DoJE=F BraDBF=F KetDBF=F FulRan=T
         wScrn=  0.000000 ICntrl=    2127 IOpCl=  0 I1Cent=           0 NGrid=           0
         NMat0=    1 NMatS0=      1 NMatT0=    0 NMatD0=    1 NMtDS0=    0 NMtDT0=    0
 Symmetry not used in FoFCou.
 Leave Link  703 at Sun Sep  5 14:57:34 2021, MaxMem=  2415919104 cpu:         2.9
 (Enter /gpfs/share/home/1801110325/software/g09e01/l716.exe)
 Dipole        = 8.52855473D-01 5.70934505D-01-1.17174329D-04
 ***** Axes restored to original set *****
 -------------------------------------------------------------------
 Center     Atomic                   Forces (Hartrees/Bohr)
 Number     Number              X              Y              Z
 -------------------------------------------------------------------
      1        6           0.004297999   -0.009491008    0.000024337
      2        6          -0.001698205    0.000679076   -0.000007402
      3        6          -0.005992462   -0.000886310    0.000001642
      4        6           0.000334979   -0.001541560    0.000010569
      5        6           0.002188315    0.007945127   -0.000046855
      6        7          -0.013080965    0.001290187    0.000008998
      7        1          -0.002891986   -0.005794244   -0.000008628
      8        1           0.002677928   -0.004405135   -0.000001065
      9        1           0.002461645    0.004822834    0.000003560
     10        1          -0.003053952    0.005645474    0.000015560
     11        8           0.009255432    0.016158015    0.000003731
     12        1           0.005501271   -0.014422456   -0.000004445
 -------------------------------------------------------------------
 Cartesian Forces:  Max     0.016158015 RMS     0.005567317
 Leave Link  716 at Sun Sep  5 14:57:34 2021, MaxMem=  2415919104 cpu:         0.3
 (Enter /gpfs/share/home/1801110325/software/g09e01/l103.exe)

 GradGradGradGradGradGradGradGradGradGradGradGradGradGradGradGradGradGrad
 Berny optimization.
 FormGI is forming the generalized inverse of G from B-inverse, IUseBI=4.
 Internal  Forces:  Max     0.015418183 RMS     0.004848568
 Search for a local minimum.
 Step number   1 out of a maximum of   61
 All quantities printed in internal units (Hartrees-Bohrs-Radians)
 RMS Force = .48486D-02 SwitMx=.10000D-02 MixMth= 1
 Mixed Optimization -- RFO/linear search
 Second derivative matrix not updated -- first step.
 ITU=  0
     Eigenvalues ---    0.02206   0.02220   0.02223   0.02245   0.02251
     Eigenvalues ---    0.02288   0.02346   0.02370   0.02494   0.16000
     Eigenvalues ---    0.16000   0.16000   0.16000   0.16000   0.22000
     Eigenvalues ---    0.22828   0.23882   0.25000   0.35504   0.35532
     Eigenvalues ---    0.35642   0.35966   0.43264   0.44861   0.47228
     Eigenvalues ---    0.47891   0.53413   0.55040   0.56281   0.57810
 RFO step:  Lambda=-2.37931877D-03 EMin= 2.20623345D-02
 Linear search not attempted -- first point.
 Iteration  1 RMS(Cart)=  0.01463569 RMS(Int)=  0.00002762
 Iteration  2 RMS(Cart)=  0.00003773 RMS(Int)=  0.00000285
 Iteration  3 RMS(Cart)=  0.00000000 RMS(Int)=  0.00000285
 ITry= 1 IFail=0 DXMaxC= 4.41D-02 DCOld= 1.00D+10 DXMaxT= 3.00D-01 DXLimC= 3.00D+00 Rises=F
 Variable       Old X    -DE/DX   Delta X   Delta X   Delta X     New X
                                 (Linear)    (Quad)   (Total)
    R1        2.62365  -0.00568   0.00000  -0.01197  -0.01197   2.61168
    R2        2.51724  -0.01504   0.00000  -0.02620  -0.02619   2.49105
    R3        2.04865  -0.00646   0.00000  -0.01806  -0.01806   2.03059
    R4        2.62969  -0.00733   0.00000  -0.01450  -0.01451   2.61518
    R5        2.04645  -0.00515   0.00000  -0.01436  -0.01436   2.03209
    R6        2.62915  -0.00626   0.00000  -0.01218  -0.01219   2.61696
    R7        2.56570  -0.01484   0.00000  -0.02765  -0.02765   2.53804
    R8        2.61818  -0.00669   0.00000  -0.01386  -0.01386   2.60432
    R9        2.04135  -0.00541   0.00000  -0.01495  -0.01495   2.02639
   R10        2.52416  -0.01335   0.00000  -0.02365  -0.02365   2.50051
   R11        2.04820  -0.00640   0.00000  -0.01788  -0.01788   2.03032
   R12        1.81796  -0.01542   0.00000  -0.02789  -0.02789   1.79007
    A1        2.16549   0.00206   0.00000   0.00727   0.00728   2.17277
    A2        2.08743  -0.00051   0.00000  -0.00045  -0.00045   2.08698
    A3        2.03027  -0.00155   0.00000  -0.00683  -0.00683   2.02344
    A4        2.06447  -0.00216   0.00000  -0.00732  -0.00733   2.05714
    A5        2.10308   0.00088   0.00000   0.00242   0.00242   2.10550
    A6        2.11564   0.00128   0.00000   0.00491   0.00491   2.12055
    A7        2.06903  -0.00027   0.00000   0.00311   0.00310   2.07213
    A8        2.15099  -0.00024   0.00000  -0.00303  -0.00303   2.14795
    A9        2.06317   0.00051   0.00000  -0.00008  -0.00007   2.06310
   A10        2.06205  -0.00206   0.00000  -0.00662  -0.00662   2.05542
   A11        2.09946   0.00094   0.00000   0.00277   0.00278   2.10224
   A12        2.12168   0.00112   0.00000   0.00384   0.00385   2.12553
   A13        2.16902   0.00177   0.00000   0.00625   0.00626   2.17528
   A14        2.08760  -0.00033   0.00000   0.00027   0.00027   2.08788
   A15        2.02656  -0.00144   0.00000  -0.00653  -0.00653   2.02003
   A16        2.03632   0.00067   0.00000  -0.00269  -0.00268   2.03363
   A17        1.92124   0.00135   0.00000   0.00831   0.00831   1.92955
    D1       -0.00013   0.00001   0.00000   0.00025   0.00025   0.00012
    D2        3.14152   0.00000   0.00000   0.00016   0.00016  -3.14151
    D3       -3.14155  -0.00000   0.00000  -0.00009  -0.00009   3.14155
    D4        0.00010  -0.00000   0.00000  -0.00018  -0.00018  -0.00008
    D5        0.00002  -0.00000   0.00000  -0.00005  -0.00005  -0.00003
    D6        3.14144   0.00001   0.00000   0.00028   0.00028  -3.14146
    D7        0.00007  -0.00000   0.00000  -0.00014  -0.00014  -0.00007
    D8       -3.14152  -0.00000   0.00000  -0.00013  -0.00013   3.14154
    D9       -3.14158  -0.00000   0.00000  -0.00005  -0.00005   3.14156
   D10        0.00002  -0.00000   0.00000  -0.00003  -0.00003  -0.00002
   D11        0.00008  -0.00000   0.00000  -0.00015  -0.00014  -0.00006
   D12       -3.14153  -0.00000   0.00000  -0.00011  -0.00011   3.14155
   D13       -3.14151  -0.00000   0.00000  -0.00016  -0.00016   3.14152
   D14        0.00006  -0.00000   0.00000  -0.00012  -0.00012  -0.00006
   D15       -0.00014   0.00000   0.00000   0.00005   0.00005  -0.00009
   D16        3.14146   0.00000   0.00000   0.00006   0.00006   3.14152
   D17       -0.00021   0.00001   0.00000   0.00037   0.00037   0.00017
   D18       -3.14144  -0.00001   0.00000  -0.00029  -0.00029   3.14146
   D19        3.14141   0.00001   0.00000   0.00033   0.00033  -3.14144
   D20        0.00018  -0.00001   0.00000  -0.00033  -0.00033  -0.00015
   D21        0.00015  -0.00001   0.00000  -0.00027  -0.00027  -0.00012
   D22        3.14139   0.00001   0.00000   0.00037   0.00037  -3.14142
         Item               Value     Threshold  Converged?
 Maximum Force            0.015418     0.000450     NO 
 RMS     Force            0.004849     0.000300     NO 
 Maximum Displacement     0.044118     0.001800     NO 
 RMS     Displacement     0.014647     0.001200     NO 
 Predicted change in Energy=-1.195638D-03
 Lowest energy point so far.  Saving SCF results.
 GradGradGradGradGradGradGradGradGradGradGradGradGradGradGradGradGradGrad

 Leave Link  103 at Sun Sep  5 14:57:34 2021, MaxMem=  2415919104 cpu:         0.1
 (Enter /gpfs/share/home/1801110325/software/g09e01/l202.exe)
                          Input orientation:                          
 ---------------------------------------------------------------------
 Center     Atomic      Atomic             Coordinates (Angstroms)
 Number     Number       Type             X           Y           Z
 ---------------------------------------------------------------------
      1          6           0        1.141199    1.138434    0.000043
      2          6           0       -0.240207    1.180377    0.000012
      3          6           0       -0.923866   -0.022860   -0.000019
      4          6           0       -0.196767   -1.201460   -0.000100
      5          6           0        1.178182   -1.107624   -0.000221
      6          7           0        1.854338    0.029787   -0.000084
      7          1           0        1.699668    2.056447    0.000023
      8          1           0       -0.759848    2.121823    0.000045
      9          1           0       -0.698198   -2.149320   -0.000084
     10          1           0        1.771662   -2.003232   -0.000158
     11          8           0       -2.264487   -0.104016    0.000008
     12          1           0       -2.650067    0.761223    0.000128
 ---------------------------------------------------------------------
                    Distance matrix (angstroms):
                    1          2          3          4          5
     1  C    0.000000
     2  C    1.382042   0.000000
     3  C    2.369198   1.383896   0.000000
     4  C    2.695414   2.382233   1.384836   0.000000
     5  C    2.246363   2.691983   2.365443   1.378147   0.000000
     6  N    1.318205   2.389764   2.778703   2.392279   1.323212
     7  H    1.074539   2.128524   3.347603   3.769671   3.206757
     8  H    2.140335   1.075337   2.150946   3.370649   3.766337
     9  H    3.767321   3.361047   2.138401   1.072321   2.146144
    10  H    3.204302   3.766030   3.344809   2.125453   1.074398
    11  O    3.625242   2.397368   1.343075   2.340909   3.585973
    12  H    3.809985   2.446041   1.895931   3.141784   4.260056
                    6          7          8          9         10
     6  N    0.000000
     7  H    2.032553   0.000000
     8  H    3.348221   2.460385   0.000000
     9  H    3.356181   4.841305   4.271588   0.000000
    10  H    2.034699   4.060317   4.839899   2.474177   0.000000
    11  O    4.120998   4.514657   2.686689   2.576147   4.460664
    12  H    4.563404   4.538480   2.328982   3.504434   5.214777
                   11         12
    11  O    0.000000
    12  H    0.947264   0.000000
 Stoichiometry    C5H5NO
 Framework group  C1[X(C5H5NO)]
 Deg. of freedom    30
 Full point group                 C1      NOp   1
 RotChk:  IX=2 Diff= 1.31D-03
 Largest Abelian subgroup         C1      NOp   1
 Largest concise Abelian subgroup C1      NOp   1
                         Standard orientation:                         
 ---------------------------------------------------------------------
 Center     Atomic      Atomic             Coordinates (Angstroms)
 Number     Number       Type             X           Y           Z
 ---------------------------------------------------------------------
      1          6           0       -1.139326    1.139043   -0.000089
      2          6           0        0.242161    1.178200   -0.000058
      3          6           0        0.923393   -0.026412   -0.000027
      4          6           0        0.193919   -1.203544    0.000054
      5          6           0       -1.180837   -1.106936    0.000175
      6          7           0       -1.854699    0.031836    0.000039
      7          1           0       -1.695944    2.058179   -0.000068
      8          1           0        0.763700    2.118597   -0.000091
      9          1           0        0.693439   -2.152413    0.000039
     10          1           0       -1.776122   -2.001346    0.000112
     11          8           0        2.263848   -0.110270   -0.000053
     12          1           0        2.651171    0.754190   -0.000173
 ---------------------------------------------------------------------
 Rotational constants (GHZ):      6.1220455      2.6865560      1.8671770
 Leave Link  202 at Sun Sep  5 14:57:34 2021, MaxMem=  2415919104 cpu:         0.0
 (Enter /gpfs/share/home/1801110325/software/g09e01/l301.exe)
 Standard basis: GTBas1 (6D, 7F)
 Ernie: Thresh=  0.10000D-02 Tol=  0.10000D-05 Strict=F.
 There are   115 symmetry adapted cartesian basis functions of A   symmetry.
 There are   115 symmetry adapted basis functions of A   symmetry.
   115 basis functions,   216 primitive gaussians,   115 cartesian basis functions
    25 alpha electrons       25 beta electrons
       nuclear repulsion energy       276.9000009261 Hartrees.
 IExCor=    0 DFT=F Ex=HF Corr=None ExCW=0 ScaHFX=  1.000000
 ScaDFX=  1.000000  1.000000  1.000000  1.000000 ScalE2=  1.000000  1.000000
 IRadAn=      0 IRanWt=     -1 IRanGd=            0 ICorTp=0 IEmpDi=  4
 NAtoms=   12 NActive=   12 NUniq=   12 SFac= 1.00D+00 NAtFMM=   60 NAOKFM=F Big=F
 Integral buffers will be    131072 words long.
 Raffenetti 1 integral format.
 Two-electron integral symmetry is turned on.
 Leave Link  301 at Sun Sep  5 14:57:34 2021, MaxMem=  2415919104 cpu:         0.2
 (Enter /gpfs/share/home/1801110325/software/g09e01/l302.exe)
 NPDir=0 NMtPBC=     1 NCelOv=     1 NCel=       1 NClECP=     1 NCelD=      1
         NCelK=      1 NCelE2=     1 NClLst=     1 CellRange=     0.0.
 One-electron integrals computed using PRISM.
 NBasis=   115 RedAO= T EigKep=  7.64D-04  NBF=   115
 NBsUse=   115 1.00D-06 EigRej= -1.00D+00 NBFU=   115
 Leave Link  302 at Sun Sep  5 14:57:34 2021, MaxMem=  2415919104 cpu:         0.5
 (Enter /gpfs/share/home/1801110325/software/g09e01/l303.exe)
 DipDrv:  MaxL=1.
 Leave Link  303 at Sun Sep  5 14:57:34 2021, MaxMem=  2415919104 cpu:         0.1
 (Enter /gpfs/share/home/1801110325/software/g09e01/l401.exe)
 Initial guess from the checkpoint file:  "4HY_G3.chk"
 B after Tr=     0.000000   -0.000000    0.000000
         Rot=    1.000000    0.000019   -0.000004    0.000267 Ang=   0.03 deg.
 Guess basis will be translated and rotated to current coordinates.
 JPrj=2 DoOrth=T DoCkMO=T.
 Generating alternative initial guess.
 ExpMin= 1.61D-01 ExpMax= 5.48D+03 ExpMxC= 8.25D+02 IAcc=1 IRadAn=         1 AccDes= 0.00D+00
 Harris functional with IExCor=  205 and IRadAn=       1 diagonalized for initial guess.
 HarFok:  IExCor=  205 AccDes= 0.00D+00 IRadAn=         1 IDoV= 1 UseB2=F ITyADJ=14
 ICtDFT=  3500011 ScaDFX=  1.000000  1.000000  1.000000  1.000000
 FoFCou: FMM=F IPFlag=           0 FMFlag=      100000 FMFlg1=           0
         NFxFlg=           0 DoJE=T BraDBF=F KetDBF=T FulRan=T
         wScrn=  0.000000 ICntrl=     500 IOpCl=  0 I1Cent=   200000004 NGrid=           0
         NMat0=    1 NMatS0=      1 NMatT0=    0 NMatD0=    1 NMtDS0=    0 NMtDT0=    0
 Petite list used in FoFCou.
 Harris En= -321.893972406362    
 Leave Link  401 at Sun Sep  5 14:57:35 2021, MaxMem=  2415919104 cpu:         1.3
 (Enter /gpfs/share/home/1801110325/software/g09e01/l502.exe)
 Closed shell SCF:
 Using DIIS extrapolation, IDIIS=  1040.
 Integral symmetry usage will be decided dynamically.
 Keep R1 ints in memory in canonical form, NReq=23187920.
 IVT=       59782 IEndB=       59782 NGot=  2415919104 MDV=  2393611538
 LenX=  2393611538 LenY=  2393597872
 Requested convergence on RMS density matrix=1.00D-08 within 128 cycles.
 Requested convergence on MAX density matrix=1.00D-06.
 Requested convergence on             energy=1.00D-06.
 No special actions if energy rises.
 FoFCou: FMM=F IPFlag=           0 FMFlag=           0 FMFlg1=           0
         NFxFlg=           0 DoJE=F BraDBF=F KetDBF=F FulRan=T
         wScrn=  0.000000 ICntrl=     600 IOpCl=  0 I1Cent=           0 NGrid=           0
         NMat0=    1 NMatS0=   6670 NMatT0=    0 NMatD0=    1 NMtDS0=    0 NMtDT0=    0
 Symmetry not used in FoFCou.

 Cycle   1  Pass 1  IDiag  1:
 E= -321.554176318910    
 DIIS: error= 1.54D-03 at cycle   1 NSaved=   1.
 NSaved= 1 IEnMin= 1 EnMin= -321.554176318910     IErMin= 1 ErrMin= 1.54D-03
 ErrMax= 1.54D-03  0.00D+00 EMaxC= 1.00D-01 BMatC= 3.52D-04 BMatP= 3.52D-04
 IDIUse=3 WtCom= 9.85D-01 WtEn= 1.54D-02
 Coeff-Com:  0.100D+01
 Coeff-En:   0.100D+01
 Coeff:      0.100D+01
 Gap=     1.967 Goal=   None    Shift=    0.000
 GapD=    1.967 DampG=2.000 DampE=1.000 DampFc=2.0000 IDamp=-1.
 RMSDP=1.98D-04 MaxDP=4.46D-03              OVMax= 3.32D-03

 Cycle   2  Pass 1  IDiag  1:
 E= -321.554546027185     Delta-E=       -0.000369708275 Rises=F Damp=F
 DIIS: error= 5.61D-04 at cycle   2 NSaved=   2.
 NSaved= 2 IEnMin= 2 EnMin= -321.554546027185     IErMin= 2 ErrMin= 5.61D-04
 ErrMax= 5.61D-04  0.00D+00 EMaxC= 1.00D-01 BMatC= 3.14D-05 BMatP= 3.52D-04
 IDIUse=3 WtCom= 9.94D-01 WtEn= 5.61D-03
 Coeff-Com:  0.784D-01 0.922D+00
 Coeff-En:   0.000D+00 0.100D+01
 Coeff:      0.779D-01 0.922D+00
 Gap=     0.489 Goal=   None    Shift=    0.000
 RMSDP=7.75D-05 MaxDP=1.81D-03 DE=-3.70D-04 OVMax= 1.33D-03

 Cycle   3  Pass 1  IDiag  1:
 E= -321.554576724355     Delta-E=       -0.000030697170 Rises=F Damp=F
 DIIS: error= 1.61D-04 at cycle   3 NSaved=   3.
 NSaved= 3 IEnMin= 3 EnMin= -321.554576724355     IErMin= 3 ErrMin= 1.61D-04
 ErrMax= 1.61D-04  0.00D+00 EMaxC= 1.00D-01 BMatC= 4.46D-06 BMatP= 3.14D-05
 IDIUse=3 WtCom= 9.98D-01 WtEn= 1.61D-03
 Coeff-Com: -0.643D-01 0.161D+00 0.903D+00
 Coeff-En:   0.000D+00 0.000D+00 0.100D+01
 Coeff:     -0.642D-01 0.161D+00 0.903D+00
 Gap=     0.489 Goal=   None    Shift=    0.000
 RMSDP=2.51D-05 MaxDP=6.01D-04 DE=-3.07D-05 OVMax= 6.18D-04

 Cycle   4  Pass 1  IDiag  1:
 E= -321.554582260884     Delta-E=       -0.000005536529 Rises=F Damp=F
 DIIS: error= 7.85D-05 at cycle   4 NSaved=   4.
 NSaved= 4 IEnMin= 4 EnMin= -321.554582260884     IErMin= 4 ErrMin= 7.85D-05
 ErrMax= 7.85D-05  0.00D+00 EMaxC= 1.00D-01 BMatC= 4.13D-07 BMatP= 4.46D-06
 IDIUse=1 WtCom= 1.00D+00 WtEn= 0.00D+00
 Coeff-Com: -0.145D-01-0.301D-01 0.153D+00 0.892D+00
 Coeff:     -0.145D-01-0.301D-01 0.153D+00 0.892D+00
 Gap=     0.489 Goal=   None    Shift=    0.000
 RMSDP=1.04D-05 MaxDP=2.45D-04 DE=-5.54D-06 OVMax= 3.04D-04

 Cycle   5  Pass 1  IDiag  1:
 E= -321.554582983309     Delta-E=       -0.000000722425 Rises=F Damp=F
 DIIS: error= 2.57D-05 at cycle   5 NSaved=   5.
 NSaved= 5 IEnMin= 5 EnMin= -321.554582983309     IErMin= 5 ErrMin= 2.57D-05
 ErrMax= 2.57D-05  0.00D+00 EMaxC= 1.00D-01 BMatC= 6.53D-08 BMatP= 4.13D-07
 IDIUse=1 WtCom= 1.00D+00 WtEn= 0.00D+00
 Coeff-Com:  0.707D-02-0.265D-01-0.109D+00 0.975D-01 0.103D+01
 Coeff:      0.707D-02-0.265D-01-0.109D+00 0.975D-01 0.103D+01
 Gap=     0.489 Goal=   None    Shift=    0.000
 RMSDP=5.30D-06 MaxDP=9.01D-05 DE=-7.22D-07 OVMax= 2.11D-04

 Cycle   6  Pass 1  IDiag  1:
 E= -321.554583180908     Delta-E=       -0.000000197599 Rises=F Damp=F
 DIIS: error= 1.34D-05 at cycle   6 NSaved=   6.
 NSaved= 6 IEnMin= 6 EnMin= -321.554583180908     IErMin= 6 ErrMin= 1.34D-05
 ErrMax= 1.34D-05  0.00D+00 EMaxC= 1.00D-01 BMatC= 1.15D-08 BMatP= 6.53D-08
 IDIUse=1 WtCom= 1.00D+00 WtEn= 0.00D+00
 Coeff-Com:  0.186D-02 0.470D-02-0.205D-01-0.130D+00-0.123D-01 0.116D+01
 Coeff:      0.186D-02 0.470D-02-0.205D-01-0.130D+00-0.123D-01 0.116D+01
 Gap=     0.489 Goal=   None    Shift=    0.000
 RMSDP=2.48D-06 MaxDP=3.89D-05 DE=-1.98D-07 OVMax= 1.25D-04

 Cycle   7  Pass 1  IDiag  1:
 E= -321.554583225715     Delta-E=       -0.000000044807 Rises=F Damp=F
 DIIS: error= 5.89D-06 at cycle   7 NSaved=   7.
 NSaved= 7 IEnMin= 7 EnMin= -321.554583225715     IErMin= 7 ErrMin= 5.89D-06
 ErrMax= 5.89D-06  0.00D+00 EMaxC= 1.00D-01 BMatC= 2.07D-09 BMatP= 1.15D-08
 IDIUse=1 WtCom= 1.00D+00 WtEn= 0.00D+00
 Coeff-Com: -0.888D-03 0.492D-02 0.139D-01-0.306D-01-0.146D+00 0.113D+00
 Coeff-Com:  0.105D+01
 Coeff:     -0.888D-03 0.492D-02 0.139D-01-0.306D-01-0.146D+00 0.113D+00
 Coeff:      0.105D+01
 Gap=     0.489 Goal=   None    Shift=    0.000
 RMSDP=9.94D-07 MaxDP=2.07D-05 DE=-4.48D-08 OVMax= 6.03D-05

 Cycle   8  Pass 1  IDiag  1:
 E= -321.554583234835     Delta-E=       -0.000000009120 Rises=F Damp=F
 DIIS: error= 3.06D-06 at cycle   8 NSaved=   8.
 NSaved= 8 IEnMin= 8 EnMin= -321.554583234835     IErMin= 8 ErrMin= 3.06D-06
 ErrMax= 3.06D-06  0.00D+00 EMaxC= 1.00D-01 BMatC= 5.60D-10 BMatP= 2.07D-09
 IDIUse=1 WtCom= 1.00D+00 WtEn= 0.00D+00
 Coeff-Com: -0.456D-03-0.641D-03 0.466D-02 0.282D-01 0.925D-02-0.320D+00
 Coeff-Com:  0.958D-01 0.118D+01
 Coeff:     -0.456D-03-0.641D-03 0.466D-02 0.282D-01 0.925D-02-0.320D+00
 Coeff:      0.958D-01 0.118D+01
 Gap=     0.489 Goal=   None    Shift=    0.000
 RMSDP=6.06D-07 MaxDP=1.06D-05 DE=-9.12D-09 OVMax= 3.54D-05

 Cycle   9  Pass 1  IDiag  1:
 E= -321.554583237215     Delta-E=       -0.000000002380 Rises=F Damp=F
 DIIS: error= 7.40D-07 at cycle   9 NSaved=   9.
 NSaved= 9 IEnMin= 9 EnMin= -321.554583237215     IErMin= 9 ErrMin= 7.40D-07
 ErrMax= 7.40D-07  0.00D+00 EMaxC= 1.00D-01 BMatC= 4.32D-11 BMatP= 5.60D-10
 IDIUse=1 WtCom= 1.00D+00 WtEn= 0.00D+00
 Coeff-Com:  0.216D-03-0.447D-03-0.297D-02-0.464D-02 0.199D-01 0.664D-01
 Coeff-Com: -0.152D+00-0.385D+00 0.146D+01
 Coeff:      0.216D-03-0.447D-03-0.297D-02-0.464D-02 0.199D-01 0.664D-01
 Coeff:     -0.152D+00-0.385D+00 0.146D+01
 Gap=     0.489 Goal=   None    Shift=    0.000
 RMSDP=2.17D-07 MaxDP=4.16D-06 DE=-2.38D-09 OVMax= 1.18D-05

 Cycle  10  Pass 1  IDiag  1:
 E= -321.554583237433     Delta-E=       -0.000000000218 Rises=F Damp=F
 DIIS: error= 1.02D-07 at cycle  10 NSaved=  10.
 NSaved=10 IEnMin=10 EnMin= -321.554583237433     IErMin=10 ErrMin= 1.02D-07
 ErrMax= 1.02D-07  0.00D+00 EMaxC= 1.00D-01 BMatC= 2.00D-12 BMatP= 4.32D-11
 IDIUse=1 WtCom= 1.00D+00 WtEn= 0.00D+00
 Coeff-Com:  0.458D-04-0.207D-05-0.494D-03-0.223D-02 0.159D-02 0.254D-01
 Coeff-Com: -0.177D-01-0.950D-01 0.128D+00 0.960D+00
 Coeff:      0.458D-04-0.207D-05-0.494D-03-0.223D-02 0.159D-02 0.254D-01
 Coeff:     -0.177D-01-0.950D-01 0.128D+00 0.960D+00
 Gap=     0.489 Goal=   None    Shift=    0.000
 RMSDP=2.46D-08 MaxDP=4.06D-07 DE=-2.18D-10 OVMax= 1.09D-06

 Cycle  11  Pass 1  IDiag  1:
 E= -321.554583237435     Delta-E=       -0.000000000002 Rises=F Damp=F
 DIIS: error= 7.12D-08 at cycle  11 NSaved=  11.
 NSaved=11 IEnMin=11 EnMin= -321.554583237435     IErMin=11 ErrMin= 7.12D-08
 ErrMax= 7.12D-08  0.00D+00 EMaxC= 1.00D-01 BMatC= 3.68D-13 BMatP= 2.00D-12
 IDIUse=1 WtCom= 1.00D+00 WtEn= 0.00D+00
 Coeff-Com: -0.173D-04 0.505D-04 0.271D-03 0.426D-04-0.205D-02-0.263D-02
 Coeff-Com:  0.131D-01 0.269D-01-0.148D+00 0.192D+00 0.921D+00
 Coeff:     -0.173D-04 0.505D-04 0.271D-03 0.426D-04-0.205D-02-0.263D-02
 Coeff:      0.131D-01 0.269D-01-0.148D+00 0.192D+00 0.921D+00
 Gap=     0.489 Goal=   None    Shift=    0.000
 RMSDP=1.05D-08 MaxDP=1.86D-07 DE=-2.39D-12 OVMax= 3.58D-07

 Cycle  12  Pass 1  IDiag  1:
 E= -321.554583237442     Delta-E=       -0.000000000007 Rises=F Damp=F
 DIIS: error= 2.32D-08 at cycle  12 NSaved=  12.
 NSaved=12 IEnMin=12 EnMin= -321.554583237442     IErMin=12 ErrMin= 2.32D-08
 ErrMax= 2.32D-08  0.00D+00 EMaxC= 1.00D-01 BMatC= 3.41D-14 BMatP= 3.68D-13
 IDIUse=1 WtCom= 1.00D+00 WtEn= 0.00D+00
 Coeff-Com: -0.396D-05-0.146D-05 0.435D-04 0.190D-03-0.108D-03-0.238D-02
 Coeff-Com:  0.741D-03 0.838D-02-0.760D-02-0.110D+00-0.340D-01 0.114D+01
 Coeff:     -0.396D-05-0.146D-05 0.435D-04 0.190D-03-0.108D-03-0.238D-02
 Coeff:      0.741D-03 0.838D-02-0.760D-02-0.110D+00-0.340D-01 0.114D+01
 Gap=     0.489 Goal=   None    Shift=    0.000
 RMSDP=4.32D-09 MaxDP=8.20D-08 DE=-6.71D-12 OVMax= 2.20D-07

 SCF Done:  E(RHF) =  -321.554583237     A.U. after   12 cycles
            NFock= 12  Conv=0.43D-08     -V/T= 2.0012
 KE= 3.211605568493D+02 PE=-1.306520173265D+03 EE= 3.869050322522D+02
 Leave Link  502 at Sun Sep  5 14:57:35 2021, MaxMem=  2415919104 cpu:         2.7
 (Enter /gpfs/share/home/1801110325/software/g09e01/l701.exe)
 Compute integral first derivatives.
 ... and contract with generalized density number  0.
 Leave Link  701 at Sun Sep  5 14:57:36 2021, MaxMem=  2415919104 cpu:         0.5
 (Enter /gpfs/share/home/1801110325/software/g09e01/l702.exe)
 L702 exits ... SP integral derivatives will be done elsewhere.
 Leave Link  702 at Sun Sep  5 14:57:36 2021, MaxMem=  2415919104 cpu:         0.1
 (Enter /gpfs/share/home/1801110325/software/g09e01/l703.exe)
 Compute integral first derivatives, UseDBF=F ICtDFT=           0.
 Integral derivatives from FoFJK, PRISM(SPDF).
 Calling FoFJK, ICntrl=      2127 FMM=F ISym2X=0 I1Cent= 0 IOpClX= 0 NMat=1 NMatS=1 NMatT=0.
 FoFJK:  IHMeth= 1 ICntrl=    2127 DoSepK=F KAlg= 0 I1Cent=   0 FoldK=F
 IRaf=         0 NMat=   1 IRICut=       1 DoRegI=T DoRafI=F ISym2E= 0.
 FoFCou: FMM=F IPFlag=           0 FMFlag=      100000 FMFlg1=         800
         NFxFlg=           0 DoJE=F BraDBF=F KetDBF=F FulRan=T
         wScrn=  0.000000 ICntrl=    2127 IOpCl=  0 I1Cent=           0 NGrid=           0
         NMat0=    1 NMatS0=      1 NMatT0=    0 NMatD0=    1 NMtDS0=    0 NMtDT0=    0
 Symmetry not used in FoFCou.
 Leave Link  703 at Sun Sep  5 14:57:36 2021, MaxMem=  2415919104 cpu:         2.9
 (Enter /gpfs/share/home/1801110325/software/g09e01/l716.exe)
 Dipole        = 8.71243454D-01 5.63754971D-01-1.08677518D-04
 ***** Axes restored to original set *****
 -------------------------------------------------------------------
 Center     Atomic                   Forces (Hartrees/Bohr)
 Number     Number              X              Y              Z
 -------------------------------------------------------------------
      1        6           0.002307895    0.001101133   -0.000021803
      2        6          -0.000271422    0.001105493    0.000006952
      3        6          -0.004301949   -0.000579529   -0.000003088
      4        6           0.000820871   -0.001293644   -0.000008891
      5        6           0.001305457   -0.001779935    0.000037235
      6        7          -0.000677676    0.000610265   -0.000005757
      7        1           0.000202916    0.001457638    0.000007707
      8        1          -0.000147254    0.000414625    0.000001125
      9        1          -0.000262404   -0.000449662   -0.000002321
     10        1           0.000287077   -0.001355942   -0.000012562
     11        8           0.001733509    0.000666837    0.000001522
     12        1          -0.000997021    0.000102720   -0.000000119
 -------------------------------------------------------------------
 Cartesian Forces:  Max     0.004301949 RMS     0.001102230
 Leave Link  716 at Sun Sep  5 14:57:36 2021, MaxMem=  2415919104 cpu:         0.1
 (Enter /gpfs/share/home/1801110325/software/g09e01/l103.exe)

 GradGradGradGradGradGradGradGradGradGradGradGradGradGradGradGradGradGrad
 Berny optimization.
 Using GEDIIS/GDIIS optimizer.
 FormGI is forming the generalized inverse of G from B-inverse, IUseBI=4.
 Internal  Forces:  Max     0.002966306 RMS     0.000918733
 Search for a local minimum.
 Step number   2 out of a maximum of   61
 All quantities printed in internal units (Hartrees-Bohrs-Radians)
 RMS Force = .91873D-03 SwitMx=.10000D-02 MixMth= 2
 Mixed Optimization -- En-DIIS/RFO-DIIS
 Update second derivatives using D2CorX and points    1    2
 DE= -1.06D-03 DEPred=-1.20D-03 R= 8.88D-01
 TightC=F SS=  1.41D+00  RLast= 7.06D-02 DXNew= 5.0454D-01 2.1182D-01
 Trust test= 8.88D-01 RLast= 7.06D-02 DXMaxT set to 3.00D-01
 ITU=  1  0
 Use linear search instead of GDIIS.
     Eigenvalues ---    0.02206   0.02220   0.02223   0.02245   0.02251
     Eigenvalues ---    0.02289   0.02345   0.02370   0.02494   0.15795
     Eigenvalues ---    0.16000   0.16000   0.16000   0.16062   0.21999
     Eigenvalues ---    0.23288   0.23823   0.24991   0.35516   0.35568
     Eigenvalues ---    0.35873   0.36441   0.43215   0.44895   0.47166
     Eigenvalues ---    0.48698   0.52063   0.54902   0.57693   0.62386
 RFO step:  Lambda=-6.83342066D-05 EMin= 2.20621613D-02
 Quartic linear search produced a step of -0.10447.
 Iteration  1 RMS(Cart)=  0.00340166 RMS(Int)=  0.00000910
 Iteration  2 RMS(Cart)=  0.00000847 RMS(Int)=  0.00000028
 Iteration  3 RMS(Cart)=  0.00000000 RMS(Int)=  0.00000028
 ITry= 1 IFail=0 DXMaxC= 1.39D-02 DCOld= 1.00D+10 DXMaxT= 3.00D-01 DXLimC= 3.00D+00 Rises=F
 Variable       Old X    -DE/DX   Delta X   Delta X   Delta X     New X
                                 (Linear)    (Quad)   (Total)
    R1        2.61168   0.00198   0.00125   0.00208   0.00333   2.61501
    R2        2.49105   0.00141   0.00274  -0.00144   0.00130   2.49235
    R3        2.03059   0.00135   0.00189   0.00090   0.00279   2.03337
    R4        2.61518   0.00258   0.00152   0.00292   0.00443   2.61962
    R5        2.03209   0.00043   0.00150  -0.00090   0.00060   2.03269
    R6        2.61696   0.00297   0.00127   0.00397   0.00524   2.62220
    R7        2.53804  -0.00078   0.00289  -0.00510  -0.00221   2.53584
    R8        2.60432   0.00139   0.00145   0.00068   0.00213   2.60645
    R9        2.02639   0.00052   0.00156  -0.00078   0.00078   2.02718
   R10        2.50051   0.00216   0.00247   0.00010   0.00257   2.50308
   R11        2.03032   0.00129   0.00187   0.00077   0.00263   2.03295
   R12        1.79007   0.00050   0.00291  -0.00300  -0.00009   1.78998
    A1        2.17277  -0.00103  -0.00076  -0.00305  -0.00381   2.16896
    A2        2.08698  -0.00008   0.00005  -0.00133  -0.00128   2.08569
    A3        2.02344   0.00111   0.00071   0.00438   0.00509   2.02853
    A4        2.05714   0.00039   0.00077   0.00062   0.00138   2.05852
    A5        2.10550  -0.00027  -0.00025  -0.00090  -0.00115   2.10435
    A6        2.12055  -0.00012  -0.00051   0.00028  -0.00023   2.12032
    A7        2.07213  -0.00037  -0.00032  -0.00080  -0.00112   2.07100
    A8        2.14795   0.00004   0.00032  -0.00031   0.00000   2.14796
    A9        2.06310   0.00033   0.00001   0.00111   0.00112   2.06422
   A10        2.05542   0.00040   0.00069   0.00078   0.00147   2.05689
   A11        2.10224  -0.00022  -0.00029  -0.00059  -0.00088   2.10136
   A12        2.12553  -0.00018  -0.00040  -0.00019  -0.00059   2.12494
   A13        2.17528  -0.00103  -0.00065  -0.00319  -0.00384   2.17144
   A14        2.08788  -0.00000  -0.00003  -0.00081  -0.00083   2.08704
   A15        2.02003   0.00103   0.00068   0.00399   0.00467   2.02470
   A16        2.03363   0.00164   0.00028   0.00564   0.00592   2.03955
   A17        1.92955   0.00156  -0.00087   0.00991   0.00905   1.93860
    D1        0.00012  -0.00001  -0.00003  -0.00017  -0.00019  -0.00007
    D2       -3.14151  -0.00000  -0.00002  -0.00012  -0.00014   3.14154
    D3        3.14155   0.00000   0.00001   0.00008   0.00008  -3.14156
    D4       -0.00008   0.00000   0.00002   0.00012   0.00014   0.00006
    D5       -0.00003   0.00000   0.00001   0.00004   0.00005   0.00002
    D6       -3.14146  -0.00001  -0.00003  -0.00019  -0.00022   3.14151
    D7       -0.00007   0.00000   0.00001   0.00010   0.00011   0.00004
    D8        3.14154   0.00000   0.00001   0.00007   0.00009  -3.14156
    D9        3.14156   0.00000   0.00000   0.00005   0.00005  -3.14157
   D10       -0.00002   0.00000   0.00000   0.00002   0.00003   0.00001
   D11       -0.00006   0.00000   0.00002   0.00008   0.00010   0.00003
   D12        3.14155   0.00000   0.00001   0.00005   0.00007  -3.14157
   D13        3.14152   0.00000   0.00002   0.00010   0.00012  -3.14155
   D14       -0.00006   0.00000   0.00001   0.00008   0.00009   0.00003
   D15       -0.00009   0.00000  -0.00001   0.00003   0.00002  -0.00006
   D16        3.14152  -0.00000  -0.00001   0.00001  -0.00000   3.14152
   D17        0.00017  -0.00001  -0.00004  -0.00022  -0.00026  -0.00009
   D18        3.14146   0.00001   0.00003   0.00018   0.00022  -3.14151
   D19       -3.14144  -0.00001  -0.00003  -0.00019  -0.00023   3.14151
   D20       -0.00015   0.00001   0.00003   0.00021   0.00024   0.00009
   D21       -0.00012   0.00001   0.00003   0.00016   0.00019   0.00006
   D22       -3.14142  -0.00001  -0.00004  -0.00023  -0.00027   3.14149
         Item               Value     Threshold  Converged?
 Maximum Force            0.002966     0.000450     NO 
 RMS     Force            0.000919     0.000300     NO 
 Maximum Displacement     0.013855     0.001800     NO 
 RMS     Displacement     0.003400     0.001200     NO 
 Predicted change in Energy=-4.950454D-05
 Lowest energy point so far.  Saving SCF results.
 GradGradGradGradGradGradGradGradGradGradGradGradGradGradGradGradGradGrad

 Leave Link  103 at Sun Sep  5 14:57:36 2021, MaxMem=  2415919104 cpu:         0.0
 (Enter /gpfs/share/home/1801110325/software/g09e01/l202.exe)
                          Input orientation:                          
 ---------------------------------------------------------------------
 Center     Atomic      Atomic             Coordinates (Angstroms)
 Number     Number       Type             X           Y           Z
 ---------------------------------------------------------------------
      1          6           0        1.143753    1.141186   -0.000055
      2          6           0       -0.239442    1.182286    0.000024
      3          6           0       -0.925143   -0.022489   -0.000021
      4          6           0       -0.196124   -1.203163   -0.000090
      5          6           0        1.180048   -1.110735   -0.000069
      6          7           0        1.853754    0.029711   -0.000089
      7          1           0        1.701212    2.061536    0.000011
      8          1           0       -0.758765    2.124269    0.000095
      9          1           0       -0.698212   -2.151144   -0.000146
     10          1           0        1.772581   -2.008639   -0.000194
     11          8           0       -2.264656   -0.102599    0.000008
     12          1           0       -2.657398    0.759360    0.000119
 ---------------------------------------------------------------------
                    Distance matrix (angstroms):
                    1          2          3          4          5
     1  C    0.000000
     2  C    1.383805   0.000000
     3  C    2.373704   1.386243   0.000000
     4  C    2.700230   2.385842   1.387609   0.000000
     5  C    2.252213   2.696830   2.369833   1.379273   0.000000
     6  N    1.318893   2.389539   2.779387   2.392066   1.324574
     7  H    1.076013   2.130544   3.352745   3.775996   3.214796
     8  H    2.141501   1.075653   2.153196   3.374665   3.771504
     9  H    3.772568   3.364851   2.140717   1.072735   2.147164
    10  H    3.211981   3.772299   3.350001   2.127109   1.075792
    11  O    3.628257   2.398421   1.341907   2.343089   3.589196
    12  H    3.820280   2.454665   1.900526   3.147915   4.268870
                    6          7          8          9         10
     6  N    0.000000
     7  H    2.037543   0.000000
     8  H    3.348497   2.460777   0.000000
     9  H    3.356882   4.848083   4.275841   0.000000
    10  H    2.039966   4.070801   4.846508   2.474900   0.000000
    11  O    4.120535   4.517919   2.688242   2.578814   4.464558
    12  H    4.569780   4.548972   2.338329   3.508482   5.223652
                   11         12
    11  O    0.000000
    12  H    0.947217   0.000000
 Stoichiometry    C5H5NO
 Framework group  C1[X(C5H5NO)]
 Deg. of freedom    30
 Full point group                 C1      NOp   1
 RotChk:  IX=2 Diff= 7.03D-04
 Largest Abelian subgroup         C1      NOp   1
 Largest concise Abelian subgroup C1      NOp   1
                         Standard orientation:                         
 ---------------------------------------------------------------------
 Center     Atomic      Atomic             Coordinates (Angstroms)
 Number     Number       Type             X           Y           Z
 ---------------------------------------------------------------------
      1          6           0       -1.140946    1.142155    0.000016
      2          6           0        0.242347    1.179779   -0.000062
      3          6           0        0.925019   -0.026715   -0.000018
      4          6           0        0.193035   -1.205553    0.000051
      5          6           0       -1.182901   -1.109667    0.000030
      6          7           0       -1.853738    0.032468    0.000050
      7          1           0       -1.696091    2.063903   -0.000050
      8          1           0        0.764036    2.120454   -0.000134
      9          1           0        0.692740   -2.154793    0.000107
     10          1           0       -1.777688   -2.006080    0.000155
     11          8           0        2.264326   -0.110191   -0.000047
     12          1           0        2.659234    0.750778   -0.000158
 ---------------------------------------------------------------------
 Rotational constants (GHZ):      6.0986242      2.6841383      1.8638271
 Leave Link  202 at Sun Sep  5 14:57:36 2021, MaxMem=  2415919104 cpu:         0.0
 (Enter /gpfs/share/home/1801110325/software/g09e01/l301.exe)
 Standard basis: GTBas1 (6D, 7F)
 Ernie: Thresh=  0.10000D-02 Tol=  0.10000D-05 Strict=F.
 There are   115 symmetry adapted cartesian basis functions of A   symmetry.
 There are   115 symmetry adapted basis functions of A   symmetry.
   115 basis functions,   216 primitive gaussians,   115 cartesian basis functions
    25 alpha electrons       25 beta electrons
       nuclear repulsion energy       276.6312916027 Hartrees.
 IExCor=    0 DFT=F Ex=HF Corr=None ExCW=0 ScaHFX=  1.000000
 ScaDFX=  1.000000  1.000000  1.000000  1.000000 ScalE2=  1.000000  1.000000
 IRadAn=      0 IRanWt=     -1 IRanGd=            0 ICorTp=0 IEmpDi=  4
 NAtoms=   12 NActive=   12 NUniq=   12 SFac= 1.00D+00 NAtFMM=   60 NAOKFM=F Big=F
 Integral buffers will be    131072 words long.
 Raffenetti 1 integral format.
 Two-electron integral symmetry is turned on.
 Leave Link  301 at Sun Sep  5 14:57:36 2021, MaxMem=  2415919104 cpu:         0.2
 (Enter /gpfs/share/home/1801110325/software/g09e01/l302.exe)
 NPDir=0 NMtPBC=     1 NCelOv=     1 NCel=       1 NClECP=     1 NCelD=      1
         NCelK=      1 NCelE2=     1 NClLst=     1 CellRange=     0.0.
 One-electron integrals computed using PRISM.
 NBasis=   115 RedAO= T EigKep=  7.69D-04  NBF=   115
 NBsUse=   115 1.00D-06 EigRej= -1.00D+00 NBFU=   115
 Leave Link  302 at Sun Sep  5 14:57:36 2021, MaxMem=  2415919104 cpu:         0.5
 (Enter /gpfs/share/home/1801110325/software/g09e01/l303.exe)
 DipDrv:  MaxL=1.
 Leave Link  303 at Sun Sep  5 14:57:36 2021, MaxMem=  2415919104 cpu:         0.1
 (Enter /gpfs/share/home/1801110325/software/g09e01/l401.exe)
 Initial guess from the checkpoint file:  "4HY_G3.chk"
 B after Tr=    -0.000000   -0.000000   -0.000000
         Rot=    1.000000   -0.000014    0.000001    0.000139 Ang=  -0.02 deg.
 Guess basis will be translated and rotated to current coordinates.
 JPrj=2 DoOrth=T DoCkMO=T.
 Leave Link  401 at Sun Sep  5 14:57:36 2021, MaxMem=  2415919104 cpu:         0.4
 (Enter /gpfs/share/home/1801110325/software/g09e01/l502.exe)
 Closed shell SCF:
 Using DIIS extrapolation, IDIIS=  1040.
 Integral symmetry usage will be decided dynamically.
 Keep R1 ints in memory in canonical form, NReq=23187892.
 IVT=       59782 IEndB=       59782 NGot=  2415919104 MDV=  2393611538
 LenX=  2393611538 LenY=  2393597872
 Requested convergence on RMS density matrix=1.00D-08 within 128 cycles.
 Requested convergence on MAX density matrix=1.00D-06.
 Requested convergence on             energy=1.00D-06.
 No special actions if energy rises.
 FoFCou: FMM=F IPFlag=           0 FMFlag=           0 FMFlg1=           0
         NFxFlg=           0 DoJE=F BraDBF=F KetDBF=F FulRan=T
         wScrn=  0.000000 ICntrl=     600 IOpCl=  0 I1Cent=           0 NGrid=           0
         NMat0=    1 NMatS0=   6670 NMatT0=    0 NMatD0=    1 NMtDS0=    0 NMtDT0=    0
 Symmetry not used in FoFCou.

 Cycle   1  Pass 1  IDiag  1:
 E= -321.554611547021    
 DIIS: error= 2.65D-04 at cycle   1 NSaved=   1.
 NSaved= 1 IEnMin= 1 EnMin= -321.554611547021     IErMin= 1 ErrMin= 2.65D-04
 ErrMax= 2.65D-04  0.00D+00 EMaxC= 1.00D-01 BMatC= 1.51D-05 BMatP= 1.51D-05
 IDIUse=3 WtCom= 9.97D-01 WtEn= 2.65D-03
 Coeff-Com:  0.100D+01
 Coeff-En:   0.100D+01
 Coeff:      0.100D+01
 Gap=     1.958 Goal=   None    Shift=    0.000
 RMSDP=5.35D-05 MaxDP=8.33D-04              OVMax= 6.95D-04

 Cycle   2  Pass 1  IDiag  1:
 E= -321.554628430088     Delta-E=       -0.000016883067 Rises=F Damp=F
 DIIS: error= 1.08D-04 at cycle   2 NSaved=   2.
 NSaved= 2 IEnMin= 2 EnMin= -321.554628430088     IErMin= 2 ErrMin= 1.08D-04
 ErrMax= 1.08D-04  0.00D+00 EMaxC= 1.00D-01 BMatC= 1.22D-06 BMatP= 1.51D-05
 IDIUse=3 WtCom= 9.99D-01 WtEn= 1.08D-03
 Coeff-Com: -0.157D-02 0.100D+01
 Coeff-En:   0.000D+00 0.100D+01
 Coeff:     -0.157D-02 0.100D+01
 Gap=     0.488 Goal=   None    Shift=    0.000
 RMSDP=1.28D-05 MaxDP=1.82D-04 DE=-1.69D-05 OVMax= 2.99D-04

 Cycle   3  Pass 1  IDiag  1:
 E= -321.554629790297     Delta-E=       -0.000001360209 Rises=F Damp=F
 DIIS: error= 3.99D-05 at cycle   3 NSaved=   3.
 NSaved= 3 IEnMin= 3 EnMin= -321.554629790297     IErMin= 3 ErrMin= 3.99D-05
 ErrMax= 3.99D-05  0.00D+00 EMaxC= 1.00D-01 BMatC= 2.71D-07 BMatP= 1.22D-06
 IDIUse=1 WtCom= 1.00D+00 WtEn= 0.00D+00
 Coeff-Com: -0.797D-01 0.265D+00 0.814D+00
 Coeff:     -0.797D-01 0.265D+00 0.814D+00
 Gap=     0.488 Goal=   None    Shift=    0.000
 RMSDP=4.70D-06 MaxDP=9.62D-05 DE=-1.36D-06 OVMax= 1.94D-04

 Cycle   4  Pass 1  IDiag  1:
 E= -321.554630095644     Delta-E=       -0.000000305347 Rises=F Damp=F
 DIIS: error= 1.07D-05 at cycle   4 NSaved=   4.
 NSaved= 4 IEnMin= 4 EnMin= -321.554630095644     IErMin= 4 ErrMin= 1.07D-05
 ErrMax= 1.07D-05  0.00D+00 EMaxC= 1.00D-01 BMatC= 1.74D-08 BMatP= 2.71D-07
 IDIUse=1 WtCom= 1.00D+00 WtEn= 0.00D+00
 Coeff-Com: -0.116D-01-0.287D-01 0.112D+00 0.928D+00
 Coeff:     -0.116D-01-0.287D-01 0.112D+00 0.928D+00
 Gap=     0.488 Goal=   None    Shift=    0.000
 RMSDP=1.97D-06 MaxDP=2.77D-05 DE=-3.05D-07 OVMax= 6.11D-05

 Cycle   5  Pass 1  IDiag  1:
 E= -321.554630127858     Delta-E=       -0.000000032214 Rises=F Damp=F
 DIIS: error= 6.23D-06 at cycle   5 NSaved=   5.
 NSaved= 5 IEnMin= 5 EnMin= -321.554630127858     IErMin= 5 ErrMin= 6.23D-06
 ErrMax= 6.23D-06  0.00D+00 EMaxC= 1.00D-01 BMatC= 2.59D-09 BMatP= 1.74D-08
 IDIUse=1 WtCom= 1.00D+00 WtEn= 0.00D+00
 Coeff-Com:  0.850D-02-0.362D-01-0.863D-01 0.888D-01 0.103D+01
 Coeff:      0.850D-02-0.362D-01-0.863D-01 0.888D-01 0.103D+01
 Gap=     0.488 Goal=   None    Shift=    0.000
 RMSDP=9.92D-07 MaxDP=1.43D-05 DE=-3.22D-08 OVMax= 5.98D-05

 Cycle   6  Pass 1  IDiag  1:
 E= -321.554630136201     Delta-E=       -0.000000008343 Rises=F Damp=F
 DIIS: error= 2.92D-06 at cycle   6 NSaved=   6.
 NSaved= 6 IEnMin= 6 EnMin= -321.554630136201     IErMin= 6 ErrMin= 2.92D-06
 ErrMax= 2.92D-06  0.00D+00 EMaxC= 1.00D-01 BMatC= 4.70D-10 BMatP= 2.59D-09
 IDIUse=1 WtCom= 1.00D+00 WtEn= 0.00D+00
[...]
 Alpha virt. eigenvalues --    0.68830   0.69612   0.69692   0.70055   0.73480
 Alpha virt. eigenvalues --    0.74297   0.76930   0.77516   0.77597   0.77876
 Alpha virt. eigenvalues --    0.80825   0.81577   0.81611   0.85381   0.86257
 Alpha virt. eigenvalues --    0.87118   0.88668   0.90750   0.91316   0.92459
 Alpha virt. eigenvalues --    0.95591   0.97377   0.97823   0.98458   0.98583
 Alpha virt. eigenvalues --    1.00221   1.02069   1.02315   1.04970   1.07669
 Alpha virt. eigenvalues --    1.10813   1.11345   1.13169   1.14780   1.17438
 Alpha virt. eigenvalues --    1.19662   1.24012   1.25184   1.28234   1.30335
 Alpha virt. eigenvalues --    1.31285   1.32401   1.34037   1.34870   1.37795
 Alpha virt. eigenvalues --    1.40669   1.45960   1.49407   1.51034   1.52416
 Alpha virt. eigenvalues --    1.53289   1.56976   1.58035   1.59023   1.60662
 Alpha virt. eigenvalues --    1.62409   1.64787   1.66686   1.67349   1.69036
 Alpha virt. eigenvalues --    1.72497   1.82824   1.86486   1.89410   1.90093
 Alpha virt. eigenvalues --    1.96265   1.96797   2.00874   2.03665   2.05572
 Alpha virt. eigenvalues --    2.15131   2.16311   2.19052   2.25377   2.32963
 Alpha virt. eigenvalues --    2.34551   2.36481   2.50785   2.59043   2.67184
 Alpha virt. eigenvalues --    2.71041   2.82405   2.88660   2.88948   2.92768
 Alpha virt. eigenvalues --    2.94107   2.96708   3.01500   3.02803   3.04846
 Alpha virt. eigenvalues --    3.05801   3.07532   3.11055   3.11657   3.13317
 Alpha virt. eigenvalues --    3.15547   3.18041   3.18659   3.20726   3.21877
 Alpha virt. eigenvalues --    3.23218   3.26259   3.33499   3.33884   3.35377
 Alpha virt. eigenvalues --    3.42147   3.44288   3.44673   3.45688   3.49613
 Alpha virt. eigenvalues --    3.50001   3.50416   3.51300   3.51652   3.53372
 Alpha virt. eigenvalues --    3.59481   3.60604   3.61537   3.62295   3.64181
 Alpha virt. eigenvalues --    3.72938   3.73365   3.74009   3.74455   3.75475
 Alpha virt. eigenvalues --    3.79549   3.81060   3.81637   3.83522   3.90436
 Alpha virt. eigenvalues --    3.92181   3.94451   3.98266   4.00044   4.00748
 Alpha virt. eigenvalues --    4.01645   4.02074   4.06046   4.10680   4.14616
 Alpha virt. eigenvalues --    4.15908   4.18458   4.20713   4.26640   4.27161
 Alpha virt. eigenvalues --    4.31355   4.38735   4.39601   4.41334   4.44531
 Alpha virt. eigenvalues --    4.45769   4.47964   4.49794   4.50470   4.54869
 Alpha virt. eigenvalues --    4.58720   4.69165   4.72898   4.74060   4.77211
 Alpha virt. eigenvalues --    4.77673   4.80176   4.86684   4.86945   4.88388
 Alpha virt. eigenvalues --    4.89364   4.94659   5.02166   5.07023   5.07609
 Alpha virt. eigenvalues --    5.18232   5.25901   5.40075   5.44002   5.45806
 Alpha virt. eigenvalues --    5.47764   5.54952   5.56551   5.63688   5.65256
 Alpha virt. eigenvalues --    5.66119   5.69037   5.69610   5.74678   5.75750
 Alpha virt. eigenvalues --    5.86984   5.97852   6.05924   6.08693   6.11148
 Alpha virt. eigenvalues --    6.18264   6.23237   6.28129   6.33938   6.37129
 Alpha virt. eigenvalues --    6.44175   6.46006   6.84140   7.20243   7.28452
 Alpha virt. eigenvalues --    7.45734   7.66317   7.68193   7.84387   8.12432
 Alpha virt. eigenvalues --    8.22637  25.15805  25.45844  25.68071  25.84964
 Alpha virt. eigenvalues --   26.13092  28.31025  28.39172  28.42125  28.51837
 Alpha virt. eigenvalues --   28.66676  29.02460  29.16079  29.18694  29.30261
 Alpha virt. eigenvalues --   29.34796  29.36322  29.57113  29.57887  29.62680
 Alpha virt. eigenvalues --   29.93118  37.44139  38.80968  39.23703  39.82624
 Alpha virt. eigenvalues --   41.69939  41.71546  41.74504  41.87337  41.87898
 Alpha virt. eigenvalues --   42.06270  42.07235  42.07742  42.09934  42.11153
 Alpha virt. eigenvalues --   42.12395  42.13126  42.13321  42.13878  42.14076
 Alpha virt. eigenvalues --   42.17454  42.18010  42.18885  42.18899  42.20003
 Alpha virt. eigenvalues --   42.25678  42.27627  42.28071  42.32019  42.37009
 Alpha virt. eigenvalues --   42.39843  42.41206  42.43487  42.48494  42.54019
 Alpha virt. eigenvalues --   44.88885  44.94035  45.00284  45.06068  45.12666
 Alpha virt. eigenvalues --   47.12612  47.55123  48.02354  51.77542
          Condensed to atoms (all electrons):
               1          2          3          4          5          6
     1  C    5.526090  -0.090777   0.416593  -0.561439   0.229299   0.210729
     2  C   -0.090777   6.048074  -0.406876   0.048452  -0.276451   0.133305
     3  C    0.416593  -0.406876   6.005628  -0.539148   0.425375  -0.170314
     4  C   -0.561439   0.048452  -0.539148   7.138610  -0.338768   0.222506
     5  C    0.229299  -0.276451   0.425375  -0.338768   5.487275   0.171257
     6  N    0.210729   0.133305  -0.170314   0.222506   0.171257   6.977313
     7  H    0.454013  -0.048620   0.039914  -0.038126   0.030593  -0.093289
     8  H   -0.027466   0.476945  -0.110964   0.038943  -0.018115   0.011452
     9  H   -0.016943   0.001717  -0.054250   0.453204  -0.023000   0.007941
    10  H    0.017167  -0.002549   0.033092  -0.062974   0.447247  -0.093536
    11  O    0.027686  -0.071978   0.518847  -0.423118   0.012792   0.002189
    12  H   -0.029627  -0.058711  -0.004156   0.062119   0.001116  -0.000388
               7          8          9         10         11         12
     1  C    0.454013  -0.027466  -0.016943   0.017167   0.027686  -0.029627
     2  C   -0.048620   0.476945   0.001717  -0.002549  -0.071978  -0.058711
     3  C    0.039914  -0.110964  -0.054250   0.033092   0.518847  -0.004156
     4  C   -0.038126   0.038943   0.453204  -0.062974  -0.423118   0.062119
     5  C    0.030593  -0.018115  -0.023000   0.447247   0.012792   0.001116
     6  N   -0.093289   0.011452   0.007941  -0.093536   0.002189  -0.000388
     7  H    0.484419  -0.007857  -0.000269   0.002639  -0.000005   0.000193
     8  H   -0.007857   0.518867   0.002018   0.000188  -0.017371   0.013688
     9  H   -0.000269   0.002018   0.462049  -0.004033  -0.014734   0.001902
    10  H    0.002639   0.000188  -0.004033   0.481929  -0.000891   0.000333
    11  O   -0.000005  -0.017371  -0.014734  -0.000891   8.063444   0.267650
    12  H    0.000193   0.013688   0.001902   0.000333   0.267650   0.453574
 Mulliken charges:
               1
     1  C   -0.155326
     2  C    0.247468
     3  C   -0.153742
     4  C   -0.000260
     5  C   -0.148621
     6  N   -0.379164
     7  H    0.176395
     8  H    0.119672
     9  H    0.184398
    10  H    0.181386
    11  O   -0.364512
    12  H    0.292308
 Sum of Mulliken charges =  -0.00000
 Mulliken charges with hydrogens summed into heavy atoms:
               1
     1  C    0.021069
     2  C    0.367139
     3  C   -0.153742
     4  C    0.184137
     5  C    0.032765
     6  N   -0.379164
    11  O   -0.072205
 Electronic spatial extent (au):  <R**2>=            643.1239
 Charge=             -0.0000 electrons
 Dipole moment (field-independent basis, Debye):
    X=              2.1952    Y=              1.3947    Z=             -0.0001  Tot=              2.6008
 Quadrupole moment (field-independent basis, Debye-Ang):
   XX=            -44.6871   YY=            -32.9424   ZZ=            -44.1211
   XY=              4.7193   XZ=             -0.0002   YZ=             -0.0007
 Traceless Quadrupole moment (field-independent basis, Debye-Ang):
   XX=             -4.1036   YY=              7.6411   ZZ=             -3.5376
   XY=              4.7193   XZ=             -0.0002   YZ=             -0.0007
 Octapole moment (field-independent basis, Debye-Ang**2):
  XXX=             32.9689  YYY=              0.6760  ZZZ=             -0.0004  XYY=              1.1338
  XXY=             12.8072  XXZ=             -0.0013  XZZ=              3.7724  YZZ=              0.0036
  YYZ=             -0.0001  XYZ=             -0.0003
 Hexadecapole moment (field-independent basis, Debye-Ang**3):
 XXXX=           -534.3247 YYYY=           -253.2018 ZZZZ=            -49.2825 XXXY=             40.0982
 XXXZ=              0.0059 YYYX=              3.1834 YYYZ=              0.0030 ZZZX=              0.0076
 ZZZY=              0.0066 XXYY=           -103.9726 XXZZ=            -97.5501 YYZZ=            -62.4372
 XXYZ=             -0.0008 YYXZ=              0.0012 ZZXY=              0.5208
 N-N= 2.736462608033D+02 E-N=-1.300137378216D+03  KE= 3.211645582108D+02
 Leave Link  601 at Sun Sep  5 15:20:21 2021, MaxMem=  2415919104 cpu:         0.5
 (Enter /gpfs/share/home/1801110325/software/g09e01/l9999.exe)
 1\1\GINC-A7U03N04\SP\RMP2-Full\GTlarge\C5H5N1O1\1801110325\05-Sep-2021
 \0\\#P Geom=AllCheck Guess=TCheck SCRF=Check MP2=Full/GTLarge\\4HY_G3\
 \0,1\C,0,1.1515133437,1.1554739827,-0.0000165391\C,0,-0.2415632245,1.1
 877939194,0.000027748\C,0,-0.9309351485,-0.0234750211,-0.0000079543\C,
 0,-0.1971371834,-1.2092236694,-0.0000879597\C,0,1.1899843967,-1.125073
 1421,-0.0001289533\N,0,1.8808422801,0.0297086475,-0.0000944992\H,0,1.7
 134940044,2.0877383105,0.0000099883\H,0,-0.7690463768,2.139564758,0.00
 00931619\H,0,-0.71077705,-2.1652967319,-0.0001205975\H,0,1.7879389608,
 -2.0343730549,-0.0001908336\O,0,-2.2926786346,-0.1205558227,0.00003034
 88\H,0,-2.6700273679,0.777296824,0.0000790897\\Version=EM64L-G09RevE.0
 1\State=1-A\HF=-321.6621284\MP2=-323.1763612\RMSD=7.032e-09\PG=C01 [X(
 C5H5N1O1)]\\@


 SUCCESS IS NEVER CERTAIN,
 FAILURE IS NEVER FINAL.
 Diagonal vibrational polarizability:
        0.0000000       0.0000000       0.0000000

 Temperature=              298.150000 Pressure=                      1.000000
 E(ZPE)=                     0.089621 E(Thermal)=                    0.095105
 E(QCISD(T))=             -322.591292 E(Empiric)=                   -0.114948
 DE(Plus)=                  -0.023346 DE(2DF)=                      -0.238549
 E(Delta-G3)=               -0.409012 E(G3-Empiric)=                -0.114948
 G3(0 K)=                 -323.287526 G3 Energy=                  -323.282042
 G3 Enthalpy=             -323.281098 G3 Free Energy=             -323.316478
 1\1\GINC-A7U03N04\Mixed\G3\G3\C5H5N1O1\1801110325\05-Sep-2021\0\\#P Ge
 om=AllCheck Guess=TCheck SCRF=Check MP2=Full/GTLarge\\4HY_G3\\0,1\C,0,
 1.1515133437,1.1554739827,-0.0000165391\C,0,-0.2415632245,1.1877939194
 ,0.000027748\C,0,-0.9309351485,-0.0234750211,-0.0000079543\C,0,-0.1971
 371834,-1.2092236694,-0.0000879597\C,0,1.1899843967,-1.1250731421,-0.0
 001289533\N,0,1.8808422801,0.0297086475,-0.0000944992\H,0,1.7134940044
 ,2.0877383105,0.0000099883\H,0,-0.7690463768,2.139564758,0.0000931619\
 H,0,-0.71077705,-2.1652967319,-0.0001205975\H,0,1.7879389608,-2.034373
 0549,-0.0001908336\O,0,-2.2926786346,-0.1205558227,0.0000303488\H,0,-2
 .6700273679,0.777296824,0.0000790897\\Version=EM64L-G09RevE.01\State=1
 -A\MP2/G3Bas1=-322.5180222\QCISD(T)/G3Bas1=-322.5912918\MP4/GTBas1=-32
 2.5940466\MP2/GTBas2=-322.5405664\MP4/GTBas2=-322.6173925\MP2/GTBas3=-
 322.7448047\MP4/GTBas3=-322.8325959\MP2/GTLarge=-323.1763612\G3=-323.2
 87526\FreqCoord=2.1621272269,2.1557029755,0.000035519,-0.4526730715,2.
 2336800001,0.0000430518,-1.7495600708,-0.0422499559,-0.0000184133,-0.3
 708021923,-2.2730557794,-0.0001738296,2.23006642,-2.0981170246,-0.0003
 264108,3.5045739969,0.0563703706,-0.0001693054,3.2152357789,3.89558177
 49,0.0000231972,-1.4348745349,4.0139898202,0.0001251599,-1.3205176924,
 -4.0647696269,-0.000191764,3.349721796,-3.7953402618,-0.0003382001,-4.
 2797503338,-0.1950269325,0.0000343452,-5.0205839953,1.4352473583,0.000
 1875316\PG=C01 [X(C5H5N1O1)]\NImag=0\\0.78665685,0.04424508,0.86495707
 ,-0.00001565,0.00003066,0.19953587,-0.36636961,-0.05623070,-0.00000205
 ,0.79213631,0.05501399,-0.17321046,-0.00000549,-0.05105011,0.82738489,
 0.00000246,-0.00000238,-0.07839902,-0.00001006,0.00002868,0.14003418,-
 0.03078946,-0.04472147,-0.00000087,-0.19759772,-0.12310303,-0.00000282
 ,0.83776177,-0.13698670,0.08318898,0.00000806,-0.00992738,-0.32741589,
 -0.00000909,-0.01020267,0.80437777,-0.00000754,0.00000412,0.00148530,0
 .00000431,-0.00000631,-0.08065007,-0.00001994,0.00002903,0.20266702,-0
 .09045646,0.06353550,0.00000592,0.09586146,0.03452117,0.00000019,-0.18
 932283,0.01823383,0.00000364,0.80632966,0.03847945,-0.03254866,-0.0000
 0314,-0.03065941,-0.05308712,-0.00000216,0.12683129,-0.32386506,-0.000
 01547,0.05882213,0.83842538,0.00000540,-0.00000440,-0.00719228,-0.0000
 0556,-0.00000408,0.00935453,0.00001093,-0.00001125,-0.08250952,-0.0000
 3084,0.00002561,0.14427831,0.10369282,-0.04728799,-0.00000536,-0.08688
 007,-0.03781443,0.,-0.04200933,0.12783082,0.00000916,-0.38052809,-0.06
 354739,0.00001617,0.80057002,0.05559159,-0.11792883,-0.00000964,-0.066
 07255,-0.03583337,-0.00000050,0.03563775,0.09160512,0.00000246,0.04701
 632,-0.17874664,-0.00000529,-0.05332007,0.84952528,0.00000137,-0.00000
 629,0.00386838,-0.00000211,-0.00000186,-0.00773879,0.00000291,0.000002
 12,0.00135683,0.00002068,-0.00000215,-0.07814224,-0.00001636,0.0000291
 0,0.20025421,-0.23790834,0.14887058,0.00001522,-0.03447256,0.03377148,
 0.00000357,0.01574058,0.00534537,-0.00000014,-0.02696856,-0.03857442,-
 0.00000114,-0.22615083,-0.13860641,-0.00000786,0.50172407,0.07680489,-
 0.33019295,-0.00001983,0.14075456,0.05762206,-0.00000253,0.00660767,-0
 .15439630,-0.00000723,-0.14266304,0.05381535,0.00000579,-0.06657771,-0
 .32467480,-0.00001658,-0.01155449,0.74881882,0.00001264,-0.00002389,-0
 .08471803,0.00001003,0.00000231,0.02648802,-0.00000029,-0.00001132,-0.
 00924137,-0.00000668,0.00000426,0.02524448,-0.00000603,-0.00001750,-0.
 08467969,-0.00001004,0.00004893,0.11512422,-0.16506037,-0.14254951,0.0
 0000025,-0.01099350,-0.03151983,-0.00000022,-0.00641325,0.00238143,0.0
 0000048,-0.00024024,0.00096176,0.00000005,-0.00002304,0.00503700,0.000
 00092,0.01762970,0.02302405,0.00000044,0.16505806,-0.13929284,-0.28084
 010,0.00000045,0.00228707,0.00562311,0.,0.00179706,0.00100101,-0.00000
 019,-0.00013542,0.00031014,0.00000003,0.00383655,-0.00279138,-0.000000
 42,-0.01010040,-0.03493073,-0.00000173,0.14367122,0.31183198,0.0000015
 7,0.00000423,-0.05494270,0.00000011,0.,0.00916377,-0.00000002,-0.00000
 089,0.00934420,-0.00000089,0.00000069,-0.00050515,0.00000213,-0.000000
 58,0.01174656,-0.00000087,-0.00000523,-0.00228243,-0.00000166,0.000001
 79,0.03402010,-0.00652070,0.03631374,0.00000195,-0.14296074,0.12681744
 ,0.00000590,0.01164127,-0.01734548,-0.00000092,-0.00105331,-0.00409839
 ,-0.00000011,-0.00165586,-0.00231624,-0.00000014,-0.00815870,0.0005340
 4,0.00000026,0.00077881,-0.00074106,0.00000005,0.14333813,-0.00229083,
 0.00468590,0.00000030,0.12712716,-0.30676058,-0.00001248,0.02188902,-0
 .02064238,-0.00000151,-0.00450568,-0.00367787,-0.00000024,-0.00161303,
 -0.00004299,0.00000009,-0.00036136,0.00231030,-0.00000019,0.00059353,0
 .00074111,0.00000014,-0.13952275,0.32196640,-0.00000051,0.00000026,0.0
 0001182,0.00000636,-0.00001271,-0.03706703,0.00000106,-0.00000061,0.00
 347711,-0.00000002,-0.00000035,0.00682940,-0.00000022,-0.00000008,-0.0
 0020950,0.00000062,-0.00000051,0.00928295,-0.00000016,0.00000009,-0.00
 414251,-0.00000686,0.00001363,0.02681898,-0.00161623,0.00208441,0.0000
 0022,-0.00181841,0.00394814,0.00000065,0.01436581,0.01892377,0.0000003
 8,-0.14013096,-0.13014499,0.00000093,-0.00540958,-0.03488036,-0.000001
 56,-0.00760957,-0.00069686,0.00000081,0.00012843,-0.00022251,-0.000000
 12,0.00070943,0.00101886,0.00000008,0.13830768,0.00151457,0.00005364,0
 .00000001,0.00430035,-0.00335129,-0.00000052,-0.01939688,-0.02105015,-
 0.00000027,-0.12824760,-0.31986167,-0.00000445,0.00208030,0.00525380,0
 .00000020,0.00055638,0.00223908,-0.00000024,-0.00008933,0.00002513,0.0
 0000006,-0.00080351,-0.00102282,-0.00000007,0.14103706,0.33409734,0.00
 000023,-0.00000020,-0.00020255,0.00000060,-0.00000054,0.00668204,-0.00
 000157,-0.00000219,0.00467156,0.00000010,-0.00000419,-0.03981791,0.000
 00117,0.00000267,0.00022321,0.00000034,-0.00000068,0.00973192,-0.00000
 009,0.00000007,-0.00135352,-0.00000010,-0.00000014,0.00018628,-0.00000
 057,0.00000480,0.02884769,0.00034203,-0.00507842,-0.00000047,-0.000325
 96,-0.00096983,-0.00000006,-0.00597897,-0.00246861,0.00000029,-0.01187
 661,0.03113902,0.00000094,-0.17626282,0.14686201,0.00000332,0.01778492
 ,-0.02108472,-0.00000110,0.00038272,-0.00063319,-0.00000011,0.00011122
 ,0.00009858,0.00000002,0.00081860,-0.00064934,-0.00000004,0.17673337,-
 0.00371857,-0.00328711,-0.00000024,0.00011614,0.00033970,0.00000002,-0
 .00210872,0.00080460,0.00000005,-0.00284082,0.00680965,0.00000031,0.14
 364578,-0.27081428,-0.00000334,0.01219868,-0.03481600,-0.00000202,0.00
 068854,-0.00114576,-0.00000018,0.00024233,0.00001011,0.00000004,0.0007
 0756,0.00066559,-0.00000003,-0.14929856,0.30106011,-0.00000152,-0.0000
 0062,0.01116820,0.00000066,0.00000088,-0.00044249,0.00000105,-0.000000
 64,0.01001302,0.00000172,-0.00000200,0.00936911,0.00000072,0.00000137,
 -0.05558870,0.00000031,-0.00000424,-0.00184261,0.00000009,-0.00000015,
 -0.00007680,0.00000001,0.00000005,-0.00130771,-0.00000039,0.00000016,-
 0.00442921,-0.00000297,0.00000534,0.03422498,0.01004852,-0.00064272,0.
 00000083,-0.05153743,-0.01039901,0.00000055,-0.38099771,-0.05112927,0.
 00000535,-0.05402648,0.01474326,0.00000300,0.01410045,0.00171352,-0.00
 000117,-0.01272321,-0.00276594,0.00000015,-0.00164114,-0.00053257,-0.0
 0000018,0.00419012,-0.00037179,-0.00000041,0.00204419,-0.00025849,-0.0
 0000006,-0.00126770,0.00058326,0.00000023,0.60743403,0.01037882,-0.014
 19296,-0.00000128,-0.05520183,0.00524571,0.00000067,0.01000730,-0.1390
 6873,-0.00000558,0.05934862,0.00998306,-0.00000211,-0.00819043,-0.0156
 9126,-0.00000067,-0.00096532,0.01477643,0.00000139,-0.00203701,0.00024
 501,0.,0.00060688,0.00337898,0.00000040,-0.00166342,0.00275138,0.00000
 040,0.00213472,0.00032385,-0.00000019,-0.17179441,0.64870517,0.0000014
 1,-0.00000128,0.00997202,-0.00000181,-0.00000099,0.01414674,0.00001015
 ,-0.00000289,-0.05815866,0.00000572,-0.00000094,0.01028530,-0.00000102
 ,-0.00000178,0.00692961,-0.00000002,0.00000179,-0.00292976,-0.00000007
 ,0.00000007,-0.00105005,-0.00000012,0.00000030,-0.00449293,-0.00000039
 ,0.00000028,-0.00404004,0.00000020,0.00000003,-0.00065883,-0.00003041,
 0.00005318,0.03516930,-0.00201904,0.00146151,0.,0.00495822,0.00078402,
 -0.00000015,-0.02640017,0.05534489,0.00000492,-0.00758759,-0.00395231,
 0.00000025,0.00055632,0.00333744,0.,0.00111250,-0.00238245,-0.00000020
 ,0.00039380,0.00006610,0.,-0.00041968,-0.00206171,0.00000005,0.0002105
 9,-0.00004350,-0.00000001,-0.00046081,-0.00021563,0.00000008,-0.135623
 64,0.15737607,0.00001637,0.16527950,0.00026054,-0.00068451,0.00000013,
 -0.00544329,0.00344323,0.00000030,-0.00323733,0.00546105,0.00000090,-0
 .00308501,0.00244344,0.00000007,0.00095760,0.00013936,-0.00000019,-0.0
 0058010,-0.00057125,0.,-0.00016184,-0.00006952,-0.00000003,0.00031300,
 -0.00094617,-0.00000008,-0.00011167,0.00019996,0.00000002,-0.00005166,
 0.00004954,0.00000002,0.22085417,-0.51645665,-0.00004779,-0.20971441,0
 .50699152,0.00000016,-0.00000021,-0.00058700,-0.00000049,0.00000012,-0
 .00157187,-0.00000059,-0.00000034,-0.00245540,0.00000047,-0.00000019,0
 .00280597,-0.00000035,-0.00000023,0.00198013,0.00000001,0.00000034,-0.
 00017770,-0.00000003,-0.00000001,0.00007853,0.00000008,0.00000005,0.00
 061313,-0.00000003,0.00000003,-0.00049946,-0.00000001,0.00000001,-0.00
 042896,0.00002213,-0.00004622,-0.00517269,-0.00002134,0.00004665,0.005
 41532\\-0.00001802,0.00007815,0.00001324,-0.00000222,0.00007562,-0.000
 00422,0.00003345,-0.00014133,0.00000223,-0.00028526,0.00005689,0.00000
 401,0.00025116,0.00016720,-0.00001805,0.00001507,-0.00017335,0.0000017
 9,0.00005081,0.00001875,-0.00000455,-0.00002245,-0.00000218,-0.0000007
 2,-0.00001903,-0.00002267,0.00000112,0.00002661,-0.00003209,0.00000603
 ,-0.00006609,-0.00001602,-0.00000087,0.00003596,-0.00000898,0.00000001
 \\\@
 Job cpu time:       0 days  0 hours  8 minutes 50.3 seconds.
 File lengths (MBytes):  RWF=   7440 Int=      0 D2E=      0 Chk=     32 Scr=     32
 Normal termination of Gaussian 09 at Sun Sep  5 15:20:21 2021.
