 Entering Gaussian System, Link 0=g09
 AtFile(1): pc-2.gbs
            -H     0
            S    4   1.00
                  0.754230D+02           0.240650D-02
                  0.113500D+02           0.184870D-01
                  0.259930D+01           0.897420D-01
                  0.735130D+00           0.281110D+00
            S    1   1.00
                  0.231670D+00           0.100000D+01
            S    1   1.00
                  0.741470D-01           0.100000D+01
            P    1   1.00
                  0.160000D+01           0.100000D+01
            P    1   1.00
                  0.450000D+00           0.100000D+01
            D    1   1.00
                  0.125000D+01           0.100000D+01
            ****
            -C     0
            S    7   1.00
                  0.785710D+04           0.568250D-03
                  0.117870D+04           0.439150D-02
                  0.268320D+03           0.225040D-01
                  0.759480D+02           0.866530D-01
                  0.245590D+02           0.244050D+00
                  0.862120D+01           0.441480D+00
                  0.312780D+01           0.353320D+00
            S    7   1.00
                  0.117870D+04          -0.594920D-06
                  0.268320D+03          -0.627480D-04
                  0.759480D+02          -0.757730D-03
                  0.245590D+02          -0.733080D-02
                  0.862120D+01          -0.389320D-01
                  0.312780D+01          -0.889080D-01
                  0.822020D+00           0.216890D+00
            S    1   1.00
                  0.330170D+00           0.100000D+01
            S    1   1.00
                  0.114630D+00           0.100000D+01
            P    4   1.00
                  0.337750D+02           0.602940D-02
                  0.767660D+01           0.432280D-01
                  0.223570D+01           0.163010D+00
                  0.764470D+00           0.365040D+00
            P    1   1.00
                  0.262320D+00           0.100000D+01
            P    1   1.00
                  0.846380D-01           0.100000D+01
            D    1   1.00
                  0.140000D+01           0.100000D+01
            D    1   1.00
                  0.450000D+00           0.100000D+01
            F    1   1.00
                  0.950000D+00           0.100000D+01
            ****
            -N     0
            S    7   1.00
                  0.111010D+05           0.545700D-03
                  0.166530D+04           0.421810D-02
                  0.379080D+03           0.216450D-01
                  0.107300D+03           0.837760D-01
                  0.347470D+02           0.238810D+00
                  0.122490D+02           0.439940D+00
                  0.447430D+01           0.363640D+00
            S    7   1.00
                  0.166530D+04          -0.150060D-05
                  0.379080D+03          -0.587530D-04
                  0.107300D+03          -0.774530D-03
                  0.347470D+02          -0.721610D-02
                  0.122490D+02          -0.393380D-01
                  0.447430D+01          -0.906110D-01
                  0.124040D+01           0.198820D+00
            S    1   1.00
                  0.487430D+00           0.100000D+01
            S    1   1.00
                  0.164840D+00           0.100000D+01
            P    4   1.00
                  0.479340D+02           0.617060D-02
                  0.109990D+02           0.442600D-01
                  0.324720D+01           0.168250D+00
                  0.111140D+01           0.368480D+00
            P    1   1.00
                  0.379880D+00           0.100000D+01
            P    1   1.00
                  0.120680D+00           0.100000D+01
            D    1   1.00
                  0.180000D+01           0.100000D+01
            D    1   1.00
                  0.550000D+00           0.100000D+01
            F    1   1.00
                  0.102000D+01           0.100000D+01
            ****
            -O     0
            S    7   1.00
                  0.147820D+05           0.535190D-03
                  0.221730D+04           0.413750D-02
                  0.504740D+03           0.212450D-01
                  0.142870D+03           0.824530D-01
                  0.463000D+02           0.236710D+00
                  0.163370D+02           0.440390D+00
                  0.598280D+01           0.364650D+00
            S    7   1.00
                  0.221730D+04          -0.192750D-05
                  0.504740D+03          -0.579640D-04
                  0.142870D+03          -0.794940D-03
                  0.463000D+02          -0.731250D-02
                  0.163370D+02          -0.405740D-01
                  0.598280D+01          -0.915940D-01
                  0.167180D+01           0.209400D+00
            S    1   1.00
                  0.646620D+00           0.100000D+01
            S    1   1.00
                  0.216690D+00           0.100000D+01
            P    4   1.00
                  0.604240D+02           0.689490D-02
                  0.139350D+02           0.490050D-01
                  0.415310D+01           0.182550D+00
                  0.141580D+01           0.376330D+00
            P    1   1.00
                  0.475490D+00           0.100000D+01
            P    1   1.00
                  0.145290D+00           0.100000D+01
            D    1   1.00
                  0.220000D+01           0.100000D+01
            D    1   1.00
                  0.650000D+00           0.100000D+01
            F    1   1.00
                  0.110000D+01           0.100000D+01
            ****
 Initial command:
 /public3/home/sc51754/softwares/g09e01/l1.exe "./Gau-7587.inp" -scrdir="./"
 Entering Link 1 = /public3/home/sc51754/softwares/g09e01/l1.exe PID=      7589.
  
 Copyright (c) 1988,1990,1992,1993,1995,1998,2003,2009,2015,
            Gaussian, Inc.  All Rights Reserved.
  
 This is part of the Gaussian(R) 09 program.  It is based on
 the Gaussian(R) 03 system (copyright 2003, Gaussian, Inc.),
 the Gaussian(R) 98 system (copyright 1998, Gaussian, Inc.),
 the Gaussian(R) 94 system (copyright 1995, Gaussian, Inc.),
 the Gaussian 92(TM) system (copyright 1992, Gaussian, Inc.),
 the Gaussian 90(TM) system (copyright 1990, Gaussian, Inc.),
 the Gaussian 88(TM) system (copyright 1988, Gaussian, Inc.),
 the Gaussian 86(TM) system (copyright 1986, Carnegie Mellon
 University), and the Gaussian 82(TM) system (copyright 1983,
 Carnegie Mellon University). Gaussian is a federally registered
 trademark of Gaussian, Inc.
  
 This software contains proprietary and confidential information,
 including trade secrets, belonging to Gaussian, Inc.
  
 This software is provided under written license and may be
 used, copied, transmitted, or stored only in accord with that
 written license.
  
 The following legend is applicable only to US Government
 contracts under FAR:
  
                    RESTRICTED RIGHTS LEGEND
  
 Use, reproduction and disclosure by the US Government is
 subject to restrictions as set forth in subparagraphs (a)
 and (c) of the Commercial Computer Software - Restricted
 Rights clause in FAR 52.227-19.
  
 Gaussian, Inc.
 340 Quinnipiac St., Bldg. 40, Wallingford CT 06492
  
  
 ---------------------------------------------------------------
 Warning -- This program may not be used in any manner that
 competes with the business of Gaussian, Inc. or will provide
 assistance to any competitor of Gaussian, Inc.  The licensee
 of this program is prohibited from giving any competitor of
 Gaussian, Inc. access to this program.  By using this program,
 the user acknowledges that Gaussian, Inc. is engaged in the
 business of creating and licensing software in the field of
 computational chemistry and represents and warrants to the
 licensee that it is not a competitor of Gaussian, Inc. and that
 it will not use this program in any manner prohibited above.
 ---------------------------------------------------------------
  

 Cite this work as:
 Gaussian 09, Revision E.01,
 M. J. Frisch, G. W. Trucks, H. B. Schlegel, G. E. Scuseria, 
 M. A. Robb, J. R. Cheeseman, G. Scalmani, V. Barone, B. Mennucci, 
 G. A. Petersson, H. Nakatsuji, M. Caricato, X. Li, H. P. Hratchian, 
 A. F. Izmaylov, J. Bloino, G. Zheng, J. L. Sonnenberg, M. Hada, 
 M. Ehara, K. Toyota, R. Fukuda, J. Hasegawa, M. Ishida, T. Nakajima, 
 Y. Honda, O. Kitao, H. Nakai, T. Vreven, J. A. Montgomery, Jr., 
 J. E. Peralta, F. Ogliaro, M. Bearpark, J. J. Heyd, E. Brothers, 
 K. N. Kudin, V. N. Staroverov, T. Keith, R. Kobayashi, J. Normand, 
 K. Raghavachari, A. Rendell, J. C. Burant, S. S. Iyengar, J. Tomasi, 
 M. Cossi, N. Rega, J. M. Millam, M. Klene, J. E. Knox, J. B. Cross, 
 V. Bakken, C. Adamo, J. Jaramillo, R. Gomperts, R. E. Stratmann, 
 O. Yazyev, A. J. Austin, R. Cammi, C. Pomelli, J. W. Ochterski, 
 R. L. Martin, K. Morokuma, V. G. Zakrzewski, G. A. Voth, 
 P. Salvador, J. J. Dannenberg, S. Dapprich, A. D. Daniels, 
 O. Farkas, J. B. Foresman, J. V. Ortiz, J. Cioslowski, 
 and D. J. Fox, Gaussian, Inc., Wallingford CT, 2013.
 
 ******************************************
 Gaussian 09:  EM64L-G09RevE.01 30-Nov-2015
                28-Aug-2021 
 ******************************************
 %nprocshared=64
 Will use up to   64 processors via shared memory.
 %mem=128GB
 %chk=TST_GAS_M06.chk
 ----------------------------------------------
 #p opt=(calcfc,qst3,MaxCycle=200) freq M06/gen
 ----------------------------------------------
 1/5=1,6=200,10=4,14=-1,18=20,26=3,27=203,38=1/1,3;
 2/9=110,12=2,17=6,18=5,40=1/2;
 3/5=7,11=2,16=1,25=1,30=1,71=2,74=-54,140=1/1,2,3;
 4//1;
 5/5=2,38=5/2;
 8/6=4,10=90,11=11/1;
 11/6=1,8=1,9=11,15=111,16=1/1,2,10;
 10/6=1,13=1/2;
 6/7=2,8=2,9=2,10=2,28=1/1;
 7/10=1,18=20,25=1/1,2,3,16;
 1/5=1,6=200,10=4,14=-1,18=20,26=3,27=203/3(2);
 2/9=110/2;
 99//99;
 2/9=110/2;
 3/5=7,6=1,11=2,16=1,25=1,30=1,71=1,74=-54,82=7/1,2,3;
 4/5=5,16=3,69=1/1;
 5/5=2,38=5/2;
 7//1,2,3,16;
 1/5=1,6=200,14=-1,18=20,26=3,27=203/3(-5);
 2/9=110/2;
 6/7=2,8=2,9=2,10=2,19=2,28=1/1;
 99/9=1/99;
 Leave Link    1 at Sat Aug 28 00:50:25 2021, MaxMem= 17179869184 cpu:         6.7
 (Enter /public3/home/sc51754/softwares/g09e01/l101.exe)
 -------------------
 HY_M06_PC2_OPT_FREQ
 -------------------
 Symbolic Z-matrix:
 Charge =  0 Multiplicity = 1
 O                     0.00837   2.23974   0. 
 N                    -1.17143   0.29602   0. 
 C                     0.        0.89831   0. 
 C                     1.21926   0.22535   0. 
 C                    -1.18415  -1.03535   0. 
 C                     1.18363  -1.14867   0. 
 C                    -0.04131  -1.80488   0. 
 H                    -0.91394   2.51588   0. 
 H                     2.14363   0.78426   0. 
 H                    -2.16362  -1.50192   0. 
 H                     2.10659  -1.71377   0. 
 H                    -0.10426  -2.88308   0. 
 
 -------------------
 PY_M06_PC2_OPT_FREQ
 -------------------
 Symbolic Z-matrix:
 Charge =  0 Multiplicity = 1
 O                    -0.1303    2.2679    0. 
 N                    -1.13214   0.23327   0. 
 C                     0.        1.06201   0. 
 C                     1.23795   0.32011   0. 
 C                    -1.11441  -1.12189   0. 
 C                     1.25607  -1.03234   0. 
 C                     0.05856  -1.79159   0. 
 H                    -2.00762   0.73274   0. 
 H                     2.14422   0.90837   0. 
 H                    -2.07697  -1.61403   0. 
 H                     2.20675  -1.5513    0. 
 H                     0.072    -2.86964   0. 
 
 -----------
 TST_GAS_M06
 -----------
 Symbolic Z-matrix:
 Charge =  0 Multiplicity = 1
 O                     0.19749   2.6021    0. 
 N                    -0.98231   0.65839   0. 
 C                     0.18912   1.26067   0. 
 C                     1.40838   0.58772   0. 
 C                    -0.99502  -0.67299   0. 
 C                     1.37275  -0.78631   0. 
 C                     0.14781  -1.44251   0. 
 H                    -1.10306   2.15352   0. 
 H                     2.33275   1.14663   0. 
 H                    -1.9745   -1.13956   0. 
 H                     2.29571  -1.35141   0. 
 H                     0.08486  -2.52071   0. 
 
 NAtoms=     12 NQM=       12 NQMF=       0 NMMI=      0 NMMIF=      0
                NMic=       0 NMicF=      0.
                    Isotopes and Nuclear Properties:
 (Nuclear quadrupole moments (NQMom) in fm**2, nuclear magnetic moments (NMagM)
  in nuclear magnetons)

  Atom         1           2           3           4           5           6           7           8           9          10
 IAtWgt=          16          14          12          12          12          12          12           1           1           1
 AtmWgt=  15.9949146  14.0030740  12.0000000  12.0000000  12.0000000  12.0000000  12.0000000   1.0078250   1.0078250   1.0078250
 NucSpn=           0           2           0           0           0           0           0           1           1           1
 AtZEff=   0.0000000   0.0000000   0.0000000   0.0000000   0.0000000   0.0000000   0.0000000   0.0000000   0.0000000   0.0000000
 NQMom=    0.0000000   2.0440000   0.0000000   0.0000000   0.0000000   0.0000000   0.0000000   0.0000000   0.0000000   0.0000000
 NMagM=    0.0000000   0.4037610   0.0000000   0.0000000   0.0000000   0.0000000   0.0000000   2.7928460   2.7928460   2.7928460
 AtZNuc=   8.0000000   7.0000000   6.0000000   6.0000000   6.0000000   6.0000000   6.0000000   1.0000000   1.0000000   1.0000000

  Atom        11          12
 IAtWgt=           1           1
 AtmWgt=   1.0078250   1.0078250
 NucSpn=           1           1
 AtZEff=   0.0000000   0.0000000
 NQMom=    0.0000000   0.0000000
 NMagM=    2.7928460   2.7928460
 AtZNuc=   1.0000000   1.0000000
 Leave Link  101 at Sat Aug 28 00:50:29 2021, MaxMem= 17179869184 cpu:        35.2
 (Enter /public3/home/sc51754/softwares/g09e01/l103.exe)

 GradGradGradGradGradGradGradGradGradGradGradGradGradGradGradGradGradGrad
 Berny optimization.
 Initialization pass.
                           ----------------------------
                           !    Initial Parameters    !
                           ! (Angstroms and Degrees)  !
 --------------------------                            --------------------------
 ! Name  Definition        TS        Reactant  Product Derivative Info.         !
 --------------------------------------------------------------------------------
 ! R1    R(1,3)             1.3415    1.3415    1.2129 calculate D2E/DX2 analyti!
 ! R2    R(1,8)             1.3757    0.9628    2.4251 calculate D2E/DX2 analyti!
 ! R3    R(2,3)             1.3172    1.3172    1.403  calculate D2E/DX2 analyti!
 ! R4    R(2,5)             1.3314    1.3314    1.3553 calculate D2E/DX2 analyti!
 ! R5    R(2,8)             1.5       2.2347    1.0079 calculate D2E/DX2 analyti!
 ! R6    R(3,4)             1.3927    1.3927    1.4432 calculate D2E/DX2 analyti!
 ! R7    R(4,6)             1.3745    1.3745    1.3526 calculate D2E/DX2 analyti!
 ! R8    R(4,9)             1.0802    1.0802    1.0805 calculate D2E/DX2 analyti!
 ! R9    R(5,7)             1.3778    1.3778    1.3507 calculate D2E/DX2 analyti!
 ! R10   R(5,10)            1.0849    1.0849    1.0811 calculate D2E/DX2 analyti!
 ! R11   R(6,7)             1.3896    1.3896    1.4179 calculate D2E/DX2 analyti!
 ! R12   R(6,11)            1.0822    1.0822    1.0831 calculate D2E/DX2 analyti!
 ! R13   R(7,12)            1.08      1.08      1.0781 calculate D2E/DX2 analyti!
 ! A1    A(3,1,8)          70.6123  106.3104   56.8931 calculate D2E/DX2 analyti!
 ! A2    A(3,2,5)         117.7571  117.7571  125.4546 calculate D2E/DX2 analyti!
 ! A3    A(3,2,8)          67.4078   56.174   114.0905 calculate D2E/DX2 analyti!
 ! A4    A(5,2,8)         174.8351  173.9311  120.4549 calculate D2E/DX2 analyti!
 ! A5    A(1,3,2)         117.5674  117.5674  120.0371 calculate D2E/DX2 analyti!
 ! A6    A(1,3,4)         118.5383  118.5383  127.1013 calculate D2E/DX2 analyti!
 ! A7    A(2,3,4)         123.8942  123.8942  112.8616 calculate D2E/DX2 analyti!
 ! A8    A(3,4,6)         117.4104  117.4104  121.7019 calculate D2E/DX2 analyti!
 ! A9    A(3,4,9)         119.945   119.945   116.0785 calculate D2E/DX2 analyti!
 ! A10   A(6,4,9)         122.6446  122.6446  122.2196 calculate D2E/DX2 analyti!
 ! A11   A(2,5,7)         123.4071  123.4071  120.4739 calculate D2E/DX2 analyti!
 ! A12   A(2,5,10)        116.018   116.018   116.3305 calculate D2E/DX2 analyti!
 ! A13   A(7,5,10)        120.5749  120.5749  123.1956 calculate D2E/DX2 analyti!
 ! A14   A(4,6,7)         119.6636  119.6636  121.6078 calculate D2E/DX2 analyti!
 ! A15   A(4,6,11)        119.9925  119.9925  119.3971 calculate D2E/DX2 analyti!
 ! A16   A(7,6,11)        120.3439  120.3439  118.9951 calculate D2E/DX2 analyti!
 ! A17   A(5,7,6)         117.8675  117.8675  117.9002 calculate D2E/DX2 analyti!
 ! A18   A(5,7,12)        120.6134  120.6134  120.4381 calculate D2E/DX2 analyti!
 ! A19   A(6,7,12)        121.5191  121.5191  121.6617 calculate D2E/DX2 analyti!
 ! D1    D(8,1,3,2)         0.0       0.0       0.0    calculate D2E/DX2 analyti!
 ! D2    D(8,1,3,4)       180.0     180.0     180.0    calculate D2E/DX2 analyti!
 ! D3    D(5,2,3,1)       180.0     180.0     180.0    calculate D2E/DX2 analyti!
 ! D4    D(5,2,3,4)         0.0       0.0       0.0    calculate D2E/DX2 analyti!
 ! D5    D(8,2,3,1)         0.0       0.0       0.0    calculate D2E/DX2 analyti!
 ! D6    D(8,2,3,4)       180.0     180.0     180.0    calculate D2E/DX2 analyti!
 ! D7    D(3,2,5,7)         0.0       0.0       0.0    calculate D2E/DX2 analyti!
 ! D8    D(3,2,5,10)      180.0     180.0     180.0    calculate D2E/DX2 analyti!
 ! D9    D(8,2,5,7)       180.0       0.0     180.0    calculate D2E/DX2 analyti!
 ! D10   D(8,2,5,10)        0.0     180.0       0.0    calculate D2E/DX2 analyti!
 ! D11   D(1,3,4,6)       180.0     180.0     180.0    calculate D2E/DX2 analyti!
 ! D12   D(1,3,4,9)         0.0       0.0       0.0    calculate D2E/DX2 analyti!
 ! D13   D(2,3,4,6)         0.0       0.0       0.0    calculate D2E/DX2 analyti!
 ! D14   D(2,3,4,9)       180.0     180.0     180.0    calculate D2E/DX2 analyti!
 ! D15   D(3,4,6,7)         0.0       0.0       0.0    calculate D2E/DX2 analyti!
 ! D16   D(3,4,6,11)      180.0     180.0     180.0    calculate D2E/DX2 analyti!
 ! D17   D(9,4,6,7)       180.0     180.0     180.0    calculate D2E/DX2 analyti!
 ! D18   D(9,4,6,11)        0.0       0.0       0.0    calculate D2E/DX2 analyti!
 ! D19   D(2,5,7,6)         0.0       0.0       0.0    calculate D2E/DX2 analyti!
 ! D20   D(2,5,7,12)      180.0     180.0     180.0    calculate D2E/DX2 analyti!
 ! D21   D(10,5,7,6)      180.0     180.0     180.0    calculate D2E/DX2 analyti!
 ! D22   D(10,5,7,12)       0.0       0.0       0.0    calculate D2E/DX2 analyti!
 ! D23   D(4,6,7,5)         0.0       0.0       0.0    calculate D2E/DX2 analyti!
 ! D24   D(4,6,7,12)      180.0     180.0     180.0    calculate D2E/DX2 analyti!
 ! D25   D(11,6,7,5)      180.0     180.0     180.0    calculate D2E/DX2 analyti!
 ! D26   D(11,6,7,12)       0.0       0.0       0.0    calculate D2E/DX2 analyti!
 --------------------------------------------------------------------------------
 Trust Radius=3.00D-01 FncErr=1.00D-07 GrdErr=1.00D-06
 Number of steps in this run=    100 maximum allowed number of steps=    100.
 Search for a saddle point of order  1.
 GradGradGradGradGradGradGradGradGradGradGradGradGradGradGradGradGradGrad

 Leave Link  103 at Sat Aug 28 00:50:29 2021, MaxMem= 17179869184 cpu:         5.1
 (Enter /public3/home/sc51754/softwares/g09e01/l202.exe)
                          Input orientation:                          
 ---------------------------------------------------------------------
 Center     Atomic      Atomic             Coordinates (Angstroms)
 Number     Number       Type             X           Y           Z
 ---------------------------------------------------------------------
      1          8           0        0.197492    2.602100    0.000000
      2          7           0       -0.982307    0.658387    0.000000
      3          6           0        0.189120    1.260673    0.000000
      4          6           0        1.408384    0.587716    0.000000
      5          6           0       -0.995025   -0.672987    0.000000
      6          6           0        1.372752   -0.786307    0.000000
      7          6           0        0.147806   -1.442514    0.000000
      8          1           0       -1.103064    2.153519    0.000000
      9          1           0        2.332747    1.146628    0.000000
     10          1           0       -1.974497   -1.139556    0.000000
     11          1           0        2.295709   -1.351408    0.000000
     12          1           0        0.084863   -2.520711    0.000000
 ---------------------------------------------------------------------
                    Distance matrix (angstroms):
                    1          2          3          4          5
     1  O    0.000000
     2  N    2.273752   0.000000
     3  C    1.341453   1.317190   0.000000
     4  C    2.350320   2.391735   1.392651   0.000000
     5  C    3.485440   1.331435   2.267430   2.713991   0.000000
     6  C    3.586438   2.762869   2.364553   1.374485   2.370487
     7  C    4.044919   2.385569   2.703503   2.389747   1.377764
     8  H    1.375745   1.500000   1.570641   2.959580   2.828569
     9  H    2.584127   3.350815   2.146659   1.080199   3.792765
    10  H    4.326376   2.053543   3.231461   3.798335   1.084920
    11  H    4.475795   3.845083   3.355694   2.132498   3.359938
    12  H    5.124049   3.353433   3.782821   3.378465   2.140150
                    6          7          8          9         10
     6  C    0.000000
     7  C    1.389640   0.000000
     8  H    3.843467   3.807378   0.000000
     9  H    2.158200   3.387864   3.580312   0.000000
    10  H    3.365837   2.143818   3.406425   4.876370   0.000000
    11  H    1.082215   2.149834   4.882230   2.498311   4.275458
    12  H    2.160281   1.080033   4.822820   4.301437   2.479628
                   11         12
    11  H    0.000000
    12  H    2.501022   0.000000
 Stoichiometry    C5H5NO
 Framework group  CS[SG(C5H5NO)]
 Deg. of freedom    21
 Full point group                 CS      NOp   2
 Largest Abelian subgroup         CS      NOp   2
 Largest concise Abelian subgroup C1      NOp   1
                         Standard orientation:                         
 ---------------------------------------------------------------------
 Center     Atomic      Atomic             Coordinates (Angstroms)
 Number     Number       Type             X           Y           Z
 ---------------------------------------------------------------------
      1          8           0       -0.002745    2.254285    0.000000
      2          7           0       -1.166396    0.300862   -0.000000
      3          6           0       -0.000000    0.912835    0.000000
      4          6           0        1.224799    0.250005    0.000000
      5          6           0       -1.168080   -1.030572   -0.000000
      6          6           0        1.200555   -1.124266    0.000000
      7          6           0       -0.018911   -1.790602   -0.000000
      8          1           0       -1.299540    1.794941   -0.000000
      9          1           0        2.144498    0.816558    0.000000
     10          1           0       -2.143652   -1.505241   -0.000000
     11          1           0        2.128163   -1.681699    0.000000
     12          1           0       -0.072917   -2.869283   -0.000000
 ---------------------------------------------------------------------
 Rotational constants (GHZ):      5.8675332      2.8545783      1.9203301
 Leave Link  202 at Sat Aug 28 00:50:30 2021, MaxMem= 17179869184 cpu:        14.1
 (Enter /public3/home/sc51754/softwares/g09e01/l301.exe)
 General basis read from cards:  (5D, 7F)
 Centers:       8      9     10     11     12
 S 4 1.00
     Exponent=  7.5423000000D+01 Coefficients=  2.4065000000D-03
     Exponent=  1.1350000000D+01 Coefficients=  1.8487000000D-02
     Exponent=  2.5993000000D+00 Coefficients=  8.9742000000D-02
     Exponent=  7.3513000000D-01 Coefficients=  2.8111000000D-01
 S 1 1.00
     Exponent=  2.3167000000D-01 Coefficients=  1.0000000000D+00
 S 1 1.00
     Exponent=  7.4147000000D-02 Coefficients=  1.0000000000D+00
 P 1 1.00
     Exponent=  1.6000000000D+00 Coefficients=  1.0000000000D+00
 P 1 1.00
     Exponent=  4.5000000000D-01 Coefficients=  1.0000000000D+00
 D 1 1.00
     Exponent=  1.2500000000D+00 Coefficients=  1.0000000000D+00
 ****
 Centers:       3      4      5      6      7
 S 7 1.00
     Exponent=  7.8571000000D+03 Coefficients=  5.6825000000D-04
     Exponent=  1.1787000000D+03 Coefficients=  4.3915000000D-03
     Exponent=  2.6832000000D+02 Coefficients=  2.2504000000D-02
     Exponent=  7.5948000000D+01 Coefficients=  8.6653000000D-02
     Exponent=  2.4559000000D+01 Coefficients=  2.4405000000D-01
     Exponent=  8.6212000000D+00 Coefficients=  4.4148000000D-01
     Exponent=  3.1278000000D+00 Coefficients=  3.5332000000D-01
 S 7 1.00
     Exponent=  1.1787000000D+03 Coefficients= -5.9492000000D-07
     Exponent=  2.6832000000D+02 Coefficients= -6.2748000000D-05
     Exponent=  7.5948000000D+01 Coefficients= -7.5773000000D-04
     Exponent=  2.4559000000D+01 Coefficients= -7.3308000000D-03
     Exponent=  8.6212000000D+00 Coefficients= -3.8932000000D-02
     Exponent=  3.1278000000D+00 Coefficients= -8.8908000000D-02
     Exponent=  8.2202000000D-01 Coefficients=  2.1689000000D-01
 S 1 1.00
     Exponent=  3.3017000000D-01 Coefficients=  1.0000000000D+00
 S 1 1.00
     Exponent=  1.1463000000D-01 Coefficients=  1.0000000000D+00
 P 4 1.00
     Exponent=  3.3775000000D+01 Coefficients=  6.0294000000D-03
     Exponent=  7.6766000000D+00 Coefficients=  4.3228000000D-02
     Exponent=  2.2357000000D+00 Coefficients=  1.6301000000D-01
     Exponent=  7.6447000000D-01 Coefficients=  3.6504000000D-01
 P 1 1.00
     Exponent=  2.6232000000D-01 Coefficients=  1.0000000000D+00
 P 1 1.00
     Exponent=  8.4638000000D-02 Coefficients=  1.0000000000D+00
 D 1 1.00
     Exponent=  1.4000000000D+00 Coefficients=  1.0000000000D+00
 D 1 1.00
     Exponent=  4.5000000000D-01 Coefficients=  1.0000000000D+00
 F 1 1.00
     Exponent=  9.5000000000D-01 Coefficients=  1.0000000000D+00
 ****
 Centers:       2
 S 7 1.00
     Exponent=  1.1101000000D+04 Coefficients=  5.4570000000D-04
     Exponent=  1.6653000000D+03 Coefficients=  4.2181000000D-03
     Exponent=  3.7908000000D+02 Coefficients=  2.1645000000D-02
     Exponent=  1.0730000000D+02 Coefficients=  8.3776000000D-02
     Exponent=  3.4747000000D+01 Coefficients=  2.3881000000D-01
     Exponent=  1.2249000000D+01 Coefficients=  4.3994000000D-01
     Exponent=  4.4743000000D+00 Coefficients=  3.6364000000D-01
 S 7 1.00
     Exponent=  1.6653000000D+03 Coefficients= -1.5006000000D-06
     Exponent=  3.7908000000D+02 Coefficients= -5.8753000000D-05
     Exponent=  1.0730000000D+02 Coefficients= -7.7453000000D-04
     Exponent=  3.4747000000D+01 Coefficients= -7.2161000000D-03
     Exponent=  1.2249000000D+01 Coefficients= -3.9338000000D-02
     Exponent=  4.4743000000D+00 Coefficients= -9.0611000000D-02
     Exponent=  1.2404000000D+00 Coefficients=  1.9882000000D-01
 S 1 1.00
     Exponent=  4.8743000000D-01 Coefficients=  1.0000000000D+00
 S 1 1.00
     Exponent=  1.6484000000D-01 Coefficients=  1.0000000000D+00
 P 4 1.00
     Exponent=  4.7934000000D+01 Coefficients=  6.1706000000D-03
     Exponent=  1.0999000000D+01 Coefficients=  4.4260000000D-02
     Exponent=  3.2472000000D+00 Coefficients=  1.6825000000D-01
     Exponent=  1.1114000000D+00 Coefficients=  3.6848000000D-01
 P 1 1.00
     Exponent=  3.7988000000D-01 Coefficients=  1.0000000000D+00
 P 1 1.00
     Exponent=  1.2068000000D-01 Coefficients=  1.0000000000D+00
 D 1 1.00
     Exponent=  1.8000000000D+00 Coefficients=  1.0000000000D+00
 D 1 1.00
     Exponent=  5.5000000000D-01 Coefficients=  1.0000000000D+00
 F 1 1.00
     Exponent=  1.0200000000D+00 Coefficients=  1.0000000000D+00
 ****
 Centers:       1
 S 7 1.00
     Exponent=  1.4782000000D+04 Coefficients=  5.3519000000D-04
     Exponent=  2.2173000000D+03 Coefficients=  4.1375000000D-03
     Exponent=  5.0474000000D+02 Coefficients=  2.1245000000D-02
     Exponent=  1.4287000000D+02 Coefficients=  8.2453000000D-02
     Exponent=  4.6300000000D+01 Coefficients=  2.3671000000D-01
     Exponent=  1.6337000000D+01 Coefficients=  4.4039000000D-01
     Exponent=  5.9828000000D+00 Coefficients=  3.6465000000D-01
 S 7 1.00
     Exponent=  2.2173000000D+03 Coefficients= -1.9275000000D-06
     Exponent=  5.0474000000D+02 Coefficients= -5.7964000000D-05
     Exponent=  1.4287000000D+02 Coefficients= -7.9494000000D-04
     Exponent=  4.6300000000D+01 Coefficients= -7.3125000000D-03
     Exponent=  1.6337000000D+01 Coefficients= -4.0574000000D-02
     Exponent=  5.9828000000D+00 Coefficients= -9.1594000000D-02
     Exponent=  1.6718000000D+00 Coefficients=  2.0940000000D-01
 S 1 1.00
     Exponent=  6.4662000000D-01 Coefficients=  1.0000000000D+00
 S 1 1.00
     Exponent=  2.1669000000D-01 Coefficients=  1.0000000000D+00
 P 4 1.00
     Exponent=  6.0424000000D+01 Coefficients=  6.8949000000D-03
     Exponent=  1.3935000000D+01 Coefficients=  4.9005000000D-02
     Exponent=  4.1531000000D+00 Coefficients=  1.8255000000D-01
     Exponent=  1.4158000000D+00 Coefficients=  3.7633000000D-01
 P 1 1.00
     Exponent=  4.7549000000D-01 Coefficients=  1.0000000000D+00
 P 1 1.00
     Exponent=  1.4529000000D-01 Coefficients=  1.0000000000D+00
 D 1 1.00
     Exponent=  2.2000000000D+00 Coefficients=  1.0000000000D+00
 D 1 1.00
     Exponent=  6.5000000000D-01 Coefficients=  1.0000000000D+00
 F 1 1.00
     Exponent=  1.1000000000D+00 Coefficients=  1.0000000000D+00
 ****
 Ernie: Thresh=  0.10000D-02 Tol=  0.10000D-05 Strict=F.
 Ernie:  7 primitive shells out of 220 were deleted.
 There are   223 symmetry adapted cartesian basis functions of A'  symmetry.
 There are    97 symmetry adapted cartesian basis functions of A"  symmetry.
 There are   190 symmetry adapted basis functions of A'  symmetry.
 There are    90 symmetry adapted basis functions of A"  symmetry.
   280 basis functions,   475 primitive gaussians,   320 cartesian basis functions
    25 alpha electrons       25 beta electrons
       nuclear repulsion energy       277.8515609336 Hartrees.
 IExCor= 4235 DFT=T Ex+Corr=M06 ExCW=0 ScaHFX=  0.270000
 ScaDFX=  1.000000  1.000000  1.000000  1.000000 ScalE2=  1.000000  1.000000
 IRadAn=      0 IRanWt=     -1 IRanGd=            0 ICorTp=0 IEmpDi=  4
 NAtoms=   12 NActive=   12 NUniq=   12 SFac= 1.00D+00 NAtFMM=   60 NAOKFM=F Big=F
 Integral buffers will be    131072 words long.
 Raffenetti 2 integral format.
 Two-electron integral symmetry is turned on.
 Leave Link  301 at Sat Aug 28 00:50:31 2021, MaxMem= 17179869184 cpu:        13.1
 (Enter /public3/home/sc51754/softwares/g09e01/l302.exe)
 NPDir=0 NMtPBC=     1 NCelOv=     1 NCel=       1 NClECP=     1 NCelD=      1
         NCelK=      1 NCelE2=     1 NClLst=     1 CellRange=     0.0.
 One-electron integrals computed using PRISM.
 NBasis=   280 RedAO= T EigKep=  2.17D-04  NBF=   190    90
 NBsUse=   280 1.00D-06 EigRej= -1.00D+00 NBFU=   190    90
 Precomputing XC quadrature grid using
 IXCGrd= 4 IRadAn=           0 IRanWt=          -1 IRanGd=           0 AccXCQ= 0.00D+00.
 Generated NRdTot=       0 NPtTot=           0 NUsed=           0 NTot=          32
 NSgBfM=   320   320   320   320   320 MxSgAt=    12 MxSgA2=    12.
 Leave Link  302 at Sat Aug 28 00:50:34 2021, MaxMem= 17179869184 cpu:        94.2
 (Enter /public3/home/sc51754/softwares/g09e01/l303.exe)
 DipDrv:  MaxL=1.
 Leave Link  303 at Sat Aug 28 00:50:35 2021, MaxMem= 17179869184 cpu:        43.8
 (Enter /public3/home/sc51754/softwares/g09e01/l401.exe)
 ExpMin= 7.41D-02 ExpMax= 1.48D+04 ExpMxC= 5.05D+02 IAcc=2 IRadAn=         4 AccDes= 0.00D+00
 Harris functional with IExCor= 1009 and IRadAn=       4 diagonalized for initial guess.
 HarFok:  IExCor= 1009 AccDes= 0.00D+00 IRadAn=         4 IDoV= 1 UseB2=F ITyADJ=14
 ICtDFT=  3500011 ScaDFX=  1.000000  1.000000  1.000000  1.000000
 FoFCou: FMM=F IPFlag=           0 FMFlag=      100000 FMFlg1=           0
         NFxFlg=           0 DoJE=T BraDBF=F KetDBF=T FulRan=T
         wScrn=  0.000000 ICntrl=     500 IOpCl=  0 I1Cent=   200000004 NGrid=           0
         NMat0=    1 NMatS0=      1 NMatT0=    0 NMatD0=    1 NMtDS0=    0 NMtDT0=    0
 Petite list used in FoFCou.
 Harris En= -323.304173349363    
 JPrj=0 DoOrth=F DoCkMO=F.
 Initial guess orbital symmetries:
       Occupied  (A') (A') (A') (A') (A') (A') (A') (A') (A') (A')
                 (A') (A') (A') (A') (A') (A') (A') (A') (A") (A')
                 (A") (A') (A") (A') (A")
       Virtual   (A") (A") (A') (A') (A") (A') (A') (A') (A') (A')
                 (A') (A') (A") (A') (A') (A") (A") (A') (A') (A')
                 (A') (A') (A") (A') (A") (A') (A') (A') (A') (A')
                 (A') (A') (A") (A") (A') (A') (A') (A') (A') (A')
                 (A') (A') (A") (A') (A') (A") (A') (A') (A") (A")
                 (A') (A') (A') (A") (A") (A') (A") (A') (A') (A')
                 (A') (A") (A') (A') (A") (A') (A') (A") (A') (A")
                 (A') (A") (A") (A') (A") (A') (A') (A") (A') (A")
                 (A') (A") (A') (A') (A") (A') (A") (A') (A') (A")
                 (A') (A") (A') (A') (A') (A') (A') (A") (A') (A')
                 (A') (A') (A") (A') (A') (A') (A") (A') (A') (A')
                 (A") (A') (A') (A') (A') (A') (A") (A') (A') (A')
                 (A") (A') (A') (A") (A') (A") (A') (A") (A") (A')
                 (A") (A") (A') (A') (A") (A') (A') (A') (A") (A')
                 (A') (A') (A') (A") (A') (A") (A") (A') (A') (A')
                 (A') (A') (A") (A') (A") (A") (A") (A') (A') (A")
                 (A") (A') (A") (A') (A') (A") (A') (A") (A') (A')
                 (A') (A") (A") (A') (A') (A") (A') (A") (A") (A")
                 (A') (A") (A') (A") (A') (A") (A') (A") (A') (A")
                 (A") (A') (A") (A') (A') (A') (A") (A") (A') (A")
                 (A') (A') (A") (A") (A') (A') (A') (A") (A') (A')
                 (A') (A") (A') (A") (A') (A') (A") (A') (A") (A')
                 (A") (A') (A') (A") (A') (A') (A') (A") (A') (A')
                 (A') (A") (A') (A') (A') (A') (A') (A') (A") (A')
                 (A') (A') (A") (A') (A') (A') (A') (A') (A') (A')
                 (A') (A') (A') (A') (A')
 The electronic state of the initial guess is 1-A'.
 Leave Link  401 at Sat Aug 28 00:50:37 2021, MaxMem= 17179869184 cpu:        61.4
 (Enter /public3/home/sc51754/softwares/g09e01/l502.exe)
 Closed shell SCF:
 Using DIIS extrapolation, IDIIS=  1040.
 Integral symmetry usage will be decided dynamically.
 Keep R1 ints in memory in symmetry-blocked form, NReq=1167802198.
 IVT=      348658 IEndB=      348658 NGot= 17179869184 MDV= 16785904737
 LenX= 16785904737 LenY= 16785801896
 Requested convergence on RMS density matrix=1.00D-08 within 128 cycles.
 Requested convergence on MAX density matrix=1.00D-06.
 Requested convergence on             energy=1.00D-06.
 No special actions if energy rises.
 FoFCou: FMM=F IPFlag=           0 FMFlag=           0 FMFlg1=           0
         NFxFlg=           0 DoJE=F BraDBF=F KetDBF=F FulRan=T
         wScrn=  0.000000 ICntrl=     600 IOpCl=  0 I1Cent=           0 NGrid=           0
         NMat0=    1 NMatS0=  39340 NMatT0=    0 NMatD0=    1 NMtDS0=    0 NMtDT0=    0
 Petite list used in FoFCou.
 Integral accuracy reduced to 1.0D-05 until final iterations.

 Cycle   1  Pass 0  IDiag  1:
 E= -323.217235193128    
 DIIS: error= 2.27D-02 at cycle   1 NSaved=   1.
 NSaved= 1 IEnMin= 1 EnMin= -323.217235193128     IErMin= 1 ErrMin= 2.27D-02
 ErrMax= 2.27D-02  0.00D+00 EMaxC= 1.00D-01 BMatC= 1.57D-01 BMatP= 1.57D-01
 IDIUse=3 WtCom= 7.73D-01 WtEn= 2.27D-01
 Coeff-Com:  0.100D+01
 Coeff-En:   0.100D+01
 Coeff:      0.100D+01
 Gap=     0.163 Goal=   None    Shift=    0.000
 GapD=    0.163 DampG=1.000 DampE=0.500 DampFc=0.5000 IDamp=-1.
 Damping current iteration by 5.00D-01
 RMSDP=2.69D-03 MaxDP=1.12D-01              OVMax= 1.90D-01

 Cycle   2  Pass 0  IDiag  1:
 E= -323.266939103632     Delta-E=       -0.049703910505 Rises=F Damp=T
 DIIS: error= 6.33D-03 at cycle   2 NSaved=   2.
 NSaved= 2 IEnMin= 2 EnMin= -323.266939103632     IErMin= 2 ErrMin= 6.33D-03
 ErrMax= 6.33D-03  0.00D+00 EMaxC= 1.00D-01 BMatC= 1.73D-02 BMatP= 1.57D-01
 IDIUse=3 WtCom= 9.37D-01 WtEn= 6.33D-02
 Coeff-Com:  0.152D+00 0.848D+00
 Coeff-En:   0.264D+00 0.736D+00
 Coeff:      0.159D+00 0.841D+00
 Gap=     0.225 Goal=   None    Shift=    0.000
 RMSDP=9.52D-04 MaxDP=2.85D-02 DE=-4.97D-02 OVMax= 1.54D-01

 Cycle   3  Pass 0  IDiag  1:
 E= -323.340173228771     Delta-E=       -0.073234125139 Rises=F Damp=F
 DIIS: error= 8.55D-03 at cycle   3 NSaved=   3.
 NSaved= 3 IEnMin= 3 EnMin= -323.340173228771     IErMin= 2 ErrMin= 6.33D-03
 ErrMax= 8.55D-03  0.00D+00 EMaxC= 1.00D-01 BMatC= 2.44D-02 BMatP= 1.73D-02
 IDIUse=3 WtCom= 9.76D-02 WtEn= 9.02D-01
 Coeff-Com:  0.242D-01 0.543D+00 0.433D+00
 Coeff-En:   0.000D+00 0.000D+00 0.100D+01
 Coeff:      0.236D-02 0.530D-01 0.945D+00
 Gap=     0.191 Goal=   None    Shift=    0.000
 RMSDP=1.14D-03 MaxDP=5.46D-02 DE=-7.32D-02 OVMax= 1.38D-01

 Cycle   4  Pass 0  IDiag  1:
 E= -323.260330926454     Delta-E=        0.079842302317 Rises=F Damp=F
 DIIS: error= 1.91D-02 at cycle   4 NSaved=   4.
 NSaved= 4 IEnMin= 3 EnMin= -323.340173228771     IErMin= 2 ErrMin= 6.33D-03
 ErrMax= 1.91D-02  0.00D+00 EMaxC= 1.00D-01 BMatC= 1.22D-01 BMatP= 1.73D-02
 IDIUse=2 WtCom= 0.00D+00 WtEn= 1.00D+00
 Coeff-En:   0.000D+00 0.000D+00 0.769D+00 0.231D+00
 Coeff:      0.000D+00 0.000D+00 0.769D+00 0.231D+00
 Gap=     0.206 Goal=   None    Shift=    0.000
 RMSDP=5.82D-04 MaxDP=2.57D-02 DE= 7.98D-02 OVMax= 7.59D-02

 Cycle   5  Pass 0  IDiag  1:
 E= -323.353971487783     Delta-E=       -0.093640561329 Rises=F Damp=F
 DIIS: error= 4.65D-03 at cycle   5 NSaved=   5.
 NSaved= 5 IEnMin= 5 EnMin= -323.353971487783     IErMin= 5 ErrMin= 4.65D-03
 ErrMax= 4.65D-03  0.00D+00 EMaxC= 1.00D-01 BMatC= 8.13D-03 BMatP= 1.73D-02
 IDIUse=3 WtCom= 9.54D-01 WtEn= 4.65D-02
 Coeff-Com:  0.121D-03 0.211D-01 0.336D+00-0.297D-01 0.672D+00
 Coeff-En:   0.000D+00 0.000D+00 0.304D+00 0.000D+00 0.696D+00
 Coeff:      0.116D-03 0.201D-01 0.335D+00-0.283D-01 0.674D+00
 Gap=     0.208 Goal=   None    Shift=    0.000
 RMSDP=2.19D-04 MaxDP=1.20D-02 DE=-9.36D-02 OVMax= 2.41D-02

 Cycle   6  Pass 0  IDiag  1:
 E= -323.360729679040     Delta-E=       -0.006758191257 Rises=F Damp=F
 DIIS: error= 7.14D-04 at cycle   6 NSaved=   6.
 NSaved= 6 IEnMin= 6 EnMin= -323.360729679040     IErMin= 6 ErrMin= 7.14D-04
 ErrMax= 7.14D-04  0.00D+00 EMaxC= 1.00D-01 BMatC= 1.06D-04 BMatP= 8.13D-03
 IDIUse=3 WtCom= 9.93D-01 WtEn= 7.14D-03
 Coeff-Com: -0.464D-02 0.787D-02 0.122D+00-0.641D-01 0.449D+00 0.491D+00
 Coeff-En:   0.000D+00 0.000D+00 0.000D+00 0.000D+00 0.000D+00 0.100D+01
 Coeff:     -0.460D-02 0.781D-02 0.121D+00-0.636D-01 0.445D+00 0.494D+00
 Gap=     0.209 Goal=   None    Shift=    0.000
 RMSDP=2.89D-05 MaxDP=1.22D-03 DE=-6.76D-03 OVMax= 4.18D-03

 Cycle   7  Pass 0  IDiag  1:
 E= -323.360834436077     Delta-E=       -0.000104757037 Rises=F Damp=F
 DIIS: error= 5.88D-05 at cycle   7 NSaved=   7.
 NSaved= 7 IEnMin= 7 EnMin= -323.360834436077     IErMin= 7 ErrMin= 5.88D-05
 ErrMax= 5.88D-05  0.00D+00 EMaxC= 1.00D-01 BMatC= 1.43D-06 BMatP= 1.06D-04
 IDIUse=1 WtCom= 1.00D+00 WtEn= 0.00D+00
 Coeff-Com: -0.118D-02 0.824D-03 0.218D-01-0.162D-01 0.941D-01 0.142D+00
 Coeff-Com:  0.759D+00
 Coeff:     -0.118D-02 0.824D-03 0.218D-01-0.162D-01 0.941D-01 0.142D+00
 Coeff:      0.759D+00
 Gap=     0.209 Goal=   None    Shift=    0.000
 RMSDP=4.38D-06 MaxDP=2.15D-04 DE=-1.05D-04 OVMax= 4.05D-04

 Initial convergence to 1.0D-05 achieved.  Increase integral accuracy.
 Cycle   8  Pass 1  IDiag  1:
 E= -323.360912616496     Delta-E=       -0.000078180418 Rises=F Damp=F
 DIIS: error= 3.30D-04 at cycle   1 NSaved=   1.
 NSaved= 1 IEnMin= 1 EnMin= -323.360912616496     IErMin= 1 ErrMin= 3.30D-04
 ErrMax= 3.30D-04  0.00D+00 EMaxC= 1.00D-01 BMatC= 7.86D-05 BMatP= 7.86D-05
 IDIUse=3 WtCom= 9.97D-01 WtEn= 3.30D-03
 Coeff-Com:  0.100D+01
 Coeff-En:   0.100D+01
 Coeff:      0.100D+01
 Gap=     0.209 Goal=   None    Shift=    0.000
 RMSDP=4.38D-06 MaxDP=2.15D-04 DE=-7.82D-05 OVMax= 1.15D-03

 Cycle   9  Pass 1  IDiag  1:
 E= -323.360943822223     Delta-E=       -0.000031205728 Rises=F Damp=F
 DIIS: error= 1.18D-04 at cycle   2 NSaved=   2.
 NSaved= 2 IEnMin= 2 EnMin= -323.360943822223     IErMin= 2 ErrMin= 1.18D-04
 ErrMax= 1.18D-04  0.00D+00 EMaxC= 1.00D-01 BMatC= 4.12D-06 BMatP= 7.86D-05
 IDIUse=3 WtCom= 9.99D-01 WtEn= 1.18D-03
 Coeff-Com:  0.138D+00 0.862D+00
 Coeff-En:   0.000D+00 0.100D+01
 Coeff:      0.138D+00 0.862D+00
 Gap=     0.209 Goal=   None    Shift=    0.000
 RMSDP=8.91D-06 MaxDP=4.19D-04 DE=-3.12D-05 OVMax= 8.73D-04

 Cycle  10  Pass 1  IDiag  1:
 E= -323.360944156564     Delta-E=       -0.000000334341 Rises=F Damp=F
 DIIS: error= 1.44D-04 at cycle   3 NSaved=   3.
 NSaved= 3 IEnMin= 3 EnMin= -323.360944156564     IErMin= 2 ErrMin= 1.18D-04
 ErrMax= 1.44D-04  0.00D+00 EMaxC= 1.00D-01 BMatC= 2.34D-06 BMatP= 4.12D-06
 IDIUse=3 WtCom= 9.99D-01 WtEn= 1.44D-03
 Coeff-Com:  0.483D-01 0.451D+00 0.500D+00
 Coeff-En:   0.000D+00 0.464D+00 0.536D+00
 Coeff:      0.482D-01 0.451D+00 0.500D+00
 Gap=     0.209 Goal=   None    Shift=    0.000
 RMSDP=5.22D-06 MaxDP=2.92D-04 DE=-3.34D-07 OVMax= 7.21D-04

 Cycle  11  Pass 1  IDiag  1:
 E= -323.360946147036     Delta-E=       -0.000001990472 Rises=F Damp=F
 DIIS: error= 5.18D-05 at cycle   4 NSaved=   4.
 NSaved= 4 IEnMin= 4 EnMin= -323.360946147036     IErMin= 4 ErrMin= 5.18D-05
 ErrMax= 5.18D-05  0.00D+00 EMaxC= 1.00D-01 BMatC= 2.66D-07 BMatP= 2.34D-06
 IDIUse=1 WtCom= 1.00D+00 WtEn= 0.00D+00
 Coeff-Com: -0.642D-03 0.751D-01 0.267D+00 0.658D+00
 Coeff:     -0.642D-03 0.751D-01 0.267D+00 0.658D+00
 Gap=     0.209 Goal=   None    Shift=    0.000
 RMSDP=1.64D-06 MaxDP=5.70D-05 DE=-1.99D-06 OVMax= 2.52D-04

 Cycle  12  Pass 1  IDiag  1:
 E= -323.360946387212     Delta-E=       -0.000000240177 Rises=F Damp=F
 DIIS: error= 1.02D-05 at cycle   5 NSaved=   5.
 NSaved= 5 IEnMin= 5 EnMin= -323.360946387212     IErMin= 5 ErrMin= 1.02D-05
 ErrMax= 1.02D-05  0.00D+00 EMaxC= 1.00D-01 BMatC= 2.57D-08 BMatP= 2.66D-07
 IDIUse=1 WtCom= 1.00D+00 WtEn= 0.00D+00
 Coeff-Com: -0.247D-02 0.225D-01 0.131D+00 0.378D+00 0.471D+00
 Coeff:     -0.247D-02 0.225D-01 0.131D+00 0.378D+00 0.471D+00
 Gap=     0.209 Goal=   None    Shift=    0.000
 RMSDP=5.13D-07 MaxDP=2.13D-05 DE=-2.40D-07 OVMax= 6.92D-05

 Cycle  13  Pass 1  IDiag  1:
 E= -323.360946410799     Delta-E=       -0.000000023586 Rises=F Damp=F
 DIIS: error= 3.17D-06 at cycle   6 NSaved=   6.
 NSaved= 6 IEnMin= 6 EnMin= -323.360946410799     IErMin= 6 ErrMin= 3.17D-06
 ErrMax= 3.17D-06  0.00D+00 EMaxC= 1.00D-01 BMatC= 3.38D-09 BMatP= 2.57D-08
 IDIUse=1 WtCom= 1.00D+00 WtEn= 0.00D+00
 Coeff-Com: -0.153D-02 0.556D-02 0.532D-01 0.168D+00 0.294D+00 0.481D+00
 Coeff:     -0.153D-02 0.556D-02 0.532D-01 0.168D+00 0.294D+00 0.481D+00
 Gap=     0.209 Goal=   None    Shift=    0.000
 RMSDP=1.76D-07 MaxDP=9.27D-06 DE=-2.36D-08 OVMax= 1.80D-05

 Cycle  14  Pass 1  IDiag  1:
 E= -323.360946413011     Delta-E=       -0.000000002212 Rises=F Damp=F
 DIIS: error= 1.21D-06 at cycle   7 NSaved=   7.
 NSaved= 7 IEnMin= 7 EnMin= -323.360946413011     IErMin= 7 ErrMin= 1.21D-06
 ErrMax= 1.21D-06  0.00D+00 EMaxC= 1.00D-01 BMatC= 5.57D-10 BMatP= 3.38D-09
 IDIUse=1 WtCom= 1.00D+00 WtEn= 0.00D+00
 Coeff-Com: -0.282D-03-0.332D-02-0.437D-02-0.301D-02 0.579D-01 0.311D+00
 Coeff-Com:  0.642D+00
 Coeff:     -0.282D-03-0.332D-02-0.437D-02-0.301D-02 0.579D-01 0.311D+00
 Coeff:      0.642D+00
 Gap=     0.209 Goal=   None    Shift=    0.000
 RMSDP=6.22D-08 MaxDP=2.45D-06 DE=-2.21D-09 OVMax= 5.35D-06

 Cycle  15  Pass 1  IDiag  1:
 E= -323.360946413438     Delta-E=       -0.000000000427 Rises=F Damp=F
 DIIS: error= 2.46D-07 at cycle   8 NSaved=   8.
 NSaved= 8 IEnMin= 8 EnMin= -323.360946413438     IErMin= 8 ErrMin= 2.46D-07
 ErrMax= 2.46D-07  0.00D+00 EMaxC= 1.00D-01 BMatC= 2.93D-11 BMatP= 5.57D-10
 IDIUse=1 WtCom= 1.00D+00 WtEn= 0.00D+00
 Coeff-Com: -0.378D-04-0.189D-02-0.537D-02-0.120D-01 0.101D-01 0.117D+00
 Coeff-Com:  0.309D+00 0.583D+00
 Coeff:     -0.378D-04-0.189D-02-0.537D-02-0.120D-01 0.101D-01 0.117D+00
 Coeff:      0.309D+00 0.583D+00
 Gap=     0.209 Goal=   None    Shift=    0.000
 RMSDP=1.84D-08 MaxDP=1.19D-06 DE=-4.27D-10 OVMax= 1.70D-06

 Cycle  16  Pass 1  IDiag  1:
 E= -323.360946413448     Delta-E=       -0.000000000010 Rises=F Damp=F
 DIIS: error= 1.17D-07 at cycle   9 NSaved=   9.
 NSaved= 9 IEnMin= 9 EnMin= -323.360946413448     IErMin= 9 ErrMin= 1.17D-07
 ErrMax= 1.17D-07  0.00D+00 EMaxC= 1.00D-01 BMatC= 4.19D-12 BMatP= 2.93D-11
 IDIUse=1 WtCom= 1.00D+00 WtEn= 0.00D+00
 Coeff-Com:  0.386D-04-0.302D-03-0.193D-02-0.594D-02-0.684D-02-0.392D-02
 Coeff-Com:  0.274D-01 0.289D+00 0.703D+00
 Coeff:      0.386D-04-0.302D-03-0.193D-02-0.594D-02-0.684D-02-0.392D-02
 Coeff:      0.274D-01 0.289D+00 0.703D+00
 Gap=     0.209 Goal=   None    Shift=    0.000
 RMSDP=7.17D-09 MaxDP=3.77D-07 DE=-1.05D-11 OVMax= 7.81D-07

 SCF Done:  E(RM06) =  -323.360946413     A.U. after   16 cycles
            NFock= 16  Conv=0.72D-08     -V/T= 2.0034
 KE= 3.222697093527D+02 PE=-1.310712288843D+03 EE= 3.872300721428D+02
 Leave Link  502 at Sat Aug 28 00:50:49 2021, MaxMem= 17179869184 cpu:       393.1
 (Enter /public3/home/sc51754/softwares/g09e01/l801.exe)
 DoSCS=F DFT=T ScalE2(SS,OS)=  1.000000  1.000000
 Range of M.O.s used for correlation:     1   280
 NBasis=   280 NAE=    25 NBE=    25 NFC=     0 NFV=     0
 NROrb=    280 NOA=    25 NOB=    25 NVA=   255 NVB=   255

 **** Warning!!: The largest alpha MO coefficient is  0.18806478D+02

 Leave Link  801 at Sat Aug 28 00:50:49 2021, MaxMem= 17179869184 cpu:         0.8
 (Enter /public3/home/sc51754/softwares/g09e01/l1101.exe)
 Using compressed storage, NAtomX=    12.
 Will process     13 centers per pass.
 Leave Link 1101 at Sat Aug 28 00:50:51 2021, MaxMem= 17179869184 cpu:        65.2
 (Enter /public3/home/sc51754/softwares/g09e01/l1102.exe)
 Symmetrizing basis deriv contribution to polar:
 IMax=3 JMax=2 DiffMx= 0.00D+00
 Leave Link 1102 at Sat Aug 28 00:50:52 2021, MaxMem= 17179869184 cpu:        11.3
 (Enter /public3/home/sc51754/softwares/g09e01/l1110.exe)
 Forming Gx(P) for the SCF density, NAtomX=    12.
 Integral derivatives from FoFJK, PRISM(SPDF).
 Do as many integral derivatives as possible in FoFJK.
 G2DrvN: MDV=   17179868984.
 G2DrvN: will do    13 centers at a time, making    1 passes.
 Calling FoFCou, ICntrl=  3107 FMM=F I1Cent=   0 AccDes= 0.00D+00.
 FoFJK:  IHMeth= 1 ICntrl=    3107 DoSepK=F KAlg= 0 I1Cent=   0 FoldK=F
 IRaf=         0 NMat=   1 IRICut=       1 DoRegI=T DoRafI=F ISym2E= 1.
 FoFCou: FMM=F IPFlag=           0 FMFlag=      100000 FMFlg1=           0
         NFxFlg=           0 DoJE=F BraDBF=F KetDBF=F FulRan=T
         wScrn=  0.000000 ICntrl=    3107 IOpCl=  0 I1Cent=           0 NGrid=           0
         NMat0=    1 NMatS0=      1 NMatT0=    0 NMatD0=    1 NMtDS0=    0 NMtDT0=    0
 Petite list used in FoFCou.
 End of G2Drv F.D. properties file   721 does not exist.
 End of G2Drv F.D. properties file   722 does not exist.
 End of G2Drv F.D. properties file   788 does not exist.
 Leave Link 1110 at Sat Aug 28 00:50:59 2021, MaxMem= 17179869184 cpu:       399.6
 (Enter /public3/home/sc51754/softwares/g09e01/l1002.exe)
 Minotr:  Closed shell wavefunction.
          IDoAtm=111111111111
          Direct CPHF calculation.
          Differentiating once with respect to nuclear coordinates.
          Using symmetry in CPHF.
          Requested convergence is 1.0D-08 RMS, and 1.0D-07 maximum.
          Secondary convergence is 1.0D-12 RMS, and 1.0D-12 maximum.
          NewPWx=T KeepS1=F KeepF1=F KeepIn=T MapXYZ=F SortEE=F KeepMc=T.
          MDV=   17179868780 using IRadAn=       2.
 Generate precomputed XC quadrature information.
 Keep R1 ints in memory in symmetry-blocked form, NReq=1167458725.
 FoFCou: FMM=F IPFlag=           0 FMFlag=           0 FMFlg1=           0
         NFxFlg=           0 DoJE=F BraDBF=F KetDBF=F FulRan=T
         wScrn=  0.000000 ICntrl=     600 IOpCl=  0 I1Cent=           0 NGrid=           0
         NMat0=    1 NMatS0=  39340 NMatT0=    0 NMatD0=    1 NMtDS0=    0 NMtDT0=    0
 Petite list used in FoFCou.
          Solving linear equations simultaneously, MaxMat=       0.
          There are    39 degrees of freedom in the 1st order CPHF.  IDoFFX=6 NUNeed=     0.
     33 vectors produced by pass  0 Test12= 1.63D-14 2.56D-09 XBig12= 1.31D-01 9.56D-02.
 AX will form    33 AO Fock derivatives at one time.
     33 vectors produced by pass  1 Test12= 1.63D-14 2.56D-09 XBig12= 1.94D-02 4.01D-02.
     33 vectors produced by pass  2 Test12= 1.63D-14 2.56D-09 XBig12= 3.65D-04 3.97D-03.
     33 vectors produced by pass  3 Test12= 1.63D-14 2.56D-09 XBig12= 3.45D-06 2.50D-04.
     33 vectors produced by pass  4 Test12= 1.63D-14 2.56D-09 XBig12= 3.47D-08 2.22D-05.
     33 vectors produced by pass  5 Test12= 1.63D-14 2.56D-09 XBig12= 2.11D-10 1.51D-06.
     29 vectors produced by pass  6 Test12= 1.63D-14 2.56D-09 XBig12= 8.81D-13 1.30D-07.
     10 vectors produced by pass  7 Test12= 1.63D-14 2.56D-09 XBig12= 3.04D-15 7.50D-09.
 InvSVY:  IOpt=1 It=  1 EMax= 1.33D-15
 Solved reduced A of dimension   237 with    33 vectors.
 End of Minotr F.D. properties file   721 does not exist.
 End of Minotr F.D. properties file   722 does not exist.
 End of Minotr F.D. properties file   788 does not exist.
 Leave Link 1002 at Sat Aug 28 00:51:15 2021, MaxMem= 17179869184 cpu:       987.9
 (Enter /public3/home/sc51754/softwares/g09e01/l601.exe)
 Copying SCF densities to generalized density rwf, IOpCl= 0 IROHF=0.

 **********************************************************************

            Population analysis using the SCF density.

 **********************************************************************

 Orbital symmetries:
       Occupied  (A') (A') (A') (A') (A') (A') (A') (A') (A') (A')
                 (A') (A') (A') (A') (A') (A') (A") (A') (A') (A')
                 (A") (A') (A') (A") (A")
       Virtual   (A") (A") (A') (A') (A') (A') (A') (A') (A") (A')
                 (A') (A") (A') (A') (A') (A") (A") (A') (A') (A')
                 (A") (A') (A') (A") (A') (A') (A') (A') (A') (A')
                 (A') (A") (A') (A') (A") (A') (A') (A') (A') (A')
                 (A') (A') (A') (A") (A') (A') (A') (A") (A") (A")
                 (A') (A') (A') (A") (A") (A') (A') (A") (A') (A')
                 (A') (A') (A') (A") (A') (A") (A') (A') (A') (A")
                 (A") (A") (A') (A") (A") (A') (A') (A") (A') (A')
                 (A") (A') (A') (A") (A') (A") (A") (A') (A') (A')
                 (A") (A') (A") (A') (A') (A') (A') (A') (A") (A')
                 (A') (A') (A') (A") (A') (A') (A') (A") (A') (A')
                 (A') (A') (A") (A') (A') (A') (A") (A') (A') (A')
                 (A') (A") (A") (A') (A') (A") (A") (A') (A") (A")
                 (A') (A") (A') (A') (A") (A') (A') (A') (A") (A')
                 (A') (A") (A') (A') (A') (A") (A") (A') (A') (A')
                 (A') (A') (A") (A") (A') (A") (A") (A') (A") (A')
                 (A') (A") (A') (A") (A') (A") (A') (A") (A') (A')
                 (A') (A") (A") (A') (A") (A') (A") (A') (A') (A")
                 (A") (A') (A') (A") (A") (A') (A") (A') (A") (A")
                 (A") (A") (A') (A') (A') (A") (A') (A") (A') (A")
                 (A') (A") (A') (A") (A') (A') (A") (A') (A') (A')
                 (A") (A") (A') (A') (A') (A') (A") (A') (A") (A')
                 (A') (A') (A") (A") (A') (A') (A') (A') (A") (A')
                 (A") (A') (A') (A') (A') (A') (A') (A') (A') (A")
                 (A') (A') (A') (A") (A') (A') (A') (A') (A') (A')
                 (A') (A') (A') (A') (A')
 The electronic state is 1-A'.
 Alpha  occ. eigenvalues --  -19.21514 -14.41770 -10.33862 -10.29861 -10.26909
 Alpha  occ. eigenvalues --  -10.25148 -10.24768  -1.07021  -0.97042  -0.83859
 Alpha  occ. eigenvalues --   -0.77345  -0.68144  -0.63849  -0.55779  -0.53000
 Alpha  occ. eigenvalues --   -0.48405  -0.46546  -0.45131  -0.44821  -0.39987
 Alpha  occ. eigenvalues --   -0.36383  -0.35447  -0.33345  -0.32417  -0.25158
 Alpha virt. eigenvalues --   -0.04297  -0.00636   0.00126   0.00977   0.01769
 Alpha virt. eigenvalues --    0.03349   0.04864   0.11423   0.12758   0.13800
 Alpha virt. eigenvalues --    0.14865   0.16420   0.17271   0.18033   0.19493
 Alpha virt. eigenvalues --    0.19903   0.20974   0.23645   0.24194   0.25280
 Alpha virt. eigenvalues --    0.26379   0.26478   0.27770   0.28501   0.29670
 Alpha virt. eigenvalues --    0.32738   0.34451   0.35959   0.36151   0.38075
 Alpha virt. eigenvalues --    0.41496   0.41635   0.42948   0.43590   0.44469
 Alpha virt. eigenvalues --    0.47472   0.48841   0.49419   0.53023   0.56810
 Alpha virt. eigenvalues --    0.59300   0.59964   0.62737   0.63826   0.63944
 Alpha virt. eigenvalues --    0.65243   0.69569   0.69772   0.75658   0.79444
 Alpha virt. eigenvalues --    0.80179   0.86463   0.88584   0.89539   0.92737
 Alpha virt. eigenvalues --    0.93210   0.94951   0.95032   0.96582   0.98606
 Alpha virt. eigenvalues --    0.99969   1.05501   1.07142   1.08795   1.10016
 Alpha virt. eigenvalues --    1.13081   1.14118   1.14501   1.19506   1.19534
 Alpha virt. eigenvalues --    1.21675   1.24814   1.26035   1.26672   1.27775
 Alpha virt. eigenvalues --    1.34988   1.38666   1.38887   1.40197   1.44893
 Alpha virt. eigenvalues --    1.47537   1.49502   1.51269   1.51672   1.54575
 Alpha virt. eigenvalues --    1.56323   1.60113   1.60160   1.62568   1.64864
 Alpha virt. eigenvalues --    1.66513   1.66780   1.69414   1.71416   1.74747
 Alpha virt. eigenvalues --    1.75635   1.79263   1.83066   1.83908   1.85117
 Alpha virt. eigenvalues --    1.88100   1.90303   1.98403   1.98967   2.00185
 Alpha virt. eigenvalues --    2.06212   2.09825   2.10289   2.13758   2.15383
 Alpha virt. eigenvalues --    2.18639   2.21856   2.22239   2.22988   2.24992
 Alpha virt. eigenvalues --    2.32044   2.43715   2.44203   2.56933   2.62007
 Alpha virt. eigenvalues --    2.84633   2.85601   2.89200   2.90465   3.01118
 Alpha virt. eigenvalues --    3.10159   3.12346   3.13626   3.14783   3.21000
 Alpha virt. eigenvalues --    3.24005   3.27720   3.30030   3.34462   3.35501
 Alpha virt. eigenvalues --    3.36124   3.38556   3.46592   3.47517   3.52904
 Alpha virt. eigenvalues --    3.53986   3.54313   3.55485   3.56844   3.60248
 Alpha virt. eigenvalues --    3.60704   3.66080   3.70671   3.73014   3.80006
 Alpha virt. eigenvalues --    3.82156   3.84550   3.86588   3.89670   3.90741
 Alpha virt. eigenvalues --    3.94804   3.99872   4.02626   4.03310   4.03310
 Alpha virt. eigenvalues --    4.05877   4.06072   4.09800   4.10202   4.13236
 Alpha virt. eigenvalues --    4.15307   4.16240   4.16549   4.18052   4.19936
 Alpha virt. eigenvalues --    4.22185   4.23770   4.24550   4.24680   4.27487
 Alpha virt. eigenvalues --    4.28446   4.28943   4.29938   4.34272   4.34366
 Alpha virt. eigenvalues --    4.35637   4.36102   4.38634   4.39861   4.42977
 Alpha virt. eigenvalues --    4.44010   4.46228   4.46548   4.46855   4.53811
 Alpha virt. eigenvalues --    4.55248   4.58655   4.58979   4.63445   4.66504
 Alpha virt. eigenvalues --    4.69866   4.69929   4.78534   4.78601   4.79318
 Alpha virt. eigenvalues --    4.83294   4.87752   4.90812   4.91348   4.95278
 Alpha virt. eigenvalues --    5.00130   5.04761   5.05348   5.12690   5.14019
 Alpha virt. eigenvalues --    5.17633   5.19242   5.20143   5.20912   5.24044
 Alpha virt. eigenvalues --    5.26780   5.30137   5.30897   5.35037   5.35293
 Alpha virt. eigenvalues --    5.38003   5.40765   5.42616   5.44556   5.48187
 Alpha virt. eigenvalues --    5.49769   5.55852   5.58975   5.63245   5.67075
 Alpha virt. eigenvalues --    5.72178   5.73941   5.83675   5.86353   5.95822
 Alpha virt. eigenvalues --    5.99966   6.04732   6.07277   6.25453   6.32175
 Alpha virt. eigenvalues --    6.36540   6.41659   6.50997   6.58082   6.63724
 Alpha virt. eigenvalues --    6.87806   7.01409   7.21135   9.44301  11.93875
 Alpha virt. eigenvalues --   12.57827  14.75526  17.43890  18.46959  22.22447
          Condensed to atoms (all electrons):
               1          2          3          4          5          6
     1  O    8.202848  -0.125020   0.310673  -0.059159   0.002935   0.006465
     2  N   -0.125020   6.753321   0.346684   0.002181   0.453888  -0.043900
     3  C    0.310673   0.346684   4.621962   0.426958  -0.074060  -0.024904
     4  C   -0.059159   0.002181   0.426958   4.950211  -0.060434   0.445177
     5  C    0.002935   0.453888  -0.074060  -0.060434   4.713019  -0.038652
     6  C    0.006465  -0.043900  -0.024904   0.445177  -0.038652   4.845253
     7  C    0.000258  -0.014500  -0.067056  -0.022308   0.478430   0.389677
     8  H    0.202472   0.097911  -0.059035   0.019400   0.001731  -0.005178
     9  H    0.003124   0.006814  -0.061632   0.483321  -0.003719  -0.058402
    10  H   -0.000577  -0.042132   0.005061  -0.003653   0.457031   0.009230
    11  H   -0.000476  -0.002281   0.014120  -0.057553   0.010931   0.467211
    12  H    0.000061   0.008241  -0.002005   0.010542  -0.049841  -0.066277
               7          8          9         10         11         12
     1  O    0.000258   0.202472   0.003124  -0.000577  -0.000476   0.000061
     2  N   -0.014500   0.097911   0.006814  -0.042132  -0.002281   0.008241
     3  C   -0.067056  -0.059035  -0.061632   0.005061   0.014120  -0.002005
     4  C   -0.022308   0.019400   0.483321  -0.003653  -0.057553   0.010542
     5  C    0.478430   0.001731  -0.003719   0.457031   0.010931  -0.049841
     6  C    0.389677  -0.005178  -0.058402   0.009230   0.467211  -0.066277
     7  C    5.020244   0.003780   0.012421  -0.074924  -0.068964   0.477479
     8  H    0.003780   0.451222  -0.001253  -0.003279   0.000332  -0.000202
     9  H    0.012421  -0.001253   0.583771   0.000186  -0.015941   0.000394
    10  H   -0.074924  -0.003279   0.000186   0.589501  -0.000127  -0.011446
    11  H   -0.068964   0.000332  -0.015941  -0.000127   0.616815  -0.015196
    12  H    0.477479  -0.000202   0.000394  -0.011446  -0.015196   0.609765
 Mulliken charges:
               1
     1  O   -0.543603
     2  N   -0.441208
     3  C    0.563234
     4  C   -0.134684
     5  C    0.108740
     6  C    0.074299
     7  C   -0.134536
     8  H    0.292099
     9  H    0.050916
    10  H    0.075129
    11  H    0.051130
    12  H    0.038486
 Sum of Mulliken charges =  -0.00000
 Mulliken charges with hydrogens summed into heavy atoms:
               1
     1  O   -0.251504
     2  N   -0.441208
     3  C    0.563234
     4  C   -0.083769
     5  C    0.183869
     6  C    0.125428
     7  C   -0.096050
 APT charges:
               1
     1  O   -0.369385
     2  N   -0.453716
     3  C    0.366586
     4  C   -0.594845
     5  C   -0.399414
     6  C   -0.350805
     7  C   -0.570183
     8  H    0.323025
     9  H    0.452006
    10  H    0.517063
    11  H    0.520350
    12  H    0.559317
 Sum of APT charges =  -0.00000
 APT charges with hydrogens summed into heavy atoms:
               1
     1  O   -0.046360
     2  N   -0.453716
     3  C    0.366586
     4  C   -0.142839
     5  C    0.117649
     6  C    0.169545
     7  C   -0.010865
 Electronic spatial extent (au):  <R**2>=            618.2375
 Charge=             -0.0000 electrons
 Dipole moment (field-independent basis, Debye):
    X=              0.0555    Y=             -3.1131    Z=             -0.0000  Tot=              3.1136
 Quadrupole moment (field-independent basis, Debye-Ang):
   XX=            -35.6051   YY=            -43.1558   ZZ=            -42.6367
   XY=             -0.9405   XZ=             -0.0000   YZ=             -0.0000
 Traceless Quadrupole moment (field-independent basis, Debye-Ang):
   XX=              4.8607   YY=             -2.6900   ZZ=             -2.1708
   XY=             -0.9405   XZ=             -0.0000   YZ=             -0.0000
 Octapole moment (field-independent basis, Debye-Ang**2):
  XXX=              2.6592  YYY=            -19.9108  ZZZ=              0.0000  XYY=             -4.3278
  XXY=              0.5778  XXZ=              0.0000  XZZ=             -1.3381  YZZ=              4.4637
  YYZ=              0.0000  XYZ=              0.0000
 Hexadecapole moment (field-independent basis, Debye-Ang**3):
 XXXX=           -257.6161 YYYY=           -508.9264 ZZZZ=            -45.1891 XXXY=              8.0911
 XXXZ=             -0.0000 YYYX=             -4.9977 YYYZ=             -0.0000 ZZZX=             -0.0000
 ZZZY=             -0.0000 XXYY=           -109.7686 XXZZ=            -58.6139 YYZZ=            -95.2001
 XXYZ=             -0.0000 YYXZ=             -0.0000 ZZXY=              1.4759
 N-N= 2.778515609336D+02 E-N=-1.310712307769D+03  KE= 3.222697093527D+02
 Symmetry A'   KE= 3.105116184726D+02
 Symmetry A"   KE= 1.175809088003D+01
  Exact polarizability:   0.000   0.000   0.000   0.000   0.000   0.000
 Approx polarizability: 120.373   5.603 143.474   0.000   0.000  54.471
 No NMR shielding tensors so no spin-rotation constants.
 Leave Link  601 at Sat Aug 28 00:51:17 2021, MaxMem= 17179869184 cpu:        70.8
 (Enter /public3/home/sc51754/softwares/g09e01/l701.exe)
 Compute integral second derivatives.
 ... and contract with generalized density number  0.
 Leave Link  701 at Sat Aug 28 00:51:18 2021, MaxMem= 17179869184 cpu:        83.4
 (Enter /public3/home/sc51754/softwares/g09e01/l702.exe)
 L702 exits ... SP integral derivatives will be done elsewhere.
 Leave Link  702 at Sat Aug 28 00:51:18 2021, MaxMem= 17179869184 cpu:         0.9
 (Enter /public3/home/sc51754/softwares/g09e01/l703.exe)
 Compute integral second derivatives, UseDBF=F ICtDFT=           0.
 Integral derivatives from FoFJK, PRISM(SPDF).
 Calling FoFJK, ICntrl=    100147 FMM=F ISym2X=1 I1Cent= 0 IOpClX= 0 NMat=1 NMatS=1 NMatT=0.
 FoFJK:  IHMeth= 1 ICntrl=  100147 DoSepK=F KAlg= 0 I1Cent=   0 FoldK=F
 IRaf=         0 NMat=   1 IRICut=       1 DoRegI=T DoRafI=F ISym2E= 1.
 FoFCou: FMM=F IPFlag=           0 FMFlag=      100000 FMFlg1=         800
         NFxFlg=           0 DoJE=F BraDBF=F KetDBF=F FulRan=T
         wScrn=  0.000000 ICntrl=  100147 IOpCl=  0 I1Cent=           0 NGrid=           0
         NMat0=    1 NMatS0=      1 NMatT0=    0 NMatD0=    1 NMtDS0=    0 NMtDT0=    0
 Petite list used in FoFCou.
 Leave Link  703 at Sat Aug 28 00:51:27 2021, MaxMem= 17179869184 cpu:       549.4
 (Enter /public3/home/sc51754/softwares/g09e01/l716.exe)
 Dipole        = 2.18371150D-02-1.22479712D+00-5.36817398D-32
 Polarizability= 0.00000000D+00 0.00000000D+00 0.00000000D+00
                 0.00000000D+00 0.00000000D+00 0.00000000D+00
 ***** Axes restored to original set *****
 -------------------------------------------------------------------
 Center     Atomic                   Forces (Hartrees/Bohr)
 Number     Number              X              Y              Z
 -------------------------------------------------------------------
      1        8          -0.090636910   -0.063890135   -0.000000000
      2        7           0.005843396    0.019208876   -0.000000000
      3        6           0.061165714    0.035235707    0.000000000
      4        6           0.004640465   -0.018556906    0.000000000
      5        6          -0.012371547   -0.015908484    0.000000000
      6        6           0.006344326    0.007434082   -0.000000000
      7        6          -0.008075912    0.003886248   -0.000000000
      8        1           0.034898417    0.031724388    0.000000000
      9        1          -0.001300302    0.000317839   -0.000000000
     10        1           0.000896914    0.000200590    0.000000000
     11        1           0.000035352   -0.000571479    0.000000000
     12        1          -0.001439913    0.000919274   -0.000000000
 -------------------------------------------------------------------
 Cartesian Forces:  Max     0.090636910 RMS     0.024072236
 Force constants in Cartesian coordinates: 
                1             2             3             4             5 
      1  0.686314D-01
      2  0.567392D-02  0.439056D+00
      3  0.000000D+00  0.000000D+00  0.826488D-01
      4 -0.149520D-01 -0.277354D-01  0.000000D+00  0.510946D+00
      5 -0.110544D+00 -0.439492D-01  0.000000D+00  0.136742D+00  0.625622D+00
      6  0.000000D+00  0.000000D+00  0.173884D-01  0.000000D+00  0.000000D+00
      7 -0.949372D-01  0.114300D-01  0.000000D+00 -0.335824D+00 -0.704094D-01
      8 -0.214845D-01 -0.303971D+00  0.000000D+00 -0.109722D+00 -0.207200D+00
      9  0.000000D+00  0.000000D+00 -0.761059D-01  0.000000D+00  0.000000D+00
     10 -0.365095D-02  0.207384D-01  0.000000D+00 -0.588651D-01 -0.328251D-01
     11  0.571518D-01 -0.529011D-01  0.000000D+00  0.137974D-01  0.692082D-01
     12  0.000000D+00  0.000000D+00  0.152444D-01  0.000000D+00  0.000000D+00
     13  0.612833D-02 -0.425272D-03  0.000000D+00 -0.116189D+00 -0.671310D-02
     14  0.230026D-01 -0.276052D-02  0.000000D+00  0.996794D-02 -0.343552D+00
     15  0.000000D+00  0.000000D+00  0.733685D-02  0.000000D+00  0.000000D+00
     16 -0.160894D-01  0.787050D-02  0.000000D+00 -0.175198D-01 -0.471791D-01
     17 -0.108493D-01  0.123297D-01  0.000000D+00 -0.279943D-01 -0.577982D-01
     18  0.000000D+00  0.000000D+00  0.534441D-02  0.000000D+00  0.000000D+00
     19  0.144419D-01 -0.938040D-02  0.000000D+00  0.377387D-01  0.876939D-01
     20 -0.688174D-02 -0.640154D-02  0.000000D+00  0.204994D-01 -0.565859D-01
     21  0.000000D+00  0.000000D+00 -0.206933D-02  0.000000D+00  0.000000D+00
     22  0.363585D-01 -0.750586D-02  0.000000D+00 -0.175586D-02  0.400694D-01
     23  0.648657D-01 -0.399990D-01  0.000000D+00  0.985591D-02  0.391078D-01
     24  0.000000D+00  0.000000D+00 -0.462119D-01  0.000000D+00  0.000000D+00
     25  0.285647D-02 -0.463270D-03  0.000000D+00 -0.469448D-02  0.380227D-02
     26 -0.124990D-02  0.536198D-03  0.000000D+00  0.534165D-02 -0.683265D-03
     27  0.000000D+00  0.000000D+00 -0.227191D-02  0.000000D+00  0.000000D+00
     28 -0.676802D-03 -0.209260D-04  0.000000D+00  0.428964D-02 -0.537033D-02
     29 -0.735036D-03 -0.137347D-02  0.000000D+00 -0.329917D-01 -0.229394D-01
     30  0.000000D+00  0.000000D+00  0.678114D-03  0.000000D+00  0.000000D+00
     31 -0.160701D-04  0.186124D-03  0.000000D+00  0.670822D-03 -0.703165D-03
     32  0.169588D-02 -0.825688D-03  0.000000D+00 -0.548297D-03 -0.598133D-03
     33  0.000000D+00  0.000000D+00 -0.115309D-02  0.000000D+00  0.000000D+00
     34  0.190577D-02 -0.367837D-03  0.000000D+00 -0.384453D-02  0.543673D-02
     35 -0.645830D-03  0.259497D-03  0.000000D+00  0.278809D-02 -0.632190D-03
     36  0.000000D+00  0.000000D+00 -0.828838D-03  0.000000D+00  0.000000D+00
                6             7             8             9            10 
      6  0.888532D-01
      7  0.000000D+00  0.766051D+00
      8  0.000000D+00 -0.397458D-01  0.667844D+00
      9 -0.730936D-01  0.000000D+00  0.000000D+00  0.187288D+00
     10  0.000000D+00 -0.275580D+00  0.946148D-01  0.000000D+00  0.723122D+00
     11  0.000000D+00  0.446605D-01 -0.137242D+00  0.000000D+00  0.449975D-01
     12  0.145255D-01  0.000000D+00  0.000000D+00 -0.784269D-01  0.000000D+00
     13  0.000000D+00  0.236154D-01 -0.359246D-01  0.000000D+00 -0.155766D-01
     14  0.000000D+00 -0.109572D+00 -0.335787D-01  0.000000D+00  0.371042D-01
     15 -0.527992D-01  0.000000D+00  0.000000D+00  0.207597D-02  0.000000D+00
     16  0.000000D+00  0.513272D-01  0.253410D-01  0.000000D+00 -0.136446D+00
     17  0.000000D+00  0.761548D-01 -0.410193D-01  0.000000D+00 -0.348025D-01
     18 -0.639541D-02  0.000000D+00  0.000000D+00  0.232772D-02  0.000000D+00
     19  0.000000D+00 -0.783723D-01  0.794573D-02  0.000000D+00  0.331307D-01
     20  0.000000D+00  0.165134D-01  0.253018D-02  0.000000D+00 -0.339957D-01
     21  0.181451D-01  0.000000D+00  0.000000D+00 -0.933016D-02  0.000000D+00
     22  0.000000D+00 -0.427989D-01  0.956873D-01  0.000000D+00  0.350580D-02
     23  0.000000D+00  0.584431D-01  0.499117D-01  0.000000D+00  0.646572D-02
     24 -0.162872D-01  0.000000D+00  0.000000D+00  0.231298D-01  0.000000D+00
     25  0.000000D+00 -0.161560D-01 -0.178187D-01  0.000000D+00 -0.270194D+00
     26  0.000000D+00  0.127837D-01  0.106392D-01  0.000000D+00 -0.127628D+00
     27  0.509597D-02  0.000000D+00  0.000000D+00  0.200925D-02  0.000000D+00
     28  0.000000D+00  0.332088D-02  0.141499D-02  0.000000D+00  0.273118D-03
     29  0.000000D+00  0.114178D-02 -0.327784D-02  0.000000D+00 -0.908413D-04
     30 -0.101264D-02  0.000000D+00  0.000000D+00  0.935208D-02  0.000000D+00
     31  0.000000D+00  0.172342D-02 -0.135589D-02  0.000000D+00  0.484254D-02
     32  0.000000D+00 -0.137719D-02 -0.490039D-02  0.000000D+00  0.278150D-01
     33 -0.225736D-02  0.000000D+00  0.000000D+00  0.110882D-01  0.000000D+00
     34  0.000000D+00 -0.236911D-02  0.104808D-02  0.000000D+00 -0.456052D-02
     35  0.000000D+00 -0.226722D-04  0.264503D-03  0.000000D+00 -0.239327D-02
     36  0.783716D-02  0.000000D+00  0.000000D+00 -0.314289D-03  0.000000D+00
               11            12            13            14            15 
     11  0.732087D+00
     12  0.000000D+00  0.119587D+00
     13  0.242706D-01  0.000000D+00  0.748939D+00
     14 -0.539566D-01  0.000000D+00  0.297217D-01  0.684558D+00
     15  0.000000D+00 -0.282739D-02  0.000000D+00  0.000000D+00  0.146470D+00
     16  0.249457D-01  0.000000D+00 -0.628767D-01  0.352442D-01  0.000000D+00
     17 -0.373686D+00  0.000000D+00 -0.194437D-01  0.694264D-01  0.000000D+00
     18  0.000000D+00 -0.588542D-01  0.000000D+00  0.000000D+00  0.700542D-02
     19 -0.740556D-01  0.000000D+00 -0.286261D+00  0.614194D-01  0.000000D+00
     20 -0.236690D-01  0.000000D+00  0.130582D+00 -0.186250D+00  0.000000D+00
     21  0.000000D+00  0.802536D-02  0.000000D+00  0.000000D+00 -0.667125D-01
     22 -0.740898D-02  0.000000D+00 -0.126482D-01 -0.102636D-01  0.000000D+00
     23 -0.190786D-01  0.000000D+00 -0.156857D-01 -0.211868D-01  0.000000D+00
     24  0.000000D+00  0.558831D-02  0.000000D+00  0.000000D+00 -0.440830D-02
     25 -0.125662D+00  0.000000D+00  0.187775D-03  0.235095D-02  0.000000D+00
     26 -0.130759D+00  0.000000D+00  0.410802D-03 -0.144770D-02  0.000000D+00
     27  0.000000D+00 -0.334997D-01  0.000000D+00  0.000000D+00 -0.336693D-03
     28  0.962451D-03  0.000000D+00 -0.287449D+00 -0.101120D+00  0.000000D+00
     29 -0.525139D-03  0.000000D+00 -0.985923D-01 -0.992447D-01  0.000000D+00
     30  0.000000D+00 -0.840188D-03  0.000000D+00  0.000000D+00 -0.415262D-01
     31 -0.150784D-02  0.000000D+00 -0.419918D-02 -0.374341D-02  0.000000D+00
     32 -0.102396D-01  0.000000D+00 -0.355191D-02 -0.483335D-03  0.000000D+00
     33  0.000000D+00  0.609072D-02  0.000000D+00  0.000000D+00  0.665675D-02
     34 -0.215196D-02  0.000000D+00  0.632875D-02  0.258884D-01  0.000000D+00
     35  0.761680D-03  0.000000D+00 -0.464896D-02 -0.115236D-01  0.000000D+00
     36  0.000000D+00  0.538745D-02  0.000000D+00  0.000000D+00 -0.934374D-03
               16            17            18            19            20 
     16  0.719438D+00
     17 -0.374519D-01  0.705693D+00
     18  0.000000D+00  0.000000D+00  0.143883D+00
     19 -0.284175D+00 -0.522487D-01  0.000000D+00  0.656780D+00
     20 -0.119068D+00 -0.170499D+00  0.000000D+00  0.284201D-02  0.761483D+00
     21  0.000000D+00  0.000000D+00 -0.604897D-01  0.000000D+00  0.000000D+00
     22  0.316554D-02  0.553139D-02  0.000000D+00 -0.450857D-02  0.187821D-02
     23  0.856276D-02  0.102929D-01  0.000000D+00 -0.117525D-01  0.579613D-02
     24  0.000000D+00  0.000000D+00 -0.454870D-03  0.000000D+00  0.000000D+00
     25  0.534048D-02  0.192327D-02  0.000000D+00  0.219860D-02  0.847947D-03
     26 -0.271751D-01 -0.997739D-02  0.000000D+00  0.146321D-02 -0.489757D-02
     27  0.000000D+00  0.000000D+00  0.215105D-02  0.000000D+00  0.000000D+00
     28 -0.331957D-02  0.378152D-02  0.000000D+00 -0.166568D-01 -0.131245D-01
     29  0.321261D-02 -0.156924D-02  0.000000D+00  0.150595D-01  0.112236D-01
     30  0.000000D+00  0.000000D+00  0.799999D-02  0.000000D+00  0.000000D+00
     31 -0.262169D+00  0.123979D+00  0.000000D+00 -0.170019D-01  0.167202D-01
     32  0.123947D+00 -0.134247D+00  0.000000D+00 -0.127431D-01  0.116096D-01
     33  0.000000D+00  0.000000D+00 -0.435100D-01  0.000000D+00  0.000000D+00
     34  0.332414D-02 -0.285796D-01  0.000000D+00 -0.573147D-01 -0.168139D-01
     35  0.174978D-02 -0.894727D-02  0.000000D+00 -0.162436D-01 -0.344340D+00
     36  0.000000D+00  0.000000D+00  0.992629D-03  0.000000D+00  0.000000D+00
               21            22            23            24            25 
     21  0.118758D+00
     22  0.000000D+00  0.204812D-01
     23  0.000000D+00 -0.118275D+00 -0.262187D-01
     24  0.284981D-02  0.000000D+00  0.000000D+00  0.378778D-01
     25  0.000000D+00 -0.120186D-02 -0.159426D-02  0.000000D+00  0.281070D+00
     26  0.000000D+00  0.217875D-04  0.914440D-03  0.000000D+00  0.137015D+00
     27  0.876129D-02  0.000000D+00  0.000000D+00 -0.342930D-03  0.000000D+00
     28  0.000000D+00  0.656034D-03  0.933258D-03  0.000000D+00 -0.535566D-04
     29  0.000000D+00 -0.258114D-03  0.152106D-04  0.000000D+00 -0.151921D-03
     30  0.697442D-02  0.000000D+00  0.000000D+00 -0.149761D-02  0.000000D+00
     31  0.000000D+00 -0.218376D-04  0.845601D-05  0.000000D+00  0.493260D-03
     32  0.000000D+00 -0.277353D-04 -0.552095D-03  0.000000D+00 -0.504713D-03
     33  0.498794D-02  0.000000D+00  0.000000D+00 -0.871792D-03  0.000000D+00
     34  0.000000D+00 -0.123172D-02 -0.182730D-02  0.000000D+00  0.154134D-03
     35  0.000000D+00  0.551603D-03  0.996977D-03  0.000000D+00  0.255157D-03
     36 -0.299003D-01  0.000000D+00  0.000000D+00  0.628878D-03  0.000000D+00
               26            27            28            29            30 
     26  0.134817D+00
     27  0.000000D+00  0.241845D-01
     28 -0.336817D-04  0.000000D+00  0.299782D+00
     29  0.989966D-04  0.000000D+00  0.113166D+00  0.116703D+00
     30  0.000000D+00 -0.152155D-02  0.000000D+00  0.000000D+00  0.259932D-01
     31  0.327933D-03  0.000000D+00 -0.959005D-03  0.864824D-03  0.000000D+00
     32  0.117264D-02  0.000000D+00 -0.730519D-03  0.438970D-03  0.000000D+00
     33  0.000000D+00 -0.471433D-02  0.000000D+00  0.000000D+00 -0.516027D-03
     34 -0.127721D-02  0.000000D+00  0.792692D-03 -0.624472D-03  0.000000D+00
     35 -0.413459D-03  0.000000D+00  0.142419D-03  0.450293D-03  0.000000D+00
     36  0.000000D+00  0.485050D-03  0.000000D+00  0.000000D+00 -0.408358D-02
               31            32            33            34            35 
     31  0.275441D+00
     32 -0.134756D+00  0.138062D+00
     33  0.000000D+00  0.000000D+00  0.273814D-01
     34  0.119633D-02  0.781644D-03  0.000000D+00  0.556188D-01
     35 -0.201800D-04  0.562871D-03  0.000000D+00  0.184874D-01  0.362561D+00
     36  0.000000D+00  0.000000D+00 -0.318240D-02  0.000000D+00  0.000000D+00
               36 
     36  0.239126D-01
 FormGI is forming the generalized inverse of G from B-inverse, IUseBI=4.
 Leave Link  716 at Sat Aug 28 00:51:28 2021, MaxMem= 17179869184 cpu:         8.9
 (Enter /public3/home/sc51754/softwares/g09e01/l103.exe)

 GradGradGradGradGradGradGradGradGradGradGradGradGradGradGradGradGradGrad
 Berny optimization.
 Red2BG is reusing G-inverse.
 Internal  Forces:  Max     0.053339016 RMS     0.012551886
 Search for a saddle point.
 Step number   1 out of a maximum of  100
 All quantities printed in internal units (Hartrees-Bohrs-Radians)
 Second derivative matrix not updated -- analytic derivatives used.
 ITU=  0
 LST/QST climbing along tangent vector
     Eigenvalues ---   -0.06982   0.00080   0.00229   0.01580   0.01729
     Eigenvalues ---    0.02049   0.02255   0.02690   0.03017   0.04449
     Eigenvalues ---    0.06618   0.09928   0.10314   0.11655   0.12615
     Eigenvalues ---    0.14209   0.19380   0.19661   0.23610   0.29238
     Eigenvalues ---    0.33362   0.35226   0.35885   0.36441   0.36512
     Eigenvalues ---    0.42327   0.43547   0.47604   0.50293   0.55151
     Eigenvalues --- 1000.000001000.000001000.000001000.000001000.00000
     Eigenvalues --- 1000.000001000.000001000.000001000.000001000.00000
     Eigenvalues --- 1000.000001000.000001000.000001000.000001000.00000
     Eigenvalues --- 1000.000001000.000001000.000001000.000001000.00000
     Eigenvalues --- 1000.000001000.000001000.000001000.000001000.00000
     Eigenvalues --- 1000.000001000.000001000.00000
 Eigenvectors required to have negative eigenvalues:
                          R2        R5        A4        D22       A3
   1                    0.64800  -0.53018  -0.21300   0.18014   0.17856
                          D8        D21       D10       A1        D9
   1                   -0.16650   0.16403  -0.14862  -0.13917   0.13806
 QST in optimization variable space.
                        Tangent   TS vect  // Eig F  Eigenval
   1         R1        -0.04401  -0.04401  -0.03112  -0.06982
   2         R2         0.64800   0.64800  -0.00173   0.00080
   3         R3         0.02375   0.02375   0.00570   0.00229
   4         R4         0.01035   0.01035  -0.00055   0.01580
   5         R5        -0.53018  -0.53018   0.00054   0.01729
   6         R6         0.02212   0.02212  -0.00004   0.02049
   7         R7        -0.00950  -0.00950   0.00042   0.02255
   8         R8         0.00011   0.00011   0.00020   0.02690
   9         R9        -0.01176  -0.01176   0.00034   0.03017
  10         R10       -0.00170  -0.00170   0.00031   0.04449
  11         R11        0.01290   0.01290  -0.01859   0.06618
  12         R12        0.00039   0.00039  -0.00482   0.09928
  13         R13       -0.00084  -0.00084   0.00638   0.10314
  14         A1        -0.13917  -0.13917  -0.00055   0.11655
  15         A2         0.03444   0.03444   0.00181   0.12615
  16         A3         0.17856   0.17856  -0.02427   0.14209
  17         A4        -0.21300  -0.21300   0.00498   0.19380
  18         A5         0.00708   0.00708   0.00767   0.19661
  19         A6         0.03775   0.03775  -0.01691   0.23610
  20         A7        -0.04482  -0.04482   0.02079   0.29238
  21         A8         0.01638   0.01638  -0.01325   0.33362
  22         A9        -0.01521  -0.01521  -0.00039   0.35226
  23         A10       -0.00116  -0.00116  -0.00092   0.35885
  24         A11       -0.01307  -0.01307  -0.00043   0.36441
  25         A12        0.00182   0.00182  -0.00217   0.36512
  26         A13        0.01124   0.01124   0.00048   0.42327
  27         A14        0.00742   0.00742   0.00281   0.43547
  28         A15       -0.00217  -0.00217  -0.00134   0.47604
  29         A16       -0.00525  -0.00525   0.00134   0.50293
  30         A17       -0.00035  -0.00035   0.00293   0.55151
  31         A18       -0.00047  -0.00047  -0.000001000.00000
  32         A19        0.00082   0.00082  -0.000001000.00000
  33         D1         0.02104   0.02104  -0.000001000.00000
  34         D2         0.03230   0.03230  -0.000001000.00000
  35         D3        -0.01797  -0.01797  -0.000001000.00000
  36         D4        -0.02989  -0.02989  -0.000001000.00000
  37         D5        -0.01971  -0.01971  -0.000001000.00000
[...]
   R12        2.04635   0.00000   0.00000   0.00000   0.00000   2.04635
   R13        2.03891   0.00000   0.00000   0.00000   0.00000   2.03891
    A1        1.29437   0.00000   0.00000   0.00001   0.00001   1.29438
    A2        2.15410  -0.00000   0.00000  -0.00001  -0.00001   2.15409
    A3        1.30363  -0.00000   0.00000  -0.00000  -0.00000   1.30363
    A4        2.82546   0.00000   0.00000   0.00001   0.00001   2.82547
    A5        1.84675   0.00000   0.00000   0.00003   0.00003   1.84678
    A6        2.34446  -0.00000   0.00000  -0.00003  -0.00003   2.34443
    A7        2.09198  -0.00000   0.00000   0.00000   0.00000   2.09198
    A8        2.03572   0.00000   0.00000   0.00001   0.00001   2.03573
    A9        2.10753  -0.00000   0.00000  -0.00001  -0.00001   2.10752
   A10        2.13994  -0.00000   0.00000  -0.00000  -0.00000   2.13993
   A11        2.08265   0.00000   0.00000   0.00001   0.00001   2.08266
   A12        2.05521  -0.00000   0.00000  -0.00001  -0.00001   2.05521
   A13        2.14532  -0.00000   0.00000  -0.00000  -0.00000   2.14532
   A14        2.13413  -0.00000   0.00000  -0.00001  -0.00001   2.13413
   A15        2.07555   0.00000   0.00000   0.00000   0.00000   2.07555
   A16        2.07351   0.00000   0.00000   0.00000   0.00000   2.07351
   A17        2.06779   0.00000   0.00000   0.00000   0.00000   2.06779
   A18        2.10244  -0.00000   0.00000  -0.00000  -0.00000   2.10244
   A19        2.11295   0.00000   0.00000   0.00000   0.00000   2.11295
    D1        0.00006  -0.00000   0.00000  -0.00006  -0.00006   0.00000
    D2       -3.14150  -0.00000   0.00000  -0.00009  -0.00009   3.14159
    D3       -3.14147   0.00000   0.00000  -0.00012  -0.00012   3.14159
    D4        0.00010   0.00000   0.00000  -0.00010  -0.00010  -0.00000
    D5       -0.00007   0.00000   0.00000   0.00007   0.00007  -0.00000
    D6        3.14150   0.00000   0.00000   0.00009   0.00009  -3.14159
    D7       -0.00008  -0.00000   0.00000   0.00008   0.00008   0.00000
    D8        3.14152   0.00000   0.00000   0.00007   0.00007  -3.14159
    D9       -3.14109  -0.00000   0.00000  -0.00051  -0.00051   3.14159
   D10        0.00051  -0.00000   0.00000  -0.00052  -0.00052  -0.00000
   D11        3.14151  -0.00000   0.00000   0.00009   0.00009  -3.14159
   D12       -0.00006  -0.00000   0.00000   0.00006   0.00006   0.00000
   D13       -0.00006  -0.00000   0.00000   0.00006   0.00006   0.00000
   D14        3.14157   0.00000   0.00000   0.00003   0.00003  -3.14159
   D15        0.00000  -0.00000   0.00000  -0.00000  -0.00000  -0.00000
   D16       -3.14158   0.00000   0.00000  -0.00002  -0.00002   3.14159
   D17        3.14157  -0.00000   0.00000   0.00003   0.00003  -3.14159
   D18       -0.00001  -0.00000   0.00000   0.00001   0.00001   0.00000
   D19        0.00002  -0.00000   0.00000  -0.00002  -0.00002   0.00000
   D20       -3.14157   0.00000   0.00000  -0.00002  -0.00002  -3.14159
   D21       -3.14158  -0.00000   0.00000  -0.00002  -0.00002   3.14159
   D22        0.00001  -0.00000   0.00000  -0.00001  -0.00001  -0.00000
   D23        0.00001   0.00000   0.00000  -0.00001  -0.00001  -0.00000
   D24       -3.14158  -0.00000   0.00000  -0.00002  -0.00002  -3.14159
   D25        3.14159  -0.00000   0.00000   0.00000   0.00000   3.14159
   D26        0.00000  -0.00000   0.00000  -0.00000  -0.00000  -0.00000
         Item               Value     Threshold  Converged?
 Maximum Force            0.000012     0.000450     YES
 RMS     Force            0.000002     0.000300     YES
 Maximum Displacement     0.000154     0.001800     YES
 RMS     Displacement     0.000033     0.001200     YES
 Predicted change in Energy=-1.440034D-09
 Optimization completed.
    -- Stationary point found.
                           ----------------------------
                           !   Optimized Parameters   !
                           ! (Angstroms and Degrees)  !
 --------------------------                            --------------------------
 ! Name  Definition              Value          Derivative Info.                !
 --------------------------------------------------------------------------------
 ! R1    R(1,3)                  1.2743         -DE/DX =    0.0                 !
 ! R2    R(1,8)                  1.3683         -DE/DX =    0.0                 !
 ! R3    R(2,3)                  1.3565         -DE/DX =    0.0                 !
 ! R4    R(2,5)                  1.3303         -DE/DX =    0.0                 !
 ! R5    R(2,8)                  1.2705         -DE/DX =    0.0                 !
 ! R6    R(3,4)                  1.4023         -DE/DX =    0.0                 !
 ! R7    R(4,6)                  1.3731         -DE/DX =    0.0                 !
 ! R8    R(4,9)                  1.0791         -DE/DX =    0.0                 !
 ! R9    R(5,7)                  1.3734         -DE/DX =    0.0                 !
 ! R10   R(5,10)                 1.0819         -DE/DX =    0.0                 !
 ! R11   R(6,7)                  1.4009         -DE/DX =    0.0                 !
 ! R12   R(6,11)                 1.0829         -DE/DX =    0.0                 !
 ! R13   R(7,12)                 1.0789         -DE/DX =    0.0                 !
 ! A1    A(3,1,8)               74.1617         -DE/DX =    0.0                 !
 ! A2    A(3,2,5)              123.4208         -DE/DX =    0.0                 !
 ! A3    A(3,2,8)               74.6925         -DE/DX =    0.0                 !
 ! A4    A(5,2,8)              161.8867         -DE/DX =    0.0                 !
 ! A5    A(1,3,2)              105.8112         -DE/DX =    0.0                 !
 ! A6    A(1,3,4)              134.3274         -DE/DX =    0.0                 !
 ! A7    A(2,3,4)              119.8614         -DE/DX =    0.0                 !
 ! A8    A(3,4,6)              116.6384         -DE/DX =    0.0                 !
 ! A9    A(3,4,9)              120.7523         -DE/DX =    0.0                 !
 ! A10   A(6,4,9)              122.6093         -DE/DX =    0.0                 !
 ! A11   A(2,5,7)              119.3269         -DE/DX =    0.0                 !
 ! A12   A(2,5,10)             117.755          -DE/DX =    0.0                 !
 ! A13   A(7,5,10)             122.918          -DE/DX =    0.0                 !
 ! A14   A(4,6,7)              122.2767         -DE/DX =    0.0                 !
 ! A15   A(4,6,11)             118.92           -DE/DX =    0.0                 !
 ! A16   A(7,6,11)             118.8032         -DE/DX =    0.0                 !
 ! A17   A(5,7,6)              118.4758         -DE/DX =    0.0                 !
 ! A18   A(5,7,12)             120.4611         -DE/DX =    0.0                 !
 ! A19   A(6,7,12)             121.0631         -DE/DX =    0.0                 !
 ! D1    D(8,1,3,2)              0.0036         -DE/DX =    0.0                 !
 ! D2    D(8,1,3,4)            180.0053         -DE/DX =    0.0                 !
 ! D3    D(5,2,3,1)            180.0069         -DE/DX =    0.0                 !
 ! D4    D(5,2,3,4)              0.0056         -DE/DX =    0.0                 !
 ! D5    D(8,2,3,1)             -0.0039         -DE/DX =    0.0                 !
 ! D6    D(8,2,3,4)           -180.0053         -DE/DX =    0.0                 !
 ! D7    D(3,2,5,7)             -0.0046         -DE/DX =    0.0                 !
 ! D8    D(3,2,5,10)          -180.0042         -DE/DX =    0.0                 !
 ! D9    D(8,2,5,7)            180.029          -DE/DX =    0.0                 !
 ! D10   D(8,2,5,10)             0.0295         -DE/DX =    0.0                 !
 ! D11   D(1,3,4,6)           -180.005          -DE/DX =    0.0                 !
 ! D12   D(1,3,4,9)             -0.0033         -DE/DX =    0.0                 !
 ! D13   D(2,3,4,6)             -0.0032         -DE/DX =    0.0                 !
 ! D14   D(2,3,4,9)           -180.0015         -DE/DX =    0.0                 !
 ! D15   D(3,4,6,7)              0.0002         -DE/DX =    0.0                 !
 ! D16   D(3,4,6,11)           180.0009         -DE/DX =    0.0                 !
 ! D17   D(9,4,6,7)           -180.0015         -DE/DX =    0.0                 !
 ! D18   D(9,4,6,11)            -0.0008         -DE/DX =    0.0                 !
 ! D19   D(2,5,7,6)              0.0014         -DE/DX =    0.0                 !
 ! D20   D(2,5,7,12)          -179.9988         -DE/DX =    0.0                 !
 ! D21   D(10,5,7,6)           180.001          -DE/DX =    0.0                 !
 ! D22   D(10,5,7,12)            0.0007         -DE/DX =    0.0                 !
 ! D23   D(4,6,7,5)              0.0007         -DE/DX =    0.0                 !
 ! D24   D(4,6,7,12)          -179.9991         -DE/DX =    0.0                 !
 ! D25   D(11,6,7,5)           180.0            -DE/DX =    0.0                 !
 ! D26   D(11,6,7,12)            0.0002         -DE/DX =    0.0                 !
 --------------------------------------------------------------------------------
 GradGradGradGradGradGradGradGradGradGradGradGradGradGradGradGradGradGrad

 Leave Link  103 at Sat Aug 28 00:56:49 2021, MaxMem= 17179869184 cpu:        44.0
 (Enter /public3/home/sc51754/softwares/g09e01/l9999.exe)
 1\1\GINC-Q2414\Freq\RM06\Gen\C5H5N1O1\SC51754\28-Aug-2021\0\\#P Geom=A
 llCheck Guess=TCheck SCRF=Check GenChk RM06/ChkBas Freq\\HY_M06_PC2_OP
 T_FREQ\\0,1\O,0.0180997306,2.578728653,-0.0017996222\N,-0.8951275192,0
 .6887842896,-0.0000397\C,0.297332917,1.3354009576,-0.0010423057\C,1.49
 08506595,0.5991421326,-0.0010331159\C,-1.009952234,-0.6365118423,0.001
 0896705\C,1.3704273328,-0.7687001384,0.0000896098\C,0.1249203957,-1.41
 00522491,0.0011744123\H,-1.1844181768,1.9259217845,-0.0007042609\H,2.4
 473836465,1.0987379663,-0.0018474663\H,-2.0073075848,-1.0558271354,0.0
 018992947\H,2.2686924535,-1.3734783216,0.0001509318\H,0.0530828793,-2.
 486602497,0.0020625519\\Version=EM64L-G09RevE.01\State=1-A\HF=-323.378
 9536\RMSD=6.310e-09\RMSF=2.340e-05\ZeroPoint=0.0885667\Thermal=0.09358
 27\Dipole=-0.0358738,-1.3332837,0.00108\DipoleDeriv=-0.5128946,0.02371
 5,0.0000409,0.1683338,-1.7021619,0.0008898,-0.0000635,0.0009638,-0.392
 2045,-0.3385534,-0.3932663,0.0003269,0.2237834,-1.0346345,0.0005139,-0
 .0002016,0.0007336,-0.2261412,0.2126373,-0.4304623,0.0003484,-0.232801
 5,1.7745703,-0.0010051,0.0001951,-0.0008821,0.2472218,-0.0255875,0.511
 4096,-0.000456,-0.1121091,-0.6460007,0.0003988,0.0000241,0.0001043,-0.
 1876236,0.4821097,0.123256,-0.0002927,-0.5303467,0.4576598,-0.000104,0
 .0002335,-0.0003899,0.0405153,0.4026941,0.1697671,-0.0003372,0.2440084
 ,0.5019526,-0.0005369,-0.0004055,-0.0004993,-0.0492205,-0.6514059,-0.1
 710175,0.0003335,0.0946798,-0.1728682,-0.0000728,0.0001453,0.0000614,-
 0.1995441,0.4054098,0.2058993,-0.0002298,0.1769636,0.7415051,-0.000454
 7,-0.0001787,-0.0004638,0.232693,-0.0034704,-0.0366598,0.0000984,-0.04
 28502,0.0420006,0.0001016,0.0000978,0.0000908,0.1496892,-0.0177262,-0.
 061904,0.0001112,-0.0411307,0.0495354,0.0000717,0.0000902,0.0000854,0.
 1162108,-0.0164741,0.0678713,0.0000071,0.0720328,0.0421343,0.0000231,0
 .0000042,0.0000264,0.1140707,0.0632611,-0.0086083,0.0000494,-0.0205637
 ,-0.0536928,0.0001746,0.0000591,0.0001693,0.1543331\Polar=73.6367584,0
 .2305586,88.200096,-0.0171363,-0.0390239,37.2547294\PG=C01 [X(C5H5N1O1
 )]\NImag=1\\0.07998181,-0.02118914,0.64807592,0.00000803,-0.00041321,0
 .05393978,-0.00923017,-0.05733486,0.00006192,0.47861485,-0.15675556,-0
 .12651401,0.00018984,0.12301352,0.73344600,0.00013611,0.00014266,0.036
 60189,-0.00027540,-0.00054798,0.08971156,-0.10536208,0.06892215,-0.000
 03526,-0.25708854,-0.01567683,0.00008786,0.70655427,0.03274414,-0.4571
 1245,0.00026227,-0.07046769,-0.18756346,0.00011209,-0.12900258,0.75566
 505,-0.00000895,0.00024379,-0.07421853,0.00012784,0.00008485,-0.078928
 25,-0.00014351,-0.00035227,0.19215412,-0.00588977,0.02165956,-0.000007
 03,-0.05007038,-0.02272454,0.00004548,-0.26395633,0.08077366,0.0000259
 9,0.72104170,0.06182787,-0.02936288,0.00000179,0.01354145,0.06839365,-
 0.00005219,0.04195489,-0.14182379,0.00003171,0.05992042,0.70502659,-0.
 00003638,0.00001874,0.01349105,0.00001448,-0.00003559,0.00784630,0.000
 05729,0.00001634,-0.07402754,-0.00032371,-0.00048042,0.11547920,0.0087
 5953,-0.00257762,0.00000035,-0.13840805,-0.02737942,0.00006877,0.02896
 016,-0.02490780,0.00000806,-0.01132666,0.02206766,-0.00001267,0.775384
 97,0.02554853,0.00015067,-0.00000794,-0.01048266,-0.34753180,0.0002429
 5,-0.10101181,-0.02139539,0.00006520,0.02919060,-0.05425784,0.00002809
 ,0.02758603,0.67509047,-0.00002519,0.00000579,0.00695233,0.00005530,0.
 00025078,-0.05032279,0.00006563,0.00002455,-0.00022302,-0.00001903,0.0
 0003265,-0.00075975,-0.00032028,-0.00043624,0.14584608,-0.02147273,0.0
 0286515,0.00001071,-0.01888763,-0.04729290,0.00004338,0.05277813,0.025
 58301,-0.00004355,-0.13226716,0.00839704,0.00002759,-0.06003031,0.0395
 3212,-0.00000139,0.68927439,-0.01952968,0.00952959,0.00000666,-0.02125
 759,-0.05530822,0.00004865,0.07343522,-0.04479519,0.00000126,-0.051326
 47,-0.37622499,0.00027301,-0.01390251,0.06623767,-0.00004221,-0.040153
 64,0.71103421,0.00002706,-0.00000457,0.00530392,0.00002257,0.00006002,
 -0.00619401,-0.00008057,0.00002274,0.00088933,0.00007442,0.00024728,-0
 .05541741,0.00004160,-0.00006514,0.00610563,-0.00022020,-0.00042469,0.
 14548257,0.02261074,-0.00488200,-0.00000879,0.03450703,0.08761591,-0.0
 0007915,-0.07767572,0.01033926,0.00002444,0.02688098,-0.07487979,0.000
 05021,-0.29462899,0.06955087,0.00005446,-0.26552274,-0.03838395,0.0001
 2543,0.64447514,-0.00708822,-0.00832471,0.00000746,0.02603446,-0.06388
 299,0.00005143,0.01358273,0.00301934,-0.00001510,-0.03273318,-0.019402
 36,0.00003672,0.13650006,-0.18838733,0.00003501,-0.10604456,-0.1622377
 6,0.00012892,-0.01783362,0.76055597,-0.00000527,0.00000699,-0.00227524
 ,-0.00002980,0.00002479,0.01734306,0.00002193,-0.00001242,-0.00859597,
 0.00001727,0.00005592,0.00794889,-0.00000075,0.00006579,-0.06413060,0.
 00017844,0.00009781,-0.06162661,-0.00023248,-0.00050500,0.11388458,0.0
 2651694,-0.00802563,-0.00002576,-0.03357016,0.05752083,-0.00003493,-0.
 07058450,0.09036244,-0.00001780,0.00247551,-0.01198265,0.00001001,-0.0
 0835024,-0.00949577,0.00000900,0.00425199,0.00629842,-0.00000704,-0.00
 522858,0.00107683,0.00000353,0.08635897,0.08619651,-0.03434486,-0.0000
 4589,0.02463117,-0.00254008,-0.00003523,0.03153888,0.08850123,-0.00006
 520,0.00921851,-0.02418980,0.00001826,-0.01673043,-0.02180754,0.000024
 80,0.01150765,0.01525503,-0.00001725,-0.01742428,0.00621454,0.00000541
 ,-0.12662081,-0.02819108,-0.00009326,0.00000045,-0.03580022,-0.0000087
 1,-0.00005183,-0.02911981,0.00002521,-0.00009187,0.02204445,-0.0000053
 5,0.00002769,0.00633591,0.00000940,0.00001750,-0.00653384,-0.00001071,
 -0.00001501,-0.00067188,0.00001858,-0.00000039,0.00469181,0.00006375,0
 .00011666,0.04168538,0.00236278,0.00067252,-0.00000265,-0.00347790,0.0
 0323741,0.00000211,-0.01642091,-0.01652761,0.00002041,-0.28824262,-0.1
 1734912,0.00020619,-0.00022712,0.00234396,-0.00000191,0.00305390,0.000
 87435,-0.00000139,0.00264623,0.00048409,0.00000230,-0.00149620,-0.0012
 5684,0.00000144,0.30125628,-0.00252140,0.00023673,-0.00000063,0.004843
 66,-0.00092223,0.00000294,0.01471544,0.01247930,-0.00001485,-0.1180623
 5,-0.11621190,0.00011826,0.00052518,-0.00168416,0.00000076,-0.02822424
 ,-0.00894393,0.00002057,0.00116459,-0.00463136,0.00000996,0.00072008,0
 .00083849,-0.00000117,0.12784422,0.11773414,0.,-0.00000209,-0.00222827
 ,0.00000101,0.00000435,0.00596576,-0.00000430,-0.00000057,0.00158944,0
 .00020676,0.00011691,-0.03126736,-0.00000036,-0.00000062,-0.00041311,0
 .00002143,0.00000829,0.00136776,0.00000161,0.00001040,0.00889291,-0.00
 000003,-0.00000036,-0.00031535,-0.00022375,-0.00013076,0.02259263,-0.0
 0073033,-0.00040436,0.00000078,0.00163069,-0.00530460,0.00000324,0.003
 37342,0.00152674,0.00000176,0.00007798,0.00067109,-0.00000084,-0.30209
 708,-0.09625921,0.00020083,-0.00270771,0.00358910,0.00000231,-0.014146
 51,-0.01211892,0.00001945,0.00057964,0.00088984,-0.00000200,-0.0000671
 2,-0.00002690,-0.00000078,0.31420227,0.00007052,-0.00212225,0.00000150
 ,-0.03563476,-0.01648041,0.00002996,0.00296754,-0.00117010,0.00000759,
 -0.00025834,-0.00063039,0.00000011,-0.09301034,-0.09360124,0.00008618,
 0.00318206,-0.00184879,0.00000640,0.01496392,0.01184757,-0.00001112,-0
 .00022828,-0.00061401,-0.00000144,-0.00017991,0.00016761,-0.00000148,0
 .10796298,0.10356789,0.00000016,0.00000263,0.00026793,0.00002880,0.000
 01634,0.00025356,-0.00000054,0.00000639,0.00921135,-0.00000016,-0.0000
 0032,-0.00057421,0.00019836,0.00008692,-0.04152586,0.00000254,0.000006
 12,0.00797412,-0.00000237,0.00000179,0.00678960,-0.00000097,-0.0000010
 5,-0.00244182,-0.00000060,-0.00000148,-0.00175880,-0.00022302,-0.00011
 331,0.02633518,0.00009010,0.00024268,-0.00000082,0.00060232,-0.0012606
 1,0.00000035,0.00154365,-0.00182860,0.00000559,0.00561731,-0.00249994,
 0.00000221,-0.00447749,-0.00294435,0.00000722,-0.25060711,0.12912821,-
 0.00000602,-0.01698460,0.01726032,-0.00000352,0.00002642,0.00003842,-0
 .00000052,0.00054896,0.00028370,-0.00000278,-0.00086261,0.00084920,-0.
 00000051,0.26340309,0.00172955,-0.00030409,-0.00000170,-0.00049373,-0.
 00044784,-0.00000006,-0.00124162,-0.00572269,0.00001341,0.02630156,-0.
 01217676,0.00000227,-0.00336833,-0.00036722,0.00000663,0.12889282,-0.1
 4436043,0.00001994,-0.01215063,0.01125490,0.00000061,-0.00011092,-0.00
 048750,-0.00000037,-0.00031791,0.00132547,-0.00000476,-0.00065421,0.00
 044825,-0.00000048,-0.13921202,0.15031104,-0.00000226,-0.00000045,-0.0
 0130031,-0.00000014,0.00000017,-0.00091962,0.00000511,0.00001330,0.010
 72187,-0.00002068,0.00001500,0.00596863,0.00000761,0.00000639,0.006033
 77,-0.00000580,0.00002007,-0.04323387,0.00001967,-0.00001297,0.0049467
 6,-0.00000020,-0.00000018,-0.00095042,-0.00000224,-0.00000503,-0.00502
 889,0.00000064,-0.00000116,-0.00055516,0.00000074,-0.00003227,0.027458
 73,0.00236319,0.00005153,-0.00000149,-0.00462205,0.00500679,0.00000217
 ,-0.00212156,0.00140504,-0.00000029,-0.00434055,-0.00166891,0.00000562
 ,0.00644129,0.02644168,-0.00002464,0.00213698,-0.02877147,0.00002184,-
 0.05693298,-0.01911999,0.00002889,-0.00097980,-0.00198860,0.00000216,0
 .00006372,-0.00126197,0.00000118,0.00074737,-0.00068459,-0.00000167,0.
 00109995,0.00062545,-0.00000244,0.05614444,-0.00103312,0.00009235,-0.0
 0000017,0.00360703,-0.00064863,0.00000478,-0.00018401,-0.00008185,-0.0
 0000041,-0.00195943,0.00086048,0.00000420,-0.00480249,-0.01244630,0.00
 001130,0.00175550,-0.00833720,0.00000578,-0.01808029,-0.34602581,0.000
 26125,0.00048547,0.00136559,-0.00000021,0.00017485,-0.00038817,0.00000
 069,0.00012844,0.00043586,-0.00000355,-0.00005700,0.00052687,-0.000002
 88,0.01996505,0.36464682,-0.00000006,-0.00000073,-0.00073433,0.0000021
 1,0.00000426,0.00776236,0.00000116,-0.00000057,-0.00061725,0.00000604,
 0.00000397,0.00497628,-0.00000009,-0.00000291,-0.00102885,-0.00000243,
 0.00002003,0.00002043,0.00002838,0.00026173,-0.02786918,0.00000044,0.0
 0000004,0.00107581,0.00000009,0.00000143,0.00060328,-0.00000236,-0.000
 00323,-0.00397589,-0.00000195,-0.00000321,-0.00314148,-0.00003134,-0.0
 0028080,0.02292882\\-0.00006072,0.00000486,-0.00000341,-0.00000936,-0.
 00001378,-0.00000843,-0.00002166,-0.00001113,0.00000292,-0.00001103,0.
 00002455,0.00000084,0.00001075,-0.00002506,0.00000126,0.00001675,0.000
 02243,0.00000032,0.00002753,-0.00000279,0.00000010,-0.00003106,-0.0000
 3415,0.00000620,-0.00002102,0.00004391,-0.00000012,0.00002150,-0.00004
 543,0.00000057,0.00002805,0.00004032,-0.00000013,0.00005027,-0.0000037
 2,-0.00000011\\\@


 DEFINE YOUR TERMS, YOU WILL PERMIT ME AGAIN TO SAY, 
 OR WE SHALL NEVER UNDERSTAND ONE ANOTHER.

                                    -- VOLTAIRE
 Job cpu time:       0 days  0 hours 50 minutes 20.9 seconds.
 File lengths (MBytes):  RWF=     81 Int=      0 D2E=      0 Chk=      7 Scr=      1
 Normal termination of Gaussian 09 at Sat Aug 28 00:56:49 2021.
