 Entering Gaussian System, Link 0=g09
 Initial command:
 /gpfs/share/home/1801110325/software/g09e01/l1.exe "./Gau-16632.inp" -scrdir="./"
 Entering Link 1 = /gpfs/share/home/1801110325/software/g09e01/l1.exe PID=     16634.
  
 Copyright (c) 1988,1990,1992,1993,1995,1998,2003,2009,2015,
            Gaussian, Inc.  All Rights Reserved.
  
 This is part of the Gaussian(R) 09 program.  It is based on
 the Gaussian(R) 03 system (copyright 2003, Gaussian, Inc.),
 the Gaussian(R) 98 system (copyright 1998, Gaussian, Inc.),
 the Gaussian(R) 94 system (copyright 1995, Gaussian, Inc.),
 the Gaussian 92(TM) system (copyright 1992, Gaussian, Inc.),
 the Gaussian 90(TM) system (copyright 1990, Gaussian, Inc.),
 the Gaussian 88(TM) system (copyright 1988, Gaussian, Inc.),
 the Gaussian 86(TM) system (copyright 1986, Carnegie Mellon
 University), and the Gaussian 82(TM) system (copyright 1983,
 Carnegie Mellon University). Gaussian is a federally registered
 trademark of Gaussian, Inc.
  
 This software contains proprietary and confidential information,
 including trade secrets, belonging to Gaussian, Inc.
  
 This software is provided under written license and may be
 used, copied, transmitted, or stored only in accord with that
 written license.
  
 The following legend is applicable only to US Government
 contracts under FAR:
  
                    RESTRICTED RIGHTS LEGEND
  
 Use, reproduction and disclosure by the US Government is
 subject to restrictions as set forth in subparagraphs (a)
 and (c) of the Commercial Computer Software - Restricted
 Rights clause in FAR 52.227-19.
  
 Gaussian, Inc.
 340 Quinnipiac St., Bldg. 40, Wallingford CT 06492
  
  
 ---------------------------------------------------------------
 Warning -- This program may not be used in any manner that
 competes with the business of Gaussian, Inc. or will provide
 assistance to any competitor of Gaussian, Inc.  The licensee
 of this program is prohibited from giving any competitor of
 Gaussian, Inc. access to this program.  By using this program,
 the user acknowledges that Gaussian, Inc. is engaged in the
 business of creating and licensing software in the field of
 computational chemistry and represents and warrants to the
 licensee that it is not a competitor of Gaussian, Inc. and that
 it will not use this program in any manner prohibited above.
 ---------------------------------------------------------------
  

 Cite this work as:
 Gaussian 09, Revision E.01,
 M. J. Frisch, G. W. Trucks, H. B. Schlegel, G. E. Scuseria, 
 M. A. Robb, J. R. Cheeseman, G. Scalmani, V. Barone, B. Mennucci, 
 G. A. Petersson, H. Nakatsuji, M. Caricato, X. Li, H. P. Hratchian, 
 A. F. Izmaylov, J. Bloino, G. Zheng, J. L. Sonnenberg, M. Hada, 
 M. Ehara, K. Toyota, R. Fukuda, J. Hasegawa, M. Ishida, T. Nakajima, 
 Y. Honda, O. Kitao, H. Nakai, T. Vreven, J. A. Montgomery, Jr., 
 J. E. Peralta, F. Ogliaro, M. Bearpark, J. J. Heyd, E. Brothers, 
 K. N. Kudin, V. N. Staroverov, T. Keith, R. Kobayashi, J. Normand, 
 K. Raghavachari, A. Rendell, J. C. Burant, S. S. Iyengar, J. Tomasi, 
 M. Cossi, N. Rega, J. M. Millam, M. Klene, J. E. Knox, J. B. Cross, 
 V. Bakken, C. Adamo, J. Jaramillo, R. Gomperts, R. E. Stratmann, 
 O. Yazyev, A. J. Austin, R. Cammi, C. Pomelli, J. W. Ochterski, 
 R. L. Martin, K. Morokuma, V. G. Zakrzewski, G. A. Voth, 
 P. Salvador, J. J. Dannenberg, S. Dapprich, A. D. Daniels, 
 O. Farkas, J. B. Foresman, J. V. Ortiz, J. Cioslowski, 
 and D. J. Fox, Gaussian, Inc., Wallingford CT, 2013.
 
 ******************************************
 Gaussian 09:  EM64L-G09RevE.01 30-Nov-2015
                 3-Sep-2021 
 ******************************************
 %nprocshared=6
 Will use up to    6 processors via shared memory.
 %mem=18GB
 %oldchk=HY_H2O_TPSSh_PC2_OPT_FREQ.chk
 %chk=HY_H2O_G3.chk
 Copying data from "HY_H2O_TPSSh_PC2_OPT_FREQ.chk" to current chk file "HY_H2O_G3.chk".
 ---------------------
 #p G3 geom=checkpoint
 ---------------------
 1/18=20,19=15,29=2,38=1/1,3;
 2/9=110,12=2,40=1/2;
 3/5=33,7=1,11=9,14=-4,16=1,25=1,30=1,71=1/1,2,3;
 4//1;
 5/5=2,38=5/2;
 6/7=2,8=2,9=2,10=2,28=1/1;
 7//1,2,3,16;
 1/18=20,19=15/3(2);
 2/9=110/2;
 99//99;
 2/9=110/2;
 3/5=33,7=1,11=9,14=-2,16=1,25=1,30=1,71=1/1,2,3;
 4/5=5,16=3,69=1/1;
 5/5=2,38=5/2;
 7//1,2,3,16;
 1/18=20,19=15/3(-5);
 2/9=110/2;
 6/7=2,8=2,9=2,10=2,19=2,28=1/1;
 99/9=1/99;
 Leave Link    1 at Fri Sep  3 00:21:35 2021, MaxMem=  2415919104 cpu:         3.0
 (Enter /gpfs/share/home/1801110325/software/g09e01/l101.exe)
 ---------
 HY_H2O_G3
 ---------
 Structure from the checkpoint file:  "HY_H2O_G3.chk"
 Charge =  0 Multiplicity = 1
 Redundant internal coordinates found in file.
 O,0,1.2329033136,1.4380374397,-0.005433633
 N,0,0.318162333,-0.6744104061,-0.0089477368
 C,0,0.1497894145,0.6512052499,-0.0011329606
 C,0,-1.1165668967,1.2535832475,0.010953624
 C,0,-0.7751185055,-1.4521061254,-0.0079380149
 C,0,-2.2269273201,0.4342951324,0.0131363088
 C,0,-2.0639938488,-0.9536878867,0.0031431074
 H,0,2.0430008037,0.8684460549,-0.0206009333
 H,0,-1.1918839042,2.3318534001,0.0164735562
 H,0,-0.589936705,-2.5203239195,-0.0174264089
 H,0,-3.218891257,0.8692052584,0.0214155892
 H,0,-2.9126587081,-1.6234911528,0.002969663
 O,0,3.0639888446,-0.571519077,-0.0921959698
 H,0,3.5313743245,-0.8396559737,0.7057520719
 H,0,2.1692451115,-0.9852592418,-0.0407262632
 Recover connectivity data from disk.
 NAtoms=     15 NQM=       15 NQMF=       0 NMMI=      0 NMMIF=      0
                NMic=       0 NMicF=      0.
                    Isotopes and Nuclear Properties:
 (Nuclear quadrupole moments (NQMom) in fm**2, nuclear magnetic moments (NMagM)
  in nuclear magnetons)

  Atom         1           2           3           4           5           6           7           8           9          10
 IAtWgt=          16          14          12          12          12          12          12           1           1           1
 AtmWgt=  15.9949146  14.0030740  12.0000000  12.0000000  12.0000000  12.0000000  12.0000000   1.0078250   1.0078250   1.0078250
 NucSpn=           0           2           0           0           0           0           0           1           1           1
 AtZEff=  -5.6000000  -4.5500000  -3.6000000  -3.6000000  -3.6000000  -3.6000000  -3.6000000  -1.0000000  -1.0000000  -1.0000000
 NQMom=    0.0000000   2.0440000   0.0000000   0.0000000   0.0000000   0.0000000   0.0000000   0.0000000   0.0000000   0.0000000
 NMagM=    0.0000000   0.4037610   0.0000000   0.0000000   0.0000000   0.0000000   0.0000000   2.7928460   2.7928460   2.7928460
 AtZNuc=   8.0000000   7.0000000   6.0000000   6.0000000   6.0000000   6.0000000   6.0000000   1.0000000   1.0000000   1.0000000

  Atom        11          12          13          14          15
 IAtWgt=           1           1          16           1           1
 AtmWgt=   1.0078250   1.0078250  15.9949146   1.0078250   1.0078250
 NucSpn=           1           1           0           1           1
 AtZEff=  -1.0000000  -1.0000000  -5.6000000  -1.0000000  -1.0000000
 NQMom=    0.0000000   0.0000000   0.0000000   0.0000000   0.0000000
 NMagM=    2.7928460   2.7928460   0.0000000   2.7928460   2.7928460
 AtZNuc=   1.0000000   1.0000000   8.0000000   1.0000000   1.0000000
 Leave Link  101 at Fri Sep  3 00:21:36 2021, MaxMem=  2415919104 cpu:         2.2
 (Enter /gpfs/share/home/1801110325/software/g09e01/l103.exe)

 GradGradGradGradGradGradGradGradGradGradGradGradGradGradGradGradGradGrad
 Berny optimization.
 Initialization pass.
                           ----------------------------
                           !    Initial Parameters    !
                           ! (Angstroms and Degrees)  !
 --------------------------                            --------------------------
 ! Name  Definition              Value          Derivative Info.                !
 --------------------------------------------------------------------------------
 ! R1    R(1,3)                  1.3388         estimate D2E/DX2                !
 ! R2    R(1,8)                  0.9904         estimate D2E/DX2                !
 ! R3    R(2,3)                  1.3363         estimate D2E/DX2                !
 ! R4    R(2,5)                  1.3417         estimate D2E/DX2                !
 ! R5    R(2,15)                 1.8773         estimate D2E/DX2                !
 ! R6    R(3,4)                  1.4024         estimate D2E/DX2                !
 ! R7    R(4,6)                  1.3799         estimate D2E/DX2                !
 ! R8    R(4,9)                  1.0809         estimate D2E/DX2                !
 ! R9    R(5,7)                  1.3819         estimate D2E/DX2                !
 ! R10   R(5,10)                 1.0842         estimate D2E/DX2                !
 ! R11   R(6,7)                  1.3975         estimate D2E/DX2                !
 ! R12   R(6,11)                 1.0831         estimate D2E/DX2                !
 ! R13   R(7,12)                 1.0811         estimate D2E/DX2                !
 ! R14   R(8,13)                 1.7666         estimate D2E/DX2                !
 ! R15   R(8,15)                 1.8581         estimate D2E/DX2                !
 ! R16   R(13,14)                0.9628         estimate D2E/DX2                !
 ! R17   R(13,15)                0.9871         estimate D2E/DX2                !
 ! A1    A(3,1,8)              108.8923         estimate D2E/DX2                !
 ! A2    A(3,2,5)              118.1863         estimate D2E/DX2                !
 ! A3    A(3,2,15)             106.7744         estimate D2E/DX2                !
 ! A4    A(5,2,15)             135.0344         estimate D2E/DX2                !
 ! A5    A(1,3,2)              118.7561         estimate D2E/DX2                !
 ! A6    A(1,3,4)              118.5644         estimate D2E/DX2                !
 ! A7    A(2,3,4)              122.6795         estimate D2E/DX2                !
 ! A8    A(3,4,6)              118.1382         estimate D2E/DX2                !
 ! A9    A(3,4,9)              119.4363         estimate D2E/DX2                !
 ! A10   A(6,4,9)              122.4254         estimate D2E/DX2                !
 ! A11   A(2,5,7)              123.4315         estimate D2E/DX2                !
 ! A12   A(2,5,10)             115.5895         estimate D2E/DX2                !
 ! A13   A(7,5,10)             120.979          estimate D2E/DX2                !
 ! A14   A(4,6,7)              119.7252         estimate D2E/DX2                !
 ! A15   A(4,6,11)             119.9035         estimate D2E/DX2                !
 ! A16   A(7,6,11)             120.3713         estimate D2E/DX2                !
 ! A17   A(5,7,6)              117.8391         estimate D2E/DX2                !
 ! A18   A(5,7,12)             120.5749         estimate D2E/DX2                !
 ! A19   A(6,7,12)             121.586          estimate D2E/DX2                !
 ! A20   A(1,8,13)             160.4045         estimate D2E/DX2                !
 ! A21   A(1,8,15)             129.0117         estimate D2E/DX2                !
 ! A22   A(8,13,14)            118.2903         estimate D2E/DX2                !
 ! A23   A(14,13,15)           106.2639         estimate D2E/DX2                !
 ! A24   A(2,15,8)              76.5633         estimate D2E/DX2                !
 ! A25   A(2,15,13)            145.6146         estimate D2E/DX2                !
 ! D1    D(8,1,3,2)              0.3812         estimate D2E/DX2                !
 ! D2    D(8,1,3,4)           -179.5976         estimate D2E/DX2                !
 ! D3    D(3,1,8,13)             4.358          estimate D2E/DX2                !
 ! D4    D(3,1,8,15)            -0.0179         estimate D2E/DX2                !
 ! D5    D(5,2,3,1)           -179.8347         estimate D2E/DX2                !
 ! D6    D(5,2,3,4)              0.1433         estimate D2E/DX2                !
 ! D7    D(15,2,3,1)            -0.5182         estimate D2E/DX2                !
 ! D8    D(15,2,3,4)           179.4597         estimate D2E/DX2                !
 ! D9    D(3,2,5,7)             -0.1188         estimate D2E/DX2                !
 ! D10   D(3,2,5,10)           179.8266         estimate D2E/DX2                !
 ! D11   D(15,2,5,7)          -179.1926         estimate D2E/DX2                !
 ! D12   D(15,2,5,10)            0.7528         estimate D2E/DX2                !
 ! D13   D(3,2,15,8)             0.3488         estimate D2E/DX2                !
 ! D14   D(3,2,15,13)           -3.9337         estimate D2E/DX2                !
 ! D15   D(5,2,15,8)           179.4962         estimate D2E/DX2                !
 ! D16   D(5,2,15,13)          175.2137         estimate D2E/DX2                !
 ! D17   D(1,3,4,6)            179.8979         estimate D2E/DX2                !
 ! D18   D(1,3,4,9)              0.002          estimate D2E/DX2                !
 ! D19   D(2,3,4,6)             -0.08           estimate D2E/DX2                !
 ! D20   D(2,3,4,9)           -179.976          estimate D2E/DX2                !
 ! D21   D(3,4,6,7)             -0.012          estimate D2E/DX2                !
 ! D22   D(3,4,6,11)          -179.9416         estimate D2E/DX2                !
 ! D23   D(9,4,6,7)            179.8807         estimate D2E/DX2                !
 ! D24   D(9,4,6,11)            -0.0489         estimate D2E/DX2                !
 ! D25   D(2,5,7,6)              0.0309         estimate D2E/DX2                !
 ! D26   D(2,5,7,12)           179.9695         estimate D2E/DX2                !
 ! D27   D(10,5,7,6)          -179.9117         estimate D2E/DX2                !
 ! D28   D(10,5,7,12)            0.0269         estimate D2E/DX2                !
 ! D29   D(4,6,7,5)              0.0351         estimate D2E/DX2                !
 ! D30   D(4,6,7,12)          -179.9028         estimate D2E/DX2                !
 ! D31   D(11,6,7,5)           179.9643         estimate D2E/DX2                !
 ! D32   D(11,6,7,12)            0.0264         estimate D2E/DX2                !
 ! D33   D(1,8,13,14)         -109.3848         estimate D2E/DX2                !
 ! D34   D(1,8,15,2)            -0.2225         estimate D2E/DX2                !
 ! D35   D(8,13,14,15)          86.5011         estimate D2E/DX2                !
 ! D36   D(14,13,15,2)         121.0469         estimate D2E/DX2                !
 --------------------------------------------------------------------------------
 Trust Radius=3.00D-01 FncErr=1.00D-07 GrdErr=1.00D-07
 Number of steps in this run=     88 maximum allowed number of steps=    100.
 GradGradGradGradGradGradGradGradGradGradGradGradGradGradGradGradGradGrad

 Leave Link  103 at Fri Sep  3 00:21:36 2021, MaxMem=  2415919104 cpu:         0.3
 (Enter /gpfs/share/home/1801110325/software/g09e01/l202.exe)
                          Input orientation:                          
 ---------------------------------------------------------------------
 Center     Atomic      Atomic             Coordinates (Angstroms)
 Number     Number       Type             X           Y           Z
 ---------------------------------------------------------------------
      1          8           0        1.232903    1.438037   -0.005434
      2          7           0        0.318162   -0.674410   -0.008948
      3          6           0        0.149789    0.651205   -0.001133
      4          6           0       -1.116567    1.253583    0.010954
      5          6           0       -0.775119   -1.452106   -0.007938
      6          6           0       -2.226927    0.434295    0.013136
      7          6           0       -2.063994   -0.953688    0.003143
      8          1           0        2.043001    0.868446   -0.020601
      9          1           0       -1.191884    2.331853    0.016474
     10          1           0       -0.589937   -2.520324   -0.017426
     11          1           0       -3.218891    0.869205    0.021416
     12          1           0       -2.912659   -1.623491    0.002970
     13          8           0        3.063989   -0.571519   -0.092196
     14          1           0        3.531374   -0.839656    0.705752
     15          1           0        2.169245   -0.985259   -0.040726
 ---------------------------------------------------------------------
                    Distance matrix (angstroms):
                    1          2          3          4          5
     1  O    0.000000
     2  N    2.301999   0.000000
     3  C    1.338753   1.336289   0.000000
     4  C    2.356757   2.403332   1.402378   0.000000
     5  C    3.519245   1.341669   2.297699   2.727214   0.000000
     6  C    3.602537   2.776184   2.386637   1.379905   2.380484
     7  C    4.073077   2.398502   2.734326   2.402025   1.381935
     8  H    0.990415   2.314219   1.905734   3.183111   3.650605
     9  H    2.584372   3.364299   2.150576   1.080911   3.806920
    10  H    4.357925   2.057210   3.256694   3.810580   1.084192
    11  H    4.488069   3.859329   3.375802   2.137200   3.370664
    12  H    5.153515   3.367358   3.814820   3.391691   2.144428
    13  O    2.720059   2.749014   3.161630   4.562750   3.939705
    14  H    3.313101   3.295881   3.762641   5.144682   4.407985
    15  H    2.598143   1.877270   2.599574   3.976386   2.981325
                    6          7          8          9         10
     6  C    0.000000
     7  C    1.397549   0.000000
     8  H    4.292075   4.493122   0.000000
     9  H    2.161493   3.399343   3.550692   0.000000
    10  H    3.377935   2.151189   4.291402   4.889490   0.000000
    11  H    1.083147   2.158023   5.262060   2.499625   4.289734
    12  H    2.169059   1.081142   5.546969   4.313467   2.489932
    13  O    5.386701   5.143088   1.766647   5.153041   4.141812
    14  H    5.938073   5.640462   2.379171   5.730859   4.509195
    15  H    4.619997   4.233584   1.858108   4.722679   3.157539
                   11         12         13         14         15
    11  H    0.000000
    12  H    2.511504   0.000000
    13  O    6.446951   6.069268   0.000000
    14  H    6.996757   6.529461   0.962844   0.000000
    15  H    5.698676   5.122011   0.987115   1.560073   0.000000
 Stoichiometry    C5H7NO2
 Framework group  C1[X(C5H7NO2)]
 Deg. of freedom    39
 Full point group                 C1      NOp   1
 RotChk:  IX=0 Diff= 1.16D-15
 Largest Abelian subgroup         C1      NOp   1
 Largest concise Abelian subgroup C1      NOp   1
                         Standard orientation:                         
 ---------------------------------------------------------------------
 Center     Atomic      Atomic             Coordinates (Angstroms)
 Number     Number       Type             X           Y           Z
 ---------------------------------------------------------------------
      1          8           0        1.239641    1.430334   -0.004238
      2          7           0        0.309240   -0.675265   -0.006459
      3          6           0        0.150707    0.651574   -0.000636
      4          6           0       -1.111157    1.263355    0.008655
      5          6           0       -0.789788   -1.444818   -0.006176
      6          6           0       -2.227575    0.452339    0.010138
      7          6           0       -2.074942   -0.936828    0.002208
      8          1           0        2.045508    0.854723   -0.017377
      9          1           0       -1.178471    2.342161    0.012653
     10          1           0       -0.612532   -2.514393   -0.013981
     11          1           0       -3.216293    0.894614    0.016275
     12          1           0       -2.928557   -1.600309    0.001557
     13          8           0        3.055883   -0.592878   -0.085476
     14          1           0        3.520002   -0.863431    0.713562
     15          1           0        2.158010   -0.999894   -0.034891
 ---------------------------------------------------------------------
 Rotational constants (GHZ):      4.0317891      1.4358247      1.0615004
 Leave Link  202 at Fri Sep  3 00:21:36 2021, MaxMem=  2415919104 cpu:         0.8
 (Enter /gpfs/share/home/1801110325/software/g09e01/l301.exe)
 Standard basis: GTBas1 (6D, 7F)
 Ernie: Thresh=  0.10000D-02 Tol=  0.10000D-05 Strict=F.
 There are   134 symmetry adapted cartesian basis functions of A   symmetry.
 There are   134 symmetry adapted basis functions of A   symmetry.
   134 basis functions,   252 primitive gaussians,   134 cartesian basis functions
    30 alpha electrons       30 beta electrons
       nuclear repulsion energy       358.3902942940 Hartrees.
 IExCor=    0 DFT=F Ex=HF Corr=None ExCW=0 ScaHFX=  1.000000
 ScaDFX=  1.000000  1.000000  1.000000  1.000000 ScalE2=  1.000000  1.000000
 IRadAn=      0 IRanWt=     -1 IRanGd=            0 ICorTp=0 IEmpDi=  4
 NAtoms=   15 NActive=   15 NUniq=   15 SFac= 1.00D+00 NAtFMM=   60 NAOKFM=F Big=F
 Integral buffers will be    131072 words long.
 Raffenetti 1 integral format.
 Two-electron integral symmetry is turned on.
 Leave Link  301 at Fri Sep  3 00:21:36 2021, MaxMem=  2415919104 cpu:         2.2
 (Enter /gpfs/share/home/1801110325/software/g09e01/l302.exe)
 NPDir=0 NMtPBC=     1 NCelOv=     1 NCel=       1 NClECP=     1 NCelD=      1
         NCelK=      1 NCelE2=     1 NClLst=     1 CellRange=     0.0.
 One-electron integrals computed using PRISM.
 NBasis=   134 RedAO= T EigKep=  7.54D-04  NBF=   134
 NBsUse=   134 1.00D-06 EigRej= -1.00D+00 NBFU=   134
 Leave Link  302 at Fri Sep  3 00:21:37 2021, MaxMem=  2415919104 cpu:         0.9
 (Enter /gpfs/share/home/1801110325/software/g09e01/l303.exe)
 DipDrv:  MaxL=1.
 Leave Link  303 at Fri Sep  3 00:21:37 2021, MaxMem=  2415919104 cpu:         0.7
 (Enter /gpfs/share/home/1801110325/software/g09e01/l401.exe)
 ExpMin= 1.61D-01 ExpMax= 5.48D+03 ExpMxC= 8.25D+02 IAcc=1 IRadAn=         1 AccDes= 0.00D+00
 Harris functional with IExCor=  205 and IRadAn=       1 diagonalized for initial guess.
 HarFok:  IExCor=  205 AccDes= 0.00D+00 IRadAn=         1 IDoV= 1 UseB2=F ITyADJ=14
 ICtDFT=  3500011 ScaDFX=  1.000000  1.000000  1.000000  1.000000
 FoFCou: FMM=F IPFlag=           0 FMFlag=      100000 FMFlg1=           0
         NFxFlg=           0 DoJE=T BraDBF=F KetDBF=T FulRan=T
         wScrn=  0.000000 ICntrl=     500 IOpCl=  0 I1Cent=   200000004 NGrid=           0
         NMat0=    1 NMatS0=      1 NMatT0=    0 NMatD0=    1 NMtDS0=    0 NMtDT0=    0
 Petite list used in FoFCou.
 Harris En= -398.018942958416    
 JPrj=0 DoOrth=F DoCkMO=F.
 Leave Link  401 at Fri Sep  3 00:21:37 2021, MaxMem=  2415919104 cpu:         1.8
 (Enter /gpfs/share/home/1801110325/software/g09e01/l502.exe)
 Closed shell SCF:
 Using DIIS extrapolation, IDIIS=  1040.
 Integral symmetry usage will be decided dynamically.
 Keep R1 ints in memory in canonical form, NReq=42214891.
 IVT=       74236 IEndB=       74236 NGot=  2415919104 MDV=  2374934334
 LenX=  2374934334 LenY=  2374915937
 Requested convergence on RMS density matrix=1.00D-08 within 128 cycles.
 Requested convergence on MAX density matrix=1.00D-06.
 Requested convergence on             energy=1.00D-06.
 No special actions if energy rises.
 FoFCou: FMM=F IPFlag=           0 FMFlag=           0 FMFlg1=           0
         NFxFlg=           0 DoJE=F BraDBF=F KetDBF=F FulRan=T
         wScrn=  0.000000 ICntrl=     600 IOpCl=  0 I1Cent=           0 NGrid=           0
         NMat0=    1 NMatS0=   9045 NMatT0=    0 NMatD0=    1 NMtDS0=    0 NMtDT0=    0
 Symmetry not used in FoFCou.

 Cycle   1  Pass 1  IDiag  1:
 E= -397.275539962339    
 DIIS: error= 5.97D-02 at cycle   1 NSaved=   1.
 NSaved= 1 IEnMin= 1 EnMin= -397.275539962339     IErMin= 1 ErrMin= 5.97D-02
 ErrMax= 5.97D-02  0.00D+00 EMaxC= 1.00D-01 BMatC= 5.47D-01 BMatP= 5.47D-01
 IDIUse=3 WtCom= 4.03D-01 WtEn= 5.97D-01
 Coeff-Com:  0.100D+01
 Coeff-En:   0.100D+01
 Coeff:      0.100D+01
 Gap=     0.456 Goal=   None    Shift=    0.000
 GapD=    0.456 DampG=2.000 DampE=0.500 DampFc=1.0000 IDamp=-1.
 RMSDP=5.68D-03 MaxDP=1.09D-01              OVMax= 1.36D-01

 Cycle   2  Pass 1  IDiag  1:
 E= -397.536100186467     Delta-E=       -0.260560224128 Rises=F Damp=F
 DIIS: error= 2.24D-02 at cycle   2 NSaved=   2.
 NSaved= 2 IEnMin= 2 EnMin= -397.536100186467     IErMin= 2 ErrMin= 2.24D-02
 ErrMax= 2.24D-02  0.00D+00 EMaxC= 1.00D-01 BMatC= 6.79D-02 BMatP= 5.47D-01
 IDIUse=3 WtCom= 7.76D-01 WtEn= 2.24D-01
 Coeff-Com:  0.188D+00 0.812D+00
 Coeff-En:   0.000D+00 0.100D+01
 Coeff:      0.146D+00 0.854D+00
 Gap=     0.445 Goal=   None    Shift=    0.000
 RMSDP=1.94D-03 MaxDP=5.38D-02 DE=-2.61D-01 OVMax= 5.31D-02

 Cycle   3  Pass 1  IDiag  1:
 E= -397.581909983456     Delta-E=       -0.045809796989 Rises=F Damp=F
 DIIS: error= 8.14D-03 at cycle   3 NSaved=   3.
 NSaved= 3 IEnMin= 3 EnMin= -397.581909983456     IErMin= 3 ErrMin= 8.14D-03
 ErrMax= 8.14D-03  0.00D+00 EMaxC= 1.00D-01 BMatC= 7.89D-03 BMatP= 6.79D-02
 IDIUse=3 WtCom= 9.19D-01 WtEn= 8.14D-02
 Coeff-Com: -0.210D-01 0.224D+00 0.797D+00
 Coeff-En:   0.000D+00 0.000D+00 0.100D+01
 Coeff:     -0.193D-01 0.206D+00 0.814D+00
 Gap=     0.440 Goal=   None    Shift=    0.000
 RMSDP=5.59D-04 MaxDP=1.63D-02 DE=-4.58D-02 OVMax= 2.23D-02

 Cycle   4  Pass 1  IDiag  1:
 E= -397.588093190642     Delta-E=       -0.006183207186 Rises=F Damp=F
 DIIS: error= 1.13D-03 at cycle   4 NSaved=   4.
 NSaved= 4 IEnMin= 4 EnMin= -397.588093190642     IErMin= 4 ErrMin= 1.13D-03
 ErrMax= 1.13D-03  0.00D+00 EMaxC= 1.00D-01 BMatC= 3.58D-04 BMatP= 7.89D-03
 IDIUse=3 WtCom= 9.89D-01 WtEn= 1.13D-02
 Coeff-Com: -0.974D-02 0.435D-01 0.253D+00 0.713D+00
 Coeff-En:   0.000D+00 0.000D+00 0.000D+00 0.100D+01
 Coeff:     -0.963D-02 0.430D-01 0.250D+00 0.716D+00
 Gap=     0.440 Goal=   None    Shift=    0.000
 RMSDP=1.42D-04 MaxDP=3.74D-03 DE=-6.18D-03 OVMax= 4.89D-03

 Cycle   5  Pass 1  IDiag  1:
 E= -397.588439376827     Delta-E=       -0.000346186184 Rises=F Damp=F
 DIIS: error= 3.66D-04 at cycle   5 NSaved=   5.
 NSaved= 5 IEnMin= 5 EnMin= -397.588439376827     IErMin= 5 ErrMin= 3.66D-04
 ErrMax= 3.66D-04  0.00D+00 EMaxC= 1.00D-01 BMatC= 1.87D-05 BMatP= 3.58D-04
 IDIUse=3 WtCom= 9.96D-01 WtEn= 3.66D-03
 Coeff-Com:  0.149D-02-0.186D-01-0.671D-01 0.849D-02 0.108D+01
 Coeff-En:   0.000D+00 0.000D+00 0.000D+00 0.000D+00 0.100D+01
 Coeff:      0.148D-02-0.186D-01-0.668D-01 0.846D-02 0.108D+01
 Gap=     0.440 Goal=   None    Shift=    0.000
 RMSDP=6.45D-05 MaxDP=1.08D-03 DE=-3.46D-04 OVMax= 3.06D-03

 Cycle   6  Pass 1  IDiag  1:
 E= -397.588482348422     Delta-E=       -0.000042971595 Rises=F Damp=F
 DIIS: error= 1.40D-04 at cycle   6 NSaved=   6.
 NSaved= 6 IEnMin= 6 EnMin= -397.588482348422     IErMin= 6 ErrMin= 1.40D-04
 ErrMax= 1.40D-04  0.00D+00 EMaxC= 1.00D-01 BMatC= 3.59D-06 BMatP= 1.87D-05
 IDIUse=3 WtCom= 9.99D-01 WtEn= 1.40D-03
 Coeff-Com:  0.125D-02-0.839D-02-0.406D-01-0.831D-01 0.228D+00 0.902D+00
 Coeff-En:   0.000D+00 0.000D+00 0.000D+00 0.000D+00 0.000D+00 0.100D+01
 Coeff:      0.125D-02-0.838D-02-0.405D-01-0.830D-01 0.228D+00 0.902D+00
 Gap=     0.440 Goal=   None    Shift=    0.000
 RMSDP=2.27D-05 MaxDP=4.19D-04 DE=-4.30D-05 OVMax= 9.40D-04

 Cycle   7  Pass 1  IDiag  1:
 E= -397.588489839650     Delta-E=       -0.000007491228 Rises=F Damp=F
 DIIS: error= 5.91D-05 at cycle   7 NSaved=   7.
 NSaved= 7 IEnMin= 7 EnMin= -397.588489839650     IErMin= 7 ErrMin= 5.91D-05
 ErrMax= 5.91D-05  0.00D+00 EMaxC= 1.00D-01 BMatC= 4.42D-07 BMatP= 3.59D-06
 IDIUse=1 WtCom= 1.00D+00 WtEn= 0.00D+00
 Coeff-Com: -0.185D-03 0.265D-02 0.909D-02-0.769D-02-0.146D+00-0.968D-03
 Coeff-Com:  0.114D+01
 Coeff:     -0.185D-03 0.265D-02 0.909D-02-0.769D-02-0.146D+00-0.968D-03
 Coeff:      0.114D+01
 Gap=     0.441 Goal=   None    Shift=    0.000
 RMSDP=1.14D-05 MaxDP=2.18D-04 DE=-7.49D-06 OVMax= 7.46D-04

 Cycle   8  Pass 1  IDiag  1:
 E= -397.588491495907     Delta-E=       -0.000001656257 Rises=F Damp=F
 DIIS: error= 3.03D-05 at cycle   8 NSaved=   8.
 NSaved= 8 IEnMin= 8 EnMin= -397.588491495907     IErMin= 8 ErrMin= 3.03D-05
 ErrMax= 3.03D-05  0.00D+00 EMaxC= 1.00D-01 BMatC= 6.47D-08 BMatP= 4.42D-07
 IDIUse=1 WtCom= 1.00D+00 WtEn= 0.00D+00
 Coeff-Com: -0.131D-03 0.831D-03 0.391D-02 0.103D-01 0.235D-02-0.135D+00
 Coeff-Com: -0.175D+00 0.129D+01
 Coeff:     -0.131D-03 0.831D-03 0.391D-02 0.103D-01 0.235D-02-0.135D+00
 Coeff:     -0.175D+00 0.129D+01
 Gap=     0.441 Goal=   None    Shift=    0.000
 RMSDP=5.35D-06 MaxDP=1.19D-04 DE=-1.66D-06 OVMax= 3.97D-04

 Cycle   9  Pass 1  IDiag  1:
 E= -397.588491812552     Delta-E=       -0.000000316645 Rises=F Damp=F
 DIIS: error= 1.22D-05 at cycle   9 NSaved=   9.
 NSaved= 9 IEnMin= 9 EnMin= -397.588491812552     IErMin= 9 ErrMin= 1.22D-05
 ErrMax= 1.22D-05  0.00D+00 EMaxC= 1.00D-01 BMatC= 1.21D-08 BMatP= 6.47D-08
 IDIUse=1 WtCom= 1.00D+00 WtEn= 0.00D+00
 Coeff-Com:  0.106D-04-0.231D-03-0.913D-03 0.541D-03 0.194D-01-0.174D-01
 Coeff-Com: -0.135D+00 0.811D-01 0.105D+01
 Coeff:      0.106D-04-0.231D-03-0.913D-03 0.541D-03 0.194D-01-0.174D-01
 Coeff:     -0.135D+00 0.811D-01 0.105D+01
 Gap=     0.441 Goal=   None    Shift=    0.000
 RMSDP=2.00D-06 MaxDP=4.77D-05 DE=-3.17D-07 OVMax= 1.53D-04

 Cycle  10  Pass 1  IDiag  1:
 E= -397.588491861684     Delta-E=       -0.000000049132 Rises=F Damp=F
 DIIS: error= 5.56D-06 at cycle  10 NSaved=  10.
 NSaved=10 IEnMin=10 EnMin= -397.588491861684     IErMin=10 ErrMin= 5.56D-06
 ErrMax= 5.56D-06  0.00D+00 EMaxC= 1.00D-01 BMatC= 3.20D-09 BMatP= 1.21D-08
 IDIUse=1 WtCom= 1.00D+00 WtEn= 0.00D+00
 Coeff-Com:  0.478D-04-0.340D-03-0.160D-02-0.377D-02 0.516D-02 0.387D-01
 Coeff-Com:  0.432D-01-0.418D+00 0.136D+00 0.120D+01
 Coeff:      0.478D-04-0.340D-03-0.160D-02-0.377D-02 0.516D-02 0.387D-01
 Coeff:      0.432D-01-0.418D+00 0.136D+00 0.120D+01
 Gap=     0.441 Goal=   None    Shift=    0.000
 RMSDP=1.34D-06 MaxDP=3.08D-05 DE=-4.91D-08 OVMax= 8.65D-05

 Cycle  11  Pass 1  IDiag  1:
 E= -397.588491874880     Delta-E=       -0.000000013196 Rises=F Damp=F
 DIIS: error= 1.68D-06 at cycle  11 NSaved=  11.
 NSaved=11 IEnMin=11 EnMin= -397.588491874880     IErMin=11 ErrMin= 1.68D-06
 ErrMax= 1.68D-06  0.00D+00 EMaxC= 1.00D-01 BMatC= 1.50D-10 BMatP= 3.20D-09
 IDIUse=1 WtCom= 1.00D+00 WtEn= 0.00D+00
 Coeff-Com: -0.301D-05 0.436D-04 0.179D-03 0.570D-04-0.199D-02-0.979D-03
 Coeff-Com:  0.135D-01 0.147D-01-0.935D-01-0.933D-01 0.116D+01
 Coeff:     -0.301D-05 0.436D-04 0.179D-03 0.570D-04-0.199D-02-0.979D-03
 Coeff:      0.135D-01 0.147D-01-0.935D-01-0.933D-01 0.116D+01
 Gap=     0.441 Goal=   None    Shift=    0.000
 RMSDP=2.75D-07 MaxDP=6.67D-06 DE=-1.32D-08 OVMax= 1.91D-05

 Cycle  12  Pass 1  IDiag  1:
 E= -397.588491875491     Delta-E=       -0.000000000611 Rises=F Damp=F
 DIIS: error= 4.42D-07 at cycle  12 NSaved=  12.
 NSaved=12 IEnMin=12 EnMin= -397.588491875491     IErMin=12 ErrMin= 4.42D-07
 ErrMax= 4.42D-07  0.00D+00 EMaxC= 1.00D-01 BMatC= 2.50D-11 BMatP= 1.50D-10
 IDIUse=1 WtCom= 1.00D+00 WtEn= 0.00D+00
 Coeff-Com: -0.495D-05 0.398D-04 0.180D-03 0.341D-03-0.924D-03-0.390D-02
 Coeff-Com: -0.152D-02 0.401D-01-0.316D-01-0.145D+00 0.230D+00 0.912D+00
 Coeff:     -0.495D-05 0.398D-04 0.180D-03 0.341D-03-0.924D-03-0.390D-02
 Coeff:     -0.152D-02 0.401D-01-0.316D-01-0.145D+00 0.230D+00 0.912D+00
 Gap=     0.441 Goal=   None    Shift=    0.000
 RMSDP=8.84D-08 MaxDP=1.77D-06 DE=-6.11D-10 OVMax= 4.77D-06

 Cycle  13  Pass 1  IDiag  1:
 E= -397.588491875527     Delta-E=       -0.000000000036 Rises=F Damp=F
 DIIS: error= 8.62D-08 at cycle  13 NSaved=  13.
 NSaved=13 IEnMin=13 EnMin= -397.588491875527     IErMin=13 ErrMin= 8.62D-08
 ErrMax= 8.62D-08  0.00D+00 EMaxC= 1.00D-01 BMatC= 1.28D-12 BMatP= 2.50D-11
 IDIUse=1 WtCom= 1.00D+00 WtEn= 0.00D+00
 Coeff-Com:  0.348D-07-0.174D-05-0.718D-05 0.161D-04 0.180D-03-0.169D-03
 Coeff-Com: -0.142D-02 0.938D-03 0.926D-02 0.450D-04-0.919D-01 0.317D-01
 Coeff-Com:  0.105D+01
 Coeff:      0.348D-07-0.174D-05-0.718D-05 0.161D-04 0.180D-03-0.169D-03
 Coeff:     -0.142D-02 0.938D-03 0.926D-02 0.450D-04-0.919D-01 0.317D-01
 Coeff:      0.105D+01
 Gap=     0.441 Goal=   None    Shift=    0.000
 RMSDP=1.76D-08 MaxDP=3.48D-07 DE=-3.56D-11 OVMax= 7.74D-07

 Cycle  14  Pass 1  IDiag  1:
 E= -397.588491875528     Delta-E=       -0.000000000001 Rises=F Damp=F
 DIIS: error= 3.37D-08 at cycle  14 NSaved=  14.
 NSaved=14 IEnMin=14 EnMin= -397.588491875528     IErMin=14 ErrMin= 3.37D-08
 ErrMax= 3.37D-08  0.00D+00 EMaxC= 1.00D-01 BMatC= 1.66D-13 BMatP= 1.28D-12
 IDIUse=1 WtCom= 1.00D+00 WtEn= 0.00D+00
 Coeff-Com:  0.379D-06-0.313D-05-0.145D-04-0.264D-04 0.820D-04 0.295D-03
 Coeff-Com:  0.100D-03-0.294D-02 0.328D-02 0.112D-01-0.195D-01-0.826D-01
 Coeff-Com:  0.786D-01 0.101D+01
 Coeff:      0.379D-06-0.313D-05-0.145D-04-0.264D-04 0.820D-04 0.295D-03
 Coeff:      0.100D-03-0.294D-02 0.328D-02 0.112D-01-0.195D-01-0.826D-01
 Coeff:      0.786D-01 0.101D+01
 Gap=     0.441 Goal=   None    Shift=    0.000
 RMSDP=6.70D-09 MaxDP=9.14D-08 DE=-1.25D-12 OVMax= 3.54D-07

 SCF Done:  E(RHF) =  -397.588491876     A.U. after   14 cycles
            NFock= 14  Conv=0.67D-08     -V/T= 2.0024
 KE= 3.966267615878D+02 PE=-1.649741227879D+03 EE= 4.971356801212D+02
 Leave Link  502 at Fri Sep  3 00:21:39 2021, MaxMem=  2415919104 cpu:         6.2
 (Enter /gpfs/share/home/1801110325/software/g09e01/l601.exe)
 Copying SCF densities to generalized density rwf, IOpCl= 0 IROHF=0.

 **********************************************************************

            Population analysis using the SCF density.

 **********************************************************************

 Orbital symmetries:
       Occupied  (A) (A) (A) (A) (A) (A) (A) (A) (A) (A) (A) (A)
                 (A) (A) (A) (A) (A) (A) (A) (A) (A) (A) (A) (A)
                 (A) (A) (A) (A) (A) (A)
       Virtual   (A) (A) (A) (A) (A) (A) (A) (A) (A) (A) (A) (A)
                 (A) (A) (A) (A) (A) (A) (A) (A) (A) (A) (A) (A)
                 (A) (A) (A) (A) (A) (A) (A) (A) (A) (A) (A) (A)
                 (A) (A) (A) (A) (A) (A) (A) (A) (A) (A) (A) (A)
                 (A) (A) (A) (A) (A) (A) (A) (A) (A) (A) (A) (A)
                 (A) (A) (A) (A) (A) (A) (A) (A) (A) (A) (A) (A)
                 (A) (A) (A) (A) (A) (A) (A) (A) (A) (A) (A) (A)
                 (A) (A) (A) (A) (A) (A) (A) (A) (A) (A) (A) (A)
                 (A) (A) (A) (A) (A) (A) (A) (A)
 The electronic state is 1-A.
 Alpha  occ. eigenvalues --  -20.58163 -20.56226 -15.57445 -11.34627 -11.28847
 Alpha  occ. eigenvalues --  -11.26730 -11.23738 -11.23677  -1.41114  -1.33888
 Alpha  occ. eigenvalues --   -1.25491  -1.09413  -1.02666  -0.87775  -0.85262
 Alpha  occ. eigenvalues --   -0.74576  -0.72492  -0.69313  -0.66489  -0.62226
 Alpha  occ. eigenvalues --   -0.60331  -0.58948  -0.58367  -0.56021  -0.53148
 Alpha  occ. eigenvalues --   -0.50339  -0.49629  -0.43451  -0.39226  -0.32536
 Alpha virt. eigenvalues --    0.11526   0.15295   0.22649   0.23980   0.28571
 Alpha virt. eigenvalues --    0.31022   0.31998   0.35674   0.36125   0.37622
 Alpha virt. eigenvalues --    0.42865   0.46831   0.48142   0.52079   0.53986
 Alpha virt. eigenvalues --    0.64761   0.70542   0.72516   0.73361   0.78108
 Alpha virt. eigenvalues --    0.81098   0.81381   0.82015   0.82595   0.86352
 Alpha virt. eigenvalues --    0.87602   0.89618   0.91934   0.92955   0.98376
 Alpha virt. eigenvalues --    1.01099   1.06564   1.08315   1.10600   1.11083
 Alpha virt. eigenvalues --    1.12015   1.15945   1.16430   1.16512   1.18588
 Alpha virt. eigenvalues --    1.23658   1.25569   1.27528   1.31608   1.33373
 Alpha virt. eigenvalues --    1.35061   1.37219   1.42983   1.44656   1.48792
 Alpha virt. eigenvalues --    1.54936   1.58061   1.60981   1.64444   1.68659
 Alpha virt. eigenvalues --    1.71073   1.73596   1.75389   1.76334   1.78399
 Alpha virt. eigenvalues --    1.92547   1.97158   2.02178   2.03961   2.04599
 Alpha virt. eigenvalues --    2.07255   2.11035   2.13047   2.14247   2.24034
 Alpha virt. eigenvalues --    2.24942   2.29670   2.30275   2.41986   2.46858
 Alpha virt. eigenvalues --    2.48038   2.50305   2.56323   2.61946   2.64560
 Alpha virt. eigenvalues --    2.64952   2.66165   2.84892   2.86854   2.90310
 Alpha virt. eigenvalues --    2.90800   2.96285   3.01028   3.02778   3.03720
 Alpha virt. eigenvalues --    3.07898   3.15457   3.24889   3.32616   3.52711
 Alpha virt. eigenvalues --    3.79091   4.15246   4.42918   4.48745   4.58138
 Alpha virt. eigenvalues --    4.65355   4.68293   4.83284   5.05758
          Condensed to atoms (all electrons):
               1          2          3          4          5          6
     1  O    8.394769  -0.074278   0.317498  -0.057066   0.001928   0.001660
     2  N   -0.074278   7.087661   0.441742  -0.066324   0.440004  -0.027374
     3  C    0.317498   0.441742   4.121840   0.557638  -0.063503  -0.046971
     4  C   -0.057066  -0.066324   0.557638   5.043789  -0.020980   0.547197
     5  C    0.001928   0.440004  -0.063503  -0.020980   4.635820  -0.051472
     6  C    0.001660  -0.027374  -0.046971   0.547197  -0.051472   4.853426
     7  C    0.000294  -0.048608  -0.021093  -0.049743   0.570127   0.515125
     8  H    0.222924   0.003915  -0.016276   0.003186   0.000387  -0.000091
     9  H    0.000218   0.003282  -0.023217   0.375850  -0.000027  -0.028372
    10  H   -0.000049  -0.042898   0.002994  -0.000385   0.401290   0.003010
    11  H   -0.000047  -0.000117   0.001897  -0.028340   0.002449   0.382531
    12  H    0.000003   0.003046   0.000273   0.002349  -0.026065  -0.028373
    13  O   -0.021745  -0.033454   0.002954   0.000008  -0.000113   0.000000
    14  H    0.000882   0.001416  -0.000039   0.000005   0.000003  -0.000000
    15  H    0.001571   0.038388  -0.000413   0.000536  -0.001376  -0.000029
               7          8          9         10         11         12
     1  O    0.000294   0.222924   0.000218  -0.000049  -0.000047   0.000003
     2  N   -0.048608   0.003915   0.003282  -0.042898  -0.000117   0.003046
     3  C   -0.021093  -0.016276  -0.023217   0.002994   0.001897   0.000273
     4  C   -0.049743   0.003186   0.375850  -0.000385  -0.028340   0.002349
     5  C    0.570127   0.000387  -0.000027   0.401290   0.002449  -0.026065
     6  C    0.515125  -0.000091  -0.028372   0.003010   0.382531  -0.028373
     7  C    5.026614  -0.000026   0.002469  -0.045315  -0.029356   0.379901
     8  H   -0.000026   0.214183  -0.000068  -0.000004   0.000002  -0.000001
     9  H    0.002469  -0.000068   0.441641   0.000013  -0.001854  -0.000068
    10  H   -0.045315  -0.000004   0.000013   0.472488  -0.000094  -0.000129
    11  H   -0.029356   0.000002  -0.001854  -0.000094   0.453050  -0.001495
    12  H    0.379901  -0.000001  -0.000068  -0.000129  -0.001495   0.459295
    13  O   -0.000016   0.054232   0.000002   0.000085  -0.000000   0.000000
    14  H    0.000001  -0.001675  -0.000000  -0.000008   0.000000  -0.000000
    15  H    0.000256  -0.007178  -0.000011  -0.000498   0.000000  -0.000004
              13         14         15
     1  O   -0.021745   0.000882   0.001571
     2  N   -0.033454   0.001416   0.038388
     3  C    0.002954  -0.000039  -0.000413
     4  C    0.000008   0.000005   0.000536
     5  C   -0.000113   0.000003  -0.001376
     6  C    0.000000  -0.000000  -0.000029
     7  C   -0.000016   0.000001   0.000256
     8  H    0.054232  -0.001675  -0.007178
     9  H    0.000002  -0.000000  -0.000011
    10  H    0.000085  -0.000008  -0.000498
    11  H   -0.000000   0.000000   0.000000
    12  H    0.000000  -0.000000  -0.000004
    13  O    8.446996   0.257758   0.226378
    14  H    0.257758   0.310921  -0.008256
    15  H    0.226378  -0.008256   0.247938
 Mulliken charges:
               1
     1  O   -0.788563
     2  N   -0.726401
     3  C    0.724674
     4  C   -0.307717
     5  C    0.111529
     6  C   -0.120267
     7  C   -0.300632
     8  H    0.526489
     9  H    0.230142
    10  H    0.209501
    11  H    0.221374
    12  H    0.211267
    13  O   -0.933085
    14  H    0.438991
    15  H    0.502698
 Sum of Mulliken charges =   0.00000
 Mulliken charges with hydrogens summed into heavy atoms:
               1
     1  O   -0.262074
     2  N   -0.726401
     3  C    0.724674
     4  C   -0.077575
     5  C    0.321030
     6  C    0.101107
     7  C   -0.089365
    13  O    0.008603
 Electronic spatial extent (au):  <R**2>=           1058.2566
 Charge=              0.0000 electrons
 Dipole moment (field-independent basis, Debye):
    X=             -2.2283    Y=             -1.6566    Z=              1.5729  Tot=              3.1912
 Quadrupole moment (field-independent basis, Debye-Ang):
   XX=            -41.8422   YY=            -44.3347   ZZ=            -48.9555
   XY=             -3.2012   XZ=              5.9157   YZ=             -1.4495
 Traceless Quadrupole moment (field-independent basis, Debye-Ang):
   XX=              3.2019   YY=              0.7094   ZZ=             -3.9114
   XY=             -3.2012   XZ=              5.9157   YZ=             -1.4495
 Octapole moment (field-independent basis, Debye-Ang**2):
  XXX=              7.8854  YYY=            -10.1228  ZZZ=              1.3822  XYY=             -0.9285
  XXY=             -3.8909  XXZ=             21.7087  XZZ=             14.1926  YZZ=             -0.0732
  YYZ=              1.4212  XYZ=             -5.4262
 Hexadecapole moment (field-independent basis, Debye-Ang**3):
 XXXX=           -813.3799 YYYY=           -341.5905 ZZZZ=            -48.0974 XXXY=            -22.1735
 XXXZ=             79.0711 YYYX=            -14.8891 YYYZ=             -1.5713 ZZZX=              5.6992
 ZZZY=             -1.5150 XXYY=           -194.1944 XXZZ=           -158.4803 YYZZ=            -73.7748
 XXYZ=            -19.1003 YYXZ=              5.4978 ZZXY=             -4.6218
 N-N= 3.583902942940D+02 E-N=-1.649741227359D+03  KE= 3.966267615878D+02
 No NMR shielding tensors so no spin-rotation constants.
 Leave Link  601 at Fri Sep  3 00:21:39 2021, MaxMem=  2415919104 cpu:         0.6
 (Enter /gpfs/share/home/1801110325/software/g09e01/l701.exe)
 Compute integral first derivatives.
 ... and contract with generalized density number  0.
 Leave Link  701 at Fri Sep  3 00:21:39 2021, MaxMem=  2415919104 cpu:         0.5
 (Enter /gpfs/share/home/1801110325/software/g09e01/l702.exe)
 L702 exits ... SP integral derivatives will be done elsewhere.
 Leave Link  702 at Fri Sep  3 00:21:39 2021, MaxMem=  2415919104 cpu:         0.1
 (Enter /gpfs/share/home/1801110325/software/g09e01/l703.exe)
 Compute integral first derivatives, UseDBF=F ICtDFT=           0.
 Integral derivatives from FoFJK, PRISM(SPDF).
 Calling FoFJK, ICntrl=      2127 FMM=F ISym2X=0 I1Cent= 0 IOpClX= 0 NMat=1 NMatS=1 NMatT=0.
 FoFJK:  IHMeth= 1 ICntrl=    2127 DoSepK=F KAlg= 0 I1Cent=   0 FoldK=F
 IRaf=         0 NMat=   1 IRICut=       1 DoRegI=T DoRafI=F ISym2E= 0.
 FoFCou: FMM=F IPFlag=           0 FMFlag=      100000 FMFlg1=         800
         NFxFlg=           0 DoJE=F BraDBF=F KetDBF=F FulRan=T
         wScrn=  0.000000 ICntrl=    2127 IOpCl=  0 I1Cent=           0 NGrid=           0
         NMat0=    1 NMatS0=      1 NMatT0=    0 NMatD0=    1 NMtDS0=    0 NMtDT0=    0
 Symmetry not used in FoFCou.
 Leave Link  703 at Fri Sep  3 00:21:40 2021, MaxMem=  2415919104 cpu:         4.0
 (Enter /gpfs/share/home/1801110325/software/g09e01/l716.exe)
 Dipole        =-8.76667799D-01-6.51767259D-01 6.18825468D-01
 ***** Axes restored to original set *****
 -------------------------------------------------------------------
 Center     Atomic                   Forces (Hartrees/Bohr)
 Number     Number              X              Y              Z
 -------------------------------------------------------------------
      1        8           0.004183259   -0.025813574    0.000670546
      2        7          -0.015705337    0.013049702    0.001203468
      3        6           0.008095497   -0.008434293   -0.000578858
      4        6          -0.002474062    0.000472885   -0.000008568
      5        6           0.001604804    0.007678711   -0.000094372
      6        6           0.004087424    0.003490257   -0.000036980
      7        6           0.002747561   -0.006162131   -0.000066059
      8        1          -0.018657963    0.018618485   -0.000746912
      9        1           0.000915836   -0.006374450   -0.000036535
     10        1          -0.001256960    0.006876254    0.000098224
     11        1           0.005475338   -0.002442936   -0.000033239
     12        1           0.004640433    0.003669223   -0.000003071
     13        8          -0.010676360   -0.016218319    0.015739811
     14        1          -0.007600616    0.004713353   -0.013203261
     15        1           0.024621144    0.006876832   -0.002904195
 -------------------------------------------------------------------
 Cartesian Forces:  Max     0.025813574 RMS     0.009164692
 Leave Link  716 at Fri Sep  3 00:21:40 2021, MaxMem=  2415919104 cpu:         0.1
 (Enter /gpfs/share/home/1801110325/software/g09e01/l103.exe)

 GradGradGradGradGradGradGradGradGradGradGradGradGradGradGradGradGradGrad
 Berny optimization.
 FormGI is forming the generalized inverse of G from B-inverse, IUseBI=4.
 Internal  Forces:  Max     0.022499050 RMS     0.005633542
 Search for a local minimum.
 Step number   1 out of a maximum of   88
 All quantities printed in internal units (Hartrees-Bohrs-Radians)
 RMS Force = .56335D-02 SwitMx=.10000D-02 MixMth= 1
 Mixed Optimization -- RFO/linear search
 Second derivative matrix not updated -- first step.
 ITU=  0
     Eigenvalues ---    0.00505   0.00773   0.01656   0.02061   0.02170
     Eigenvalues ---    0.02210   0.02224   0.02270   0.02301   0.02389
     Eigenvalues ---    0.02433   0.05795   0.06400   0.07043   0.08444
     Eigenvalues ---    0.13092   0.16000   0.16000   0.16000   0.16000
     Eigenvalues ---    0.19249   0.20390   0.22000   0.22253   0.23481
     Eigenvalues ---    0.35493   0.35617   0.35857   0.35884   0.41715
     Eigenvalues ---    0.43433   0.45803   0.47030   0.47305   0.48386
     Eigenvalues ---    0.51692   0.54866   0.55032   0.56129
 RFO step:  Lambda=-5.48679072D-03 EMin= 5.04811373D-03
 Linear search not attempted -- first point.
 Iteration  1 RMS(Cart)=  0.01490365 RMS(Int)=  0.00024332
 Iteration  2 RMS(Cart)=  0.00014233 RMS(Int)=  0.00008449
 Iteration  3 RMS(Cart)=  0.00000007 RMS(Int)=  0.00008449
 ITry= 1 IFail=0 DXMaxC= 4.85D-02 DCOld= 1.00D+10 DXMaxT= 3.00D-01 DXLimC= 3.00D+00 Rises=F
 Variable       Old X    -DE/DX   Delta X   Delta X   Delta X     New X
                                 (Linear)    (Quad)   (Total)
    R1        2.52988  -0.01463   0.00000  -0.02737  -0.02733   2.50255
    R2        1.87161  -0.02250   0.00000  -0.04454  -0.04446   1.82715
    R3        2.52522  -0.01837   0.00000  -0.03464  -0.03469   2.49053
    R4        2.53539  -0.01219   0.00000  -0.02225  -0.02224   2.51314
    R5        3.54753   0.00383   0.00000   0.07181   0.07173   3.61926
    R6        2.65011  -0.00606   0.00000  -0.01362  -0.01362   2.63649
    R7        2.60764  -0.00950   0.00000  -0.01794  -0.01795   2.58970
    R8        2.04263  -0.00642   0.00000  -0.01763  -0.01763   2.02500
    R9        2.61148  -0.01080   0.00000  -0.02168  -0.02168   2.58980
   R10        2.04883  -0.00699   0.00000  -0.01940  -0.01940   2.02943
   R11        2.64099  -0.00434   0.00000  -0.00774  -0.00774   2.63324
   R12        2.04685  -0.00600   0.00000  -0.01658  -0.01658   2.03027
   R13        2.04306  -0.00592   0.00000  -0.01625  -0.01625   2.02681
   R14        3.33848   0.00387   0.00000   0.03940   0.03934   3.37782
   R15        3.51132  -0.00226   0.00000   0.01228   0.01242   3.52373
   R16        1.81951  -0.01594   0.00000  -0.02877  -0.02877   1.79074
   R17        1.86538  -0.02039   0.00000  -0.04197  -0.04206   1.82332
    A1        1.90053   0.00519   0.00000   0.02454   0.02467   1.92520
    A2        2.06274   0.00096   0.00000  -0.00106  -0.00101   2.06173
    A3        1.86357  -0.00090   0.00000  -0.00487  -0.00502   1.85855
    A4        2.35679  -0.00006   0.00000   0.00586   0.00593   2.36273
    A5        2.07268   0.00121   0.00000  -0.00064  -0.00066   2.07202
    A6        2.06934  -0.00265   0.00000  -0.00454  -0.00452   2.06482
    A7        2.14116   0.00144   0.00000   0.00518   0.00518   2.14634
    A8        2.06190  -0.00136   0.00000  -0.00487  -0.00489   2.05701
    A9        2.08456   0.00020   0.00000  -0.00046  -0.00045   2.08411
   A10        2.13673   0.00116   0.00000   0.00533   0.00534   2.14207
   A11        2.15429   0.00242   0.00000   0.00794   0.00793   2.16221
   A12        2.01742  -0.00115   0.00000  -0.00357  -0.00357   2.01385
   A13        2.11148  -0.00128   0.00000  -0.00436  -0.00436   2.10712
   A14        2.08960  -0.00076   0.00000   0.00172   0.00170   2.09130
   A15        2.09271   0.00042   0.00000  -0.00062  -0.00061   2.09210
   A16        2.10088   0.00034   0.00000  -0.00110  -0.00109   2.09979
   A17        2.05668  -0.00270   0.00000  -0.00890  -0.00891   2.04777
   A18        2.10443   0.00136   0.00000   0.00448   0.00449   2.10892
   A19        2.12208   0.00135   0.00000   0.00442   0.00442   2.12650
   A20        2.79959  -0.00479   0.00000  -0.01083  -0.01081   2.78878
   A21        2.25168   0.00139   0.00000   0.00472   0.00478   2.25646
   A22        2.06456  -0.00024   0.00000   0.00119   0.00122   2.06578
   A23        1.85465   0.00007   0.00000   0.00430   0.00437   1.85902
   A24        1.33628  -0.00689   0.00000  -0.02380  -0.02382   1.31246
   A25        2.54145  -0.00167   0.00000  -0.00260  -0.00268   2.53878
    D1        0.00665  -0.00009   0.00000   0.00179   0.00194   0.00859
    D2       -3.13457  -0.00012   0.00000   0.00045   0.00061  -3.13396
    D3        0.07606  -0.00080   0.00000  -0.01974  -0.01948   0.05659
    D4       -0.00031   0.00040   0.00000   0.00292   0.00267   0.00236
    D5       -3.13871   0.00001   0.00000   0.00084   0.00087  -3.13783
    D6        0.00250   0.00003   0.00000   0.00224   0.00226   0.00476
    D7       -0.00904  -0.00015   0.00000  -0.00467  -0.00458  -0.01362
    D8        3.13216  -0.00013   0.00000  -0.00327  -0.00319   3.12898
    D9       -0.00207  -0.00005   0.00000  -0.00240  -0.00242  -0.00449
   D10        3.13857  -0.00005   0.00000  -0.00207  -0.00207   3.13649
   D11       -3.12750   0.00017   0.00000   0.00518   0.00514  -3.12236
   D12        0.01314   0.00017   0.00000   0.00551   0.00549   0.01862
   D13        0.00609   0.00021   0.00000   0.00405   0.00388   0.00997
   D14       -0.06866   0.00026   0.00000   0.03090   0.03105  -0.03761
   D15        3.13280   0.00002   0.00000  -0.00292  -0.00306   3.12974
   D16        3.05806   0.00007   0.00000   0.02393   0.02411   3.08217
   D17        3.13981   0.00002   0.00000   0.00047   0.00044   3.14025
   D18        0.00003   0.00001   0.00000   0.00047   0.00045   0.00049
   D19       -0.00140  -0.00000   0.00000  -0.00093  -0.00095  -0.00235
   D20       -3.14117  -0.00001   0.00000  -0.00093  -0.00093   3.14108
   D21       -0.00021  -0.00001   0.00000  -0.00032  -0.00032  -0.00053
   D22       -3.14057  -0.00001   0.00000  -0.00013  -0.00012  -3.14070
   D23        3.13951  -0.00000   0.00000  -0.00033  -0.00034   3.13917
   D24       -0.00085  -0.00000   0.00000  -0.00014  -0.00015  -0.00100
   D25        0.00054   0.00004   0.00000   0.00121   0.00120   0.00174
   D26        3.14106   0.00001   0.00000   0.00065   0.00066  -3.14147
   D27       -3.14005   0.00003   0.00000   0.00086   0.00084  -3.13921
   D28        0.00047   0.00001   0.00000   0.00030   0.00029   0.00076
   D29        0.00061  -0.00001   0.00000   0.00019   0.00020   0.00081
   D30       -3.13990   0.00002   0.00000   0.00075   0.00075  -3.13915
   D31        3.14097  -0.00001   0.00000  -0.00000  -0.00000   3.14097
   D32        0.00046   0.00002   0.00000   0.00056   0.00055   0.00101
   D33       -1.90913   0.00017   0.00000   0.02829   0.02825  -1.88088
   D34       -0.00388  -0.00040   0.00000  -0.00464  -0.00433  -0.00821
   D35        1.50973   0.00111   0.00000  -0.00171  -0.00194   1.50779
   D36        2.11267  -0.00037   0.00000  -0.02888  -0.02886   2.08381
         Item               Value     Threshold  Converged?
 Maximum Force            0.022499     0.000450     NO 
 RMS     Force            0.005634     0.000300     NO 
 Maximum Displacement     0.048524     0.001800     NO 
 RMS     Displacement     0.014940     0.001200     NO 
 Predicted change in Energy=-2.801586D-03
 Lowest energy point so far.  Saving SCF results.
 GradGradGradGradGradGradGradGradGradGradGradGradGradGradGradGradGradGrad

 Leave Link  103 at Fri Sep  3 00:21:40 2021, MaxMem=  2415919104 cpu:         0.4
 (Enter /gpfs/share/home/1801110325/software/g09e01/l202.exe)
                          Input orientation:                          
 ---------------------------------------------------------------------
 Center     Atomic      Atomic             Coordinates (Angstroms)
 Number     Number       Type             X           Y           Z
 ---------------------------------------------------------------------
      1          8           0        1.215319    1.412546   -0.005812
      2          7           0        0.305558   -0.670788   -0.007961
      3          6           0        0.141938    0.636931   -0.001453
      4          6           0       -1.113651    1.245078    0.011031
      5          6           0       -0.780348   -1.438534   -0.007890
      6          6           0       -2.218118    0.433807    0.013821
      7          6           0       -2.061003   -0.950723    0.003660
      8          1           0        2.018279    0.874137   -0.021447
      9          1           0       -1.180299    2.314573    0.016293
     10          1           0       -0.596193   -2.496504   -0.018272
     11          1           0       -3.200847    0.867913    0.022501
     12          1           0       -2.902544   -1.615672    0.003253
     13          8           0        3.067391   -0.571670   -0.085024
     14          1           0        3.522082   -0.832950    0.704260
     15          1           0        2.194923   -0.981972   -0.047518
 ---------------------------------------------------------------------
                    Distance matrix (angstroms):
                    1          2          3          4          5
     1  O    0.000000
     2  N    2.273312   0.000000
     3  C    1.324290   1.317932   0.000000
     4  C    2.335044   2.384336   1.395170   0.000000
     5  C    3.480136   1.329898   2.271169   2.704298   0.000000
     6  C    3.570267   2.754912   2.368830   1.370408   2.360787
     7  C    4.039730   2.383089   2.715441   2.391458   1.370464
     8  H    0.966888   2.306596   1.891381   3.153987   3.630557
     9  H    2.559908   3.334777   2.136143   1.071583   3.774435
    10  H    4.308411   2.036296   3.219245   3.777309   1.073928
    11  H    4.449713   3.829282   3.350841   2.121031   3.343567
    12  H    5.111456   3.344376   3.787230   3.374032   2.129605
    13  O    2.715430   2.764685   3.166383   4.559705   3.944933
    14  H    3.296606   3.298421   3.752860   5.127259   4.402816
    15  H    2.587485   1.915228   2.614903   3.988714   3.010358
                    6          7          8          9         10
     6  C    0.000000
     7  C    1.393452   0.000000
     8  H    4.259365   4.468924   0.000000
     9  H    2.148105   3.382005   3.508159   0.000000
    10  H    3.349387   2.129692   4.265759   4.846529   0.000000
    11  H    1.074374   2.146400   5.219314   2.485051   4.255019
    12  H    2.160767   1.072543   5.514912   4.291052   2.468923
    13  O    5.381204   5.143148   1.787467   5.136490   4.138996
    14  H    5.918722   5.628103   2.387933   5.700227   4.499961
    15  H    4.634988   4.256348   1.864678   4.718411   3.175688
                   11         12         13         14         15
    11  H    0.000000
    12  H    2.501510   0.000000
    13  O    6.432322   6.061176   0.000000
    14  H    6.968177   6.509983   0.947618   0.000000
    15  H    5.704499   5.136956   0.964860   1.532556   0.000000
 Stoichiometry    C5H7NO2
 Framework group  C1[X(C5H7NO2)]
 Deg. of freedom    39
 Full point group                 C1      NOp   1
 RotChk:  IX=0 Diff= 4.40D-03
 Largest Abelian subgroup         C1      NOp   1
 Largest concise Abelian subgroup C1      NOp   1
                         Standard orientation:                         
 ---------------------------------------------------------------------
 Center     Atomic      Atomic             Coordinates (Angstroms)
 Number     Number       Type             X           Y           Z
 ---------------------------------------------------------------------
      1          8           0        1.220418    1.411830   -0.005752
      2          7           0        0.301475   -0.667470   -0.006958
      3          6           0        0.143620    0.640963   -0.001737
      4          6           0       -1.109283    1.254655    0.009033
      5          6           0       -0.787809   -1.430418   -0.007248
      6          6           0       -2.217321    0.448267    0.011481
      7          6           0       -2.066309   -0.936951    0.002668
      8          1           0        2.021008    0.869870   -0.020162
      9          1           0       -1.171216    2.324437    0.013305
     10          1           0       -0.608315   -2.489199   -0.016540
     11          1           0       -3.198133    0.886712    0.018856
     12          1           0       -2.910775   -1.598181    0.002041
     13          8           0        3.063789   -0.580607   -0.081494
     14          1           0        3.516579   -0.843203    0.708446
     15          1           0        2.189484   -0.987022   -0.044457
 ---------------------------------------------------------------------
 Rotational constants (GHZ):      4.1125055      1.4415025      1.0700794
 Leave Link  202 at Fri Sep  3 00:21:40 2021, MaxMem=  2415919104 cpu:         0.0
 (Enter /gpfs/share/home/1801110325/software/g09e01/l301.exe)
 Standard basis: GTBas1 (6D, 7F)
 Ernie: Thresh=  0.10000D-02 Tol=  0.10000D-05 Strict=F.
 There are   134 symmetry adapted cartesian basis functions of A   symmetry.
 There are   134 symmetry adapted basis functions of A   symmetry.
   134 basis functions,   252 primitive gaussians,   134 cartesian basis functions
    30 alpha electrons       30 beta electrons
       nuclear repulsion energy       360.8481616780 Hartrees.
 IExCor=    0 DFT=F Ex=HF Corr=None ExCW=0 ScaHFX=  1.000000
 ScaDFX=  1.000000  1.000000  1.000000  1.000000 ScalE2=  1.000000  1.000000
 IRadAn=      0 IRanWt=     -1 IRanGd=            0 ICorTp=0 IEmpDi=  4
 NAtoms=   15 NActive=   15 NUniq=   15 SFac= 1.00D+00 NAtFMM=   60 NAOKFM=F Big=F
 Integral buffers will be    131072 words long.
 Raffenetti 1 integral format.
 Two-electron integral symmetry is turned on.
 Leave Link  301 at Fri Sep  3 00:21:40 2021, MaxMem=  2415919104 cpu:         0.6
 (Enter /gpfs/share/home/1801110325/software/g09e01/l302.exe)
 NPDir=0 NMtPBC=     1 NCelOv=     1 NCel=       1 NClECP=     1 NCelD=      1
         NCelK=      1 NCelE2=     1 NClLst=     1 CellRange=     0.0.
 One-electron integrals computed using PRISM.
 NBasis=   134 RedAO= T EigKep=  7.19D-04  NBF=   134
 NBsUse=   134 1.00D-06 EigRej= -1.00D+00 NBFU=   134
 Leave Link  302 at Fri Sep  3 00:21:41 2021, MaxMem=  2415919104 cpu:         0.5
 (Enter /gpfs/share/home/1801110325/software/g09e01/l303.exe)
 DipDrv:  MaxL=1.
 Leave Link  303 at Fri Sep  3 00:21:41 2021, MaxMem=  2415919104 cpu:         0.1
 (Enter /gpfs/share/home/1801110325/software/g09e01/l401.exe)
 Initial guess from the checkpoint file:  "HY_H2O_G3.chk"
 B after Tr=    -0.000000    0.000000   -0.000000
         Rot=    0.999999    0.000053    0.000031   -0.001222 Ang=   0.14 deg.
 Guess basis will be translated and rotated to current coordinates.
 JPrj=2 DoOrth=T DoCkMO=T.
 Generating alternative initial guess.
 ExpMin= 1.61D-01 ExpMax= 5.48D+03 ExpMxC= 8.25D+02 IAcc=1 IRadAn=         1 AccDes= 0.00D+00
 Harris functional with IExCor=  205 and IRadAn=       1 diagonalized for initial guess.
 HarFok:  IExCor=  205 AccDes= 0.00D+00 IRadAn=         1 IDoV= 1 UseB2=F ITyADJ=14
 ICtDFT=  3500011 ScaDFX=  1.000000  1.000000  1.000000  1.000000
 FoFCou: FMM=F IPFlag=           0 FMFlag=      100000 FMFlg1=           0
         NFxFlg=           0 DoJE=T BraDBF=F KetDBF=T FulRan=T
         wScrn=  0.000000 ICntrl=     500 IOpCl=  0 I1Cent=   200000004 NGrid=           0
         NMat0=    1 NMatS0=      1 NMatT0=    0 NMatD0=    1 NMtDS0=    0 NMtDT0=    0
 Petite list used in FoFCou.
 Harris En= -398.025177686482    
 Leave Link  401 at Fri Sep  3 00:21:41 2021, MaxMem=  2415919104 cpu:         2.1
 (Enter /gpfs/share/home/1801110325/software/g09e01/l502.exe)
 Closed shell SCF:
 Using DIIS extrapolation, IDIIS=  1040.
 Integral symmetry usage will be decided dynamically.
 Keep R1 ints in memory in canonical form, NReq=42214891.
 IVT=       74236 IEndB=       74236 NGot=  2415919104 MDV=  2374934334
 LenX=  2374934334 LenY=  2374915937
 Requested convergence on RMS density matrix=1.00D-08 within 128 cycles.
 Requested convergence on MAX density matrix=1.00D-06.
 Requested convergence on             energy=1.00D-06.
 No special actions if energy rises.
 FoFCou: FMM=F IPFlag=           0 FMFlag=           0 FMFlg1=           0
         NFxFlg=           0 DoJE=F BraDBF=F KetDBF=F FulRan=T
         wScrn=  0.000000 ICntrl=     600 IOpCl=  0 I1Cent=           0 NGrid=           0
         NMat0=    1 NMatS0=   9045 NMatT0=    0 NMatD0=    1 NMtDS0=    0 NMtDT0=    0
 Symmetry not used in FoFCou.

 Cycle   1  Pass 1  IDiag  1:
 E= -397.590560317489    
 DIIS: error= 1.99D-03 at cycle   1 NSaved=   1.
 NSaved= 1 IEnMin= 1 EnMin= -397.590560317489     IErMin= 1 ErrMin= 1.99D-03
 ErrMax= 1.99D-03  0.00D+00 EMaxC= 1.00D-01 BMatC= 8.58D-04 BMatP= 8.58D-04
 IDIUse=3 WtCom= 9.80D-01 WtEn= 1.99D-02
 Coeff-Com:  0.100D+01
 Coeff-En:   0.100D+01
 Coeff:      0.100D+01
 Gap=     1.936 Goal=   None    Shift=    0.000
 GapD=    1.936 DampG=2.000 DampE=1.000 DampFc=2.0000 IDamp=-1.
 RMSDP=2.79D-04 MaxDP=6.34D-03              OVMax= 4.97D-03

 Cycle   2  Pass 1  IDiag  1:
 E= -397.591449077569     Delta-E=       -0.000888760080 Rises=F Damp=F
 DIIS: error= 8.45D-04 at cycle   2 NSaved=   2.
 NSaved= 2 IEnMin= 2 EnMin= -397.591449077569     IErMin= 2 ErrMin= 8.45D-04
 ErrMax= 8.45D-04  0.00D+00 EMaxC= 1.00D-01 BMatC= 9.07D-05 BMatP= 8.58D-04
 IDIUse=3 WtCom= 9.92D-01 WtEn= 8.45D-03
 Coeff-Com:  0.923D-01 0.908D+00
 Coeff-En:   0.000D+00 0.100D+01
 Coeff:      0.915D-01 0.909D+00
 Gap=     0.445 Goal=   None    Shift=    0.000
 RMSDP=7.70D-05 MaxDP=2.06D-03 DE=-8.89D-04 OVMax= 1.83D-03

 Cycle   3  Pass 1  IDiag  1:
 E= -397.591525217205     Delta-E=       -0.000076139636 Rises=F Damp=F
 DIIS: error= 3.21D-04 at cycle   3 NSaved=   3.
 NSaved= 3 IEnMin= 3 EnMin= -397.591525217205     IErMin= 3 ErrMin= 3.21D-04
 ErrMax= 3.21D-04  0.00D+00 EMaxC= 1.00D-01 BMatC= 1.25D-05 BMatP= 9.07D-05
 IDIUse=3 WtCom= 9.97D-01 WtEn= 3.21D-03
 Coeff-Com: -0.690D-01 0.177D+00 0.892D+00
 Coeff-En:   0.000D+00 0.000D+00 0.100D+01
 Coeff:     -0.688D-01 0.177D+00 0.892D+00
 Gap=     0.445 Goal=   None    Shift=    0.000
 RMSDP=3.10D-05 MaxDP=6.92D-04 DE=-7.61D-05 OVMax= 8.27D-04

 Cycle   4  Pass 1  IDiag  1:
 E= -397.591539310218     Delta-E=       -0.000014093013 Rises=F Damp=F
 DIIS: error= 7.04D-05 at cycle   4 NSaved=   4.
 NSaved= 4 IEnMin= 4 EnMin= -397.591539310218     IErMin= 4 ErrMin= 7.04D-05
 ErrMax= 7.04D-05  0.00D+00 EMaxC= 1.00D-01 BMatC= 6.25D-07 BMatP= 1.25D-05
 IDIUse=1 WtCom= 1.00D+00 WtEn= 0.00D+00
 Coeff-Com: -0.673D-02-0.390D-01 0.425D-01 0.100D+01
 Coeff:     -0.673D-02-0.390D-01 0.425D-01 0.100D+01
 Gap=     0.445 Goal=   None    Shift=    0.000
 RMSDP=1.12D-05 MaxDP=2.27D-04 DE=-1.41D-05 OVMax= 5.94D-04

 Cycle   5  Pass 1  IDiag  1:
 E= -397.591540802804     Delta-E=       -0.000001492586 Rises=F Damp=F
 DIIS: error= 3.86D-05 at cycle   5 NSaved=   5.
 NSaved= 5 IEnMin= 5 EnMin= -397.591540802804     IErMin= 5 ErrMin= 3.86D-05
 ErrMax= 3.86D-05  0.00D+00 EMaxC= 1.00D-01 BMatC= 1.15D-07 BMatP= 6.25D-07
 IDIUse=1 WtCom= 1.00D+00 WtEn= 0.00D+00
 Coeff-Com:  0.713D-02-0.224D-01-0.961D-01 0.849D-01 0.103D+01
 Coeff:      0.713D-02-0.224D-01-0.961D-01 0.849D-01 0.103D+01
 Gap=     0.445 Goal=   None    Shift=    0.000
 RMSDP=5.70D-06 MaxDP=1.07D-04 DE=-1.49D-06 OVMax= 3.33D-04

 Cycle   6  Pass 1  IDiag  1:
 E= -397.591541180679     Delta-E=       -0.000000377875 Rises=F Damp=F
 DIIS: error= 1.77D-05 at cycle   6 NSaved=   6.
 NSaved= 6 IEnMin= 6 EnMin= -397.591541180679     IErMin= 6 ErrMin= 1.77D-05
 ErrMax= 1.77D-05  0.00D+00 EMaxC= 1.00D-01 BMatC= 1.78D-08 BMatP= 1.15D-07
 IDIUse=1 WtCom= 1.00D+00 WtEn= 0.00D+00
 Coeff-Com:  0.894D-03 0.513D-02-0.737D-02-0.133D+00-0.256D-01 0.116D+01
 Coeff:      0.894D-03 0.513D-02-0.737D-02-0.133D+00-0.256D-01 0.116D+01
 Gap=     0.445 Goal=   None    Shift=    0.000
 RMSDP=3.00D-06 MaxDP=5.09D-05 DE=-3.78D-07 OVMax= 2.55D-04

 Cycle   7  Pass 1  IDiag  1:
 E= -397.591541279835     Delta-E=       -0.000000099157 Rises=F Damp=F
 DIIS: error= 1.09D-05 at cycle   7 NSaved=   7.
 NSaved= 7 IEnMin= 7 EnMin= -397.591541279835     IErMin= 7 ErrMin= 1.09D-05
 ErrMax= 1.09D-05  0.00D+00 EMaxC= 1.00D-01 BMatC= 4.79D-09 BMatP= 1.78D-08
 IDIUse=1 WtCom= 1.00D+00 WtEn= 0.00D+00
 Coeff-Com: -0.832D-03 0.424D-02 0.121D-01-0.300D-01-0.181D+00 0.192D+00
 Coeff-Com:  0.100D+01
 Coeff:     -0.832D-03 0.424D-02 0.121D-01-0.300D-01-0.181D+00 0.192D+00
 Coeff:      0.100D+01
 Gap=     0.445 Goal=   None    Shift=    0.000
 RMSDP=1.39D-06 MaxDP=2.38D-05 DE=-9.92D-08 OVMax= 1.08D-04

 Cycle   8  Pass 1  IDiag  1:
 E= -397.591541300567     Delta-E=       -0.000000020732 Rises=F Damp=F
 DIIS: error= 4.10D-06 at cycle   8 NSaved=   8.
 NSaved= 8 IEnMin= 8 EnMin= -397.591541300567     IErMin= 8 ErrMin= 4.10D-06
 ErrMax= 4.10D-06  0.00D+00 EMaxC= 1.00D-01 BMatC= 7.27D-10 BMatP= 4.79D-09
 IDIUse=1 WtCom= 1.00D+00 WtEn= 0.00D+00
 Coeff-Com: -0.329D-03-0.804D-03 0.294D-02 0.340D-01-0.160D-01-0.259D+00
 Coeff-Com:  0.411D-01 0.120D+01
 Coeff:     -0.329D-03-0.804D-03 0.294D-02 0.340D-01-0.160D-01-0.259D+00
 Coeff:      0.411D-01 0.120D+01
 Gap=     0.445 Goal=   None    Shift=    0.000
 RMSDP=7.88D-07 MaxDP=1.43D-05 DE=-2.07D-08 OVMax= 6.81D-05

 Cycle   9  Pass 1  IDiag  1:
 E= -397.591541305095     Delta-E=       -0.000000004527 Rises=F Damp=F
 DIIS: error= 1.04D-06 at cycle   9 NSaved=   9.
 NSaved= 9 IEnMin= 9 EnMin= -397.591541305095     IErMin= 9 ErrMin= 1.04D-06
 ErrMax= 1.04D-06  0.00D+00 EMaxC= 1.00D-01 BMatC= 7.14D-11 BMatP= 7.27D-10
 IDIUse=1 WtCom= 1.00D+00 WtEn= 0.00D+00
 Coeff-Com:  0.155D-03-0.301D-03-0.187D-02-0.348D-02 0.197D-01 0.424D-01
 Coeff-Com: -0.147D+00-0.204D+00 0.129D+01
 Coeff:      0.155D-03-0.301D-03-0.187D-02-0.348D-02 0.197D-01 0.424D-01
 Coeff:     -0.147D+00-0.204D+00 0.129D+01
 Gap=     0.445 Goal=   None    Shift=    0.000
 RMSDP=2.21D-07 MaxDP=3.65D-06 DE=-4.53D-09 OVMax= 1.69D-05

 Cycle  10  Pass 1  IDiag  1:
 E= -397.591541305430     Delta-E=       -0.000000000336 Rises=F Damp=F
 DIIS: error= 2.46D-07 at cycle  10 NSaved=  10.
 NSaved=10 IEnMin=10 EnMin= -397.591541305430     IErMin=10 ErrMin= 2.46D-07
 ErrMax= 2.46D-07  0.00D+00 EMaxC= 1.00D-01 BMatC= 7.08D-12 BMatP= 7.14D-11
 IDIUse=1 WtCom= 1.00D+00 WtEn= 0.00D+00
 Coeff-Com:  0.628D-04-0.302D-05-0.653D-03-0.408D-02 0.625D-02 0.348D-01
 Coeff-Com: -0.438D-01-0.153D+00 0.307D+00 0.853D+00
 Coeff:      0.628D-04-0.302D-05-0.653D-03-0.408D-02 0.625D-02 0.348D-01
 Coeff:     -0.438D-01-0.153D+00 0.307D+00 0.853D+00
 Gap=     0.445 Goal=   None    Shift=    0.000
 RMSDP=4.00D-08 MaxDP=8.05D-07 DE=-3.36D-10 OVMax= 2.68D-06

 Cycle  11  Pass 1  IDiag  1:
 E= -397.591541305439     Delta-E=       -0.000000000009 Rises=F Damp=F
 DIIS: error= 4.81D-08 at cycle  11 NSaved=  11.
 NSaved=11 IEnMin=11 EnMin= -397.591541305439     IErMin=11 ErrMin= 4.81D-08
 ErrMax= 4.81D-08  0.00D+00 EMaxC= 1.00D-01 BMatC= 6.84D-13 BMatP= 7.08D-12
 IDIUse=1 WtCom= 1.00D+00 WtEn= 0.00D+00
 Coeff-Com: -0.141D-04 0.297D-04 0.204D-03 0.134D-03-0.191D-02-0.254D-02
 Coeff-Com:  0.141D-01 0.196D-01-0.145D+00 0.799D-01 0.104D+01
 Coeff:     -0.141D-04 0.297D-04 0.204D-03 0.134D-03-0.191D-02-0.254D-02
 Coeff:      0.141D-01 0.196D-01-0.145D+00 0.799D-01 0.104D+01
 Gap=     0.445 Goal=   None    Shift=    0.000
 RMSDP=1.16D-08 MaxDP=2.09D-07 DE=-9.21D-12 OVMax= 3.37D-07

 Cycle  12  Pass 1  IDiag  1:
 E= -397.591541305441     Delta-E=       -0.000000000002 Rises=F Damp=F
 DIIS: error= 1.67D-08 at cycle  12 NSaved=  12.
 NSaved=12 IEnMin=12 EnMin= -397.591541305441     IErMin=12 ErrMin= 1.67D-08
 ErrMax= 1.67D-08  0.00D+00 EMaxC= 1.00D-01 BMatC= 3.17D-14 BMatP= 6.84D-13
 IDIUse=1 WtCom= 1.00D+00 WtEn= 0.00D+00
 Coeff-Com: -0.355D-05-0.181D-05 0.365D-04 0.239D-03-0.321D-03-0.198D-02
 Coeff-Com:  0.122D-02 0.890D-02-0.137D-01-0.506D-01-0.728D-01 0.113D+01
 Coeff:     -0.355D-05-0.181D-05 0.365D-04 0.239D-03-0.321D-03-0.198D-02
 Coeff:      0.122D-02 0.890D-02-0.137D-01-0.506D-01-0.728D-01 0.113D+01
 Gap=     0.445 Goal=   None    Shift=    0.000
 RMSDP=3.67D-09 MaxDP=5.85D-08 DE=-1.93D-12 OVMax= 1.99D-07

 SCF Done:  E(RHF) =  -397.591541305     A.U. after   12 cycles
            NFock= 12  Conv=0.37D-08     -V/T= 2.0014
 KE= 3.970187538719D+02 PE=-1.654945268156D+03 EE= 4.994868113006D+02
 Leave Link  502 at Fri Sep  3 00:21:43 2021, MaxMem=  2415919104 cpu:         4.6
 (Enter /gpfs/share/home/1801110325/software/g09e01/l701.exe)
 Compute integral first derivatives.
 ... and contract with generalized density number  0.
 Leave Link  701 at Fri Sep  3 00:21:43 2021, MaxMem=  2415919104 cpu:         0.5
 (Enter /gpfs/share/home/1801110325/software/g09e01/l702.exe)
 L702 exits ... SP integral derivatives will be done elsewhere.
 Leave Link  702 at Fri Sep  3 00:21:43 2021, MaxMem=  2415919104 cpu:         0.1
 (Enter /gpfs/share/home/1801110325/software/g09e01/l703.exe)
 Compute integral first derivatives, UseDBF=F ICtDFT=           0.
 Integral derivatives from FoFJK, PRISM(SPDF).
 Calling FoFJK, ICntrl=      2127 FMM=F ISym2X=0 I1Cent= 0 IOpClX= 0 NMat=1 NMatS=1 NMatT=0.
 FoFJK:  IHMeth= 1 ICntrl=    2127 DoSepK=F KAlg= 0 I1Cent=   0 FoldK=F
 IRaf=         0 NMat=   1 IRICut=       1 DoRegI=T DoRafI=F ISym2E= 0.
 FoFCou: FMM=F IPFlag=           0 FMFlag=      100000 FMFlg1=         800
         NFxFlg=           0 DoJE=F BraDBF=F KetDBF=F FulRan=T
         wScrn=  0.000000 ICntrl=    2127 IOpCl=  0 I1Cent=           0 NGrid=           0
         NMat0=    1 NMatS0=      1 NMatT0=    0 NMatD0=    1 NMtDS0=    0 NMtDT0=    0
 Symmetry not used in FoFCou.
 Leave Link  703 at Fri Sep  3 00:21:43 2021, MaxMem=  2415919104 cpu:         4.0
 (Enter /gpfs/share/home/1801110325/software/g09e01/l716.exe)
 Dipole        =-8.29602166D-01-6.17401787D-01 6.07950430D-01
 ***** Axes restored to original set *****
 -------------------------------------------------------------------
 Center     Atomic                   Forces (Hartrees/Bohr)
 Number     Number              X              Y              Z
 -------------------------------------------------------------------
      1        8           0.000910667   -0.001534656    0.000801842
      2        7          -0.003985072    0.003269540    0.000672402
      3        6           0.005762008   -0.001751248   -0.000246711
      4        6          -0.002997525    0.001278781   -0.000022597
      5        6          -0.000273633   -0.001691240   -0.000037347
      6        6          -0.000238599    0.002359767   -0.000005817
      7        6          -0.000317715   -0.002146754   -0.000071270
      8        1          -0.003903254    0.005899664   -0.000916106
      9        1           0.000013916    0.000702148   -0.000001742
     10        1          -0.000207128   -0.001376085    0.000077888
     11        1          -0.000819235    0.000301273    0.000020691
     12        1          -0.000473395   -0.000192240   -0.000001246
     13        8          -0.001199134   -0.003993637    0.001137949
     14        1           0.000473288    0.000078539    0.000254430
     15        1           0.007254811   -0.001203851   -0.001662366
 -------------------------------------------------------------------
 Cartesian Forces:  Max     0.007254811 RMS     0.002217296
 Leave Link  716 at Fri Sep  3 00:21:44 2021, MaxMem=  2415919104 cpu:         0.1
 (Enter /gpfs/share/home/1801110325/software/g09e01/l103.exe)

 GradGradGradGradGradGradGradGradGradGradGradGradGradGradGradGradGradGrad
 Berny optimization.
 Using GEDIIS/GDIIS optimizer.
 FormGI is forming the generalized inverse of G from B-inverse, IUseBI=4.
 Internal  Forces:  Max     0.004337071 RMS     0.001073685
 Search for a local minimum.
 Step number   2 out of a maximum of   88
 All quantities printed in internal units (Hartrees-Bohrs-Radians)
 RMS Force = .10737D-02 SwitMx=.10000D-02 MixMth= 1
 Mixed Optimization -- RFO/linear search
 Update second derivatives using D2CorX and points    1    2
 DE= -3.05D-03 DEPred=-2.80D-03 R= 1.09D+00
 TightC=F SS=  1.41D+00  RLast= 1.47D-01 DXNew= 5.0454D-01 4.4066D-01
 Trust test= 1.09D+00 RLast= 1.47D-01 DXMaxT set to 4.41D-01
 ITU=  1  0
 Use linear search instead of GDIIS.
     Eigenvalues ---    0.00497   0.00778   0.01652   0.02061   0.02170
     Eigenvalues ---    0.02210   0.02224   0.02270   0.02302   0.02389
     Eigenvalues ---    0.02432   0.04852   0.06423   0.07040   0.08409
     Eigenvalues ---    0.13089   0.15990   0.16000   0.16000   0.16005
     Eigenvalues ---    0.19290   0.20420   0.22026   0.22410   0.23514
     Eigenvalues ---    0.35549   0.35715   0.35868   0.36497   0.41682
     Eigenvalues ---    0.42765   0.44470   0.46236   0.47932   0.48497
     Eigenvalues ---    0.52800   0.54769   0.55885   0.61420
 RFO step:  Lambda=-7.88765735D-04 EMin= 4.96882860D-03
 Quartic linear search produced a step of  0.09713.
 Iteration  1 RMS(Cart)=  0.01358587 RMS(Int)=  0.00017692
 Iteration  2 RMS(Cart)=  0.00010597 RMS(Int)=  0.00007176
 Iteration  3 RMS(Cart)=  0.00000004 RMS(Int)=  0.00007176
 ITry= 1 IFail=0 DXMaxC= 6.97D-02 DCOld= 1.00D+10 DXMaxT= 4.41D-01 DXLimC= 3.00D+00 Rises=F
 Variable       Old X    -DE/DX   Delta X   Delta X   Delta X     New X
                                 (Linear)    (Quad)   (Total)
    R1        2.50255  -0.00069  -0.00265  -0.00102  -0.00368   2.49886
    R2        1.82715  -0.00214  -0.00432  -0.00609  -0.01039   1.81676
    R3        2.49053  -0.00044  -0.00337  -0.00126  -0.00466   2.48587
    R4        2.51314   0.00278  -0.00216   0.00452   0.00236   2.51550
    R5        3.61926   0.00434   0.00697   0.08062   0.08758   3.70683
    R6        2.63649   0.00394  -0.00132   0.00908   0.00775   2.64424
    R7        2.58970   0.00070  -0.00174   0.00095  -0.00079   2.58890
    R8        2.02500   0.00070  -0.00171   0.00153  -0.00019   2.02481
    R9        2.58980   0.00140  -0.00211   0.00233   0.00023   2.59003
   R10        2.02943   0.00132  -0.00188   0.00340   0.00151   2.03094
   R11        2.63324   0.00305  -0.00075   0.00696   0.00622   2.63946
   R12        2.03027   0.00087  -0.00161   0.00211   0.00050   2.03077
   R13        2.02681   0.00049  -0.00158   0.00094  -0.00064   2.02617
   R14        3.37782   0.00313   0.00382   0.05553   0.05938   3.43720
   R15        3.52373   0.00185   0.00121   0.04076   0.04198   3.56571
   R16        1.79074   0.00042  -0.00279  -0.00021  -0.00300   1.78773
   R17        1.82332  -0.00269  -0.00409  -0.00756  -0.01169   1.81163
    A1        1.92520   0.00046   0.00240   0.01016   0.01251   1.93771
    A2        2.06173   0.00101  -0.00010   0.00524   0.00516   2.06689
    A3        1.85855  -0.00104  -0.00049  -0.00654  -0.00710   1.85145
    A4        2.36273   0.00003   0.00058   0.00122   0.00185   2.36457
    A5        2.07202   0.00089  -0.00006   0.00741   0.00728   2.07931
    A6        2.06482  -0.00039  -0.00044  -0.00387  -0.00426   2.06056
    A7        2.14634  -0.00050   0.00050  -0.00354  -0.00302   2.14332
    A8        2.05701   0.00008  -0.00048   0.00065   0.00016   2.05717
    A9        2.08411  -0.00010  -0.00004  -0.00080  -0.00084   2.08327
   A10        2.14207   0.00002   0.00052   0.00015   0.00068   2.14275
   A11        2.16221  -0.00064   0.00077  -0.00283  -0.00207   2.16015
   A12        2.01385   0.00077  -0.00035   0.00447   0.00413   2.01798
   A13        2.10712  -0.00012  -0.00042  -0.00164  -0.00206   2.10506
   A14        2.09130  -0.00004   0.00017   0.00015   0.00031   2.09161
   A15        2.09210   0.00008  -0.00006   0.00031   0.00026   2.09236
   A16        2.09979  -0.00004  -0.00011  -0.00047  -0.00057   2.09922
   A17        2.04777   0.00009  -0.00087   0.00032  -0.00055   2.04722
   A18        2.10892   0.00010   0.00044   0.00083   0.00126   2.11018
   A19        2.12650  -0.00019   0.00043  -0.00114  -0.00071   2.12578
   A20        2.78878  -0.00054  -0.00105  -0.00417  -0.00527   2.78351
   A21        2.25646   0.00063   0.00046   0.00470   0.00517   2.26162
   A22        2.06578   0.00012   0.00012   0.00283   0.00293   2.06871
   A23        1.85902   0.00045   0.00042   0.00526   0.00576   1.86479
   A24        1.31246  -0.00093  -0.00231  -0.01579  -0.01794   1.29452
   A25        2.53878   0.00022  -0.00026  -0.00266  -0.00313   2.53565
    D1        0.00859   0.00003   0.00019   0.00143   0.00174   0.01033
    D2       -3.13396   0.00006   0.00006   0.00138   0.00158  -3.13238
    D3        0.05659  -0.00041  -0.00189  -0.02224  -0.02390   0.03269
    D4        0.00236   0.00002   0.00026   0.00296   0.00302   0.00538
    D5       -3.13783   0.00003   0.00008  -0.00060  -0.00048  -3.13832
    D6        0.00476  -0.00001   0.00022  -0.00055  -0.00031   0.00445
    D7       -0.01362  -0.00004  -0.00044  -0.00409  -0.00447  -0.01809
    D8        3.12898  -0.00007  -0.00031  -0.00404  -0.00429   3.12469
    D9       -0.00449   0.00000  -0.00023   0.00057   0.00032  -0.00417
   D10        3.13649   0.00002  -0.00020   0.00073   0.00053   3.13702
   D11       -3.12236   0.00011   0.00050   0.00540   0.00587  -3.11649
   D12        0.01862   0.00012   0.00053   0.00557   0.00608   0.02470
   D13        0.00997   0.00002   0.00038   0.00355   0.00378   0.01375
   D14       -0.03761   0.00031   0.00302   0.03743   0.04057   0.00296
   D15        3.12974  -0.00005  -0.00030  -0.00079  -0.00119   3.12855
   D16        3.08217   0.00024   0.00234   0.03309   0.03560   3.11776
   D17        3.14025  -0.00003   0.00004   0.00021   0.00023   3.14048
   D18        0.00049  -0.00003   0.00004   0.00020   0.00023   0.00072
   D19       -0.00235   0.00000  -0.00009   0.00017   0.00006  -0.00228
   D20        3.14108   0.00001  -0.00009   0.00016   0.00007   3.14115
   D21       -0.00053  -0.00000  -0.00003   0.00023   0.00020  -0.00033
   D22       -3.14070  -0.00001  -0.00001  -0.00030  -0.00031  -3.14101
   D23        3.13917  -0.00001  -0.00003   0.00024   0.00019   3.13936
   D24       -0.00100  -0.00001  -0.00001  -0.00029  -0.00031  -0.00132
   D25        0.00174  -0.00000   0.00012  -0.00021  -0.00009   0.00165
   D26       -3.14147   0.00000   0.00006  -0.00007  -0.00000  -3.14147
   D27       -3.13921  -0.00002   0.00008  -0.00038  -0.00031  -3.13952
   D28        0.00076  -0.00001   0.00003  -0.00024  -0.00022   0.00054
   D29        0.00081  -0.00000   0.00002  -0.00021  -0.00018   0.00062
   D30       -3.13915  -0.00001   0.00007  -0.00035  -0.00027  -3.13942
   D31        3.14097   0.00000  -0.00000   0.00032   0.00032   3.14129
   D32        0.00101  -0.00000   0.00005   0.00018   0.00023   0.00125
   D33       -1.88088   0.00001   0.00274   0.03297   0.03570  -1.84518
   D34       -0.00821  -0.00003  -0.00042  -0.00430  -0.00448  -0.01269
   D35        1.50779   0.00031  -0.00019   0.00043   0.00008   1.50787
[...]
    10  H   -0.031683  -0.000713  -0.000537   0.474287   0.002221  -0.007462
    11  H   -0.019732   0.000015  -0.004980   0.002221   0.455209  -0.005276
    12  H    0.444495  -0.000028   0.003315  -0.007462  -0.005276   0.479227
    13  O    0.017421  -0.008160   0.001344   0.000928  -0.000129   0.000137
    14  H   -0.001649  -0.005415  -0.000222  -0.000012   0.000017  -0.000073
    15  H   -0.010034  -0.001784   0.000180  -0.001306   0.000026   0.000405
              13         14         15
     1  O    0.013522   0.003323  -0.008442
     2  N   -0.030387   0.006732  -0.000285
     3  C   -0.017393  -0.001478   0.024454
     4  C    0.098054  -0.014123  -0.018202
     5  C   -0.037062   0.001234  -0.003572
     6  C   -0.011677   0.002359  -0.001061
     7  C    0.017421  -0.001649  -0.010034
     8  H   -0.008160  -0.005415  -0.001784
     9  H    0.001344  -0.000222   0.000180
    10  H    0.000928  -0.000012  -0.001306
    11  H   -0.000129   0.000017   0.000026
    12  H    0.000137  -0.000073   0.000405
    13  O    8.056946   0.267926   0.270787
    14  H    0.267926   0.477082  -0.018508
    15  H    0.270787  -0.018508   0.390388
 Mulliken charges:
               1
     1  O   -0.472643
     2  N   -0.542278
     3  C   -0.033939
     4  C    0.307432
     5  C    0.057518
     6  C   -0.159959
     7  C   -0.329807
     8  H    0.420469
     9  H    0.192360
    10  H    0.176078
    11  H    0.192658
    12  H    0.154604
    13  O   -0.622256
    14  H    0.282808
    15  H    0.376955
 Sum of Mulliken charges =  -0.00000
 Mulliken charges with hydrogens summed into heavy atoms:
               1
     1  O   -0.052174
     2  N   -0.542278
     3  C   -0.033939
     4  C    0.499792
     5  C    0.233596
     6  C    0.032699
     7  C   -0.175203
    13  O    0.037507
 Electronic spatial extent (au):  <R**2>=           1075.5868
 Charge=             -0.0000 electrons
 Dipole moment (field-independent basis, Debye):
    X=             -2.2865    Y=             -1.3604    Z=              1.4186  Tot=              3.0152
 Quadrupole moment (field-independent basis, Debye-Ang):
   XX=            -43.8554   YY=            -45.1883   ZZ=            -49.6663
   XY=             -2.4842   XZ=              5.5264   YZ=             -1.1587
 Traceless Quadrupole moment (field-independent basis, Debye-Ang):
   XX=              2.3813   YY=              1.0484   ZZ=             -3.4296
   XY=             -2.4842   XZ=              5.5264   YZ=             -1.1587
 Octapole moment (field-independent basis, Debye-Ang**2):
  XXX=             -0.7814  YYY=             -9.0090  ZZZ=              1.6074  XYY=             -2.0902
  XXY=              0.6059  XXZ=             21.3165  XZZ=             16.2697  YZZ=             -0.0394
  YYZ=              0.9624  XYZ=             -4.8149
 Hexadecapole moment (field-independent basis, Debye-Ang**3):
 XXXX=           -891.0582 YYYY=           -350.8893 ZZZZ=            -55.7151 XXXY=             -5.2340
 XXXZ=             77.6803 YYYX=            -12.6886 YYYZ=             -0.6261 ZZZX=              7.2679
 ZZZY=             -1.7929 XXYY=           -208.4334 XXZZ=           -163.0567 YYZZ=            -77.8763
 XXYZ=            -16.9506 YYXZ=              4.1656 ZZXY=             -5.7031
 N-N= 3.563992046536D+02 E-N=-1.646335678714D+03  KE= 3.971458352777D+02
 Leave Link  601 at Fri Sep  3 01:27:47 2021, MaxMem=  2415919104 cpu:         0.5
 (Enter /gpfs/share/home/1801110325/software/g09e01/l9999.exe)
 1\1\GINC-A5U23N11\SP\RMP2-Full\GTlarge\C5H7N1O2\1801110325\03-Sep-2021
 \0\\#P Geom=AllCheck Guess=TCheck SCRF=Check MP2=Full/GTLarge\\HY_H2O_
 G3\\0,1\O,0,1.2350233056,1.4361510663,-0.0204459631\N,0,0.3144359811,-
 0.6914934573,-0.0295770913\C,0,0.1510095721,0.6381709931,-0.0113574359
 \C,0,-1.1128583327,1.2489493061,0.0204749974\C,0,-0.792591232,-1.46323
 58052,-0.0225068002\C,0,-2.2352704412,0.4399760737,0.0300418294\C,0,-2
 .0790498361,-0.9505844417,0.0076646865\H,0,2.0470894653,0.8637449758,-
 0.0647237995\H,0,-1.1753133908,2.3317609843,0.034104981\H,0,-0.6158183
 388,-2.5363474387,-0.0416458666\H,0,-3.2267601145,0.8846479332,0.05331
 62074\H,0,-2.9354325344,-1.6167554901,0.0123653566\O,0,3.1229372495,-0
 .5736823214,-0.0836269497\H,0,3.4610584144,-0.7474472509,0.8094183155\
 H,0,2.2540272325,-1.0376831271,-0.1140604676\\Version=EM64L-G09RevE.01
 \State=1-A\HF=-397.7381103\MP2=-399.5669255\RMSD=5.477e-09\PG=C01 [X(C
 5H7N1O2)]\\@


 There ain't no surer way to find out whether you
 like people or hate them than to travel with them.
                                     -- Mark Twain
 Diagonal vibrational polarizability:
        0.0000000       0.0000000       0.0000000

 Temperature=              298.150000 Pressure=                      1.000000
 E(ZPE)=                     0.114105 E(Thermal)=                    0.122520
 E(QCISD(T))=             -398.832686 E(Empiric)=                   -0.140492
 DE(Plus)=                  -0.032753 DE(2DF)=                      -0.312779
 E(Delta-G3)=               -0.489247 E(G3-Empiric)=                -0.140492
 G3(0 K)=                 -399.693851 G3 Energy=                  -399.685437
 G3 Enthalpy=             -399.684493 G3 Free Energy=             -399.727052
 1\1\GINC-A5U23N11\Mixed\G3\G3\C5H7N1O2\1801110325\03-Sep-2021\0\\#P Ge
 om=AllCheck Guess=TCheck SCRF=Check MP2=Full/GTLarge\\HY_H2O_G3\\0,1\O
 ,0,1.2350233056,1.4361510663,-0.0204459631\N,0,0.3144359811,-0.6914934
 573,-0.0295770913\C,0,0.1510095721,0.6381709931,-0.0113574359\C,0,-1.1
 128583327,1.2489493061,0.0204749974\C,0,-0.792591232,-1.4632358052,-0.
 0225068002\C,0,-2.2352704412,0.4399760737,0.0300418294\C,0,-2.07904983
 61,-0.9505844417,0.0076646865\H,0,2.0470894653,0.8637449758,-0.0647237
 995\H,0,-1.1753133908,2.3317609843,0.034104981\H,0,-0.6158183388,-2.53
 63474387,-0.0416458666\H,0,-3.2267601145,0.8846479332,0.0533162074\H,0
 ,-2.9354325344,-1.6167554901,0.0123653566\O,0,3.1229372495,-0.57368232
 14,-0.0836269497\H,0,3.4610584144,-0.7474472509,0.8094183155\H,0,2.254
 0272325,-1.0376831271,-0.1140604676\\Version=EM64L-G09RevE.01\State=1-
 A\MP2/G3Bas1=-398.7497954\QCISD(T)/G3Bas1=-398.8326859\MP4/GTBas1=-398
 .8352393\MP2/GTBas2=-398.7811781\MP4/GTBas2=-398.8679923\MP2/GTBas3=-3
 99.0462958\MP4/GTBas3=-399.1480183\MP2/GTLarge=-399.5669255\G3=-399.69
 38513\FreqCoord=2.238318631,2.6782839853,-0.0341715802,0.5170879811,-1
 .2643308335,-0.0480901525,0.2167574543,1.1994367306,-0.0197223287,-2.1
 599224862,2.3650651165,0.0301731974,-1.5445420413,-2.7126679709,-0.036
 7999173,-4.252418265,0.8423033295,0.0450643742,-3.9617058569,-1.782583
 4143,0.0102102623,3.7560734781,1.6896736173,-0.1035985201,-2.274323944
 9,4.3885122901,0.0515787286,-1.2074571241,-4.7169472475,-0.0668275246,
 -6.1093185885,1.6675669078,0.0814647146,-5.5592917586,-3.0319855615,0.
 0177285674,6.0495117475,-1.1157038044,-0.1120245624,6.7869817589,-1.51
 34084552,1.4713286691,4.5042842121,-2.0452638166,-0.1913272378\PG=C01 
 [X(C5H7N1O2)]\NImag=0\\0.76209319,-0.06399454,0.49920116,-0.02166416,0
 .01238420,0.04642528,0.01863665,-0.06264023,-0.00063560,0.56149893,-0.
 02201203,-0.07313665,-0.00056850,0.11241399,0.73326616,-0.00033352,0.0
 0005888,0.00839941,-0.00493137,0.00521366,0.10972644,-0.31630020,-0.09
 100003,0.00481321,-0.20404748,0.00781238,0.00170893,0.85944827,-0.1475
 9081,-0.21851943,0.00046733,0.08250045,-0.37849327,-0.00407343,0.03934
 507,0.83557348,0.00241616,-0.00149203,-0.06496798,0.00269788,-0.002896
 45,-0.08724316,-0.01015860,0.00619931,0.23032914,-0.07787079,0.0086409
 7,0.00130364,0.05414539,0.12283332,0.00095863,-0.26080543,0.01734800,0
 .00299829,0.75738922,-0.03474093,0.02244617,0.00086404,0.03521808,-0.0
 2607136,-0.00113794,0.12549210,-0.20465548,-0.00321061,0.04393783,0.88
 863135,0.00121034,0.00021545,0.01239661,-0.00025151,-0.00216847,0.0237
 3547,0.00398075,-0.00181880,-0.09130265,-0.00892002,0.00691942,0.14567
 384,-0.01427737,0.01265254,0.00032844,-0.31324350,-0.06901349,0.002588
 22,0.09098292,-0.13451092,-0.00282626,-0.11999268,-0.00214454,0.001678
 18,0.78110902,0.00443966,0.00349149,-0.00013870,-0.13384095,-0.2229089
 0,0.00011998,-0.03084895,-0.08547747,-0.00042505,-0.01958758,-0.003208
 97,0.00023913,-0.03950020,0.87390018,0.00040919,-0.00031749,0.01246139
 ,0.00168844,-0.00098419,-0.07718475,-0.00163718,0.00115815,-0.00457156
 ,0.00139213,0.00013560,-0.00592896,-0.00882270,0.00888676,0.19539166,0
 .00779512,0.00625889,0.00025219,-0.01870534,-0.04065921,-0.00032202,-0
 .07381736,0.01606050,0.00128032,-0.33726769,-0.17069522,0.00210323,0.0
 4303609,0.04795274,0.00009139,0.86397056,0.02388965,-0.00701137,-0.000
 34275,-0.05337319,-0.10798014,-0.00038687,-0.07498666,0.11963151,0.002
 34849,-0.07294704,-0.26322849,-0.00088608,0.13565936,-0.00331235,-0.00
 208872,-0.01634389,0.75636377,0.00022478,-0.00018991,0.00551211,-0.000
 38318,-0.00053694,-0.00761425,0.00029793,0.00110430,0.00084509,0.00313
 264,0.00047304,-0.07094139,0.00099387,-0.00080630,0.00755289,-0.010363
 14,0.00676010,0.17984370,0.00521856,-0.00933363,-0.00014702,-0.0829207
 3,-0.08528993,0.00056796,-0.05174662,0.08010281,0.00143723,0.07636731,
 -0.02777341,-0.00124972,-0.36183374,0.13527474,0.00577881,-0.16694184,
 -0.03219639,0.00095394,0.84634997,-0.01934608,-0.00083420,0.00008610,0
 .02012766,0.09911775,0.00069631,0.06466780,-0.07659290,-0.00170483,-0.
 09886530,-0.03294922,0.00107574,0.02584688,-0.20787206,-0.00200525,0.0
 6776723,-0.34518356,-0.00417705,0.06111155,0.76784446,-0.00024531,0.00
 017417,-0.00101320,0.00166843,0.00211941,0.02357871,0.00131987,-0.0019
 7841,-0.00878079,-0.00205396,-0.00011152,0.00863200,0.00448921,-0.0034
 9041,-0.08063914,0.00205202,-0.00278773,-0.07586680,-0.00945835,0.0066
 5195,0.14481676,-0.37278341,0.19625699,0.01550477,0.00416243,0.0096977
 3,-0.00005173,-0.05246209,0.01176488,0.00167395,0.00279518,-0.00363428
 ,0.00000227,-0.00016268,-0.00080902,-0.00009105,-0.00199351,-0.0004829
 1,0.00004940,0.00088659,0.00174889,0.00001280,0.41591391,0.24889043,-0
 .22537597,-0.01296365,0.00342118,-0.00014031,-0.00003240,-0.02807471,0
 .02996894,0.00158188,-0.00894373,-0.00478812,0.00002918,-0.00321077,-0
 .00153850,0.00001666,0.00065041,0.00440454,-0.00002307,0.00198122,-0.0
 0300008,-0.00004841,-0.20970237,0.20912660,0.01815072,-0.01132298,-0.0
 1762209,-0.00032333,-0.00007368,-0.00335757,-0.00034990,-0.00014909,-0
 .00010655,0.00007026,-0.00011529,0.00336221,0.00010829,0.00000780,-0.0
 0075572,-0.00009479,-0.00010613,0.00163289,-0.00004922,0.00009476,0.00
 044773,-0.01689027,0.01233129,0.02280531,0.00214094,-0.00118595,-0.000
 09380,-0.00695236,0.00605923,0.00027130,0.00710042,0.03349034,0.000242
 30,-0.07374152,0.01907406,0.00071089,-0.00246829,-0.00156079,0.0000178
 9,0.00982941,-0.03122582,-0.00040624,-0.00465877,-0.00296265,0.0001847
 7,-0.00013540,0.00014271,-0.00000894,0.06677866,-0.00038493,0.00177249
 ,0.00005622,0.00324007,-0.00031904,-0.00012102,-0.00488521,-0.01148849
 ,-0.00003712,0.02246812,-0.38757047,-0.00375059,0.00032914,0.00118174,
 0.00001291,0.00387553,-0.01246460,-0.00020272,-0.00358763,0.00071294,-
 0.00003237,0.00025451,0.00000509,-0.00000063,-0.02103181,0.40784857,-0
 .00007139,0.00004786,-0.00243775,0.00024796,-0.00023442,0.00638345,-0.
 00020565,-0.00063197,0.00217727,0.00081409,-0.00358205,-0.04051085,0.0
 0008719,0.00006452,-0.00014736,-0.00008871,0.00024997,0.00299335,0.000
 14706,-0.00004161,0.00990666,-0.00000971,0.00001367,-0.00061932,-0.000
 77332,0.00401521,0.02909873,-0.00012802,-0.00153070,-0.00000096,0.0048
 6481,-0.03926231,-0.00055279,-0.00386946,-0.00421288,0.00015408,-0.000
 35108,-0.00078682,-0.00000829,-0.08466352,0.06441549,0.00118610,-0.006
 95978,0.00184304,0.00025915,0.00331207,0.03315778,0.00050880,0.0003827
 6,-0.00004618,-0.00001220,0.00019441,-0.00001100,-0.00002643,0.0866118
 9,-0.00068172,-0.00155716,0.00000083,-0.00562455,-0.02179536,-0.000167
 02,-0.00277364,0.00153259,-0.00012075,0.00003971,0.00053126,0.00001136
 ,0.06069088,-0.36358938,-0.00468337,0.00269117,0.00066348,-0.00015691,
 -0.00106811,-0.00692092,-0.00021056,0.00052090,-0.00001877,-0.00000633
 ,0.00009696,-0.00007959,0.00001788,-0.05444991,0.39127139,-0.00001837,
 0.00001231,0.00003995,-0.00010025,0.00039018,-0.00221842,0.00022218,-0
 .00007380,0.01108630,-0.00003843,0.00002311,-0.00034700,0.00107401,-0.
 00488864,-0.05414429,0.00027518,-0.00007898,0.00943538,0.00013034,-0.0
 0070157,0.00974507,-0.00000243,-0.00000761,-0.00016191,-0.00002816,0.0
 0001467,-0.00158456,-0.00139982,0.00526004,0.03363943,-0.00200736,0.00
 084978,0.00004808,0.00004795,-0.00064699,-0.00005251,-0.00187173,-0.00
 441280,0.00015436,-0.01911085,0.01541698,0.00055198,0.00196436,0.00014
 651,0.00008931,-0.33005754,0.11289529,0.00530597,0.00260139,-0.0005203
 2,0.00005448,0.00003364,-0.00038673,-0.00002216,0.00118396,-0.00041120
 ,-0.00010853,-0.00004065,-0.00009303,-0.00001243,0.34660928,-0.0009493
 2,0.00100006,0.00005348,-0.00082687,-0.00027794,0.00004067,-0.00454874
 ,-0.00264423,-0.00009304,-0.01979789,0.01604928,0.00037006,0.00003620,
 -0.00790841,-0.00018743,0.11385533,-0.12656306,-0.00247902,0.03430432,
 -0.00435348,-0.00062711,-0.00021101,-0.00026519,-0.00000218,0.00080755
 ,0.00091896,0.00005839,0.00181285,-0.00053134,-0.00002100,-0.12355970,
 0.12327645,-0.00001292,-0.00000861,-0.00081488,-0.00005165,0.00003792,
 -0.00311460,0.00018400,-0.00007518,0.01213762,0.00018536,-0.00011349,0
 .00803533,0.00007771,-0.00020129,0.00826834,0.00528895,-0.00244439,-0.
 05466972,0.00047091,-0.00014957,0.00727911,-0.00001021,0.00000846,-0.0
 0046115,-0.00009977,0.00006656,-0.00582256,0.00000928,0.00000481,-0.00
 082201,-0.00595907,0.00281604,0.03395983,0.00001956,-0.00056602,-0.000
 02327,-0.00617520,0.00300800,0.00028159,0.00000193,0.00237896,0.000026
 51,0.00082469,0.00190929,0.00010758,-0.01750326,-0.02607496,-0.0000827
 3,0.01048587,0.00584386,-0.00006203,-0.26739268,-0.15114293,0.00144028
 ,0.00018801,0.00017988,-0.00000718,0.00038700,0.00029770,0.00000343,0.
 00075821,0.00069671,-0.00006888,0.00070736,-0.00087257,-0.00007519,0.2
 7766230,-0.00044297,0.00043063,0.00002839,0.00375391,0.00035800,-0.000
 18880,0.00166417,-0.00150260,-0.00004502,0.00274670,-0.00601158,-0.000
 19241,0.01269542,0.01485015,0.00000529,-0.03095250,-0.01395427,0.00024
 470,-0.15239596,-0.19068851,0.00032264,0.00003991,-0.00013453,0.000000
 43,-0.00150837,-0.00063303,0.00001069,-0.00075985,0.00069126,0.0000760
 3,0.00065907,0.00125864,0.00005549,0.16451252,0.19524906,-0.00003988,0
 .00002334,-0.00130942,0.00028299,-0.00014963,0.01018868,0.00002359,-0.
 00006375,0.00025943,0.00013089,-0.00016786,0.00702426,0.00040433,0.000
 56310,-0.00037765,-0.00048919,-0.00025027,0.00135314,0.00138305,0.0002
 5307,-0.03834301,0.00000729,-0.00000588,-0.00001161,-0.00001813,-0.000
 01654,0.00055644,-0.00008896,0.00006335,-0.00463071,-0.00005700,0.0000
 7323,-0.00396068,-0.00153888,-0.00032477,0.02923292,-0.00812694,0.0080
 9812,-0.00032036,-0.01192077,-0.00383329,-0.00099863,0.00369020,0.0002
 4079,0.00030771,-0.00115906,-0.00014549,0.00010601,0.00101871,0.004385
 54,0.00001734,0.00003070,-0.00013483,-0.00001279,-0.00158107,-0.000251
 05,0.00010400,-0.00121499,-0.00662753,0.00063200,-0.00011555,0.0001350
 7,-0.00000146,-0.00004556,-0.00045768,-0.00003671,-0.00023220,0.000016
 38,-0.00000663,-0.00042314,0.00002683,0.00001629,0.56293853,0.01650789
 ,-0.00209362,0.00150324,0.00014798,0.00621601,-0.00025391,-0.01002081,
 -0.00859341,-0.00018334,0.00333263,0.00153477,-0.00004275,0.00119847,-
 0.00091031,-0.00001425,-0.00072799,-0.00173340,-0.00001597,-0.00029502
 ,0.00167768,0.00003817,-0.00661454,0.00043439,-0.00441313,-0.00032446,
 0.00014454,-0.00000609,0.00031902,0.00036197,-0.00000261,0.00014678,0.
 00007095,0.00000161,0.00006724,0.00005317,-0.00000297,0.21366685,0.235
 60649,0.00010285,0.00088203,0.00532512,-0.00052262,0.00047772,0.005286
 60,-0.00076548,-0.00046772,-0.00158218,0.00015668,0.00008010,-0.000337
 20,0.00003360,-0.00008302,0.00003576,-0.00006081,-0.00009612,0.0000271
 8,-0.00000795,0.00010166,-0.00029368,-0.00028230,-0.00125143,-0.009180
 06,-0.00001821,0.00000795,-0.00003048,0.00002261,0.00001218,0.00008583
 ,0.00000939,0.00000260,0.00004374,0.00000069,0.00000514,-0.00007626,0.
 22388926,-0.14037918,0.52909705,0.00086573,0.00002455,0.00088873,-0.00
 020948,0.00001455,0.00167522,-0.00098717,-0.00009040,-0.00052187,0.000
 20881,0.00005610,-0.00011138,-0.00060473,-0.00022937,-0.00000294,-0.00
 002586,0.00003075,0.00001882,0.00019869,-0.00013681,-0.00010652,-0.001
 24370,0.00086983,-0.00178169,0.00001308,-0.00001448,-0.00000235,-0.000
 04148,-0.00000093,0.00003040,0.00004323,-0.00000907,0.00001101,0.00003
 423,0.00001641,-0.00001816,-0.13002652,0.01408858,-0.17671229,0.146109
 97,0.00005647,-0.00128242,-0.00159611,-0.00056754,-0.00031071,0.000257
 85,0.00078200,0.00028213,0.00026152,-0.00021453,-0.00004251,-0.0000087
 5,-0.00007369,0.00038665,-0.00002963,0.00009858,0.00014836,0.00000287,
 -0.00001111,-0.00021138,-0.00000192,0.00005705,0.00160484,0.00407517,0
 .00001549,-0.00001099,0.00001754,-0.00006785,-0.00009083,-0.00001951,-
 0.00000354,-0.00000420,-0.00000217,-0.00002681,-0.00000125,0.00000345,
 0.04232710,-0.05968130,0.14419477,-0.03013234,0.05124452,0.00102298,-0
 .00075029,-0.00055470,0.00055025,-0.00000285,-0.00040620,-0.00031141,-
 0.00006779,0.00025335,0.00008528,0.00000363,-0.00000475,-0.00008974,-0
 .00009965,0.00002396,0.00002190,0.00000501,-0.00000602,0.00007782,-0.0
 0001317,0.00000287,-0.00110509,0.00155463,0.00074038,0.00000714,-0.000
 00735,0.00001486,-0.00002260,0.00001350,0.00001078,0.00001179,-0.00000
 151,0.00000256,0.00001874,-0.00000017,0.00001146,-0.22868337,0.1123048
 9,-0.47252741,0.22307765,-0.11747808,0.47409031,-0.00527565,-0.0025307
 2,-0.00025389,0.00081870,-0.00112194,-0.00080926,0.00468380,0.00758601
 ,0.00011793,-0.00143151,-0.00118375,0.00008967,-0.00336132,-0.00416286
 ,-0.00003401,0.00062116,0.00152879,-0.00000912,0.00214086,-0.00120265,
 0.00002948,0.00563323,0.00085636,0.00057841,0.00044400,-0.00027389,-0.
 00001216,-0.00002460,0.00041323,-0.00002662,0.00012915,-0.00005747,-0.
 00001180,0.00042512,-0.00005529,0.00000176,-0.41283235,-0.23149261,-0.
 04584540,-0.01433481,-0.01223928,0.00533867,0.42236422,-0.00364078,0.0
 0146884,0.00016588,-0.00394997,-0.00752424,-0.00002595,0.00737523,0.00
 097863,-0.00018295,-0.00099120,-0.00066664,0.00000749,-0.00065527,0.00
 291616,0.00009495,0.00016840,0.00021958,0.00000288,-0.00082344,-0.0007
 4651,-0.00001791,0.00111327,-0.01028292,-0.00032002,0.00011352,-0.0000
 1811,0.00000041,-0.00042067,-0.00046858,0.00001738,-0.00008010,-0.0000
 2649,0.00000380,-0.00021085,0.00003487,0.00000214,-0.25744683,-0.17308
 792,-0.00348668,0.01551261,0.00796911,0.00453921,0.24393608,0.17923424
 ,-0.00115148,0.00028309,-0.00183986,0.00006355,-0.00062376,-0.00615980
 ,0.00087774,0.00047085,0.00146668,-0.00021548,-0.00006020,0.00051307,-
 0.00012435,0.00025177,0.00001542,0.00005348,0.00010447,-0.00009754,-0.
 00003485,-0.00016654,0.00052772,0.00119232,-0.00120332,0.00328744,0.00
 001229,-0.00000517,0.00002213,-0.00002796,-0.00003903,-0.00013384,-0.0
 0001366,-0.00000319,-0.00006093,-0.00002066,0.00000237,0.00008300,0.00
 498735,0.03146628,-0.05587402,-0.04644463,-0.02967701,-0.00165144,0.04
 084635,-0.00080063,0.05990197\\-0.00004438,-0.00004375,-0.00001929,0.0
 0002978,0.00002528,-0.00000490,0.00000442,-0.00003665,0.00001466,-0.00
 003450,-0.00000193,-0.00000112,-0.00004037,-0.00000527,-0.00000155,0.0
 0000216,0.00002854,0.00000156,0.00001558,-0.00000926,0.00000068,0.0000
 8556,0.00008299,0.00001253,0.00000307,0.00000183,-0.00000005,0.0000069
 8,-0.00000182,-0.00000020,-0.00000459,0.00000042,-0.00000011,-0.000001
 72,-0.00000034,0.00000040,-0.00000957,0.00003633,-0.00000759,0.0000018
 4,-0.00000406,0.00000974,-0.00001427,-0.00007229,-0.00000476\\\@
 Job cpu time:       0 days  0 hours 27 minutes 32.7 seconds.
 File lengths (MBytes):  RWF=  13296 Int=      0 D2E=      0 Chk=     32 Scr=     32
 Normal termination of Gaussian 09 at Fri Sep  3 01:27:47 2021.
