 Entering Gaussian System, Link 0=g09
 AtFile(1): pc-2.gbs
            -H     0
            S    4   1.00
                  0.754230D+02           0.240650D-02
                  0.113500D+02           0.184870D-01
                  0.259930D+01           0.897420D-01
                  0.735130D+00           0.281110D+00
            S    1   1.00
                  0.231670D+00           0.100000D+01
            S    1   1.00
                  0.741470D-01           0.100000D+01
            P    1   1.00
                  0.160000D+01           0.100000D+01
            P    1   1.00
                  0.450000D+00           0.100000D+01
            D    1   1.00
                  0.125000D+01           0.100000D+01
            ****
            -C     0
            S    7   1.00
                  0.785710D+04           0.568250D-03
                  0.117870D+04           0.439150D-02
                  0.268320D+03           0.225040D-01
                  0.759480D+02           0.866530D-01
                  0.245590D+02           0.244050D+00
                  0.862120D+01           0.441480D+00
                  0.312780D+01           0.353320D+00
            S    7   1.00
                  0.117870D+04          -0.594920D-06
                  0.268320D+03          -0.627480D-04
                  0.759480D+02          -0.757730D-03
                  0.245590D+02          -0.733080D-02
                  0.862120D+01          -0.389320D-01
                  0.312780D+01          -0.889080D-01
                  0.822020D+00           0.216890D+00
            S    1   1.00
                  0.330170D+00           0.100000D+01
            S    1   1.00
                  0.114630D+00           0.100000D+01
            P    4   1.00
                  0.337750D+02           0.602940D-02
                  0.767660D+01           0.432280D-01
                  0.223570D+01           0.163010D+00
                  0.764470D+00           0.365040D+00
            P    1   1.00
                  0.262320D+00           0.100000D+01
            P    1   1.00
                  0.846380D-01           0.100000D+01
            D    1   1.00
                  0.140000D+01           0.100000D+01
            D    1   1.00
                  0.450000D+00           0.100000D+01
            F    1   1.00
                  0.950000D+00           0.100000D+01
            ****
            -N     0
            S    7   1.00
                  0.111010D+05           0.545700D-03
                  0.166530D+04           0.421810D-02
                  0.379080D+03           0.216450D-01
                  0.107300D+03           0.837760D-01
                  0.347470D+02           0.238810D+00
                  0.122490D+02           0.439940D+00
                  0.447430D+01           0.363640D+00
            S    7   1.00
                  0.166530D+04          -0.150060D-05
                  0.379080D+03          -0.587530D-04
                  0.107300D+03          -0.774530D-03
                  0.347470D+02          -0.721610D-02
                  0.122490D+02          -0.393380D-01
                  0.447430D+01          -0.906110D-01
                  0.124040D+01           0.198820D+00
            S    1   1.00
                  0.487430D+00           0.100000D+01
            S    1   1.00
                  0.164840D+00           0.100000D+01
            P    4   1.00
                  0.479340D+02           0.617060D-02
                  0.109990D+02           0.442600D-01
                  0.324720D+01           0.168250D+00
                  0.111140D+01           0.368480D+00
            P    1   1.00
                  0.379880D+00           0.100000D+01
            P    1   1.00
                  0.120680D+00           0.100000D+01
            D    1   1.00
                  0.180000D+01           0.100000D+01
            D    1   1.00
                  0.550000D+00           0.100000D+01
            F    1   1.00
                  0.102000D+01           0.100000D+01
            ****
            -O     0
            S    7   1.00
                  0.147820D+05           0.535190D-03
                  0.221730D+04           0.413750D-02
                  0.504740D+03           0.212450D-01
                  0.142870D+03           0.824530D-01
                  0.463000D+02           0.236710D+00
                  0.163370D+02           0.440390D+00
                  0.598280D+01           0.364650D+00
            S    7   1.00
                  0.221730D+04          -0.192750D-05
                  0.504740D+03          -0.579640D-04
                  0.142870D+03          -0.794940D-03
                  0.463000D+02          -0.731250D-02
                  0.163370D+02          -0.405740D-01
                  0.598280D+01          -0.915940D-01
                  0.167180D+01           0.209400D+00
            S    1   1.00
                  0.646620D+00           0.100000D+01
            S    1   1.00
                  0.216690D+00           0.100000D+01
            P    4   1.00
                  0.604240D+02           0.689490D-02
                  0.139350D+02           0.490050D-01
                  0.415310D+01           0.182550D+00
                  0.141580D+01           0.376330D+00
            P    1   1.00
                  0.475490D+00           0.100000D+01
            P    1   1.00
                  0.145290D+00           0.100000D+01
            D    1   1.00
                  0.220000D+01           0.100000D+01
            D    1   1.00
                  0.650000D+00           0.100000D+01
            F    1   1.00
                  0.110000D+01           0.100000D+01
            ****
 Initial command:
 /public3/home/sc51754/softwares/g09e01/l1.exe "./Gau-48765.inp" -scrdir="./"
 Entering Link 1 = /public3/home/sc51754/softwares/g09e01/l1.exe PID=     48766.
  
 Copyright (c) 1988,1990,1992,1993,1995,1998,2003,2009,2015,
            Gaussian, Inc.  All Rights Reserved.
  
 This is part of the Gaussian(R) 09 program.  It is based on
 the Gaussian(R) 03 system (copyright 2003, Gaussian, Inc.),
 the Gaussian(R) 98 system (copyright 1998, Gaussian, Inc.),
 the Gaussian(R) 94 system (copyright 1995, Gaussian, Inc.),
 the Gaussian 92(TM) system (copyright 1992, Gaussian, Inc.),
 the Gaussian 90(TM) system (copyright 1990, Gaussian, Inc.),
 the Gaussian 88(TM) system (copyright 1988, Gaussian, Inc.),
 the Gaussian 86(TM) system (copyright 1986, Carnegie Mellon
 University), and the Gaussian 82(TM) system (copyright 1983,
 Carnegie Mellon University). Gaussian is a federally registered
 trademark of Gaussian, Inc.
  
 This software contains proprietary and confidential information,
 including trade secrets, belonging to Gaussian, Inc.
  
 This software is provided under written license and may be
 used, copied, transmitted, or stored only in accord with that
 written license.
  
 The following legend is applicable only to US Government
 contracts under FAR:
  
                    RESTRICTED RIGHTS LEGEND
  
 Use, reproduction and disclosure by the US Government is
 subject to restrictions as set forth in subparagraphs (a)
 and (c) of the Commercial Computer Software - Restricted
 Rights clause in FAR 52.227-19.
  
 Gaussian, Inc.
 340 Quinnipiac St., Bldg. 40, Wallingford CT 06492
  
  
 ---------------------------------------------------------------
 Warning -- This program may not be used in any manner that
 competes with the business of Gaussian, Inc. or will provide
 assistance to any competitor of Gaussian, Inc.  The licensee
 of this program is prohibited from giving any competitor of
 Gaussian, Inc. access to this program.  By using this program,
 the user acknowledges that Gaussian, Inc. is engaged in the
 business of creating and licensing software in the field of
 computational chemistry and represents and warrants to the
 licensee that it is not a competitor of Gaussian, Inc. and that
 it will not use this program in any manner prohibited above.
 ---------------------------------------------------------------
  

 Cite this work as:
 Gaussian 09, Revision E.01,
 M. J. Frisch, G. W. Trucks, H. B. Schlegel, G. E. Scuseria, 
 M. A. Robb, J. R. Cheeseman, G. Scalmani, V. Barone, B. Mennucci, 
 G. A. Petersson, H. Nakatsuji, M. Caricato, X. Li, H. P. Hratchian, 
 A. F. Izmaylov, J. Bloino, G. Zheng, J. L. Sonnenberg, M. Hada, 
 M. Ehara, K. Toyota, R. Fukuda, J. Hasegawa, M. Ishida, T. Nakajima, 
 Y. Honda, O. Kitao, H. Nakai, T. Vreven, J. A. Montgomery, Jr., 
 J. E. Peralta, F. Ogliaro, M. Bearpark, J. J. Heyd, E. Brothers, 
 K. N. Kudin, V. N. Staroverov, T. Keith, R. Kobayashi, J. Normand, 
 K. Raghavachari, A. Rendell, J. C. Burant, S. S. Iyengar, J. Tomasi, 
 M. Cossi, N. Rega, J. M. Millam, M. Klene, J. E. Knox, J. B. Cross, 
 V. Bakken, C. Adamo, J. Jaramillo, R. Gomperts, R. E. Stratmann, 
 O. Yazyev, A. J. Austin, R. Cammi, C. Pomelli, J. W. Ochterski, 
 R. L. Martin, K. Morokuma, V. G. Zakrzewski, G. A. Voth, 
 P. Salvador, J. J. Dannenberg, S. Dapprich, A. D. Daniels, 
 O. Farkas, J. B. Foresman, J. V. Ortiz, J. Cioslowski, 
 and D. J. Fox, Gaussian, Inc., Wallingford CT, 2013.
 
 ******************************************
 Gaussian 09:  EM64L-G09RevE.01 30-Nov-2015
                27-Aug-2021 
 ******************************************
 %nprocshared=64
 Will use up to   64 processors via shared memory.
 %mem=128GB
 %chk=PY_CAM-B3LYP_PC2_OPT_FREQ.chk
 -------------------------
 #p opt freq CAM-B3LYP/gen
 -------------------------
 1/14=-1,18=20,19=15,26=3,38=1/1,3;
 2/9=110,12=2,17=6,18=5,40=1/2;
 3/5=7,11=2,16=1,25=1,30=1,71=1,74=-40/1,2,3;
 4//1;
 5/5=2,38=5/2;
 6/7=2,8=2,9=2,10=2,28=1/1;
 7//1,2,3,16;
 1/14=-1,18=20,19=15,26=3/3(2);
 2/9=110/2;
 99//99;
 2/9=110/2;
 3/5=7,6=1,11=2,16=1,25=1,30=1,71=1,74=-40,82=7/1,2,3;
 4/5=5,16=3,69=1/1;
 5/5=2,38=5/2;
 7//1,2,3,16;
 1/14=-1,18=20,19=15,26=3/3(-5);
 2/9=110/2;
 6/7=2,8=2,9=2,10=2,19=2,28=1/1;
 99/9=1/99;
 Leave Link    1 at Fri Aug 27 00:09:54 2021, MaxMem= 17179869184 cpu:         4.9
 (Enter /public3/home/sc51754/softwares/g09e01/l101.exe)
 -------------------------
 PY_CAM-B3LYP_PC2_OPT_FREQ
 -------------------------
 Symbolic Z-matrix:
 Charge =  0 Multiplicity = 1
 O                    -0.1303    2.2679    0. 
 N                    -1.13214   0.23327   0. 
 C                     0.        1.06201   0. 
 C                     1.23795   0.32011   0. 
 C                    -1.11441  -1.12189   0. 
 C                     1.25607  -1.03234   0. 
 C                     0.05856  -1.79159   0. 
 H                    -2.00762   0.73274   0. 
 H                     2.14422   0.90837   0. 
 H                    -2.07697  -1.61403   0. 
 H                     2.20675  -1.5513    0. 
 H                     0.072    -2.86964   0. 
 
 NAtoms=     12 NQM=       12 NQMF=       0 NMMI=      0 NMMIF=      0
                NMic=       0 NMicF=      0.
                    Isotopes and Nuclear Properties:
 (Nuclear quadrupole moments (NQMom) in fm**2, nuclear magnetic moments (NMagM)
  in nuclear magnetons)

  Atom         1           2           3           4           5           6           7           8           9          10
 IAtWgt=          16          14          12          12          12          12          12           1           1           1
 AtmWgt=  15.9949146  14.0030740  12.0000000  12.0000000  12.0000000  12.0000000  12.0000000   1.0078250   1.0078250   1.0078250
 NucSpn=           0           2           0           0           0           0           0           1           1           1
 AtZEff=   0.0000000   0.0000000   0.0000000   0.0000000   0.0000000   0.0000000   0.0000000   0.0000000   0.0000000   0.0000000
 NQMom=    0.0000000   2.0440000   0.0000000   0.0000000   0.0000000   0.0000000   0.0000000   0.0000000   0.0000000   0.0000000
 NMagM=    0.0000000   0.4037610   0.0000000   0.0000000   0.0000000   0.0000000   0.0000000   2.7928460   2.7928460   2.7928460
 AtZNuc=   8.0000000   7.0000000   6.0000000   6.0000000   6.0000000   6.0000000   6.0000000   1.0000000   1.0000000   1.0000000

  Atom        11          12
 IAtWgt=           1           1
 AtmWgt=   1.0078250   1.0078250
 NucSpn=           1           1
 AtZEff=   0.0000000   0.0000000
 NQMom=    0.0000000   0.0000000
 NMagM=    2.7928460   2.7928460
 AtZNuc=   1.0000000   1.0000000
 Leave Link  101 at Fri Aug 27 00:09:55 2021, MaxMem= 17179869184 cpu:         9.2
 (Enter /public3/home/sc51754/softwares/g09e01/l103.exe)

 GradGradGradGradGradGradGradGradGradGradGradGradGradGradGradGradGradGrad
 Berny optimization.
 Initialization pass.
                           ----------------------------
                           !    Initial Parameters    !
                           ! (Angstroms and Degrees)  !
 --------------------------                            --------------------------
 ! Name  Definition              Value          Derivative Info.                !
 --------------------------------------------------------------------------------
 ! R1    R(1,3)                  1.2129         estimate D2E/DX2                !
 ! R2    R(2,3)                  1.403          estimate D2E/DX2                !
 ! R3    R(2,5)                  1.3553         estimate D2E/DX2                !
 ! R4    R(2,8)                  1.0079         estimate D2E/DX2                !
 ! R5    R(3,4)                  1.4432         estimate D2E/DX2                !
 ! R6    R(4,6)                  1.3526         estimate D2E/DX2                !
 ! R7    R(4,9)                  1.0805         estimate D2E/DX2                !
 ! R8    R(5,7)                  1.3507         estimate D2E/DX2                !
 ! R9    R(5,10)                 1.0811         estimate D2E/DX2                !
 ! R10   R(6,7)                  1.4179         estimate D2E/DX2                !
 ! R11   R(6,11)                 1.0831         estimate D2E/DX2                !
 ! R12   R(7,12)                 1.0781         estimate D2E/DX2                !
 ! A1    A(3,2,5)              125.4546         estimate D2E/DX2                !
 ! A2    A(3,2,8)              114.0905         estimate D2E/DX2                !
 ! A3    A(5,2,8)              120.4549         estimate D2E/DX2                !
 ! A4    A(1,3,2)              120.0371         estimate D2E/DX2                !
 ! A5    A(1,3,4)              127.1013         estimate D2E/DX2                !
 ! A6    A(2,3,4)              112.8616         estimate D2E/DX2                !
 ! A7    A(3,4,6)              121.7019         estimate D2E/DX2                !
 ! A8    A(3,4,9)              116.0785         estimate D2E/DX2                !
 ! A9    A(6,4,9)              122.2196         estimate D2E/DX2                !
 ! A10   A(2,5,7)              120.4739         estimate D2E/DX2                !
 ! A11   A(2,5,10)             116.3305         estimate D2E/DX2                !
 ! A12   A(7,5,10)             123.1956         estimate D2E/DX2                !
 ! A13   A(4,6,7)              121.6078         estimate D2E/DX2                !
 ! A14   A(4,6,11)             119.3971         estimate D2E/DX2                !
 ! A15   A(7,6,11)             118.9951         estimate D2E/DX2                !
 ! A16   A(5,7,6)              117.9002         estimate D2E/DX2                !
 ! A17   A(5,7,12)             120.4381         estimate D2E/DX2                !
 ! A18   A(6,7,12)             121.6617         estimate D2E/DX2                !
 ! D1    D(5,2,3,1)            180.0            estimate D2E/DX2                !
 ! D2    D(5,2,3,4)              0.0            estimate D2E/DX2                !
 ! D3    D(8,2,3,1)              0.0            estimate D2E/DX2                !
 ! D4    D(8,2,3,4)            180.0            estimate D2E/DX2                !
 ! D5    D(3,2,5,7)              0.0            estimate D2E/DX2                !
 ! D6    D(3,2,5,10)           180.0            estimate D2E/DX2                !
 ! D7    D(8,2,5,7)            180.0            estimate D2E/DX2                !
 ! D8    D(8,2,5,10)             0.0            estimate D2E/DX2                !
 ! D9    D(1,3,4,6)            180.0            estimate D2E/DX2                !
 ! D10   D(1,3,4,9)              0.0            estimate D2E/DX2                !
 ! D11   D(2,3,4,6)              0.0            estimate D2E/DX2                !
 ! D12   D(2,3,4,9)            180.0            estimate D2E/DX2                !
 ! D13   D(3,4,6,7)              0.0            estimate D2E/DX2                !
 ! D14   D(3,4,6,11)           180.0            estimate D2E/DX2                !
 ! D15   D(9,4,6,7)            180.0            estimate D2E/DX2                !
 ! D16   D(9,4,6,11)             0.0            estimate D2E/DX2                !
 ! D17   D(2,5,7,6)              0.0            estimate D2E/DX2                !
 ! D18   D(2,5,7,12)           180.0            estimate D2E/DX2                !
 ! D19   D(10,5,7,6)           180.0            estimate D2E/DX2                !
 ! D20   D(10,5,7,12)            0.0            estimate D2E/DX2                !
 ! D21   D(4,6,7,5)              0.0            estimate D2E/DX2                !
 ! D22   D(4,6,7,12)           180.0            estimate D2E/DX2                !
 ! D23   D(11,6,7,5)           180.0            estimate D2E/DX2                !
 ! D24   D(11,6,7,12)            0.0            estimate D2E/DX2                !
 --------------------------------------------------------------------------------
 Trust Radius=3.00D-01 FncErr=1.00D-07 GrdErr=1.00D-06
 Number of steps in this run=     64 maximum allowed number of steps=    100.
 GradGradGradGradGradGradGradGradGradGradGradGradGradGradGradGradGradGrad

 Leave Link  103 at Fri Aug 27 00:09:55 2021, MaxMem= 17179869184 cpu:         0.2
 (Enter /public3/home/sc51754/softwares/g09e01/l202.exe)
                          Input orientation:                          
 ---------------------------------------------------------------------
 Center     Atomic      Atomic             Coordinates (Angstroms)
 Number     Number       Type             X           Y           Z
 ---------------------------------------------------------------------
      1          8           0       -0.130304    2.267896    0.000000
      2          7           0       -1.132141    0.233271    0.000000
      3          6           0        0.000000    1.062005    0.000000
      4          6           0        1.237945    0.320111    0.000000
      5          6           0       -1.114407   -1.121885    0.000000
      6          6           0        1.256071   -1.032342    0.000000
      7          6           0        0.058564   -1.791590    0.000000
      8          1           0       -2.007624    0.732742    0.000000
      9          1           0        2.144218    0.908369    0.000000
     10          1           0       -2.076968   -1.614034    0.000000
     11          1           0        2.206750   -1.551299    0.000000
     12          1           0        0.071999   -2.869636    0.000000
 ---------------------------------------------------------------------
                    Distance matrix (angstroms):
                    1          2          3          4          5
     1  O    0.000000
     2  N    2.267901   0.000000
     3  C    1.212911   1.403048   0.000000
     4  C    2.380330   2.371676   1.443231   0.000000
     5  C    3.529741   1.355272   2.451791   2.759151   0.000000
     6  C    3.579610   2.702838   2.442131   1.352574   2.372169
     7  C    4.063877   2.349008   2.854196   2.418723   1.350691
     8  H    2.425083   1.007939   2.034445   3.271694   2.058514
     9  H    2.649861   3.345188   2.149715   1.080453   3.839345
    10  H    4.342681   2.074906   3.387474   3.837912   1.081080
    11  H    4.477507   3.785879   3.420395   2.107311   3.348803
    12  H    5.141514   3.328361   3.932300   3.396162   2.112390
                    6          7          8          9         10
     6  C    0.000000
     7  C    1.417914   0.000000
     8  H    3.710421   3.262114   0.000000
     9  H    2.134283   3.411705   4.155555   0.000000
    10  H    3.383418   2.142901   2.347800   4.917411   0.000000
    11  H    1.083101   2.161583   4.793516   2.460463   4.284177
    12  H    2.185790   1.078130   4.159562   4.308992   2.488894
                   11         12
    11  H    0.000000
    12  H    2.509019   0.000000
 Stoichiometry    C5H5NO
 Framework group  CS[SG(C5H5NO)]
 Deg. of freedom    21
 Full point group                 CS      NOp   2
 Largest Abelian subgroup         CS      NOp   2
 Largest concise Abelian subgroup C1      NOp   1
                         Standard orientation:                         
 ---------------------------------------------------------------------
 Center     Atomic      Atomic             Coordinates (Angstroms)
 Number     Number       Type             X           Y           Z
 ---------------------------------------------------------------------
      1          8           0       -0.130304    2.267896    0.000000
      2          7           0       -1.132141    0.233271    0.000000
      3          6           0       -0.000000    1.062005    0.000000
      4          6           0        1.237945    0.320111   -0.000000
      5          6           0       -1.114407   -1.121885    0.000000
      6          6           0        1.256071   -1.032342   -0.000000
      7          6           0        0.058564   -1.791590   -0.000000
      8          1           0       -2.007624    0.732742    0.000000
      9          1           0        2.144218    0.908369   -0.000000
     10          1           0       -2.076968   -1.614034    0.000000
     11          1           0        2.206750   -1.551299   -0.000000
     12          1           0        0.071999   -2.869636   -0.000000
 ---------------------------------------------------------------------
 Rotational constants (GHZ):      5.7341355      2.8228169      1.8916098
 Leave Link  202 at Fri Aug 27 00:09:55 2021, MaxMem= 17179869184 cpu:         6.7
 (Enter /public3/home/sc51754/softwares/g09e01/l301.exe)
 General basis read from cards:  (5D, 7F)
 Centers:       8      9     10     11     12
 S 4 1.00
     Exponent=  7.5423000000D+01 Coefficients=  2.4065000000D-03
     Exponent=  1.1350000000D+01 Coefficients=  1.8487000000D-02
     Exponent=  2.5993000000D+00 Coefficients=  8.9742000000D-02
     Exponent=  7.3513000000D-01 Coefficients=  2.8111000000D-01
 S 1 1.00
     Exponent=  2.3167000000D-01 Coefficients=  1.0000000000D+00
 S 1 1.00
     Exponent=  7.4147000000D-02 Coefficients=  1.0000000000D+00
 P 1 1.00
     Exponent=  1.6000000000D+00 Coefficients=  1.0000000000D+00
 P 1 1.00
     Exponent=  4.5000000000D-01 Coefficients=  1.0000000000D+00
 D 1 1.00
     Exponent=  1.2500000000D+00 Coefficients=  1.0000000000D+00
 ****
 Centers:       3      4      5      6      7
 S 7 1.00
     Exponent=  7.8571000000D+03 Coefficients=  5.6825000000D-04
     Exponent=  1.1787000000D+03 Coefficients=  4.3915000000D-03
     Exponent=  2.6832000000D+02 Coefficients=  2.2504000000D-02
     Exponent=  7.5948000000D+01 Coefficients=  8.6653000000D-02
     Exponent=  2.4559000000D+01 Coefficients=  2.4405000000D-01
     Exponent=  8.6212000000D+00 Coefficients=  4.4148000000D-01
     Exponent=  3.1278000000D+00 Coefficients=  3.5332000000D-01
 S 7 1.00
     Exponent=  1.1787000000D+03 Coefficients= -5.9492000000D-07
     Exponent=  2.6832000000D+02 Coefficients= -6.2748000000D-05
     Exponent=  7.5948000000D+01 Coefficients= -7.5773000000D-04
     Exponent=  2.4559000000D+01 Coefficients= -7.3308000000D-03
     Exponent=  8.6212000000D+00 Coefficients= -3.8932000000D-02
     Exponent=  3.1278000000D+00 Coefficients= -8.8908000000D-02
     Exponent=  8.2202000000D-01 Coefficients=  2.1689000000D-01
 S 1 1.00
     Exponent=  3.3017000000D-01 Coefficients=  1.0000000000D+00
 S 1 1.00
     Exponent=  1.1463000000D-01 Coefficients=  1.0000000000D+00
 P 4 1.00
     Exponent=  3.3775000000D+01 Coefficients=  6.0294000000D-03
     Exponent=  7.6766000000D+00 Coefficients=  4.3228000000D-02
     Exponent=  2.2357000000D+00 Coefficients=  1.6301000000D-01
     Exponent=  7.6447000000D-01 Coefficients=  3.6504000000D-01
 P 1 1.00
     Exponent=  2.6232000000D-01 Coefficients=  1.0000000000D+00
 P 1 1.00
     Exponent=  8.4638000000D-02 Coefficients=  1.0000000000D+00
 D 1 1.00
     Exponent=  1.4000000000D+00 Coefficients=  1.0000000000D+00
 D 1 1.00
     Exponent=  4.5000000000D-01 Coefficients=  1.0000000000D+00
 F 1 1.00
     Exponent=  9.5000000000D-01 Coefficients=  1.0000000000D+00
 ****
 Centers:       2
 S 7 1.00
     Exponent=  1.1101000000D+04 Coefficients=  5.4570000000D-04
     Exponent=  1.6653000000D+03 Coefficients=  4.2181000000D-03
     Exponent=  3.7908000000D+02 Coefficients=  2.1645000000D-02
     Exponent=  1.0730000000D+02 Coefficients=  8.3776000000D-02
     Exponent=  3.4747000000D+01 Coefficients=  2.3881000000D-01
     Exponent=  1.2249000000D+01 Coefficients=  4.3994000000D-01
     Exponent=  4.4743000000D+00 Coefficients=  3.6364000000D-01
 S 7 1.00
     Exponent=  1.6653000000D+03 Coefficients= -1.5006000000D-06
     Exponent=  3.7908000000D+02 Coefficients= -5.8753000000D-05
     Exponent=  1.0730000000D+02 Coefficients= -7.7453000000D-04
     Exponent=  3.4747000000D+01 Coefficients= -7.2161000000D-03
     Exponent=  1.2249000000D+01 Coefficients= -3.9338000000D-02
     Exponent=  4.4743000000D+00 Coefficients= -9.0611000000D-02
     Exponent=  1.2404000000D+00 Coefficients=  1.9882000000D-01
 S 1 1.00
     Exponent=  4.8743000000D-01 Coefficients=  1.0000000000D+00
 S 1 1.00
     Exponent=  1.6484000000D-01 Coefficients=  1.0000000000D+00
 P 4 1.00
     Exponent=  4.7934000000D+01 Coefficients=  6.1706000000D-03
     Exponent=  1.0999000000D+01 Coefficients=  4.4260000000D-02
     Exponent=  3.2472000000D+00 Coefficients=  1.6825000000D-01
     Exponent=  1.1114000000D+00 Coefficients=  3.6848000000D-01
 P 1 1.00
     Exponent=  3.7988000000D-01 Coefficients=  1.0000000000D+00
 P 1 1.00
     Exponent=  1.2068000000D-01 Coefficients=  1.0000000000D+00
 D 1 1.00
     Exponent=  1.8000000000D+00 Coefficients=  1.0000000000D+00
 D 1 1.00
     Exponent=  5.5000000000D-01 Coefficients=  1.0000000000D+00
 F 1 1.00
     Exponent=  1.0200000000D+00 Coefficients=  1.0000000000D+00
 ****
 Centers:       1
 S 7 1.00
     Exponent=  1.4782000000D+04 Coefficients=  5.3519000000D-04
     Exponent=  2.2173000000D+03 Coefficients=  4.1375000000D-03
     Exponent=  5.0474000000D+02 Coefficients=  2.1245000000D-02
     Exponent=  1.4287000000D+02 Coefficients=  8.2453000000D-02
     Exponent=  4.6300000000D+01 Coefficients=  2.3671000000D-01
     Exponent=  1.6337000000D+01 Coefficients=  4.4039000000D-01
     Exponent=  5.9828000000D+00 Coefficients=  3.6465000000D-01
 S 7 1.00
     Exponent=  2.2173000000D+03 Coefficients= -1.9275000000D-06
     Exponent=  5.0474000000D+02 Coefficients= -5.7964000000D-05
     Exponent=  1.4287000000D+02 Coefficients= -7.9494000000D-04
     Exponent=  4.6300000000D+01 Coefficients= -7.3125000000D-03
     Exponent=  1.6337000000D+01 Coefficients= -4.0574000000D-02
     Exponent=  5.9828000000D+00 Coefficients= -9.1594000000D-02
     Exponent=  1.6718000000D+00 Coefficients=  2.0940000000D-01
 S 1 1.00
     Exponent=  6.4662000000D-01 Coefficients=  1.0000000000D+00
 S 1 1.00
     Exponent=  2.1669000000D-01 Coefficients=  1.0000000000D+00
 P 4 1.00
     Exponent=  6.0424000000D+01 Coefficients=  6.8949000000D-03
     Exponent=  1.3935000000D+01 Coefficients=  4.9005000000D-02
     Exponent=  4.1531000000D+00 Coefficients=  1.8255000000D-01
     Exponent=  1.4158000000D+00 Coefficients=  3.7633000000D-01
 P 1 1.00
     Exponent=  4.7549000000D-01 Coefficients=  1.0000000000D+00
 P 1 1.00
     Exponent=  1.4529000000D-01 Coefficients=  1.0000000000D+00
 D 1 1.00
     Exponent=  2.2000000000D+00 Coefficients=  1.0000000000D+00
 D 1 1.00
     Exponent=  6.5000000000D-01 Coefficients=  1.0000000000D+00
 F 1 1.00
     Exponent=  1.1000000000D+00 Coefficients=  1.0000000000D+00
 ****
 Ernie: Thresh=  0.10000D-02 Tol=  0.10000D-05 Strict=F.
 Ernie:  7 primitive shells out of 220 were deleted.
 There are   223 symmetry adapted cartesian basis functions of A'  symmetry.
 There are    97 symmetry adapted cartesian basis functions of A"  symmetry.
 There are   190 symmetry adapted basis functions of A'  symmetry.
 There are    90 symmetry adapted basis functions of A"  symmetry.
   280 basis functions,   475 primitive gaussians,   320 cartesian basis functions
    25 alpha electrons       25 beta electrons
       nuclear repulsion energy       276.8386644497 Hartrees.
 IExCor=20419 DFT=T Ex+Corr=CAM-B3LYP ExCW=0 ScaHFX=  1.000000
 ScaDFX=  1.000000  1.000000  1.000000  0.810000 ScalE2=  1.000000  1.000000
 IRadAn=      0 IRanWt=     -1 IRanGd=            0 ICorTp=0 IEmpDi=  4
  HFx wShort=  0.000000 wLong=  0.330000 cFull=  0.190000 cShort=  0.000000 cLong=  0.460000
  DFx wShort=  0.000000 wLong=  0.330000 cFull=  0.190000 cShort=  0.000000 cLong=  0.460000
 NAtoms=   12 NActive=   12 NUniq=   12 SFac= 1.00D+00 NAtFMM=   60 NAOKFM=F Big=F
 Integral buffers will be    131072 words long.
 Raffenetti 2 integral format.
 Two-electron integral symmetry is turned on.
 Leave Link  301 at Fri Aug 27 00:09:55 2021, MaxMem= 17179869184 cpu:         1.7
 (Enter /public3/home/sc51754/softwares/g09e01/l302.exe)
 NPDir=0 NMtPBC=     1 NCelOv=     1 NCel=       1 NClECP=     1 NCelD=      1
         NCelK=      1 NCelE2=     1 NClLst=     1 CellRange=     0.0.
 One-electron integrals computed using PRISM.
 NBasis=   280 RedAO= T EigKep=  2.29D-04  NBF=   190    90
 NBsUse=   280 1.00D-06 EigRej= -1.00D+00 NBFU=   190    90
 Precomputing XC quadrature grid using
 IXCGrd= 4 IRadAn=           0 IRanWt=          -1 IRanGd=           0 AccXCQ= 0.00D+00.
 Generated NRdTot=       0 NPtTot=           0 NUsed=           0 NTot=          32
 NSgBfM=   320   320   320   320   320 MxSgAt=    12 MxSgA2=    12.
 Leave Link  302 at Fri Aug 27 00:09:56 2021, MaxMem= 17179869184 cpu:        35.6
 (Enter /public3/home/sc51754/softwares/g09e01/l303.exe)
 DipDrv:  MaxL=1.
 Leave Link  303 at Fri Aug 27 00:09:56 2021, MaxMem= 17179869184 cpu:        10.2
 (Enter /public3/home/sc51754/softwares/g09e01/l401.exe)
 ExpMin= 7.41D-02 ExpMax= 1.48D+04 ExpMxC= 5.05D+02 IAcc=2 IRadAn=         4 AccDes= 0.00D+00
 Harris functional with IExCor=20419 and IRadAn=       4 diagonalized for initial guess.
 HarFok:  IExCor=20419 AccDes= 0.00D+00 IRadAn=         4 IDoV= 1 UseB2=F ITyADJ=14
 ICtDFT=  3500011 ScaDFX=  1.000000  1.000000  1.000000  1.000000
 FoFCou: FMM=F IPFlag=           0 FMFlag=      100000 FMFlg1=           0
         NFxFlg=           0 DoJE=T BraDBF=F KetDBF=T FulRan=T
         wScrn=  0.000000 ICntrl=     500 IOpCl=  0 I1Cent=   200000004 NGrid=           0
         NMat0=    1 NMatS0=      1 NMatT0=    0 NMatD0=    1 NMtDS0=    0 NMtDT0=    0
 Petite list used in FoFCou.
 Harris En= -311.352564019410    
 JPrj=0 DoOrth=F DoCkMO=F.
 Initial guess orbital symmetries:
       Occupied  (A') (A') (A') (A') (A') (A') (A') (A') (A') (A')
                 (A') (A') (A') (A') (A') (A') (A') (A') (A") (A')
                 (A') (A") (A") (A') (A")
       Virtual   (A") (A') (A") (A') (A') (A') (A') (A") (A') (A')
                 (A") (A') (A') (A") (A") (A') (A') (A') (A") (A')
                 (A') (A") (A') (A') (A') (A') (A') (A') (A') (A')
                 (A") (A') (A') (A') (A") (A') (A') (A') (A') (A')
                 (A') (A') (A') (A") (A') (A') (A') (A") (A") (A')
                 (A") (A") (A') (A') (A") (A') (A') (A') (A') (A")
                 (A') (A') (A") (A') (A") (A') (A') (A") (A") (A')
                 (A") (A') (A') (A") (A') (A") (A') (A") (A') (A')
                 (A") (A') (A") (A') (A") (A') (A') (A') (A") (A")
                 (A') (A') (A') (A") (A') (A') (A') (A') (A") (A')
                 (A') (A') (A') (A") (A') (A') (A") (A') (A') (A')
                 (A") (A') (A') (A') (A') (A') (A") (A') (A') (A")
                 (A') (A') (A") (A') (A') (A") (A") (A") (A') (A")
                 (A') (A") (A') (A') (A") (A') (A") (A') (A') (A')
                 (A') (A') (A") (A') (A') (A") (A') (A') (A') (A')
                 (A') (A") (A") (A") (A") (A") (A') (A") (A') (A")
                 (A') (A") (A') (A') (A") (A') (A') (A') (A') (A")
                 (A") (A') (A') (A") (A") (A') (A") (A') (A") (A")
                 (A') (A") (A') (A") (A") (A') (A') (A") (A') (A")
                 (A') (A") (A') (A") (A') (A") (A') (A') (A") (A')
                 (A') (A') (A") (A") (A') (A') (A") (A') (A') (A')
                 (A") (A') (A') (A") (A') (A") (A') (A") (A') (A')
                 (A") (A') (A") (A') (A") (A') (A') (A') (A") (A')
                 (A') (A') (A') (A") (A') (A') (A') (A") (A') (A')
                 (A') (A") (A') (A') (A') (A') (A') (A') (A') (A')
                 (A') (A') (A') (A') (A')
 The electronic state of the initial guess is 1-A'.
 Leave Link  401 at Fri Aug 27 00:09:57 2021, MaxMem= 17179869184 cpu:        50.3
 (Enter /public3/home/sc51754/softwares/g09e01/l502.exe)
 Closed shell SCF:
 Using DIIS extrapolation, IDIIS=  1040.
 Integral symmetry usage will be decided dynamically.
 Keep R1 ints in memory in symmetry-blocked form, NReq=2335173138.
 IVT=      348658 IEndB=      348658 NGot= 17179869184 MDV= 16785904737
 LenX= 16785904737 LenY= 16785801896
 Requested convergence on RMS density matrix=1.00D-08 within 128 cycles.
 Requested convergence on MAX density matrix=1.00D-06.
 Requested convergence on             energy=1.00D-06.
 No special actions if energy rises.
 FoFCou: FMM=F IPFlag=           0 FMFlag=           0 FMFlg1=           0
         NFxFlg=           0 DoJE=F BraDBF=F KetDBF=F FulRan=T
         wScrn=  0.000000 ICntrl=     600 IOpCl=  0 I1Cent=           0 NGrid=           0
         NMat0=    1 NMatS0=  39340 NMatT0=    0 NMatD0=    1 NMtDS0=    0 NMtDT0=    0
 Petite list used in FoFCou.
 Integral accuracy reduced to 1.0D-05 until final iterations.

 Cycle   1  Pass 0  IDiag  1:
 E= -323.412792827155    
 DIIS: error= 5.53D-02 at cycle   1 NSaved=   1.
 NSaved= 1 IEnMin= 1 EnMin= -323.412792827155     IErMin= 1 ErrMin= 5.53D-02
 ErrMax= 5.53D-02  0.00D+00 EMaxC= 1.00D-01 BMatC= 2.28D-01 BMatP= 2.28D-01
 IDIUse=3 WtCom= 4.47D-01 WtEn= 5.53D-01
 Coeff-Com:  0.100D+01
 Coeff-En:   0.100D+01
 Coeff:      0.100D+01
 Gap=     0.280 Goal=   None    Shift=    0.000
 GapD=    0.280 DampG=1.000 DampE=0.500 DampFc=0.5000 IDamp=-1.
 Damping current iteration by 5.00D-01
 RMSDP=2.72D-03 MaxDP=1.40D-01              OVMax= 1.77D-01

 Cycle   2  Pass 0  IDiag  1:
 E= -323.449072380265     Delta-E=       -0.036279553110 Rises=F Damp=T
 DIIS: error= 2.74D-02 at cycle   2 NSaved=   2.
 NSaved= 2 IEnMin= 2 EnMin= -323.449072380265     IErMin= 2 ErrMin= 2.74D-02
 ErrMax= 2.74D-02  0.00D+00 EMaxC= 1.00D-01 BMatC= 4.59D-02 BMatP= 2.28D-01
 IDIUse=3 WtCom= 7.26D-01 WtEn= 2.74D-01
 Coeff-Com: -0.241D+00 0.124D+01
 Coeff-En:   0.741D-01 0.926D+00
 Coeff:     -0.155D+00 0.115D+01
 Gap=     0.289 Goal=   None    Shift=    0.000
 RMSDP=1.22D-03 MaxDP=6.12D-02 DE=-3.63D-02 OVMax= 1.47D-01

 Cycle   3  Pass 0  IDiag  1:
 E= -323.483761987375     Delta-E=       -0.034689607111 Rises=F Damp=F
 DIIS: error= 8.78D-03 at cycle   3 NSaved=   3.
 NSaved= 3 IEnMin= 3 EnMin= -323.483761987375     IErMin= 3 ErrMin= 8.78D-03
 ErrMax= 8.78D-03  0.00D+00 EMaxC= 1.00D-01 BMatC= 1.80D-02 BMatP= 4.59D-02
 IDIUse=3 WtCom= 9.12D-01 WtEn= 8.78D-02
 Coeff-Com: -0.265D+00 0.578D+00 0.687D+00
 Coeff-En:   0.000D+00 0.000D+00 0.100D+01
 Coeff:     -0.242D+00 0.527D+00 0.715D+00
 Gap=     0.273 Goal=   None    Shift=    0.000
 RMSDP=3.59D-04 MaxDP=2.24D-02 DE=-3.47D-02 OVMax= 5.14D-02

 Cycle   4  Pass 0  IDiag  1:
 E= -323.498729958121     Delta-E=       -0.014967970745 Rises=F Damp=F
 DIIS: error= 2.11D-03 at cycle   4 NSaved=   4.
 NSaved= 4 IEnMin= 4 EnMin= -323.498729958121     IErMin= 4 ErrMin= 2.11D-03
 ErrMax= 2.11D-03  0.00D+00 EMaxC= 1.00D-01 BMatC= 1.70D-03 BMatP= 1.80D-02
 IDIUse=3 WtCom= 9.79D-01 WtEn= 2.11D-02
 Coeff-Com: -0.127D+00 0.263D+00 0.406D+00 0.458D+00
 Coeff-En:   0.000D+00 0.000D+00 0.000D+00 0.100D+01
 Coeff:     -0.124D+00 0.258D+00 0.397D+00 0.469D+00
 Gap=     0.276 Goal=   None    Shift=    0.000
 RMSDP=1.04D-04 MaxDP=4.49D-03 DE=-1.50D-02 OVMax= 9.29D-03

 Cycle   5  Pass 0  IDiag  1:
 E= -323.500003280264     Delta-E=       -0.001273322143 Rises=F Damp=F
 DIIS: error= 5.35D-04 at cycle   5 NSaved=   5.
 NSaved= 5 IEnMin= 5 EnMin= -323.500003280264     IErMin= 5 ErrMin= 5.35D-04
 ErrMax= 5.35D-04  0.00D+00 EMaxC= 1.00D-01 BMatC= 5.10D-05 BMatP= 1.70D-03
 IDIUse=3 WtCom= 9.95D-01 WtEn= 5.35D-03
 Coeff-Com: -0.284D-01 0.573D-01 0.112D+00 0.197D+00 0.662D+00
 Coeff-En:   0.000D+00 0.000D+00 0.000D+00 0.000D+00 0.100D+01
 Coeff:     -0.282D-01 0.570D-01 0.111D+00 0.196D+00 0.664D+00
 Gap=     0.275 Goal=   None    Shift=    0.000
 RMSDP=2.55D-05 MaxDP=1.47D-03 DE=-1.27D-03 OVMax= 4.38D-03

 Cycle   6  Pass 0  IDiag  1:
 E= -323.500053656632     Delta-E=       -0.000050376368 Rises=F Damp=F
 DIIS: error= 2.03D-04 at cycle   6 NSaved=   6.
 NSaved= 6 IEnMin= 6 EnMin= -323.500053656632     IErMin= 6 ErrMin= 2.03D-04
 ErrMax= 2.03D-04  0.00D+00 EMaxC= 1.00D-01 BMatC= 1.27D-05 BMatP= 5.10D-05
 IDIUse=3 WtCom= 9.98D-01 WtEn= 2.03D-03
 Coeff-Com:  0.214D-01-0.453D-01-0.525D-01-0.347D-01 0.338D+00 0.773D+00
 Coeff-En:   0.000D+00 0.000D+00 0.000D+00 0.000D+00 0.000D+00 0.100D+01
 Coeff:      0.214D-01-0.452D-01-0.524D-01-0.346D-01 0.337D+00 0.774D+00
 Gap=     0.276 Goal=   None    Shift=    0.000
 RMSDP=1.83D-05 MaxDP=4.74D-04 DE=-5.04D-05 OVMax= 2.53D-03

 Cycle   7  Pass 0  IDiag  1:
 E= -323.500072075711     Delta-E=       -0.000018419079 Rises=F Damp=F
 DIIS: error= 6.41D-05 at cycle   7 NSaved=   7.
 NSaved= 7 IEnMin= 7 EnMin= -323.500072075711     IErMin= 7 ErrMin= 6.41D-05
 ErrMax= 6.41D-05  0.00D+00 EMaxC= 1.00D-01 BMatC= 7.30D-07 BMatP= 1.27D-05
 IDIUse=1 WtCom= 1.00D+00 WtEn= 0.00D+00
 Coeff-Com:  0.321D-02-0.650D-02-0.926D-02-0.269D-01-0.251D-01 0.253D-01
 Coeff-Com:  0.104D+01
 Coeff:      0.321D-02-0.650D-02-0.926D-02-0.269D-01-0.251D-01 0.253D-01
 Coeff:      0.104D+01
 Gap=     0.276 Goal=   None    Shift=    0.000
 RMSDP=6.68D-06 MaxDP=1.64D-04 DE=-1.84D-05 OVMax= 1.28D-03

 Initial convergence to 1.0D-05 achieved.  Increase integral accuracy.
 Cycle   8  Pass 1  IDiag  1:
 E= -323.500057329407     Delta-E=        0.000014746304 Rises=F Damp=F
 DIIS: error= 2.45D-05 at cycle   1 NSaved=   1.
 NSaved= 1 IEnMin= 1 EnMin= -323.500057329407     IErMin= 1 ErrMin= 2.45D-05
 ErrMax= 2.45D-05  0.00D+00 EMaxC= 1.00D-01 BMatC= 1.89D-07 BMatP= 1.89D-07
 IDIUse=1 WtCom= 1.00D+00 WtEn= 0.00D+00
 Coeff-Com:  0.100D+01
 Coeff:      0.100D+01
 Gap=     0.276 Goal=   None    Shift=    0.000
 RMSDP=6.68D-06 MaxDP=1.64D-04 DE= 1.47D-05 OVMax= 2.89D-04

 Cycle   9  Pass 1  IDiag  1:
 E= -323.500057491328     Delta-E=       -0.000000161921 Rises=F Damp=F
 DIIS: error= 2.78D-05 at cycle   2 NSaved=   2.
 NSaved= 2 IEnMin= 2 EnMin= -323.500057491328     IErMin= 1 ErrMin= 2.45D-05
 ErrMax= 2.78D-05  0.00D+00 EMaxC= 1.00D-01 BMatC= 1.46D-07 BMatP= 1.89D-07
 IDIUse=1 WtCom= 1.00D+00 WtEn= 0.00D+00
 Coeff-Com:  0.461D+00 0.539D+00
 Coeff:      0.461D+00 0.539D+00
 Gap=     0.276 Goal=   None    Shift=    0.000
 RMSDP=1.23D-06 MaxDP=5.59D-05 DE=-1.62D-07 OVMax= 2.34D-04

 Cycle  10  Pass 1  IDiag  1:
 E= -323.500057629335     Delta-E=       -0.000000138007 Rises=F Damp=F
 DIIS: error= 7.05D-06 at cycle   3 NSaved=   3.
 NSaved= 3 IEnMin= 3 EnMin= -323.500057629335     IErMin= 3 ErrMin= 7.05D-06
 ErrMax= 7.05D-06  0.00D+00 EMaxC= 1.00D-01 BMatC= 2.10D-08 BMatP= 1.46D-07
 IDIUse=1 WtCom= 1.00D+00 WtEn= 0.00D+00
 Coeff-Com: -0.441D-01 0.235D+00 0.809D+00
 Coeff:     -0.441D-01 0.235D+00 0.809D+00
 Gap=     0.276 Goal=   None    Shift=    0.000
 RMSDP=6.94D-07 MaxDP=2.07D-05 DE=-1.38D-07 OVMax= 7.11D-05

 Cycle  11  Pass 1  IDiag  1:
 E= -323.500057655864     Delta-E=       -0.000000026529 Rises=F Damp=F
 DIIS: error= 4.57D-06 at cycle   4 NSaved=   4.
 NSaved= 4 IEnMin= 4 EnMin= -323.500057655864     IErMin= 4 ErrMin= 4.57D-06
 ErrMax= 4.57D-06  0.00D+00 EMaxC= 1.00D-01 BMatC= 4.25D-09 BMatP= 2.10D-08
 IDIUse=1 WtCom= 1.00D+00 WtEn= 0.00D+00
 Coeff-Com: -0.899D-01 0.759D-01 0.426D+00 0.588D+00
 Coeff:     -0.899D-01 0.759D-01 0.426D+00 0.588D+00
 Gap=     0.276 Goal=   None    Shift=    0.000
 RMSDP=2.51D-07 MaxDP=1.17D-05 DE=-2.65D-08 OVMax= 4.74D-05

 Cycle  12  Pass 1  IDiag  1:
 E= -323.500057661655     Delta-E=       -0.000000005791 Rises=F Damp=F
 DIIS: error= 1.49D-06 at cycle   5 NSaved=   5.
 NSaved= 5 IEnMin= 5 EnMin= -323.500057661655     IErMin= 5 ErrMin= 1.49D-06
 ErrMax= 1.49D-06  0.00D+00 EMaxC= 1.00D-01 BMatC= 4.99D-10 BMatP= 4.25D-09
 IDIUse=1 WtCom= 1.00D+00 WtEn= 0.00D+00
 Coeff-Com: -0.454D-02-0.288D-01-0.161D+00 0.129D+00 0.107D+01
 Coeff:     -0.454D-02-0.288D-01-0.161D+00 0.129D+00 0.107D+01
 Gap=     0.276 Goal=   None    Shift=    0.000
 RMSDP=1.93D-07 MaxDP=5.03D-06 DE=-5.79D-09 OVMax= 3.88D-05

 Cycle  13  Pass 1  IDiag  1:
 E= -323.500057662976     Delta-E=       -0.000000001320 Rises=F Damp=F
 DIIS: error= 8.94D-07 at cycle   6 NSaved=   6.
 NSaved= 6 IEnMin= 6 EnMin= -323.500057662976     IErMin= 6 ErrMin= 8.94D-07
 ErrMax= 8.94D-07  0.00D+00 EMaxC= 1.00D-01 BMatC= 1.06D-10 BMatP= 4.99D-10
 IDIUse=1 WtCom= 1.00D+00 WtEn= 0.00D+00
 Coeff-Com:  0.848D-02-0.240D-01-0.145D+00-0.312D-02 0.565D+00 0.598D+00
 Coeff:      0.848D-02-0.240D-01-0.145D+00-0.312D-02 0.565D+00 0.598D+00
 Gap=     0.276 Goal=   None    Shift=    0.000
 RMSDP=4.82D-08 MaxDP=1.92D-06 DE=-1.32D-09 OVMax= 6.93D-06

 Cycle  14  Pass 1  IDiag  1:
 E= -323.500057663103     Delta-E=       -0.000000000128 Rises=F Damp=F
 DIIS: error= 1.08D-07 at cycle   7 NSaved=   7.
 NSaved= 7 IEnMin= 7 EnMin= -323.500057663103     IErMin= 7 ErrMin= 1.08D-07
 ErrMax= 1.08D-07  0.00D+00 EMaxC= 1.00D-01 BMatC= 2.21D-12 BMatP= 1.06D-10
 IDIUse=1 WtCom= 1.00D+00 WtEn= 0.00D+00
 Coeff-Com:  0.290D-02-0.432D-02-0.306D-01-0.775D-02 0.917D-01 0.161D+00
 Coeff-Com:  0.787D+00
 Coeff:      0.290D-02-0.432D-02-0.306D-01-0.775D-02 0.917D-01 0.161D+00
 Coeff:      0.787D+00
 Gap=     0.276 Goal=   None    Shift=    0.000
 RMSDP=7.97D-09 MaxDP=2.50D-07 DE=-1.28D-10 OVMax= 1.22D-06

 SCF Done:  E(RCAM-B3LYP) =  -323.500057663     A.U. after   14 cycles
            NFock= 14  Conv=0.80D-08     -V/T= 2.0032
 KE= 3.224529334071D+02 PE=-1.308637453771D+03 EE= 3.858457982508D+02
 Leave Link  502 at Fri Aug 27 00:10:07 2021, MaxMem= 17179869184 cpu:       449.4
 (Enter /public3/home/sc51754/softwares/g09e01/l601.exe)
 Copying SCF densities to generalized density rwf, IOpCl= 0 IROHF=0.

 **********************************************************************

            Population analysis using the SCF density.

 **********************************************************************

 Orbital symmetries:
       Occupied  (A') (A') (A') (A') (A') (A') (A') (A') (A') (A')
                 (A') (A') (A') (A') (A') (A') (A') (A") (A') (A')
                 (A') (A") (A") (A') (A")
       Virtual   (A") (A') (A") (A') (A') (A') (A') (A') (A") (A')
                 (A") (A') (A') (A") (A') (A") (A') (A') (A") (A')
                 (A') (A') (A") (A') (A') (A') (A') (A') (A') (A')
                 (A") (A') (A') (A') (A") (A') (A') (A') (A') (A')
                 (A') (A') (A") (A') (A') (A') (A') (A") (A") (A")
                 (A') (A") (A') (A') (A") (A') (A') (A') (A') (A")
                 (A') (A') (A") (A') (A") (A') (A') (A") (A') (A")
                 (A") (A') (A') (A") (A') (A") (A') (A") (A') (A')
                 (A") (A') (A') (A") (A") (A') (A') (A') (A") (A')
                 (A") (A') (A") (A') (A') (A') (A') (A') (A") (A')
                 (A') (A') (A') (A') (A") (A') (A") (A') (A') (A')
                 (A") (A') (A') (A') (A') (A') (A") (A') (A') (A")
                 (A') (A') (A') (A") (A') (A") (A") (A") (A") (A')
                 (A') (A") (A') (A') (A") (A') (A") (A') (A') (A')
                 (A') (A') (A") (A') (A') (A") (A') (A') (A') (A')
                 (A') (A") (A") (A") (A") (A") (A') (A") (A') (A")
                 (A') (A") (A') (A') (A") (A') (A') (A') (A') (A")
                 (A") (A') (A') (A") (A') (A") (A') (A") (A") (A")
                 (A') (A") (A') (A") (A") (A') (A") (A') (A') (A")
                 (A') (A") (A') (A") (A') (A") (A') (A') (A") (A')
                 (A') (A') (A") (A") (A') (A') (A") (A') (A') (A')
                 (A") (A') (A") (A') (A") (A') (A') (A") (A') (A')
                 (A") (A') (A') (A") (A") (A') (A') (A') (A") (A')
                 (A') (A') (A') (A") (A') (A') (A') (A") (A') (A')
                 (A') (A') (A") (A') (A') (A') (A') (A') (A') (A')
                 (A') (A') (A') (A') (A')
 The electronic state is 1-A'.
 Alpha  occ. eigenvalues --  -19.15526 -14.45010 -10.35288 -10.31712 -10.27876
 Alpha  occ. eigenvalues --  -10.25993 -10.25685  -1.12829  -1.04950  -0.91286
 Alpha  occ. eigenvalues --   -0.84877  -0.73972  -0.72171  -0.64371  -0.58740
 Alpha  occ. eigenvalues --   -0.56584  -0.53840  -0.52420  -0.50256  -0.46553
 Alpha  occ. eigenvalues --   -0.44861  -0.42300  -0.37982  -0.32855  -0.28416
 Alpha virt. eigenvalues --   -0.00832   0.03654   0.04790   0.05955   0.07390
 Alpha virt. eigenvalues --    0.10001   0.10842   0.16696   0.16997   0.18225
 Alpha virt. eigenvalues --    0.18983   0.19447   0.21631   0.22887   0.23010
 Alpha virt. eigenvalues --    0.24149   0.26619   0.27410   0.30670   0.31414
 Alpha virt. eigenvalues --    0.31870   0.33235   0.33309   0.33935   0.35315
 Alpha virt. eigenvalues --    0.37001   0.39196   0.40289   0.42774   0.44880
 Alpha virt. eigenvalues --    0.45013   0.46655   0.49397   0.50923   0.52924
 Alpha virt. eigenvalues --    0.53649   0.55766   0.57175   0.59829   0.64412
 Alpha virt. eigenvalues --    0.66253   0.66997   0.69383   0.69660   0.72099
 Alpha virt. eigenvalues --    0.75509   0.81004   0.81297   0.84382   0.86043
 Alpha virt. eigenvalues --    0.86181   0.89634   0.95323   0.97098   0.98050
 Alpha virt. eigenvalues --    0.99993   1.01811   1.04019   1.05621   1.12124
 Alpha virt. eigenvalues --    1.13345   1.15628   1.16960   1.19403   1.19532
 Alpha virt. eigenvalues --    1.20101   1.22937   1.24723   1.25208   1.29781
 Alpha virt. eigenvalues --    1.30536   1.30574   1.32028   1.33932   1.34311
 Alpha virt. eigenvalues --    1.39751   1.43591   1.46044   1.47075   1.49853
 Alpha virt. eigenvalues --    1.51259   1.53044   1.54679   1.55906   1.61355
 Alpha virt. eigenvalues --    1.62319   1.64445   1.68147   1.72097   1.72548
 Alpha virt. eigenvalues --    1.73030   1.73855   1.77708   1.77799   1.81274
 Alpha virt. eigenvalues --    1.85369   1.86001   1.91346   1.92166   1.95537
 Alpha virt. eigenvalues --    1.97745   2.02198   2.06385   2.07549   2.07636
 Alpha virt. eigenvalues --    2.13547   2.13987   2.20433   2.21620   2.27182
 Alpha virt. eigenvalues --    2.28563   2.30319   2.32770   2.34308   2.37522
 Alpha virt. eigenvalues --    2.43215   2.57672   2.68049   2.70838   2.93048
 Alpha virt. eigenvalues --    2.93821   2.96721   2.99855   3.01322   3.22091
 Alpha virt. eigenvalues --    3.24115   3.27600   3.28739   3.30732   3.31172
 Alpha virt. eigenvalues --    3.33908   3.38245   3.39595   3.41703   3.45280
 Alpha virt. eigenvalues --    3.48715   3.53940   3.56410   3.60859   3.62863
 Alpha virt. eigenvalues --    3.65652   3.69048   3.72740   3.73193   3.74655
 Alpha virt. eigenvalues --    3.75689   3.77983   3.84174   3.92306   3.94096
 Alpha virt. eigenvalues --    3.97643   4.00012   4.01811   4.02804   4.05565
 Alpha virt. eigenvalues --    4.07461   4.08634   4.09881   4.13984   4.14570
 Alpha virt. eigenvalues --    4.15522   4.19077   4.20956   4.21469   4.23649
 Alpha virt. eigenvalues --    4.27124   4.27931   4.29010   4.30881   4.30977
 Alpha virt. eigenvalues --    4.33254   4.33765   4.34341   4.35824   4.38672
 Alpha virt. eigenvalues --    4.38729   4.40157   4.40450   4.41954   4.46525
 Alpha virt. eigenvalues --    4.48168   4.51800   4.52696   4.53897   4.54916
 Alpha virt. eigenvalues --    4.56317   4.58311   4.58520   4.63113   4.64393
 Alpha virt. eigenvalues --    4.65147   4.66306   4.68780   4.69925   4.74995
 Alpha virt. eigenvalues --    4.79504   4.81421   4.84222   4.91432   4.92200
 Alpha virt. eigenvalues --    4.94751   4.99258   4.99586   5.03824   5.04745
 Alpha virt. eigenvalues --    5.08881   5.15540   5.19122   5.23379   5.25582
 Alpha virt. eigenvalues --    5.29032   5.32162   5.38232   5.38365   5.40752
 Alpha virt. eigenvalues --    5.41702   5.46948   5.47288   5.48772   5.53195
 Alpha virt. eigenvalues --    5.55319   5.61325   5.64657   5.64805   5.65917
 Alpha virt. eigenvalues --    5.70567   5.76266   5.79256   5.79331   5.85111
 Alpha virt. eigenvalues --    5.89902   5.98001   6.03318   6.04460   6.13546
 Alpha virt. eigenvalues --    6.16260   6.18357   6.24054   6.28289   6.34848
 Alpha virt. eigenvalues --    6.44201   6.58800   6.59657   6.65644   6.87382
 Alpha virt. eigenvalues --    7.04394   7.05064   7.32137   9.60850  12.33550
 Alpha virt. eigenvalues --   13.20684  14.70123  17.82712  18.27944  22.76482
          Condensed to atoms (all electrons):
               1          2          3          4          5          6
     1  O    8.016011  -0.125572   0.629029  -0.075944   0.005609   0.006509
     2  N   -0.125572   6.448228   0.350884  -0.055503   0.373311  -0.013735
     3  C    0.629029   0.350884   4.346104   0.411626  -0.040685  -0.036308
     4  C   -0.075944  -0.055503   0.411626   5.007342  -0.039027   0.536796
     5  C    0.005609   0.373311  -0.040685  -0.039027   4.611588  -0.086100
     6  C    0.006509  -0.013735  -0.036308   0.536796  -0.086100   4.762358
     7  C    0.000703  -0.069981  -0.019142  -0.073663   0.619847   0.433952
     8  H    0.013652   0.390358  -0.024463   0.014419  -0.032542  -0.004368
     9  H    0.004187   0.005597  -0.041025   0.448059  -0.000110  -0.036857
    10  H   -0.001019  -0.037209   0.002001  -0.004461   0.430190   0.008843
    11  H   -0.000383  -0.001837   0.005418  -0.033591   0.008589   0.429422
    12  H    0.000014   0.004678  -0.000638   0.006689  -0.032496  -0.032872
               7          8          9         10         11         12
     1  O    0.000703   0.013652   0.004187  -0.001019  -0.000383   0.000014
     2  N   -0.069981   0.390358   0.005597  -0.037209  -0.001837   0.004678
     3  C   -0.019142  -0.024463  -0.041025   0.002001   0.005418  -0.000638
     4  C   -0.073663   0.014419   0.448059  -0.004461  -0.033591   0.006689
     5  C    0.619847  -0.032542  -0.000110   0.430190   0.008589  -0.032496
     6  C    0.433952  -0.004368  -0.036857   0.008843   0.429422  -0.032872
     7  C    4.876751   0.007959   0.006339  -0.037911  -0.040416   0.441618
     8  H    0.007959   0.487793  -0.000420  -0.011997   0.000260  -0.000274
     9  H    0.006339  -0.000420   0.560552   0.000276  -0.007715   0.000060
    10  H   -0.037911  -0.011997   0.000276   0.592104  -0.000256  -0.003853
    11  H   -0.040416   0.000260  -0.007715  -0.000256   0.584160  -0.006483
    12  H    0.441618  -0.000274   0.000060  -0.003853  -0.006483   0.570932
 Mulliken charges:
               1
     1  O   -0.472795
     2  N   -0.269220
     3  C    0.417200
     4  C   -0.142740
     5  C    0.181825
     6  C    0.032359
     7  C   -0.146058
     8  H    0.159622
     9  H    0.061057
    10  H    0.063292
    11  H    0.062832
    12  H    0.052624
 Sum of Mulliken charges =  -0.00000
 Mulliken charges with hydrogens summed into heavy atoms:
               1
     1  O   -0.472795
     2  N   -0.109598
     3  C    0.417200
     4  C   -0.081682
     5  C    0.245117
     6  C    0.095191
     7  C   -0.093434
 Electronic spatial extent (au):  <R**2>=            626.4604
 Charge=             -0.0000 electrons
 Dipole moment (field-independent basis, Debye):
    X=             -1.1868    Y=             -4.2726    Z=             -0.0000  Tot=              4.4344
 Quadrupole moment (field-independent basis, Debye-Ang):
   XX=            -31.6907   YY=            -48.2322   ZZ=            -43.2572
   XY=              0.1536   XZ=              0.0000   YZ=             -0.0000
 Traceless Quadrupole moment (field-independent basis, Debye-Ang):
   XX=              9.3693   YY=             -7.1722   ZZ=             -2.1971
   XY=              0.1536   XZ=              0.0000   YZ=             -0.0000
 Octapole moment (field-independent basis, Debye-Ang**2):
  XXX=            -11.5645  YYY=            -30.8979  ZZZ=              0.0000  XYY=              0.0659
  XXY=              0.8549  XXZ=              0.0000  XZZ=             -2.1544  YZZ=              5.4575
  YYZ=             -0.0000  XYZ=              0.0000
 Hexadecapole moment (field-independent basis, Debye-Ang**3):
 XXXX=           -238.7983 YYYY=           -545.6236 ZZZZ=            -48.1185 XXXY=              2.4988
 XXXZ=              0.0000 YYYX=              7.7270 YYYZ=             -0.0000 ZZZX=              0.0000
 ZZZY=             -0.0000 XXYY=           -117.2672 XXZZ=            -61.4724 YYZZ=            -97.0863
 XXYZ=             -0.0000 YYXZ=              0.0000 ZZXY=              1.1690
 N-N= 2.768386644497D+02 E-N=-1.308637454326D+03  KE= 3.224529334071D+02
 Symmetry A'   KE= 3.109527122409D+02
 Symmetry A"   KE= 1.150022116626D+01
 No NMR shielding tensors so no spin-rotation constants.
 Leave Link  601 at Fri Aug 27 00:10:09 2021, MaxMem= 17179869184 cpu:        93.9
 (Enter /public3/home/sc51754/softwares/g09e01/l701.exe)
 Compute integral first derivatives.
 ... and contract with generalized density number  0.
 Leave Link  701 at Fri Aug 27 00:10:10 2021, MaxMem= 17179869184 cpu:        90.6
 (Enter /public3/home/sc51754/softwares/g09e01/l702.exe)
 L702 exits ... SP integral derivatives will be done elsewhere.
 Leave Link  702 at Fri Aug 27 00:10:11 2021, MaxMem= 17179869184 cpu:         0.3
 (Enter /public3/home/sc51754/softwares/g09e01/l703.exe)
 Compute integral first derivatives, UseDBF=F ICtDFT=           0.
 Integral derivatives from FoFJK, PRISM(SPDF).
 Calling FoFJK, ICntrl=      2127 FMM=F ISym2X=1 I1Cent= 0 IOpClX= 0 NMat=1 NMatS=1 NMatT=0.
 FoFJK:  IHMeth= 1 ICntrl=    2127 DoSepK=T KAlg= 0 I1Cent=   0 FoldK=F
 IRaf=         1 NMat=   1 IRICut=       1 DoRegI=T DoRafI=F ISym2E= 1.
 FoFCou: FMM=F IPFlag=           0 FMFlag=      100000 FMFlg1=         800
         NFxFlg=           0 DoJE=F BraDBF=F KetDBF=F FulRan=T
         wScrn=  0.000000 ICntrl=    2527 IOpCl=  0 I1Cent=           0 NGrid=           0
         NMat0=    1 NMatS0=      1 NMatT0=    0 NMatD0=    1 NMtDS0=    0 NMtDT0=    0
 Petite list used in FoFCou.
 Leave Link  703 at Fri Aug 27 00:10:15 2021, MaxMem= 17179869184 cpu:       245.4
 (Enter /public3/home/sc51754/softwares/g09e01/l716.exe)
 Dipole        =-4.66929737D-01-1.68096748D+00-4.29167084D-32
 ***** Axes restored to original set *****
 -------------------------------------------------------------------
 Center     Atomic                   Forces (Hartrees/Bohr)
 Number     Number              X              Y              Z
 -------------------------------------------------------------------
      1        8          -0.000336156    0.004197694   -0.000000000
      2        7           0.001622941    0.003324053   -0.000000000
      3        6          -0.003312842   -0.007716317    0.000000000
      4        6           0.002634148   -0.000047848    0.000000000
      5        6           0.001346965   -0.001551934    0.000000000
      6        6           0.001944132    0.001836266    0.000000000
      7        6          -0.003093700   -0.000737912   -0.000000000
      8        1          -0.000381228   -0.000226360   -0.000000000
      9        1          -0.000563611   -0.000805072    0.000000000
     10        1           0.000770237    0.000733149    0.000000000
     11        1          -0.000683331    0.000462847   -0.000000000
     12        1           0.000052446    0.000531433   -0.000000000
 -------------------------------------------------------------------
 Cartesian Forces:  Max     0.007716317 RMS     0.001926595
 Leave Link  716 at Fri Aug 27 00:10:15 2021, MaxMem= 17179869184 cpu:         0.4
 (Enter /public3/home/sc51754/softwares/g09e01/l103.exe)

 GradGradGradGradGradGradGradGradGradGradGradGradGradGradGradGradGradGrad
 Berny optimization.
 FormGI is forming the generalized inverse of G from B-inverse, IUseBI=4.
 Internal  Forces:  Max     0.004209404 RMS     0.000924696
 Search for a local minimum.
 Step number   1 out of a maximum of   64
 All quantities printed in internal units (Hartrees-Bohrs-Radians)
 RMS Force = .92470D-03 SwitMx=.10000D-02 MixMth= 2
 Mixed Optimization -- En-DIIS/RFO-DIIS
 Second derivative matrix not updated -- first step.
 ITU=  0
     Eigenvalues ---    0.01577   0.01761   0.01972   0.02080   0.02183
     Eigenvalues ---    0.02246   0.02365   0.02483   0.02557   0.16000
     Eigenvalues ---    0.16000   0.16000   0.16000   0.16000   0.22000
     Eigenvalues ---    0.22000   0.23415   0.25000   0.35622   0.35864
     Eigenvalues ---    0.35940   0.36221   0.37867   0.40757   0.44267
     Eigenvalues ---    0.46319   0.50118   0.53776   0.54239   0.98595
 RFO step:  Lambda=-9.48629312D-05 EMin= 1.57720798D-02
 Linear search not attempted -- first point.
 Iteration  1 RMS(Cart)=  0.00204463 RMS(Int)=  0.00000286
 Iteration  2 RMS(Cart)=  0.00000356 RMS(Int)=  0.00000112
 Iteration  3 RMS(Cart)=  0.00000000 RMS(Int)=  0.00000112
 ITry= 1 IFail=0 DXMaxC= 7.29D-03 DCOld= 1.00D+10 DXMaxT= 3.00D-01 DXLimC= 3.00D+00 Rises=F
 ClnCor:  largest displacement from symmetrization is 2.60D-12 for atom    11.
 Variable       Old X    -DE/DX   Delta X   Delta X   Delta X     New X
                                 (Linear)    (Quad)   (Total)
    R1        2.29207   0.00421   0.00000   0.00427   0.00427   2.29634
    R2        2.65138  -0.00321   0.00000  -0.00724  -0.00724   2.64413
    R3        2.56109   0.00023   0.00000   0.00029   0.00029   2.56138
    R4        1.90473   0.00022   0.00000   0.00047   0.00047   1.90520
    R5        2.72731   0.00120   0.00000   0.00310   0.00311   2.73042
    R6        2.55600  -0.00150   0.00000  -0.00262  -0.00261   2.55338
    R7        2.04176  -0.00091   0.00000  -0.00253  -0.00253   2.03923
    R8        2.55244  -0.00159   0.00000  -0.00293  -0.00293   2.54951
    R9        2.04295  -0.00102   0.00000  -0.00284  -0.00284   2.04010
   R10        2.67947   0.00174   0.00000   0.00421   0.00421   2.68367
   R11        2.04676  -0.00082   0.00000  -0.00231  -0.00231   2.04446
   R12        2.03737  -0.00053   0.00000  -0.00146  -0.00146   2.03591
    A1        2.18960  -0.00061   0.00000  -0.00326  -0.00326   2.18634
    A2        1.99125   0.00067   0.00000   0.00391   0.00391   1.99516
    A3        2.10233  -0.00006   0.00000  -0.00065  -0.00065   2.10168
    A4        2.09504  -0.00056   0.00000  -0.00219  -0.00220   2.09285
    A5        2.21834  -0.00083   0.00000  -0.00329  -0.00329   2.21505
    A6        1.96981   0.00139   0.00000   0.00548   0.00548   1.97529
    A7        2.12410  -0.00093   0.00000  -0.00367  -0.00366   2.12044
    A8        2.02595   0.00084   0.00000   0.00420   0.00420   2.03015
    A9        2.13313   0.00009   0.00000  -0.00053  -0.00053   2.13260
   A10        2.10267   0.00048   0.00000   0.00190   0.00190   2.10456
   A11        2.03035  -0.00055   0.00000  -0.00289  -0.00289   2.02746
   A12        2.15017   0.00007   0.00000   0.00099   0.00099   2.15116
   A13        2.12246  -0.00026   0.00000  -0.00045  -0.00045   2.12201
   A14        2.08387   0.00005   0.00000  -0.00026  -0.00026   2.08361
   A15        2.07686   0.00021   0.00000   0.00071   0.00071   2.07757
   A16        2.05775  -0.00007   0.00000  -0.00001  -0.00001   2.05773
   A17        2.10204   0.00009   0.00000   0.00037   0.00037   2.10241
   A18        2.12340  -0.00002   0.00000  -0.00036  -0.00035   2.12304
    D1        3.14159  -0.00000   0.00000   0.00000   0.00000   3.14159
    D2       -0.00000  -0.00000   0.00000  -0.00000   0.00000   0.00000
    D3        0.00000  -0.00000   0.00000   0.00000   0.00000   0.00000
    D4        3.14159  -0.00000   0.00000  -0.00000   0.00000   3.14159
    D5        0.00000  -0.00000   0.00000   0.00000   0.00000   0.00000
    D6        3.14159   0.00000   0.00000  -0.00000   0.00000   3.14159
    D7        3.14159  -0.00000   0.00000   0.00000   0.00000   3.14159
    D8       -0.00000   0.00000   0.00000   0.00000   0.00000   0.00000
    D9        3.14159   0.00000   0.00000  -0.00000   0.00000   3.14159
   D10        0.00000  -0.00000   0.00000  -0.00000   0.00000   0.00000
   D11        0.00000   0.00000   0.00000   0.00000   0.00000   0.00000
   D12        3.14159   0.00000   0.00000   0.00000   0.00000   3.14159
   D13        0.00000  -0.00000   0.00000  -0.00000  -0.00000   0.00000
   D14        3.14159  -0.00000   0.00000   0.00000   0.00000   3.14159
   D15        3.14159  -0.00000   0.00000  -0.00000   0.00000   3.14159
   D16       -0.00000   0.00000   0.00000   0.00000   0.00000   0.00000
   D17       -0.00000   0.00000   0.00000   0.00000   0.00000   0.00000
   D18        3.14159   0.00000   0.00000  -0.00000   0.00000   3.14159
   D19        3.14159   0.00000   0.00000   0.00000   0.00000   3.14159
   D20       -0.00000   0.00000   0.00000   0.00000   0.00000   0.00000
   D21        0.00000   0.00000   0.00000  -0.00000   0.00000   0.00000
   D22        3.14159   0.00000   0.00000   0.00000   0.00000   3.14159
   D23        3.14159  -0.00000   0.00000  -0.00000   0.00000   3.14159
   D24        0.00000  -0.00000   0.00000   0.00000   0.00000   0.00000
         Item               Value     Threshold  Converged?
 Maximum Force            0.004209     0.000450     NO 
 RMS     Force            0.000925     0.000300     NO 
 Maximum Displacement     0.007286     0.001800     NO 
 RMS     Displacement     0.002044     0.001200     NO 
 Predicted change in Energy=-4.744207D-05
 Lowest energy point so far.  Saving SCF results.
 GradGradGradGradGradGradGradGradGradGradGradGradGradGradGradGradGradGrad

 Leave Link  103 at Fri Aug 27 00:10:16 2021, MaxMem= 17179869184 cpu:        51.1
 (Enter /public3/home/sc51754/softwares/g09e01/l202.exe)
                          Input orientation:                          
 ---------------------------------------------------------------------
 Center     Atomic      Atomic             Coordinates (Angstroms)
 Number     Number       Type             X           Y           Z
 ---------------------------------------------------------------------
      1          8           0       -0.132473    2.266277   -0.000000
      2          7           0       -1.132643    0.234081   -0.000000
      3          6           0       -0.001842    1.058149   -0.000000
      4          6           0        1.240002    0.319578    0.000000
      5          6           0       -1.113370   -1.121206   -0.000000
      6          6           0        1.257701   -1.031497    0.000000
      7          6           0        0.057744   -1.791036    0.000000
      8          1           0       -2.009233    0.732112   -0.000000
      9          1           0        2.145641    0.906349    0.000000
     10          1           0       -2.075454   -1.610980   -0.000000
     11          1           0        2.207289   -1.549906    0.000000
     12          1           0        0.070741   -2.868312    0.000000
 ---------------------------------------------------------------------
                    Distance matrix (angstroms):
                    1          2          3          4          5
     1  O    0.000000
     2  N    2.264986   0.000000
     3  C    1.215170   1.399214   0.000000
     4  C    2.381874   2.374185   1.444875   0.000000
     5  C    3.526641   1.355424   2.446443   2.759387   0.000000
     6  C    3.578813   2.704705   2.439891   1.351191   2.372767
     7  C    4.061770   2.349068   2.849809   2.419179   1.349140
     8  H    2.424024   1.008190   2.033697   3.275319   2.058485
     9  H    2.653151   3.346504   2.152841   1.079112   3.838245
    10  H    4.336854   2.071990   3.379959   3.836574   1.079576
    11  H    4.476353   3.786523   3.417925   2.104903   3.348217
    12  H    5.138609   3.327608   3.927133   3.395558   2.110569
                    6          7          8          9         10
     6  C    0.000000
     7  C    1.420140   0.000000
     8  H    3.712570   3.261698   0.000000
     9  H    2.131592   3.411041   4.158526   0.000000
    10  H    3.383153   2.140783   2.344028   4.914732   0.000000
    11  H    1.081880   2.163028   4.794441   2.457028   4.283179
    12  H    2.186953   1.077355   4.158047   4.307351   2.487376
                   11         12
    11  H    0.000000
    12  H    2.510584   0.000000
 Stoichiometry    C5H5NO
 Framework group  CS[SG(C5H5NO)]
 Deg. of freedom    21
 Full point group                 CS      NOp   2
 RotChk:  IX=0 Diff= 2.25D-03
 Largest Abelian subgroup         CS      NOp   2
 Largest concise Abelian subgroup C1      NOp   1
                         Standard orientation:                         
 ---------------------------------------------------------------------
 Center     Atomic      Atomic             Coordinates (Angstroms)
 Number     Number       Type             X           Y           Z
 ---------------------------------------------------------------------
      1          8           0       -0.128710    2.266845   -0.000000
      2          7           0       -1.132111    0.236242   -0.000000
      3          6           0       -0.000000    1.058511   -0.000000
      4          6           0        1.240667    0.317966    0.000000
      5          6           0       -1.114993   -1.119073    0.000000
      6          6           0        1.256217   -1.033136    0.000000
      7          6           0        0.055053   -1.790766    0.000000
      8          1           0       -2.007908    0.735668   -0.000000
      9          1           0        2.147238    0.903295   -0.000000
     10          1           0       -2.077855   -1.607317    0.000000
     11          1           0        2.204979   -1.553055    0.000000
     12          1           0        0.066337   -2.868061    0.000000
 ---------------------------------------------------------------------
 Rotational constants (GHZ):      5.7277591      2.8272932      1.8929229
 Leave Link  202 at Fri Aug 27 00:10:16 2021, MaxMem= 17179869184 cpu:         4.0
 (Enter /public3/home/sc51754/softwares/g09e01/l301.exe)
 Basis read from rwf:  (5D, 7F)
 No pseudopotential information found on rwf file.
 There are   223 symmetry adapted cartesian basis functions of A'  symmetry.
 There are    97 symmetry adapted cartesian basis functions of A"  symmetry.
 There are   190 symmetry adapted basis functions of A'  symmetry.
 There are    90 symmetry adapted basis functions of A"  symmetry.
   280 basis functions,   475 primitive gaussians,   320 cartesian basis functions
    25 alpha electrons       25 beta electrons
       nuclear repulsion energy       276.8939001309 Hartrees.
 IExCor=20419 DFT=T Ex+Corr=CAM-B3LYP ExCW=0 ScaHFX=  1.000000
 ScaDFX=  1.000000  1.000000  1.000000  0.810000 ScalE2=  1.000000  1.000000
 IRadAn=      0 IRanWt=     -1 IRanGd=            0 ICorTp=0 IEmpDi=  4
  HFx wShort=  0.000000 wLong=  0.330000 cFull=  0.190000 cShort=  0.000000 cLong=  0.460000
  DFx wShort=  0.000000 wLong=  0.330000 cFull=  0.190000 cShort=  0.000000 cLong=  0.460000
 NAtoms=   12 NActive=   12 NUniq=   12 SFac= 1.00D+00 NAtFMM=   60 NAOKFM=F Big=F
 Integral buffers will be    131072 words long.
 Raffenetti 2 integral format.
 Two-electron integral symmetry is turned on.
 No density basis found on file   724.
 Leave Link  301 at Fri Aug 27 00:10:16 2021, MaxMem= 17179869184 cpu:         2.3
 (Enter /public3/home/sc51754/softwares/g09e01/l302.exe)
 NPDir=0 NMtPBC=     1 NCelOv=     1 NCel=       1 NClECP=     1 NCelD=      1
         NCelK=      1 NCelE2=     1 NClLst=     1 CellRange=     0.0.
 One-electron integrals computed using PRISM.
 NBasis=   280 RedAO= T EigKep=  2.29D-04  NBF=   190    90
 NBsUse=   280 1.00D-06 EigRej= -1.00D+00 NBFU=   190    90
 Precomputing XC quadrature grid using
 IXCGrd= 4 IRadAn=           0 IRanWt=          -1 IRanGd=           0 AccXCQ= 0.00D+00.
 Generated NRdTot=       0 NPtTot=           0 NUsed=           0 NTot=          32
 NSgBfM=   320   320   320   320   320 MxSgAt=    12 MxSgA2=    12.
 Leave Link  302 at Fri Aug 27 00:10:17 2021, MaxMem= 17179869184 cpu:        40.6
 (Enter /public3/home/sc51754/softwares/g09e01/l303.exe)
 DipDrv:  MaxL=1.
 Leave Link  303 at Fri Aug 27 00:10:17 2021, MaxMem= 17179869184 cpu:        19.0
 (Enter /public3/home/sc51754/softwares/g09e01/l401.exe)
 Initial guess from the checkpoint file:  "PY_CAM-B3LYP_PC2_OPT_FREQ.chk"
 B after Tr=     0.000000    0.000000   -0.000000
         Rot=    1.000000   -0.000000    0.000000    0.000652 Ang=   0.07 deg.
 Guess basis will be translated and rotated to current coordinates.
 JPrj=2 DoOrth=T DoCkMO=T.
 Initial guess orbital symmetries:
       Occupied  (A') (A') (A') (A') (A') (A') (A') (A') (A') (A')
                 (A') (A') (A') (A') (A') (A') (A') (A") (A') (A')
                 (A') (A") (A") (A') (A")
       Virtual   (A') (A') (A') (A') (A') (A') (A') (A') (A') (A')
                 (A') (A') (A') (A') (A') (A') (A') (A') (A') (A')
                 (A') (A') (A') (A') (A') (A') (A') (A') (A') (A')
                 (A') (A') (A') (A') (A') (A') (A') (A') (A') (A')
                 (A') (A') (A') (A') (A') (A') (A') (A') (A') (A')
                 (A') (A') (A') (A') (A') (A') (A') (A') (A') (A')
                 (A') (A') (A') (A') (A') (A') (A') (A') (A') (A')
                 (A') (A') (A') (A') (A') (A') (A') (A') (A') (A')
                 (A') (A') (A') (A') (A') (A') (A') (A') (A') (A')
                 (A') (A') (A') (A') (A') (A') (A') (A') (A') (A')
                 (A') (A') (A') (A') (A') (A') (A') (A') (A') (A')
                 (A') (A') (A') (A') (A') (A') (A') (A') (A') (A')
                 (A') (A') (A') (A') (A') (A') (A') (A') (A') (A')
                 (A') (A') (A') (A') (A') (A') (A') (A') (A') (A')
                 (A') (A') (A') (A') (A') (A') (A') (A') (A') (A')
                 (A') (A') (A') (A') (A') (A') (A') (A') (A') (A')
                 (A') (A') (A') (A') (A') (A') (A') (A') (A') (A")
                 (A") (A") (A") (A") (A") (A") (A") (A") (A") (A")
                 (A") (A") (A") (A") (A") (A") (A") (A") (A") (A")
                 (A") (A") (A") (A") (A") (A") (A") (A") (A") (A")
                 (A") (A") (A") (A") (A") (A") (A") (A") (A") (A")
                 (A") (A") (A") (A") (A") (A") (A") (A") (A") (A")
                 (A") (A") (A") (A") (A") (A") (A") (A") (A") (A")
                 (A") (A") (A") (A") (A") (A") (A") (A") (A") (A")
                 (A") (A") (A") (A") (A") (A") (A") (A") (A") (A")
                 (A") (A") (A") (A") (A")
 The electronic state of the initial guess is 1-A'.
 Leave Link  401 at Fri Aug 27 00:10:19 2021, MaxMem= 17179869184 cpu:        60.2
 (Enter /public3/home/sc51754/softwares/g09e01/l502.exe)
 Closed shell SCF:
 Using DIIS extrapolation, IDIIS=  1040.
 Integral symmetry usage will be decided dynamically.
 Keep R1 ints in memory in symmetry-blocked form, NReq=2335173138.
 IVT=      348658 IEndB=      348658 NGot= 17179869184 MDV= 16785904737
 LenX= 16785904737 LenY= 16785801896
 Requested convergence on RMS density matrix=1.00D-08 within 128 cycles.
 Requested convergence on MAX density matrix=1.00D-06.
 Requested convergence on             energy=1.00D-06.
 No special actions if energy rises.
 FoFCou: FMM=F IPFlag=           0 FMFlag=           0 FMFlg1=           0
         NFxFlg=           0 DoJE=F BraDBF=F KetDBF=F FulRan=T
         wScrn=  0.000000 ICntrl=     600 IOpCl=  0 I1Cent=           0 NGrid=           0
         NMat0=    1 NMatS0=  39340 NMatT0=    0 NMatD0=    1 NMtDS0=    0 NMtDT0=    0
 Petite list used in FoFCou.

 Cycle   1  Pass 1  IDiag  1:
 E= -323.500096129151    
 DIIS: error= 1.79D-04 at cycle   1 NSaved=   1.
 NSaved= 1 IEnMin= 1 EnMin= -323.500096129151     IErMin= 1 ErrMin= 1.79D-04
 ErrMax= 1.79D-04  0.00D+00 EMaxC= 1.00D-01 BMatC= 1.85D-05 BMatP= 1.85D-05
 IDIUse=3 WtCom= 9.98D-01 WtEn= 1.79D-03
 Coeff-Com:  0.100D+01
 Coeff-En:   0.100D+01
 Coeff:      0.100D+01
 Gap=     0.665 Goal=   None    Shift=    0.000
 RMSDP=1.83D-05 MaxDP=4.99D-04              OVMax= 1.65D-03

 Cycle   2  Pass 1  IDiag  1:
 E= -323.500114939728     Delta-E=       -0.000018810578 Rises=F Damp=F
 DIIS: error= 1.04D-04 at cycle   2 NSaved=   2.
 NSaved= 2 IEnMin= 2 EnMin= -323.500114939728     IErMin= 2 ErrMin= 1.04D-04
 ErrMax= 1.04D-04  0.00D+00 EMaxC= 1.00D-01 BMatC= 4.74D-06 BMatP= 1.85D-05
 IDIUse=3 WtCom= 9.99D-01 WtEn= 1.04D-03
 Coeff-Com:  0.247D+00 0.753D+00
 Coeff-En:   0.000D+00 0.100D+01
 Coeff:      0.246D+00 0.754D+00
 Gap=     0.276 Goal=   None    Shift=    0.000
 RMSDP=9.03D-06 MaxDP=4.81D-04 DE=-1.88D-05 OVMax= 8.61D-04

 Cycle   3  Pass 1  IDiag  1:
 E= -323.500115861696     Delta-E=       -0.000000921968 Rises=F Damp=F
 DIIS: error= 1.32D-04 at cycle   3 NSaved=   3.
 NSaved= 3 IEnMin= 3 EnMin= -323.500115861696     IErMin= 2 ErrMin= 1.04D-04
 ErrMax= 1.32D-04  0.00D+00 EMaxC= 1.00D-01 BMatC= 3.93D-06 BMatP= 4.74D-06
 IDIUse=3 WtCom= 9.99D-01 WtEn= 1.32D-03
 Coeff-Com: -0.329D-01 0.480D+00 0.553D+00
 Coeff-En:   0.000D+00 0.433D+00 0.567D+00
 Coeff:     -0.329D-01 0.480D+00 0.553D+00
 Gap=     0.276 Goal=   None    Shift=    0.000
 RMSDP=5.37D-06 MaxDP=2.80D-04 DE=-9.22D-07 OVMax= 7.28D-04

 Cycle   4  Pass 1  IDiag  1:
 E= -323.500118877855     Delta-E=       -0.000003016159 Rises=F Damp=F
 DIIS: error= 2.00D-05 at cycle   4 NSaved=   4.
 NSaved= 4 IEnMin= 4 EnMin= -323.500118877855     IErMin= 4 ErrMin= 2.00D-05
 ErrMax= 2.00D-05  0.00D+00 EMaxC= 1.00D-01 BMatC= 7.95D-08 BMatP= 3.93D-06
 IDIUse=1 WtCom= 1.00D+00 WtEn= 0.00D+00
 Coeff-Com: -0.196D-01 0.414D-01 0.152D+00 0.826D+00
 Coeff:     -0.196D-01 0.414D-01 0.152D+00 0.826D+00
 Gap=     0.276 Goal=   None    Shift=    0.000
 RMSDP=1.06D-06 MaxDP=5.02D-05 DE=-3.02D-06 OVMax= 1.68D-04

 Cycle   5  Pass 1  IDiag  1:
 E= -323.500118974676     Delta-E=       -0.000000096821 Rises=F Damp=F
 DIIS: error= 6.34D-06 at cycle   5 NSaved=   5.
 NSaved= 5 IEnMin= 5 EnMin= -323.500118974676     IErMin= 5 ErrMin= 6.34D-06
 ErrMax= 6.34D-06  0.00D+00 EMaxC= 1.00D-01 BMatC= 1.44D-08 BMatP= 7.95D-08
 IDIUse=1 WtCom= 1.00D+00 WtEn= 0.00D+00
 Coeff-Com: -0.479D-02-0.308D-01 0.233D-01 0.359D+00 0.653D+00
 Coeff:     -0.479D-02-0.308D-01 0.233D-01 0.359D+00 0.653D+00
 Gap=     0.276 Goal=   None    Shift=    0.000
 RMSDP=4.57D-07 MaxDP=2.00D-05 DE=-9.68D-08 OVMax= 5.48D-05

 Cycle   6  Pass 1  IDiag  1:
 E= -323.500118994522     Delta-E=       -0.000000019846 Rises=F Damp=F
 DIIS: error= 3.89D-06 at cycle   6 NSaved=   6.
 NSaved= 6 IEnMin= 6 EnMin= -323.500118994522     IErMin= 6 ErrMin= 3.89D-06
 ErrMax= 3.89D-06  0.00D+00 EMaxC= 1.00D-01 BMatC= 1.30D-09 BMatP= 1.44D-08
 IDIUse=1 WtCom= 1.00D+00 WtEn= 0.00D+00
 Coeff-Com:  0.286D-02-0.234D-01-0.249D-01-0.664D-01 0.151D+00 0.961D+00
 Coeff:      0.286D-02-0.234D-01-0.249D-01-0.664D-01 0.151D+00 0.961D+00
 Gap=     0.276 Goal=   None    Shift=    0.000
 RMSDP=3.25D-07 MaxDP=9.84D-06 DE=-1.98D-08 OVMax= 7.44D-05

 Cycle   7  Pass 1  IDiag  1:
 E= -323.500118999514     Delta-E=       -0.000000004992 Rises=F Damp=F
 DIIS: error= 1.37D-06 at cycle   7 NSaved=   7.
 NSaved= 7 IEnMin= 7 EnMin= -323.500118999514     IErMin= 7 ErrMin= 1.37D-06
 ErrMax= 1.37D-06  0.00D+00 EMaxC= 1.00D-01 BMatC= 3.93D-10 BMatP= 1.30D-09
 IDIUse=1 WtCom= 1.00D+00 WtEn= 0.00D+00
 Coeff-Com:  0.155D-02-0.585D-02-0.113D-01-0.654D-01-0.417D-01 0.416D+00
 Coeff-Com:  0.707D+00
 Coeff:      0.155D-02-0.585D-02-0.113D-01-0.654D-01-0.417D-01 0.416D+00
 Coeff:      0.707D+00
 Gap=     0.276 Goal=   None    Shift=    0.000
 RMSDP=9.82D-08 MaxDP=4.20D-06 DE=-4.99D-09 OVMax= 1.55D-05

 Cycle   8  Pass 1  IDiag  1:
 E= -323.500119000128     Delta-E=       -0.000000000614 Rises=F Damp=F
 DIIS: error= 5.01D-07 at cycle   8 NSaved=   8.
 NSaved= 8 IEnMin= 8 EnMin= -323.500119000128     IErMin= 8 ErrMin= 5.01D-07
 ErrMax= 5.01D-07  0.00D+00 EMaxC= 1.00D-01 BMatC= 3.39D-11 BMatP= 3.93D-10
 IDIUse=1 WtCom= 1.00D+00 WtEn= 0.00D+00
 Coeff-Com: -0.135D-03 0.345D-02 0.276D-02-0.666D-02-0.589D-01-0.508D-01
 Coeff-Com:  0.222D+00 0.888D+00
 Coeff:     -0.135D-03 0.345D-02 0.276D-02-0.666D-02-0.589D-01-0.508D-01
 Coeff:      0.222D+00 0.888D+00
 Gap=     0.276 Goal=   None    Shift=    0.000
 RMSDP=4.99D-08 MaxDP=1.28D-06 DE=-6.14D-10 OVMax= 8.94D-06

 Cycle   9  Pass 1  IDiag  1:
 E= -323.500119000220     Delta-E=       -0.000000000092 Rises=F Damp=F
 DIIS: error= 1.08D-07 at cycle   9 NSaved=   9.
 NSaved= 9 IEnMin= 9 EnMin= -323.500119000220     IErMin= 9 ErrMin= 1.08D-07
 ErrMax= 1.08D-07  0.00D+00 EMaxC= 1.00D-01 BMatC= 2.48D-12 BMatP= 3.39D-11
 IDIUse=1 WtCom= 1.00D+00 WtEn= 0.00D+00
 Coeff-Com: -0.111D-03 0.127D-02 0.156D-02 0.864D-03-0.174D-01-0.310D-01
 Coeff-Com:  0.310D-01 0.275D+00 0.739D+00
 Coeff:     -0.111D-03 0.127D-02 0.156D-02 0.864D-03-0.174D-01-0.310D-01
 Coeff:      0.310D-01 0.275D+00 0.739D+00
 Gap=     0.276 Goal=   None    Shift=    0.000
 RMSDP=8.33D-09 MaxDP=3.02D-07 DE=-9.20D-11 OVMax= 1.19D-06

 SCF Done:  E(RCAM-B3LYP) =  -323.500119000     A.U. after    9 cycles
            NFock=  9  Conv=0.83D-08     -V/T= 2.0032
 KE= 3.224589630716D+02 PE=-1.308753271935D+03 EE= 3.859002897327D+02
 Leave Link  502 at Fri Aug 27 00:10:25 2021, MaxMem= 17179869184 cpu:       318.7
 (Enter /public3/home/sc51754/softwares/g09e01/l701.exe)
 Compute integral first derivatives.
 ... and contract with generalized density number  0.
 Leave Link  701 at Fri Aug 27 00:10:27 2021, MaxMem= 17179869184 cpu:        60.8
 (Enter /public3/home/sc51754/softwares/g09e01/l702.exe)
 L702 exits ... SP integral derivatives will be done elsewhere.
 Leave Link  702 at Fri Aug 27 00:10:27 2021, MaxMem= 17179869184 cpu:         0.3
 (Enter /public3/home/sc51754/softwares/g09e01/l703.exe)
 Compute integral first derivatives, UseDBF=F ICtDFT=           0.
 Integral derivatives from FoFJK, PRISM(SPDF).
 Calling FoFJK, ICntrl=      2127 FMM=F ISym2X=1 I1Cent= 0 IOpClX= 0 NMat=1 NMatS=1 NMatT=0.
 FoFJK:  IHMeth= 1 ICntrl=    2127 DoSepK=T KAlg= 0 I1Cent=   0 FoldK=F
 IRaf=         1 NMat=   1 IRICut=       1 DoRegI=T DoRafI=F ISym2E= 1.
 FoFCou: FMM=F IPFlag=           0 FMFlag=      100000 FMFlg1=         800
         NFxFlg=           0 DoJE=F BraDBF=F KetDBF=F FulRan=T
         wScrn=  0.000000 ICntrl=    2527 IOpCl=  0 I1Cent=           0 NGrid=           0
         NMat0=    1 NMatS0=      1 NMatT0=    0 NMatD0=    1 NMtDS0=    0 NMtDT0=    0
 Petite list used in FoFCou.
 Leave Link  703 at Fri Aug 27 00:10:30 2021, MaxMem= 17179869184 cpu:       236.8
 (Enter /public3/home/sc51754/softwares/g09e01/l716.exe)
 Dipole        =-4.66834935D-01-1.68734755D+00 2.16202669D-31
 ***** Axes restored to original set *****
 -------------------------------------------------------------------
 Center     Atomic                   Forces (Hartrees/Bohr)
 Number     Number              X              Y              Z
 -------------------------------------------------------------------
      1        8           0.000278978    0.001699178   -0.000000000
      2        7           0.001227964    0.001898364   -0.000000000
[...]
     32  0.000000D+00 -0.285175D-02 -0.454061D-02  0.000000D+00  0.304968D-01
     33 -0.780173D-03  0.000000D+00  0.000000D+00  0.126751D-01  0.000000D+00
     34  0.000000D+00 -0.201340D-02 -0.122105D-03  0.000000D+00 -0.469685D-02
     35  0.000000D+00 -0.430303D-03  0.490021D-03  0.000000D+00 -0.265476D-02
     36  0.806293D-02  0.000000D+00  0.000000D+00 -0.291139D-03  0.000000D+00
               11            12            13            14            15 
     11  0.805944D+00
     12  0.000000D+00  0.120731D+00
     13  0.227584D-01  0.000000D+00  0.855677D+00
     14 -0.378604D-01  0.000000D+00 -0.191651D-01  0.687891D+00
     15  0.000000D+00  0.294330D-03  0.000000D+00  0.000000D+00  0.144606D+00
     16  0.304061D-01  0.000000D+00 -0.627921D-01  0.198423D-01  0.000000D+00
     17 -0.453221D+00  0.000000D+00 -0.215857D-01  0.568286D-01  0.000000D+00
     18  0.000000D+00 -0.582075D-01  0.000000D+00  0.000000D+00  0.847999D-02
     19 -0.578630D-01  0.000000D+00 -0.369413D+00  0.104271D+00  0.000000D+00
     20 -0.269833D-01  0.000000D+00  0.152813D+00 -0.199982D+00  0.000000D+00
     21  0.000000D+00  0.810814D-02  0.000000D+00  0.000000D+00 -0.672497D-01
     22 -0.338314D-02  0.000000D+00  0.741529D-02 -0.190250D-03  0.000000D+00
     23 -0.348775D-02  0.000000D+00  0.328377D-01 -0.127262D-01  0.000000D+00
     24  0.000000D+00  0.432508D-02  0.000000D+00  0.000000D+00 -0.536874D-02
     25 -0.130900D+00  0.000000D+00 -0.124317D-03  0.245814D-02  0.000000D+00
     26 -0.141329D+00  0.000000D+00  0.629801D-03 -0.108904D-02  0.000000D+00
     27  0.000000D+00 -0.349982D-01  0.000000D+00  0.000000D+00 -0.658707D-03
     28  0.686813D-03  0.000000D+00 -0.293868D+00 -0.115561D+00  0.000000D+00
     29  0.262129D-04  0.000000D+00 -0.109193D+00 -0.116155D+00  0.000000D+00
     30  0.000000D+00 -0.129481D-03  0.000000D+00  0.000000D+00 -0.396312D-01
     31 -0.901959D-03  0.000000D+00 -0.374929D-02 -0.404288D-02  0.000000D+00
     32 -0.112932D-01  0.000000D+00 -0.361127D-02 -0.143529D-02  0.000000D+00
     33  0.000000D+00  0.779752D-02  0.000000D+00  0.000000D+00  0.440012D-02
     34 -0.185047D-02  0.000000D+00  0.486109D-02  0.296486D-01  0.000000D+00
     35  0.381317D-03  0.000000D+00 -0.282821D-02 -0.112070D-01  0.000000D+00
     36  0.000000D+00  0.373631D-02  0.000000D+00  0.000000D+00 -0.208940D-03
               16            17            18            19            20 
     16  0.688091D+00
     17 -0.521827D-01  0.771286D+00
     18  0.000000D+00  0.000000D+00  0.147852D+00
     19 -0.237116D+00 -0.438946D-01  0.000000D+00  0.696431D+00
     20 -0.973916D-01 -0.171858D+00  0.000000D+00 -0.688804D-01  0.782081D+00
     21  0.000000D+00  0.000000D+00 -0.638524D-01  0.000000D+00  0.000000D+00
     22 -0.128282D-02 -0.275247D-02  0.000000D+00  0.461930D-02 -0.258079D-02
     23  0.650425D-04  0.715576D-03  0.000000D+00 -0.386236D-02 -0.558268D-02
     24  0.000000D+00  0.000000D+00 -0.505011D-03  0.000000D+00  0.000000D+00
     25  0.626100D-02  0.274865D-02  0.000000D+00  0.232525D-02  0.936461D-03
     26 -0.279164D-01 -0.122529D-01  0.000000D+00  0.184835D-02 -0.463742D-02
     27  0.000000D+00  0.000000D+00  0.355754D-02  0.000000D+00  0.000000D+00
     28 -0.348496D-02  0.393352D-02  0.000000D+00 -0.157548D-01 -0.148251D-01
     29  0.288517D-02 -0.158305D-02  0.000000D+00  0.140772D-01  0.134636D-01
     30  0.000000D+00  0.000000D+00  0.839163D-02  0.000000D+00  0.000000D+00
     31 -0.277703D+00  0.117693D+00  0.000000D+00 -0.174578D-01  0.147200D-01
     32  0.116714D+00 -0.124546D+00  0.000000D+00 -0.156476D-01  0.123840D-01
     33  0.000000D+00  0.000000D+00 -0.444315D-01  0.000000D+00  0.000000D+00
     34  0.577020D-02 -0.281159D-01  0.000000D+00 -0.591046D-01  0.283716D-02
     35  0.282381D-02 -0.986205D-02  0.000000D+00  0.525743D-02 -0.353030D+00
     36  0.000000D+00  0.000000D+00  0.663095D-04  0.000000D+00  0.000000D+00
               21            22            23            24            25 
     21  0.120262D+00
     22  0.000000D+00  0.375204D+00
     23  0.000000D+00 -0.169351D+00  0.159573D+00
     24  0.491493D-02  0.000000D+00  0.000000D+00  0.166404D-01
     25  0.000000D+00 -0.972838D-03 -0.944414D-03  0.000000D+00  0.278123D+00
     26  0.000000D+00  0.817597D-03  0.638451D-03  0.000000D+00  0.142171D+00
     27  0.978780D-02  0.000000D+00  0.000000D+00 -0.455030D-03  0.000000D+00
     28  0.000000D+00  0.949966D-03 -0.489380D-03  0.000000D+00 -0.302626D-05
     29  0.000000D+00 -0.302025D-03  0.794773D-03  0.000000D+00 -0.118752D-03
     30  0.764647D-02  0.000000D+00  0.000000D+00 -0.246288D-02  0.000000D+00
     31  0.000000D+00  0.319075D-04  0.289596D-04  0.000000D+00  0.890324D-03
     32  0.000000D+00  0.180465D-04  0.225148D-04  0.000000D+00 -0.463716D-03
     33  0.470544D-02  0.000000D+00  0.000000D+00 -0.696416D-03  0.000000D+00
     34  0.000000D+00  0.284643D-03  0.119969D-02  0.000000D+00  0.181288D-03
     35  0.000000D+00 -0.320633D-03 -0.369455D-03  0.000000D+00  0.223152D-03
     36 -0.293864D-01  0.000000D+00  0.000000D+00  0.170536D-02  0.000000D+00
               26            27            28            29            30 
     26  0.146712D+00
     27  0.000000D+00  0.246196D-01
     28 -0.908468D-04  0.000000D+00  0.304304D+00
     29  0.937099D-04  0.000000D+00  0.123418D+00  0.125730D+00
     30  0.000000D+00 -0.118291D-02  0.000000D+00  0.000000D+00  0.253496D-01
     31  0.180435D-03  0.000000D+00 -0.916515D-03  0.774911D-03  0.000000D+00
     32  0.110943D-02  0.000000D+00 -0.793801D-03  0.524118D-03  0.000000D+00
     33  0.000000D+00 -0.634375D-02  0.000000D+00  0.000000D+00 -0.443902D-03
     34 -0.121582D-02  0.000000D+00  0.831871D-03 -0.473736D-03  0.000000D+00
     35 -0.501361D-03  0.000000D+00  0.261987D-03  0.569915D-03  0.000000D+00
     36  0.000000D+00  0.469216D-03  0.000000D+00  0.000000D+00 -0.533955D-02
               31            32            33            34            35 
     31  0.291805D+00
     32 -0.126816D+00  0.128759D+00
     33  0.000000D+00  0.000000D+00  0.276555D-01
     34  0.101641D-02  0.832486D-03  0.000000D+00  0.573017D-01
     35 -0.216687D-03  0.642202D-03  0.000000D+00 -0.504980D-02  0.371349D+00
     36  0.000000D+00  0.000000D+00 -0.206836D-02  0.000000D+00  0.000000D+00
               36 
     36  0.237275D-01
 FormGI is forming the generalized inverse of G from B-inverse, IUseBI=4.
 Leave Link  716 at Fri Aug 27 00:11:39 2021, MaxMem= 17179869184 cpu:        22.5
 (Enter /public3/home/sc51754/softwares/g09e01/l103.exe)

 GradGradGradGradGradGradGradGradGradGradGradGradGradGradGradGradGradGrad
 Berny optimization.
 Red2BG is reusing G-inverse.
 Internal  Forces:  Max     0.000338804 RMS     0.000083073
 Search for a local minimum.
 Step number   1 out of a maximum of    2
 All quantities printed in internal units (Hartrees-Bohrs-Radians)
 Second derivative matrix not updated -- analytic derivatives used.
 ITU=  0
     Eigenvalues ---    0.00825   0.01144   0.01592   0.01795   0.02010
     Eigenvalues ---    0.02299   0.02742   0.03359   0.04876   0.10429
     Eigenvalues ---    0.10997   0.11249   0.12295   0.12839   0.17329
     Eigenvalues ---    0.20049   0.20649   0.23662   0.32084   0.32416
     Eigenvalues ---    0.36152   0.36757   0.37006   0.37254   0.38688
     Eigenvalues ---    0.42563   0.46984   0.53378   0.56204   0.81984
 Angle between quadratic step and forces=  32.82 degrees.
 Linear search not attempted -- first point.
 Iteration  1 RMS(Cart)=  0.00048930 RMS(Int)=  0.00000027
 Iteration  2 RMS(Cart)=  0.00000028 RMS(Int)=  0.00000001
 ITry= 1 IFail=0 DXMaxC= 1.87D-03 DCOld= 1.00D+10 DXMaxT= 3.00D-01 DXLimC= 3.00D+00 Rises=F
 ClnCor:  largest displacement from symmetrization is 2.47D-11 for atom     8.
 Variable       Old X    -DE/DX   Delta X   Delta X   Delta X     New X
                                 (Linear)    (Quad)   (Total)
    R1        2.29932  -0.00019   0.00000  -0.00018  -0.00018   2.29915
    R2        2.63793  -0.00026   0.00000  -0.00109  -0.00109   2.63684
    R3        2.56371   0.00034   0.00000   0.00113   0.00113   2.56484
    R4        1.90494   0.00001   0.00000   0.00002   0.00002   1.90496
    R5        2.73173   0.00004   0.00000   0.00045   0.00045   2.73217
    R6        2.55250  -0.00003   0.00000  -0.00030  -0.00030   2.55219
    R7        2.03854   0.00014   0.00000   0.00040   0.00040   2.03894
    R8        2.54759   0.00004   0.00000  -0.00015  -0.00015   2.54744
    R9        2.03990   0.00010   0.00000   0.00022   0.00022   2.04012
   R10        2.68620   0.00000   0.00000   0.00026   0.00026   2.68646
   R11        2.04421   0.00010   0.00000   0.00026   0.00026   2.04447
   R12        2.03570   0.00007   0.00000   0.00023   0.00023   2.03593
    A1        2.18568   0.00001   0.00000  -0.00005  -0.00005   2.18563
    A2        1.99616   0.00004   0.00000   0.00068   0.00068   1.99683
    A3        2.10135  -0.00005   0.00000  -0.00063  -0.00063   2.10072
    A4        2.09490   0.00010   0.00000   0.00076   0.00076   2.09566
    A5        2.21091  -0.00012   0.00000  -0.00095  -0.00095   2.20996
    A6        1.97738   0.00002   0.00000   0.00018   0.00018   1.97756
    A7        2.11940   0.00008   0.00000   0.00032   0.00032   2.11972
    A8        2.03065  -0.00014   0.00000  -0.00124  -0.00124   2.02940
    A9        2.13314   0.00006   0.00000   0.00092   0.00092   2.13406
   A10        2.10504  -0.00011   0.00000  -0.00044  -0.00044   2.10460
   A11        2.02654   0.00002   0.00000  -0.00027  -0.00027   2.02627
   A12        2.15160   0.00009   0.00000   0.00071   0.00071   2.15232
   A13        2.12146  -0.00009   0.00000  -0.00064  -0.00064   2.12082
   A14        2.08475   0.00010   0.00000   0.00093   0.00093   2.08568
   A15        2.07698  -0.00002   0.00000  -0.00030  -0.00030   2.07668
   A16        2.05741   0.00008   0.00000   0.00062   0.00062   2.05804
   A17        2.10335  -0.00001   0.00000  -0.00003  -0.00003   2.10332
   A18        2.12242  -0.00007   0.00000  -0.00059  -0.00059   2.12183
    D1        3.14159   0.00000   0.00000   0.00000   0.00000   3.14159
    D2        0.00000   0.00000   0.00000   0.00000  -0.00000   0.00000
    D3        0.00000   0.00000   0.00000  -0.00000   0.00000   0.00000
    D4        3.14159  -0.00000   0.00000  -0.00000   0.00000   3.14159
    D5       -0.00000  -0.00000   0.00000  -0.00000   0.00000   0.00000
    D6        3.14159  -0.00000   0.00000  -0.00000   0.00000   3.14159
    D7        3.14159   0.00000   0.00000   0.00000   0.00000   3.14159
    D8       -0.00000   0.00000   0.00000   0.00000   0.00000   0.00000
    D9        3.14159  -0.00000   0.00000   0.00000   0.00000   3.14159
   D10       -0.00000  -0.00000   0.00000   0.00000   0.00000   0.00000
   D11       -0.00000  -0.00000   0.00000   0.00000   0.00000   0.00000
   D12        3.14159  -0.00000   0.00000   0.00000   0.00000   3.14159
   D13        0.00000   0.00000   0.00000  -0.00000   0.00000   0.00000
   D14        3.14159   0.00000   0.00000  -0.00000   0.00000   3.14159
   D15        3.14159  -0.00000   0.00000  -0.00000   0.00000   3.14159
   D16        0.00000  -0.00000   0.00000  -0.00000   0.00000   0.00000
   D17       -0.00000   0.00000   0.00000   0.00000   0.00000   0.00000
   D18        3.14159   0.00000   0.00000   0.00000   0.00000   3.14159
   D19        3.14159  -0.00000   0.00000   0.00000   0.00000   3.14159
   D20        0.00000  -0.00000   0.00000   0.00000  -0.00000   0.00000
   D21        0.00000  -0.00000   0.00000  -0.00000   0.00000   0.00000
   D22        3.14159  -0.00000   0.00000  -0.00000   0.00000   3.14159
   D23        3.14159   0.00000   0.00000  -0.00000   0.00000   3.14159
   D24        0.00000  -0.00000   0.00000  -0.00000   0.00000   0.00000
         Item               Value     Threshold  Converged?
 Maximum Force            0.000339     0.000450     YES
 RMS     Force            0.000083     0.000300     YES
 Maximum Displacement     0.001869     0.001800     NO 
 RMS     Displacement     0.000489     0.001200     YES
 Predicted change in Energy=-8.483277D-07
 GradGradGradGradGradGradGradGradGradGradGradGradGradGradGradGradGradGrad

 Leave Link  103 at Fri Aug 27 00:11:40 2021, MaxMem= 17179869184 cpu:        37.1
 (Enter /public3/home/sc51754/softwares/g09e01/l9999.exe)
 1\1\GINC-S2515\Freq\RCAM-B3LYP\Gen\C5H5N1O1\SC51754\27-Aug-2021\0\\#P 
 Geom=AllCheck Guess=TCheck SCRF=Check GenChk RCAM-B3LYP/ChkBas Freq\\P
 Y_CAM-B3LYP_PC2_OPT_FREQ\\0,1\O,-0.131327316,2.2664909677,0.\N,-1.1322
 543595,0.2349307593,0.\C,-0.0036591356,1.0564570026,0.\C,1.2399216339,
 0.3194555396,0.\C,-1.1128083647,-1.1215885924,0.\C,1.2583013971,-1.031
 1421392,0.\C,0.0571830143,-1.7913421404,0.\H,-2.0089498935,0.732499131
 5,0.\H,2.1446400293,0.906977438,0.\H,-2.0751914573,-1.6105402985,0.\H,
 2.2074474111,-1.5500875882,0.\H,0.0708000409,-2.86850208,0.\\Version=E
 M64L-G09RevE.01\State=1-A'\HF=-323.5001326\RMSD=3.945e-09\RMSF=1.574e-
 04\ZeroPoint=0.0947332\Thermal=0.0999321\Dipole=-0.4642132,-1.6957589,
 0.\DipoleDeriv=-0.4544922,0.2529791,0.,0.0536882,-1.8337811,0.,0.,0.,-
 0.4422861,-0.3709828,-0.5442206,0.,0.4055732,-0.8245696,0.,0.,0.,-0.23
 64077,0.4663039,-0.1739307,0.,-0.0262589,2.2609528,0.,0.,0.,0.288588,-
 0.0709883,0.5313863,0.,-0.055656,-0.6316391,0.,0.,0.,-0.1806767,0.3478
 317,-0.0234714,0.,-0.6408573,0.4362545,0.,0.,0.,-0.0067382,0.4069823,0
 .2413603,0.,0.1929099,0.5029652,0.,0.,0.,-0.0731945,-0.6076354,-0.2223
 348,0.,0.1219881,-0.1511648,0.,0.,0.,-0.2215232,0.2474455,-0.0358556,0
 .,-0.0261885,0.1463798,0.,0.,0.,0.2818882,0.0106721,-0.0281132,0.,-0.0
 417168,0.0382231,0.,0.,0.,0.1517397,-0.0033988,-0.0448247,0.,-0.031064
 1,0.0419442,0.,0.,0.,0.1438366,-0.038466,0.0649958,0.,0.0631539,0.0508
 946,0.,0.,0.,0.1262696,0.0667278,-0.0179704,0.,-0.0155715,-0.0364596,0
 .,0.,0.,0.1685042\Polar=71.488547,-0.1343508,88.0063705,0.,0.,37.64648
 68\PG=CS [SG(C5H5N1O1)]\NImag=0\\0.10055068,-0.06234644,0.78255054,0.,
 0.,0.03471679,0.01286692,-0.04483750,0.,0.76402345,-0.07213601,-0.0787
 8184,0.,-0.10932700,0.77394093,0.,0.,0.02036771,0.,0.,0.07786422,-0.11
 280131,0.07561855,0.,-0.22065690,0.02051786,0.,0.57080983,0.07116771,-
 0.64688489,0.,-0.02739063,-0.14434183,0.,-0.09768858,0.93725306,0.,0.,
 -0.07678706,0.,0.,-0.06322426,0.,0.,0.20768150,0.00326663,0.03041027,0
 .,-0.04287831,-0.01519802,0.,-0.22275686,0.04825589,0.,0.66086297,0.05
 391463,-0.05624372,0.,-0.00933770,0.05030073,0.,0.02366628,-0.12623389
 ,0.,0.07280369,0.80594388,0.,0.,0.02308836,0.,0.,0.00688232,0.,0.,-0.0
 8162807,0.,0.,0.12073127,-0.01051872,-0.00155546,0.,-0.15123406,-0.025
 46704,0.,0.03877256,-0.02563338,0.,-0.01502635,0.02275841,0.,0.8556768
 2,0.01636050,-0.00292781,0.,0.02801798,-0.33384000,0.,-0.08318128,-0.0
 2749745,0.,0.02154128,-0.03786044,0.,-0.01916507,0.68789144,0.,0.,0.00
 519014,0.,0.,-0.04687433,0.,0.,-0.00297885,0.,0.,0.00029433,0.,0.,0.14
 460581,-0.01462375,0.00989931,0.,-0.00611466,-0.03640666,0.,0.04287930
 ,0.03126196,0.,-0.13988354,0.03040610,0.,-0.06279215,0.01984228,0.,0.6
 8809067,-0.00733351,0.01408141,0.,-0.00333929,-0.04149333,0.,0.0515812
 1,-0.02809508,0.,-0.01675246,-0.45322072,0.,-0.02158574,0.05682861,0.,
 -0.05218267,0.77128610,0.,0.,0.00378618,0.,0.,-0.00583265,0.,0.,0.0006
 9517,0.,0.,-0.05820754,0.,0.,0.00847999,0.,0.,0.14785231,0.01235593,-0
 .01013285,0.,0.01083069,0.07355575,0.,-0.05586952,0.00127090,0.,0.0281
 5383,-0.05786303,0.,-0.36941306,0.10427122,0.,-0.23711647,-0.04389457,
 0.,0.69643119,-0.00282639,-0.00607107,0.,0.03749291,-0.04705822,0.,0.0
 1080569,0.00727546,0.,-0.03310108,-0.02698326,0.,0.15281314,-0.1999820
 6,0.,-0.09739162,-0.17185840,0.,-0.06888041,0.78208055,0.,0.,-0.000118
 45,0.,0.,0.01323417,0.,0.,-0.00805212,0.,0.,0.00810814,0.,0.,-0.067249
 65,0.,0.,-0.06385243,0.,0.,0.12026205,0.00523460,0.00109572,0.,-0.3632
 1072,0.15806613,0.,-0.02433260,0.01888299,0.,-0.00394059,-0.00338314,0
 .,0.00741529,-0.00019025,0.,-0.00128282,-0.00275247,0.,0.00461930,-0.0
 0258079,0.,0.37520385,0.00491018,-0.00231058,0.,0.15744161,-0.15885426
 ,0.,-0.01890965,0.02158681,0.,-0.00292623,-0.00348775,0.,0.03283774,-0
 .01272622,0.,0.00006504,0.00071558,0.,-0.00386236,-0.00558268,0.,-0.16
 935118,0.15957283,0.,0.,-0.00484574,0.,0.,-0.01694318,0.,0.,0.00369123
 ,0.,0.,0.00432508,0.,0.,-0.00536874,0.,0.,-0.00050501,0.,0.,0.00491493
 ,0.,0.,0.01664040,0.00314815,0.00133217,0.,-0.00513912,0.00261076,0.,-
 0.01733212,-0.02005339,0.,-0.26735769,-0.13089961,0.,-0.00012432,0.002
 45814,0.,0.00626100,0.00274865,0.,0.00232525,0.00093646,0.,-0.00097284
 ,-0.00094441,0.,0.27812309,-0.00194178,0.00065087,0.,0.00385635,-0.001
 10687,0.,0.01444966,0.01171269,0.,-0.13278789,-0.14132916,0.,0.0006298
 0,-0.00108904,0.,-0.02791641,-0.01225288,0.,0.00184835,-0.00463742,0.,
 0.00081760,0.00063845,0.,0.14217055,0.14671159,0.,0.,-0.00229008,0.,0.
 ,0.00435261,0.,0.,0.00314197,0.,0.,-0.03499823,0.,0.,-0.00065871,0.,0.
 ,0.00355754,0.,0.,0.00978780,0.,0.,-0.00045503,0.,0.,0.02461958,-0.000
 14450,-0.00004513,0.,0.00557308,0.00193928,0.,0.00200604,0.00156483,0.
 ,0.00050664,0.00068681,0.,-0.29386782,-0.11556056,0.,-0.00348496,0.003
 93352,0.,-0.01575478,-0.01482508,0.,0.00094997,-0.00048938,0.,-0.00000
 303,-0.00009085,0.,0.30430400,-0.00168191,-0.00277452,0.,-0.03572112,-
 0.01996549,0.,0.00642232,-0.00072429,0.,-0.00008754,0.00002621,0.,-0.1
 0919291,-0.11615477,0.,0.00288517,-0.00158305,0.,0.01407722,0.01346359
 ,0.,-0.00030202,0.00079477,0.,-0.00011875,0.00009371,0.,0.12341837,0.1
 2572980,0.,0.,-0.00016495,0.,0.,0.00289065,0.,0.,0.00507651,0.,0.,-0.0
 0012948,0.,0.,-0.03963116,0.,0.,0.00839163,0.,0.,0.00764647,0.,0.,-0.0
 0246288,0.,0.,-0.00118291,0.,0.,0.02534957,-0.00006503,0.00057015,0.,0
 .00110240,-0.00047370,0.,0.00129498,-0.00151620,0.,0.00375011,-0.00090
 196,0.,-0.00374929,-0.00404288,0.,-0.27770283,0.11769324,0.,-0.0174577
 9,0.01472001,0.,0.00003191,0.00002896,0.,0.00089032,0.00018044,0.,-0.0
 0091651,0.00077491,0.,0.29180533,0.00180887,-0.00128849,0.,0.00031453,
 -0.00033771,0.,-0.00285175,-0.00454061,0.,0.03049684,-0.01129321,0.,-0
 .00361127,-0.00143529,0.,0.11671369,-0.12454618,0.,-0.01564765,0.01238
 400,0.,0.00001805,0.00002251,0.,-0.00046372,0.00110943,0.,-0.00079380,
 0.00052412,0.,-0.12681628,0.12875922,0.,0.,-0.00246960,0.,0.,-0.000780
 17,0.,0.,0.01267513,0.,0.,0.00779752,0.,0.,0.00440012,0.,0.,-0.0444314
 8,0.,0.,0.00470544,0.,0.,-0.00069642,0.,0.,-0.00634375,0.,0.,-0.000443
 90,0.,0.,0.02765548,0.00073039,-0.00000878,0.,-0.00516278,0.00231865,0
 .,-0.00201340,-0.00012210,0.,-0.00469685,-0.00185047,0.,0.00486109,0.0
 2964864,0.,0.00577020,-0.02811591,0.,-0.05910458,0.00283716,0.,0.00028
 464,0.00119969,0.,0.00018129,-0.00121582,0.,0.00083187,-0.00047374,0.,
 0.00101641,0.00083249,0.,0.05730172,0.00010415,0.00000011,0.,0.0028298
 7,0.00153789,0.,-0.00043030,0.00049002,0.,-0.00265476,0.00038132,0.,-0
 .00282821,-0.01120697,0.,0.00282381,-0.00986205,0.,0.00525743,-0.35303
 048,0.,-0.00032063,-0.00036945,0.,0.00022315,-0.00050136,0.,0.00026199
 ,0.00056992,0.,-0.00021669,0.00064220,0.,-0.00504980,0.37134886,0.,0.,
 -0.00047328,0.,0.,0.00806293,0.,0.,-0.00029114,0.,0.,0.00373631,0.,0.,
 -0.00020894,0.,0.,0.00006631,0.,0.,-0.02938636,0.,0.,0.00170536,0.,0.,
 0.00046922,0.,0.,-0.00533955,0.,0.,-0.00206836,0.,0.,0.02372751\\-0.00
 011049,0.00017641,0.,-0.00031177,-0.00051276,0.,0.00035331,-0.00008847
 ,0.,0.00012190,0.00023754,0.,0.00004514,0.00040565,0.,-0.00006645,-0.0
 0006705,0.,-0.00001400,-0.00021468,0.,0.00003362,0.00003838,0.,-0.0000
 5932,-0.00015774,0.,0.00010761,0.00001564,0.,-0.00006604,0.00009783,0.
 ,-0.00003350,0.00006926,0.\\\@


 ALL THINGS ARE POSSIBLE EXCEPT SKIING THROUGH A REVOLVING DOOR.
 Job cpu time:       0 days  0 hours 51 minutes  2.8 seconds.
 File lengths (MBytes):  RWF=     80 Int=      0 D2E=      0 Chk=      7 Scr=      1
 Normal termination of Gaussian 09 at Fri Aug 27 00:11:40 2021.
