 Entering Gaussian System, Link 0=g09
 AtFile(1): pc-2.gbs
            -H     0
            S    4   1.00
                  0.754230D+02           0.240650D-02
                  0.113500D+02           0.184870D-01
                  0.259930D+01           0.897420D-01
                  0.735130D+00           0.281110D+00
            S    1   1.00
                  0.231670D+00           0.100000D+01
            S    1   1.00
                  0.741470D-01           0.100000D+01
            P    1   1.00
                  0.160000D+01           0.100000D+01
            P    1   1.00
                  0.450000D+00           0.100000D+01
            D    1   1.00
                  0.125000D+01           0.100000D+01
            ****
            -C     0
            S    7   1.00
                  0.785710D+04           0.568250D-03
                  0.117870D+04           0.439150D-02
                  0.268320D+03           0.225040D-01
                  0.759480D+02           0.866530D-01
                  0.245590D+02           0.244050D+00
                  0.862120D+01           0.441480D+00
                  0.312780D+01           0.353320D+00
            S    7   1.00
                  0.117870D+04          -0.594920D-06
                  0.268320D+03          -0.627480D-04
                  0.759480D+02          -0.757730D-03
                  0.245590D+02          -0.733080D-02
                  0.862120D+01          -0.389320D-01
                  0.312780D+01          -0.889080D-01
                  0.822020D+00           0.216890D+00
            S    1   1.00
                  0.330170D+00           0.100000D+01
            S    1   1.00
                  0.114630D+00           0.100000D+01
            P    4   1.00
                  0.337750D+02           0.602940D-02
                  0.767660D+01           0.432280D-01
                  0.223570D+01           0.163010D+00
                  0.764470D+00           0.365040D+00
            P    1   1.00
                  0.262320D+00           0.100000D+01
            P    1   1.00
                  0.846380D-01           0.100000D+01
            D    1   1.00
                  0.140000D+01           0.100000D+01
            D    1   1.00
                  0.450000D+00           0.100000D+01
            F    1   1.00
                  0.950000D+00           0.100000D+01
            ****
            -N     0
            S    7   1.00
                  0.111010D+05           0.545700D-03
                  0.166530D+04           0.421810D-02
                  0.379080D+03           0.216450D-01
                  0.107300D+03           0.837760D-01
                  0.347470D+02           0.238810D+00
                  0.122490D+02           0.439940D+00
                  0.447430D+01           0.363640D+00
            S    7   1.00
                  0.166530D+04          -0.150060D-05
                  0.379080D+03          -0.587530D-04
                  0.107300D+03          -0.774530D-03
                  0.347470D+02          -0.721610D-02
                  0.122490D+02          -0.393380D-01
                  0.447430D+01          -0.906110D-01
                  0.124040D+01           0.198820D+00
            S    1   1.00
                  0.487430D+00           0.100000D+01
            S    1   1.00
                  0.164840D+00           0.100000D+01
            P    4   1.00
                  0.479340D+02           0.617060D-02
                  0.109990D+02           0.442600D-01
                  0.324720D+01           0.168250D+00
                  0.111140D+01           0.368480D+00
            P    1   1.00
                  0.379880D+00           0.100000D+01
            P    1   1.00
                  0.120680D+00           0.100000D+01
            D    1   1.00
                  0.180000D+01           0.100000D+01
            D    1   1.00
                  0.550000D+00           0.100000D+01
            F    1   1.00
                  0.102000D+01           0.100000D+01
            ****
            -O     0
            S    7   1.00
                  0.147820D+05           0.535190D-03
                  0.221730D+04           0.413750D-02
                  0.504740D+03           0.212450D-01
                  0.142870D+03           0.824530D-01
                  0.463000D+02           0.236710D+00
                  0.163370D+02           0.440390D+00
                  0.598280D+01           0.364650D+00
            S    7   1.00
                  0.221730D+04          -0.192750D-05
                  0.504740D+03          -0.579640D-04
                  0.142870D+03          -0.794940D-03
                  0.463000D+02          -0.731250D-02
                  0.163370D+02          -0.405740D-01
                  0.598280D+01          -0.915940D-01
                  0.167180D+01           0.209400D+00
            S    1   1.00
                  0.646620D+00           0.100000D+01
            S    1   1.00
                  0.216690D+00           0.100000D+01
            P    4   1.00
                  0.604240D+02           0.689490D-02
                  0.139350D+02           0.490050D-01
                  0.415310D+01           0.182550D+00
                  0.141580D+01           0.376330D+00
            P    1   1.00
                  0.475490D+00           0.100000D+01
            P    1   1.00
                  0.145290D+00           0.100000D+01
            D    1   1.00
                  0.220000D+01           0.100000D+01
            D    1   1.00
                  0.650000D+00           0.100000D+01
            F    1   1.00
                  0.110000D+01           0.100000D+01
            ****
 Initial command:
 /public3/home/sc51754/softwares/g09e01/l1.exe "./Gau-35304.inp" -scrdir="./"
 Entering Link 1 = /public3/home/sc51754/softwares/g09e01/l1.exe PID=     35305.
  
 Copyright (c) 1988,1990,1992,1993,1995,1998,2003,2009,2015,
            Gaussian, Inc.  All Rights Reserved.
  
 This is part of the Gaussian(R) 09 program.  It is based on
 the Gaussian(R) 03 system (copyright 2003, Gaussian, Inc.),
 the Gaussian(R) 98 system (copyright 1998, Gaussian, Inc.),
 the Gaussian(R) 94 system (copyright 1995, Gaussian, Inc.),
 the Gaussian 92(TM) system (copyright 1992, Gaussian, Inc.),
 the Gaussian 90(TM) system (copyright 1990, Gaussian, Inc.),
 the Gaussian 88(TM) system (copyright 1988, Gaussian, Inc.),
 the Gaussian 86(TM) system (copyright 1986, Carnegie Mellon
 University), and the Gaussian 82(TM) system (copyright 1983,
 Carnegie Mellon University). Gaussian is a federally registered
 trademark of Gaussian, Inc.
  
 This software contains proprietary and confidential information,
 including trade secrets, belonging to Gaussian, Inc.
  
 This software is provided under written license and may be
 used, copied, transmitted, or stored only in accord with that
 written license.
  
 The following legend is applicable only to US Government
 contracts under FAR:
  
                    RESTRICTED RIGHTS LEGEND
  
 Use, reproduction and disclosure by the US Government is
 subject to restrictions as set forth in subparagraphs (a)
 and (c) of the Commercial Computer Software - Restricted
 Rights clause in FAR 52.227-19.
  
 Gaussian, Inc.
 340 Quinnipiac St., Bldg. 40, Wallingford CT 06492
  
  
 ---------------------------------------------------------------
 Warning -- This program may not be used in any manner that
 competes with the business of Gaussian, Inc. or will provide
 assistance to any competitor of Gaussian, Inc.  The licensee
 of this program is prohibited from giving any competitor of
 Gaussian, Inc. access to this program.  By using this program,
 the user acknowledges that Gaussian, Inc. is engaged in the
 business of creating and licensing software in the field of
 computational chemistry and represents and warrants to the
 licensee that it is not a competitor of Gaussian, Inc. and that
 it will not use this program in any manner prohibited above.
 ---------------------------------------------------------------
  

 Cite this work as:
 Gaussian 09, Revision E.01,
 M. J. Frisch, G. W. Trucks, H. B. Schlegel, G. E. Scuseria, 
 M. A. Robb, J. R. Cheeseman, G. Scalmani, V. Barone, B. Mennucci, 
 G. A. Petersson, H. Nakatsuji, M. Caricato, X. Li, H. P. Hratchian, 
 A. F. Izmaylov, J. Bloino, G. Zheng, J. L. Sonnenberg, M. Hada, 
 M. Ehara, K. Toyota, R. Fukuda, J. Hasegawa, M. Ishida, T. Nakajima, 
 Y. Honda, O. Kitao, H. Nakai, T. Vreven, J. A. Montgomery, Jr., 
 J. E. Peralta, F. Ogliaro, M. Bearpark, J. J. Heyd, E. Brothers, 
 K. N. Kudin, V. N. Staroverov, T. Keith, R. Kobayashi, J. Normand, 
 K. Raghavachari, A. Rendell, J. C. Burant, S. S. Iyengar, J. Tomasi, 
 M. Cossi, N. Rega, J. M. Millam, M. Klene, J. E. Knox, J. B. Cross, 
 V. Bakken, C. Adamo, J. Jaramillo, R. Gomperts, R. E. Stratmann, 
 O. Yazyev, A. J. Austin, R. Cammi, C. Pomelli, J. W. Ochterski, 
 R. L. Martin, K. Morokuma, V. G. Zakrzewski, G. A. Voth, 
 P. Salvador, J. J. Dannenberg, S. Dapprich, A. D. Daniels, 
 O. Farkas, J. B. Foresman, J. V. Ortiz, J. Cioslowski, 
 and D. J. Fox, Gaussian, Inc., Wallingford CT, 2013.
 
 ******************************************
 Gaussian 09:  EM64L-G09RevE.01 30-Nov-2015
                28-Aug-2021 
 ******************************************
 %nprocshared=64
 Will use up to   64 processors via shared memory.
 %mem=128GB
 %chk=TST_GAS_CAM-B3LYP.chk
 ----------------------------------------------------
 #p opt=(calcfc,qst3,MaxCycle=200) freq CAM-B3LYP/gen
 ----------------------------------------------------
 1/5=1,6=200,10=4,14=-1,18=20,26=3,27=203,38=1/1,3;
 2/9=110,12=2,17=6,18=5,40=1/2;
 3/5=7,11=2,16=1,25=1,30=1,71=2,74=-40,140=1/1,2,3;
 4//1;
 5/5=2,38=5/2;
 8/6=4,10=90,11=11/1;
 11/6=1,8=1,9=11,15=111,16=1/1,2,10;
 10/6=1,13=1/2;
 6/7=2,8=2,9=2,10=2,28=1/1;
 7/10=1,18=20,25=1/1,2,3,16;
 1/5=1,6=200,10=4,14=-1,18=20,26=3,27=203/3(2);
 2/9=110/2;
 99//99;
 2/9=110/2;
 3/5=7,6=1,11=2,16=1,25=1,30=1,71=1,74=-40,82=7/1,2,3;
 4/5=5,16=3,69=1/1;
 5/5=2,38=5/2;
 7//1,2,3,16;
 1/5=1,6=200,14=-1,18=20,26=3,27=203/3(-5);
 2/9=110/2;
 6/7=2,8=2,9=2,10=2,19=2,28=1/1;
 99/9=1/99;
 Leave Link    1 at Sat Aug 28 00:50:30 2021, MaxMem= 17179869184 cpu:         3.2
 (Enter /public3/home/sc51754/softwares/g09e01/l101.exe)
 -------------------------
 HY_CAM-B3LYP_PC2_OPT_FREQ
 -------------------------
 Symbolic Z-matrix:
 Charge =  0 Multiplicity = 1
 O                     0.00441   2.24331   0. 
 N                    -1.16917   0.29369   0. 
 C                     0.        0.89753   0. 
 C                     1.21912   0.22545   0. 
 C                    -1.18378  -1.03825   0. 
 C                     1.18491  -1.14881   0. 
 C                    -0.04013  -1.80556   0. 
 H                    -0.91709   2.52728   0. 
 H                     2.14212   0.78401   0. 
 H                    -2.16238  -1.50117   0. 
 H                     2.10789  -1.71174   0. 
 H                    -0.10235  -2.88288   0. 
 
 -------------------------
 PY_CAM-B3LYP_PC2_OPT_FREQ
 -------------------------
 Symbolic Z-matrix:
 Charge =  0 Multiplicity = 1
 O                    -0.12357   2.26737   0. 
 N                    -1.13137   0.23921   0. 
 C                     0.        1.05691   0. 
 C                     1.24108   0.3157    0. 
 C                    -1.11652  -1.11737   0. 
 C                     1.25489  -1.03495   0. 
 C                     0.0512   -1.79108   0. 
 H                    -2.00638   0.73974   0. 
 H                     2.14778   0.90015   0. 
 H                    -2.08055  -1.60306   0. 
 H                     2.20227  -1.55711   0. 
 H                     0.06117  -2.86828   0. 
 
 -----------------
 TST_GAS_CAM-B3LYP
 -----------------
 Symbolic Z-matrix:
 Charge =  0 Multiplicity = 1
 O                     0.20048   2.60836   0. 
 N                    -0.9731    0.65874   0. 
 C                     0.19607   1.26257   0. 
 C                     1.41519   0.5905    0. 
 C                    -0.98771  -0.6732    0. 
 C                     1.38098  -0.78376   0. 
 C                     0.15594  -1.44051   0. 
 H                    -1.11316   2.16223   0. 
 H                     2.33819   1.14906   0. 
 H                    -1.96631  -1.13612   0. 
 H                     2.30396  -1.34669   0. 
 H                     0.09371  -2.51784   0. 
 
 NAtoms=     12 NQM=       12 NQMF=       0 NMMI=      0 NMMIF=      0
                NMic=       0 NMicF=      0.
                    Isotopes and Nuclear Properties:
 (Nuclear quadrupole moments (NQMom) in fm**2, nuclear magnetic moments (NMagM)
  in nuclear magnetons)

  Atom         1           2           3           4           5           6           7           8           9          10
 IAtWgt=          16          14          12          12          12          12          12           1           1           1
 AtmWgt=  15.9949146  14.0030740  12.0000000  12.0000000  12.0000000  12.0000000  12.0000000   1.0078250   1.0078250   1.0078250
 NucSpn=           0           2           0           0           0           0           0           1           1           1
 AtZEff=   0.0000000   0.0000000   0.0000000   0.0000000   0.0000000   0.0000000   0.0000000   0.0000000   0.0000000   0.0000000
 NQMom=    0.0000000   2.0440000   0.0000000   0.0000000   0.0000000   0.0000000   0.0000000   0.0000000   0.0000000   0.0000000
 NMagM=    0.0000000   0.4037610   0.0000000   0.0000000   0.0000000   0.0000000   0.0000000   2.7928460   2.7928460   2.7928460
 AtZNuc=   8.0000000   7.0000000   6.0000000   6.0000000   6.0000000   6.0000000   6.0000000   1.0000000   1.0000000   1.0000000

  Atom        11          12
 IAtWgt=           1           1
 AtmWgt=   1.0078250   1.0078250
 NucSpn=           1           1
 AtZEff=   0.0000000   0.0000000
 NQMom=    0.0000000   0.0000000
 NMagM=    2.7928460   2.7928460
 AtZNuc=   1.0000000   1.0000000
 Leave Link  101 at Sat Aug 28 00:50:30 2021, MaxMem= 17179869184 cpu:         9.7
 (Enter /public3/home/sc51754/softwares/g09e01/l103.exe)

 GradGradGradGradGradGradGradGradGradGradGradGradGradGradGradGradGradGrad
 Berny optimization.
 Initialization pass.
                           ----------------------------
                           !    Initial Parameters    !
                           ! (Angstroms and Degrees)  !
 --------------------------                            --------------------------
 ! Name  Definition        TS        Reactant  Product Derivative Info.         !
 --------------------------------------------------------------------------------
 ! R1    R(1,3)             1.3458    1.3458    1.2167 calculate D2E/DX2 analyti!
 ! R2    R(1,8)             1.3873    0.9643    2.4246 calculate D2E/DX2 analyti!
 ! R3    R(2,3)             1.3159    1.3159    1.3959 calculate D2E/DX2 analyti!
 ! R4    R(2,5)             1.332     1.332     1.3567 calculate D2E/DX2 analyti!
 ! R5    R(2,8)             1.51      2.2478    1.0081 calculate D2E/DX2 analyti!
 ! R6    R(3,4)             1.3921    1.3921    1.4456 calculate D2E/DX2 analyti!
 ! R7    R(4,6)             1.3747    1.3747    1.3507 calculate D2E/DX2 analyti!
 ! R8    R(4,9)             1.0788    1.0788    1.0787 calculate D2E/DX2 analyti!
 ! R9    R(5,7)             1.3772    1.3772    1.3481 calculate D2E/DX2 analyti!
 ! R10   R(5,10)            1.0826    1.0826    1.0795 calculate D2E/DX2 analyti!
 ! R11   R(6,7)             1.39      1.39      1.4215 calculate D2E/DX2 analyti!
 ! R12   R(6,11)            1.0811    1.0811    1.0817 calculate D2E/DX2 analyti!
 ! R13   R(7,12)            1.0791    1.0791    1.0772 calculate D2E/DX2 analyti!
 ! A1    A(3,1,8)          71.0541  106.9394   56.7745 calculate D2E/DX2 analyti!
 ! A2    A(3,2,5)         117.943   117.943   125.2304 calculate D2E/DX2 analyti!
 ! A3    A(3,2,8)          68.0074   56.2462  114.3713 calculate D2E/DX2 analyti!
 ! A4    A(5,2,8)         174.0496  174.1893  120.3983 calculate D2E/DX2 analyti!
 ! A5    A(1,3,2)         117.5026  117.5026  120.0288 calculate D2E/DX2 analyti!
 ! A6    A(1,3,4)         118.6791  118.6791  126.6758 calculate D2E/DX2 analyti!
 ! A7    A(2,3,4)         123.8183  123.8183  113.2955 calculate D2E/DX2 analyti!
 ! A8    A(3,4,6)         117.441   117.441   121.4326 calculate D2E/DX2 analyti!
 ! A9    A(3,4,9)         119.9528  119.9528  116.3475 calculate D2E/DX2 analyti!
 ! A10   A(6,4,9)         122.6062  122.6062  122.2199 calculate D2E/DX2 analyti!
 ! A11   A(2,5,7)         123.2304  123.2304  120.6099 calculate D2E/DX2 analyti!
 ! A12   A(2,5,10)        115.9445  115.9445  116.1122 calculate D2E/DX2 analyti!
 ! A13   A(7,5,10)        120.8251  120.8251  123.2779 calculate D2E/DX2 analyti!
 ! A14   A(4,6,7)         119.622   119.622   121.5504 calculate D2E/DX2 analyti!
 ! A15   A(4,6,11)        119.9532  119.9532  119.4473 calculate D2E/DX2 analyti!
 ! A16   A(7,6,11)        120.4248  120.4248  119.0023 calculate D2E/DX2 analyti!
 ! A17   A(5,7,6)         117.9452  117.9452  117.8812 calculate D2E/DX2 analyti!
 ! A18   A(5,7,12)        120.5531  120.5531  120.513  calculate D2E/DX2 analyti!
 ! A19   A(6,7,12)        121.5017  121.5017  121.6058 calculate D2E/DX2 analyti!
 ! D1    D(8,1,3,2)         0.0       0.0       0.0    calculate D2E/DX2 analyti!
 ! D2    D(8,1,3,4)       180.0     180.0     180.0    calculate D2E/DX2 analyti!
 ! D3    D(5,2,3,1)       180.0     180.0     180.0    calculate D2E/DX2 analyti!
 ! D4    D(5,2,3,4)         0.0       0.0       0.0    calculate D2E/DX2 analyti!
 ! D5    D(8,2,3,1)         0.0       0.0       0.0    calculate D2E/DX2 analyti!
 ! D6    D(8,2,3,4)       180.0     180.0     180.0    calculate D2E/DX2 analyti!
 ! D7    D(3,2,5,7)         0.0       0.0       0.0    calculate D2E/DX2 analyti!
 ! D8    D(3,2,5,10)      180.0     180.0     180.0    calculate D2E/DX2 analyti!
 ! D9    D(8,2,5,7)       180.0       0.0     180.0    calculate D2E/DX2 analyti!
 ! D10   D(8,2,5,10)        0.0     180.0       0.0    calculate D2E/DX2 analyti!
 ! D11   D(1,3,4,6)       180.0     180.0     180.0    calculate D2E/DX2 analyti!
 ! D12   D(1,3,4,9)         0.0       0.0       0.0    calculate D2E/DX2 analyti!
 ! D13   D(2,3,4,6)         0.0       0.0       0.0    calculate D2E/DX2 analyti!
 ! D14   D(2,3,4,9)       180.0     180.0     180.0    calculate D2E/DX2 analyti!
 ! D15   D(3,4,6,7)         0.0       0.0       0.0    calculate D2E/DX2 analyti!
 ! D16   D(3,4,6,11)      180.0     180.0     180.0    calculate D2E/DX2 analyti!
 ! D17   D(9,4,6,7)       180.0     180.0     180.0    calculate D2E/DX2 analyti!
 ! D18   D(9,4,6,11)        0.0       0.0       0.0    calculate D2E/DX2 analyti!
 ! D19   D(2,5,7,6)         0.0       0.0       0.0    calculate D2E/DX2 analyti!
 ! D20   D(2,5,7,12)      180.0     180.0     180.0    calculate D2E/DX2 analyti!
 ! D21   D(10,5,7,6)      180.0     180.0     180.0    calculate D2E/DX2 analyti!
 ! D22   D(10,5,7,12)       0.0       0.0       0.0    calculate D2E/DX2 analyti!
 ! D23   D(4,6,7,5)         0.0       0.0       0.0    calculate D2E/DX2 analyti!
 ! D24   D(4,6,7,12)      180.0     180.0     180.0    calculate D2E/DX2 analyti!
 ! D25   D(11,6,7,5)      180.0     180.0     180.0    calculate D2E/DX2 analyti!
 ! D26   D(11,6,7,12)       0.0       0.0       0.0    calculate D2E/DX2 analyti!
 --------------------------------------------------------------------------------
 Trust Radius=3.00D-01 FncErr=1.00D-07 GrdErr=1.00D-06
 Number of steps in this run=    100 maximum allowed number of steps=    100.
 Search for a saddle point of order  1.
 GradGradGradGradGradGradGradGradGradGradGradGradGradGradGradGradGradGrad

 Leave Link  103 at Sat Aug 28 00:50:30 2021, MaxMem= 17179869184 cpu:         0.7
 (Enter /public3/home/sc51754/softwares/g09e01/l202.exe)
                          Input orientation:                          
 ---------------------------------------------------------------------
 Center     Atomic      Atomic             Coordinates (Angstroms)
 Number     Number       Type             X           Y           Z
 ---------------------------------------------------------------------
      1          8           0        0.200482    2.608358    0.000000
      2          7           0       -0.973101    0.658742    0.000000
      3          6           0        0.196069    1.262575    0.000000
      4          6           0        1.415186    0.590502    0.000000
      5          6           0       -0.987709   -0.673202    0.000000
      6          6           0        1.380976   -0.783759    0.000000
      7          6           0        0.155940   -1.440508    0.000000
      8          1           0       -1.113159    2.162232    0.000000
      9          1           0        2.338187    1.149056    0.000000
     10          1           0       -1.966308   -1.136121    0.000000
     11          1           0        2.303958   -1.346689    0.000000
     12          1           0        0.093715   -2.517835    0.000000
 ---------------------------------------------------------------------
                    Distance matrix (angstroms):
                    1          2          3          4          5
     1  O    0.000000
     2  N    2.275588   0.000000
     3  C    1.345790   1.315892   0.000000
     4  C    2.355260   2.389262   1.392095   0.000000
     5  C    3.490048   1.332024   2.269045   2.714931   0.000000
     6  C    3.591660   2.760885   2.364633   1.374687   2.371264
     7  C    4.049111   2.383607   2.703381   2.389708   1.377204
     8  H    1.387328   1.510000   1.588541   2.977056   2.838208
     9  H    2.588309   3.347392   2.145124   1.078848   3.792388
    10  H    4.326211   2.051339   3.229492   3.796805   1.082566
    11  H    4.479621   3.841988   3.354319   2.131343   3.359860
    12  H    5.127305   3.350931   3.781795   3.377580   2.138258
                    6          7          8          9         10
     6  C    0.000000
     7  C    1.389976   0.000000
     8  H    3.859997   3.819732   0.000000
     9  H    2.156856   3.386450   3.596987   0.000000
    10  H    3.365779   2.143965   3.406905   4.873470   0.000000
    11  H    1.081104   2.150066   4.897879   2.495980   4.275454
    12  H    2.159644   1.079123   4.833175   4.299273   2.480490
                   11         12
    11  H    0.000000
    12  H    2.501351   0.000000
 Stoichiometry    C5H5NO
 Framework group  CS[SG(C5H5NO)]
 Deg. of freedom    21
 Full point group                 CS      NOp   2
 Largest Abelian subgroup         CS      NOp   2
 Largest concise Abelian subgroup C1      NOp   1
                         Standard orientation:                         
 ---------------------------------------------------------------------
 Center     Atomic      Atomic             Coordinates (Angstroms)
 Number     Number       Type             X           Y           Z
 ---------------------------------------------------------------------
      1          8           0       -0.007158    2.257933    0.000000
      2          7           0       -1.163935    0.298299    0.000000
      3          6           0       -0.000000    0.912162    0.000000
      4          6           0        1.224850    0.250595    0.000000
      5          6           0       -1.167091   -1.033722    0.000000
      6          6           0        1.202457   -1.123909    0.000000
      7          6           0       -0.016887   -1.791166    0.000000
      8          1           0       -1.316915    1.800529    0.000000
      9          1           0        2.143015    0.817065    0.000000
     10          1           0       -2.141673   -1.505038    0.000000
     11          1           0        2.130245   -1.678882    0.000000
     12          1           0       -0.069846   -2.868989    0.000000
 ---------------------------------------------------------------------
 Rotational constants (GHZ):      5.8692708      2.8490048      1.9179917
 Leave Link  202 at Sat Aug 28 00:50:30 2021, MaxMem= 17179869184 cpu:         3.7
 (Enter /public3/home/sc51754/softwares/g09e01/l301.exe)
 General basis read from cards:  (5D, 7F)
 Centers:       8      9     10     11     12
 S 4 1.00
     Exponent=  7.5423000000D+01 Coefficients=  2.4065000000D-03
     Exponent=  1.1350000000D+01 Coefficients=  1.8487000000D-02
     Exponent=  2.5993000000D+00 Coefficients=  8.9742000000D-02
     Exponent=  7.3513000000D-01 Coefficients=  2.8111000000D-01
 S 1 1.00
     Exponent=  2.3167000000D-01 Coefficients=  1.0000000000D+00
 S 1 1.00
     Exponent=  7.4147000000D-02 Coefficients=  1.0000000000D+00
 P 1 1.00
     Exponent=  1.6000000000D+00 Coefficients=  1.0000000000D+00
 P 1 1.00
     Exponent=  4.5000000000D-01 Coefficients=  1.0000000000D+00
 D 1 1.00
     Exponent=  1.2500000000D+00 Coefficients=  1.0000000000D+00
 ****
 Centers:       3      4      5      6      7
 S 7 1.00
     Exponent=  7.8571000000D+03 Coefficients=  5.6825000000D-04
     Exponent=  1.1787000000D+03 Coefficients=  4.3915000000D-03
     Exponent=  2.6832000000D+02 Coefficients=  2.2504000000D-02
     Exponent=  7.5948000000D+01 Coefficients=  8.6653000000D-02
     Exponent=  2.4559000000D+01 Coefficients=  2.4405000000D-01
     Exponent=  8.6212000000D+00 Coefficients=  4.4148000000D-01
     Exponent=  3.1278000000D+00 Coefficients=  3.5332000000D-01
 S 7 1.00
     Exponent=  1.1787000000D+03 Coefficients= -5.9492000000D-07
     Exponent=  2.6832000000D+02 Coefficients= -6.2748000000D-05
     Exponent=  7.5948000000D+01 Coefficients= -7.5773000000D-04
     Exponent=  2.4559000000D+01 Coefficients= -7.3308000000D-03
     Exponent=  8.6212000000D+00 Coefficients= -3.8932000000D-02
     Exponent=  3.1278000000D+00 Coefficients= -8.8908000000D-02
     Exponent=  8.2202000000D-01 Coefficients=  2.1689000000D-01
 S 1 1.00
     Exponent=  3.3017000000D-01 Coefficients=  1.0000000000D+00
 S 1 1.00
     Exponent=  1.1463000000D-01 Coefficients=  1.0000000000D+00
 P 4 1.00
     Exponent=  3.3775000000D+01 Coefficients=  6.0294000000D-03
     Exponent=  7.6766000000D+00 Coefficients=  4.3228000000D-02
     Exponent=  2.2357000000D+00 Coefficients=  1.6301000000D-01
     Exponent=  7.6447000000D-01 Coefficients=  3.6504000000D-01
 P 1 1.00
     Exponent=  2.6232000000D-01 Coefficients=  1.0000000000D+00
 P 1 1.00
     Exponent=  8.4638000000D-02 Coefficients=  1.0000000000D+00
 D 1 1.00
     Exponent=  1.4000000000D+00 Coefficients=  1.0000000000D+00
 D 1 1.00
     Exponent=  4.5000000000D-01 Coefficients=  1.0000000000D+00
 F 1 1.00
     Exponent=  9.5000000000D-01 Coefficients=  1.0000000000D+00
 ****
 Centers:       2
 S 7 1.00
     Exponent=  1.1101000000D+04 Coefficients=  5.4570000000D-04
     Exponent=  1.6653000000D+03 Coefficients=  4.2181000000D-03
     Exponent=  3.7908000000D+02 Coefficients=  2.1645000000D-02
     Exponent=  1.0730000000D+02 Coefficients=  8.3776000000D-02
     Exponent=  3.4747000000D+01 Coefficients=  2.3881000000D-01
     Exponent=  1.2249000000D+01 Coefficients=  4.3994000000D-01
     Exponent=  4.4743000000D+00 Coefficients=  3.6364000000D-01
 S 7 1.00
     Exponent=  1.6653000000D+03 Coefficients= -1.5006000000D-06
     Exponent=  3.7908000000D+02 Coefficients= -5.8753000000D-05
     Exponent=  1.0730000000D+02 Coefficients= -7.7453000000D-04
     Exponent=  3.4747000000D+01 Coefficients= -7.2161000000D-03
     Exponent=  1.2249000000D+01 Coefficients= -3.9338000000D-02
     Exponent=  4.4743000000D+00 Coefficients= -9.0611000000D-02
     Exponent=  1.2404000000D+00 Coefficients=  1.9882000000D-01
 S 1 1.00
     Exponent=  4.8743000000D-01 Coefficients=  1.0000000000D+00
 S 1 1.00
     Exponent=  1.6484000000D-01 Coefficients=  1.0000000000D+00
 P 4 1.00
     Exponent=  4.7934000000D+01 Coefficients=  6.1706000000D-03
     Exponent=  1.0999000000D+01 Coefficients=  4.4260000000D-02
     Exponent=  3.2472000000D+00 Coefficients=  1.6825000000D-01
     Exponent=  1.1114000000D+00 Coefficients=  3.6848000000D-01
 P 1 1.00
     Exponent=  3.7988000000D-01 Coefficients=  1.0000000000D+00
 P 1 1.00
     Exponent=  1.2068000000D-01 Coefficients=  1.0000000000D+00
 D 1 1.00
     Exponent=  1.8000000000D+00 Coefficients=  1.0000000000D+00
 D 1 1.00
     Exponent=  5.5000000000D-01 Coefficients=  1.0000000000D+00
 F 1 1.00
     Exponent=  1.0200000000D+00 Coefficients=  1.0000000000D+00
 ****
 Centers:       1
 S 7 1.00
     Exponent=  1.4782000000D+04 Coefficients=  5.3519000000D-04
     Exponent=  2.2173000000D+03 Coefficients=  4.1375000000D-03
     Exponent=  5.0474000000D+02 Coefficients=  2.1245000000D-02
     Exponent=  1.4287000000D+02 Coefficients=  8.2453000000D-02
     Exponent=  4.6300000000D+01 Coefficients=  2.3671000000D-01
     Exponent=  1.6337000000D+01 Coefficients=  4.4039000000D-01
     Exponent=  5.9828000000D+00 Coefficients=  3.6465000000D-01
 S 7 1.00
     Exponent=  2.2173000000D+03 Coefficients= -1.9275000000D-06
     Exponent=  5.0474000000D+02 Coefficients= -5.7964000000D-05
     Exponent=  1.4287000000D+02 Coefficients= -7.9494000000D-04
     Exponent=  4.6300000000D+01 Coefficients= -7.3125000000D-03
     Exponent=  1.6337000000D+01 Coefficients= -4.0574000000D-02
     Exponent=  5.9828000000D+00 Coefficients= -9.1594000000D-02
     Exponent=  1.6718000000D+00 Coefficients=  2.0940000000D-01
 S 1 1.00
     Exponent=  6.4662000000D-01 Coefficients=  1.0000000000D+00
 S 1 1.00
     Exponent=  2.1669000000D-01 Coefficients=  1.0000000000D+00
 P 4 1.00
     Exponent=  6.0424000000D+01 Coefficients=  6.8949000000D-03
     Exponent=  1.3935000000D+01 Coefficients=  4.9005000000D-02
     Exponent=  4.1531000000D+00 Coefficients=  1.8255000000D-01
     Exponent=  1.4158000000D+00 Coefficients=  3.7633000000D-01
 P 1 1.00
     Exponent=  4.7549000000D-01 Coefficients=  1.0000000000D+00
 P 1 1.00
     Exponent=  1.4529000000D-01 Coefficients=  1.0000000000D+00
 D 1 1.00
     Exponent=  2.2000000000D+00 Coefficients=  1.0000000000D+00
 D 1 1.00
     Exponent=  6.5000000000D-01 Coefficients=  1.0000000000D+00
 F 1 1.00
     Exponent=  1.1000000000D+00 Coefficients=  1.0000000000D+00
 ****
 Ernie: Thresh=  0.10000D-02 Tol=  0.10000D-05 Strict=F.
 Ernie:  7 primitive shells out of 220 were deleted.
 There are   223 symmetry adapted cartesian basis functions of A'  symmetry.
 There are    97 symmetry adapted cartesian basis functions of A"  symmetry.
 There are   190 symmetry adapted basis functions of A'  symmetry.
 There are    90 symmetry adapted basis functions of A"  symmetry.
   280 basis functions,   475 primitive gaussians,   320 cartesian basis functions
    25 alpha electrons       25 beta electrons
       nuclear repulsion energy       277.6987406042 Hartrees.
 IExCor=20419 DFT=T Ex+Corr=CAM-B3LYP ExCW=0 ScaHFX=  1.000000
 ScaDFX=  1.000000  1.000000  1.000000  0.810000 ScalE2=  1.000000  1.000000
 IRadAn=      0 IRanWt=     -1 IRanGd=            0 ICorTp=0 IEmpDi=  4
  HFx wShort=  0.000000 wLong=  0.330000 cFull=  0.190000 cShort=  0.000000 cLong=  0.460000
  DFx wShort=  0.000000 wLong=  0.330000 cFull=  0.190000 cShort=  0.000000 cLong=  0.460000
 NAtoms=   12 NActive=   12 NUniq=   12 SFac= 1.00D+00 NAtFMM=   60 NAOKFM=F Big=F
 Integral buffers will be    131072 words long.
 Raffenetti 2 integral format.
 Two-electron integral symmetry is turned on.
 Leave Link  301 at Sat Aug 28 00:50:31 2021, MaxMem= 17179869184 cpu:        14.3
 (Enter /public3/home/sc51754/softwares/g09e01/l302.exe)
 NPDir=0 NMtPBC=     1 NCelOv=     1 NCel=       1 NClECP=     1 NCelD=      1
         NCelK=      1 NCelE2=     1 NClLst=     1 CellRange=     0.0.
 One-electron integrals computed using PRISM.
 NBasis=   280 RedAO= T EigKep=  2.17D-04  NBF=   190    90
 NBsUse=   280 1.00D-06 EigRej= -1.00D+00 NBFU=   190    90
 Precomputing XC quadrature grid using
 IXCGrd= 4 IRadAn=           0 IRanWt=          -1 IRanGd=           0 AccXCQ= 0.00D+00.
 Generated NRdTot=       0 NPtTot=           0 NUsed=           0 NTot=          32
 NSgBfM=   320   320   320   320   320 MxSgAt=    12 MxSgA2=    12.
 Leave Link  302 at Sat Aug 28 00:50:34 2021, MaxMem= 17179869184 cpu:        94.7
 (Enter /public3/home/sc51754/softwares/g09e01/l303.exe)
 DipDrv:  MaxL=1.
 Leave Link  303 at Sat Aug 28 00:50:36 2021, MaxMem= 17179869184 cpu:        51.6
 (Enter /public3/home/sc51754/softwares/g09e01/l401.exe)
 ExpMin= 7.41D-02 ExpMax= 1.48D+04 ExpMxC= 5.05D+02 IAcc=2 IRadAn=         4 AccDes= 0.00D+00
 Harris functional with IExCor=20419 and IRadAn=       4 diagonalized for initial guess.
 HarFok:  IExCor=20419 AccDes= 0.00D+00 IRadAn=         4 IDoV= 1 UseB2=F ITyADJ=14
 ICtDFT=  3500011 ScaDFX=  1.000000  1.000000  1.000000  1.000000
 FoFCou: FMM=F IPFlag=           0 FMFlag=      100000 FMFlg1=           0
         NFxFlg=           0 DoJE=T BraDBF=F KetDBF=T FulRan=T
         wScrn=  0.000000 ICntrl=     500 IOpCl=  0 I1Cent=   200000004 NGrid=           0
         NMat0=    1 NMatS0=      1 NMatT0=    0 NMatD0=    1 NMtDS0=    0 NMtDT0=    0
 Petite list used in FoFCou.
 Harris En= -311.292793682555    
 JPrj=0 DoOrth=F DoCkMO=F.
 Initial guess orbital symmetries:
       Occupied  (A') (A') (A') (A') (A') (A') (A') (A') (A') (A')
                 (A') (A') (A') (A') (A') (A') (A') (A') (A") (A')
                 (A") (A') (A") (A') (A")
       Virtual   (A") (A") (A') (A') (A') (A') (A') (A') (A") (A')
                 (A") (A') (A') (A') (A") (A") (A') (A') (A') (A")
                 (A') (A") (A') (A') (A') (A') (A') (A') (A') (A')
                 (A") (A') (A') (A") (A') (A') (A') (A') (A') (A')
                 (A') (A') (A') (A") (A') (A') (A") (A') (A") (A")
                 (A') (A') (A') (A") (A') (A") (A') (A") (A') (A')
                 (A') (A') (A") (A') (A") (A') (A') (A') (A") (A')
                 (A") (A") (A") (A') (A") (A') (A') (A") (A') (A")
                 (A') (A') (A") (A') (A') (A") (A") (A') (A') (A')
                 (A") (A") (A') (A') (A') (A') (A') (A") (A') (A')
                 (A') (A') (A") (A') (A') (A') (A") (A') (A') (A')
                 (A') (A") (A') (A') (A') (A') (A") (A') (A') (A')
                 (A") (A') (A") (A') (A') (A") (A') (A") (A") (A")
                 (A') (A") (A') (A') (A") (A') (A') (A') (A") (A')
                 (A') (A') (A') (A") (A') (A") (A") (A') (A') (A')
                 (A') (A') (A") (A') (A") (A") (A") (A') (A') (A")
                 (A") (A') (A") (A') (A') (A") (A") (A') (A') (A')
                 (A') (A") (A") (A') (A') (A") (A') (A") (A") (A")
                 (A") (A') (A') (A") (A') (A") (A') (A") (A') (A")
                 (A") (A") (A') (A') (A') (A') (A") (A") (A") (A')
                 (A') (A') (A") (A") (A') (A') (A') (A") (A') (A')
                 (A') (A') (A") (A") (A') (A') (A") (A') (A') (A")
                 (A") (A') (A') (A') (A") (A') (A') (A") (A') (A')
                 (A') (A") (A') (A') (A') (A') (A') (A') (A") (A')
                 (A') (A') (A") (A') (A') (A') (A') (A') (A') (A')
                 (A') (A') (A') (A') (A')
 The electronic state of the initial guess is 1-A'.
 Leave Link  401 at Sat Aug 28 00:50:37 2021, MaxMem= 17179869184 cpu:        62.2
 (Enter /public3/home/sc51754/softwares/g09e01/l502.exe)
 Closed shell SCF:
 Using DIIS extrapolation, IDIIS=  1040.
 Integral symmetry usage will be decided dynamically.
 Keep R1 ints in memory in symmetry-blocked form, NReq=2335173138.
 IVT=      348658 IEndB=      348658 NGot= 17179869184 MDV= 16785904737
 LenX= 16785904737 LenY= 16785801896
 Requested convergence on RMS density matrix=1.00D-08 within 128 cycles.
 Requested convergence on MAX density matrix=1.00D-06.
 Requested convergence on             energy=1.00D-06.
 No special actions if energy rises.
 FoFCou: FMM=F IPFlag=           0 FMFlag=           0 FMFlg1=           0
         NFxFlg=           0 DoJE=F BraDBF=F KetDBF=F FulRan=T
         wScrn=  0.000000 ICntrl=     600 IOpCl=  0 I1Cent=           0 NGrid=           0
         NMat0=    1 NMatS0=  39340 NMatT0=    0 NMatD0=    1 NMtDS0=    0 NMtDT0=    0
 Petite list used in FoFCou.
 Integral accuracy reduced to 1.0D-05 until final iterations.

 Cycle   1  Pass 0  IDiag  1:
 E= -323.333038052799    
 DIIS: error= 6.91D-02 at cycle   1 NSaved=   1.
 NSaved= 1 IEnMin= 1 EnMin= -323.333038052799     IErMin= 1 ErrMin= 6.91D-02
 ErrMax= 6.91D-02  0.00D+00 EMaxC= 1.00D-01 BMatC= 2.34D-01 BMatP= 2.34D-01
 IDIUse=3 WtCom= 3.09D-01 WtEn= 6.91D-01
 Coeff-Com:  0.100D+01
 Coeff-En:   0.100D+01
 Coeff:      0.100D+01
 Gap=     0.334 Goal=   None    Shift=    0.000
 GapD=    0.334 DampG=1.000 DampE=0.500 DampFc=0.5000 IDamp=-1.
 Damping current iteration by 5.00D-01
 RMSDP=2.75D-03 MaxDP=1.39D-01              OVMax= 2.11D-01

 Cycle   2  Pass 0  IDiag  1:
 E= -323.369514872601     Delta-E=       -0.036476819802 Rises=F Damp=T
 DIIS: error= 3.44D-02 at cycle   2 NSaved=   2.
 NSaved= 2 IEnMin= 2 EnMin= -323.369514872601     IErMin= 2 ErrMin= 3.44D-02
 ErrMax= 3.44D-02  0.00D+00 EMaxC= 1.00D-01 BMatC= 4.46D-02 BMatP= 2.34D-01
 IDIUse=3 WtCom= 6.56D-01 WtEn= 3.44D-01
 Coeff-Com: -0.214D+00 0.121D+01
 Coeff-En:   0.111D+00 0.889D+00
 Coeff:     -0.102D+00 0.110D+01
 Gap=     0.312 Goal=   None    Shift=    0.000
 RMSDP=1.23D-03 MaxDP=6.18D-02 DE=-3.65D-02 OVMax= 1.53D-01

 Cycle   3  Pass 0  IDiag  1:
 E= -323.409645659708     Delta-E=       -0.040130787107 Rises=F Damp=F
 DIIS: error= 6.75D-03 at cycle   3 NSaved=   3.
 NSaved= 3 IEnMin= 3 EnMin= -323.409645659708     IErMin= 3 ErrMin= 6.75D-03
 ErrMax= 6.75D-03  0.00D+00 EMaxC= 1.00D-01 BMatC= 1.35D-02 BMatP= 4.46D-02
 IDIUse=3 WtCom= 9.32D-01 WtEn= 6.75D-02
 Coeff-Com: -0.233D+00 0.504D+00 0.729D+00
 Coeff-En:   0.000D+00 0.000D+00 0.100D+01
 Coeff:     -0.218D+00 0.470D+00 0.747D+00
 Gap=     0.297 Goal=   None    Shift=    0.000
 RMSDP=3.62D-04 MaxDP=1.35D-02 DE=-4.01D-02 OVMax= 4.57D-02

 Cycle   4  Pass 0  IDiag  1:
 E= -323.421495319037     Delta-E=       -0.011849659330 Rises=F Damp=F
 DIIS: error= 1.32D-03 at cycle   4 NSaved=   4.
 NSaved= 4 IEnMin= 4 EnMin= -323.421495319037     IErMin= 4 ErrMin= 1.32D-03
 ErrMax= 1.32D-03  0.00D+00 EMaxC= 1.00D-01 BMatC= 8.17D-04 BMatP= 1.35D-02
 IDIUse=3 WtCom= 9.87D-01 WtEn= 1.32D-02
 Coeff-Com: -0.103D+00 0.216D+00 0.390D+00 0.497D+00
 Coeff-En:   0.000D+00 0.000D+00 0.000D+00 0.100D+01
 Coeff:     -0.102D+00 0.213D+00 0.385D+00 0.504D+00
 Gap=     0.291 Goal=   None    Shift=    0.000
 RMSDP=6.61D-05 MaxDP=2.96D-03 DE=-1.18D-02 OVMax= 5.90D-03

 Cycle   5  Pass 0  IDiag  1:
 E= -323.422126838749     Delta-E=       -0.000631519712 Rises=F Damp=F
 DIIS: error= 2.92D-04 at cycle   5 NSaved=   5.
 NSaved= 5 IEnMin= 5 EnMin= -323.422126838749     IErMin= 5 ErrMin= 2.92D-04
 ErrMax= 2.92D-04  0.00D+00 EMaxC= 1.00D-01 BMatC= 2.63D-05 BMatP= 8.17D-04
 IDIUse=3 WtCom= 9.97D-01 WtEn= 2.92D-03
 Coeff-Com: -0.178D-01 0.357D-01 0.870D-01 0.179D+00 0.717D+00
 Coeff-En:   0.000D+00 0.000D+00 0.000D+00 0.000D+00 0.100D+01
 Coeff:     -0.178D-01 0.356D-01 0.867D-01 0.178D+00 0.717D+00
 Gap=     0.292 Goal=   None    Shift=    0.000
 RMSDP=2.06D-05 MaxDP=9.65D-04 DE=-6.32D-04 OVMax= 2.50D-03

 Cycle   6  Pass 0  IDiag  1:
 E= -323.422144099375     Delta-E=       -0.000017260626 Rises=F Damp=F
 DIIS: error= 2.20D-04 at cycle   6 NSaved=   6.
 NSaved= 6 IEnMin= 6 EnMin= -323.422144099375     IErMin= 6 ErrMin= 2.20D-04
 ErrMax= 2.20D-04  0.00D+00 EMaxC= 1.00D-01 BMatC= 1.47D-05 BMatP= 2.63D-05
 IDIUse=3 WtCom= 9.98D-01 WtEn= 2.20D-03
 Coeff-Com:  0.115D-01-0.247D-01-0.275D-01 0.343D-02 0.461D+00 0.576D+00
 Coeff-En:   0.000D+00 0.000D+00 0.000D+00 0.000D+00 0.209D+00 0.791D+00
 Coeff:      0.114D-01-0.246D-01-0.274D-01 0.342D-02 0.461D+00 0.576D+00
 Gap=     0.291 Goal=   None    Shift=    0.000
 RMSDP=1.17D-05 MaxDP=5.15D-04 DE=-1.73D-05 OVMax= 1.69D-03

 Cycle   7  Pass 0  IDiag  1:
 E= -323.422157748544     Delta-E=       -0.000013649169 Rises=F Damp=F
 DIIS: error= 6.92D-05 at cycle   7 NSaved=   7.
 NSaved= 7 IEnMin= 7 EnMin= -323.422157748544     IErMin= 7 ErrMin= 6.92D-05
 ErrMax= 6.92D-05  0.00D+00 EMaxC= 1.00D-01 BMatC= 7.89D-07 BMatP= 1.47D-05
 IDIUse=1 WtCom= 1.00D+00 WtEn= 0.00D+00
 Coeff-Com:  0.551D-02-0.115D-01-0.179D-01-0.200D-01 0.164D-01 0.199D+00
 Coeff-Com:  0.828D+00
 Coeff:      0.551D-02-0.115D-01-0.179D-01-0.200D-01 0.164D-01 0.199D+00
 Coeff:      0.828D+00
 Gap=     0.291 Goal=   None    Shift=    0.000
 RMSDP=4.19D-06 MaxDP=1.24D-04 DE=-1.36D-05 OVMax= 6.00D-04

 Initial convergence to 1.0D-05 achieved.  Increase integral accuracy.
 Cycle   8  Pass 1  IDiag  1:
 E= -323.422129572164     Delta-E=        0.000028176380 Rises=F Damp=F
 DIIS: error= 2.92D-05 at cycle   1 NSaved=   1.
 NSaved= 1 IEnMin= 1 EnMin= -323.422129572164     IErMin= 1 ErrMin= 2.92D-05
 ErrMax= 2.92D-05  0.00D+00 EMaxC= 1.00D-01 BMatC= 1.10D-07 BMatP= 1.10D-07
 IDIUse=1 WtCom= 1.00D+00 WtEn= 0.00D+00
 Coeff-Com:  0.100D+01
 Coeff:      0.100D+01
 Gap=     0.291 Goal=   None    Shift=    0.000
 RMSDP=4.19D-06 MaxDP=1.24D-04 DE= 2.82D-05 OVMax= 2.85D-04

 Cycle   9  Pass 1  IDiag  1:
 E= -323.422129780746     Delta-E=       -0.000000208582 Rises=F Damp=F
 DIIS: error= 9.32D-06 at cycle   2 NSaved=   2.
 NSaved= 2 IEnMin= 2 EnMin= -323.422129780746     IErMin= 2 ErrMin= 9.32D-06
 ErrMax= 9.32D-06  0.00D+00 EMaxC= 1.00D-01 BMatC= 3.25D-08 BMatP= 1.10D-07
 IDIUse=1 WtCom= 1.00D+00 WtEn= 0.00D+00
 Coeff-Com:  0.252D+00 0.748D+00
 Coeff:      0.252D+00 0.748D+00
 Gap=     0.291 Goal=   None    Shift=    0.000
 RMSDP=8.05D-07 MaxDP=4.63D-05 DE=-2.09D-07 OVMax= 8.89D-05

 Cycle  10  Pass 1  IDiag  1:
 E= -323.422129817409     Delta-E=       -0.000000036663 Rises=F Damp=F
 DIIS: error= 9.09D-06 at cycle   3 NSaved=   3.
 NSaved= 3 IEnMin= 3 EnMin= -323.422129817409     IErMin= 3 ErrMin= 9.09D-06
 ErrMax= 9.09D-06  0.00D+00 EMaxC= 1.00D-01 BMatC= 1.41D-08 BMatP= 3.25D-08
 IDIUse=1 WtCom= 1.00D+00 WtEn= 0.00D+00
 Coeff-Com: -0.702D-01 0.378D+00 0.692D+00
 Coeff:     -0.702D-01 0.378D+00 0.692D+00
 Gap=     0.291 Goal=   None    Shift=    0.000
 RMSDP=4.99D-07 MaxDP=1.54D-05 DE=-3.67D-08 OVMax= 7.28D-05

 Cycle  11  Pass 1  IDiag  1:
 E= -323.422129836157     Delta-E=       -0.000000018748 Rises=F Damp=F
 DIIS: error= 3.61D-06 at cycle   4 NSaved=   4.
 NSaved= 4 IEnMin= 4 EnMin= -323.422129836157     IErMin= 4 ErrMin= 3.61D-06
 ErrMax= 3.61D-06  0.00D+00 EMaxC= 1.00D-01 BMatC= 2.70D-09 BMatP= 1.41D-08
 IDIUse=1 WtCom= 1.00D+00 WtEn= 0.00D+00
 Coeff-Com: -0.586D-01 0.960D-01 0.359D+00 0.603D+00
 Coeff:     -0.586D-01 0.960D-01 0.359D+00 0.603D+00
 Gap=     0.291 Goal=   None    Shift=    0.000
 RMSDP=2.04D-07 MaxDP=7.83D-06 DE=-1.87D-08 OVMax= 4.07D-05

 Cycle  12  Pass 1  IDiag  1:
 E= -323.422129839923     Delta-E=       -0.000000003766 Rises=F Damp=F
 DIIS: error= 1.83D-06 at cycle   5 NSaved=   5.
 NSaved= 5 IEnMin= 5 EnMin= -323.422129839923     IErMin= 5 ErrMin= 1.83D-06
 ErrMax= 1.83D-06  0.00D+00 EMaxC= 1.00D-01 BMatC= 6.40D-10 BMatP= 2.70D-09
 IDIUse=1 WtCom= 1.00D+00 WtEn= 0.00D+00
 Coeff-Com: -0.130D-02-0.112D+00-0.861D-01 0.315D+00 0.884D+00
 Coeff:     -0.130D-02-0.112D+00-0.861D-01 0.315D+00 0.884D+00
 Gap=     0.291 Goal=   None    Shift=    0.000
 RMSDP=1.64D-07 MaxDP=4.61D-06 DE=-3.77D-09 OVMax= 2.81D-05

 Cycle  13  Pass 1  IDiag  1:
 E= -323.422129841363     Delta-E=       -0.000000001440 Rises=F Damp=F
 DIIS: error= 5.84D-07 at cycle   6 NSaved=   6.
 NSaved= 6 IEnMin= 6 EnMin= -323.422129841363     IErMin= 6 ErrMin= 5.84D-07
 ErrMax= 5.84D-07  0.00D+00 EMaxC= 1.00D-01 BMatC= 7.37D-11 BMatP= 6.40D-10
 IDIUse=1 WtCom= 1.00D+00 WtEn= 0.00D+00
 Coeff-Com:  0.821D-02-0.675D-01-0.868D-01 0.760D-01 0.415D+00 0.655D+00
 Coeff:      0.821D-02-0.675D-01-0.868D-01 0.760D-01 0.415D+00 0.655D+00
 Gap=     0.291 Goal=   None    Shift=    0.000
 RMSDP=4.54D-08 MaxDP=1.13D-06 DE=-1.44D-09 OVMax= 1.13D-05

 Cycle  14  Pass 1  IDiag  1:
 E= -323.422129841489     Delta-E=       -0.000000000126 Rises=F Damp=F
 DIIS: error= 1.81D-07 at cycle   7 NSaved=   7.
 NSaved= 7 IEnMin= 7 EnMin= -323.422129841489     IErMin= 7 ErrMin= 1.81D-07
 ErrMax= 1.81D-07  0.00D+00 EMaxC= 1.00D-01 BMatC= 8.98D-12 BMatP= 7.37D-11
 IDIUse=1 WtCom= 1.00D+00 WtEn= 0.00D+00
 Coeff-Com:  0.386D-02-0.214D-01-0.330D-01 0.243D-02 0.898D-01 0.300D+00
 Coeff-Com:  0.659D+00
 Coeff:      0.386D-02-0.214D-01-0.330D-01 0.243D-02 0.898D-01 0.300D+00
 Coeff:      0.659D+00
 Gap=     0.291 Goal=   None    Shift=    0.000
 RMSDP=1.39D-08 MaxDP=3.67D-07 DE=-1.26D-10 OVMax= 2.17D-06

 Cycle  15  Pass 1  IDiag  1:
 E= -323.422129841497     Delta-E=       -0.000000000008 Rises=F Damp=F
 DIIS: error= 4.91D-08 at cycle   8 NSaved=   8.
 NSaved= 8 IEnMin= 8 EnMin= -323.422129841497     IErMin= 8 ErrMin= 4.91D-08
 ErrMax= 4.91D-08  0.00D+00 EMaxC= 1.00D-01 BMatC= 4.12D-13 BMatP= 8.98D-12
 IDIUse=1 WtCom= 1.00D+00 WtEn= 0.00D+00
 Coeff-Com: -0.512D-03 0.620D-02 0.805D-02-0.844D-02-0.437D-01-0.422D-01
 Coeff-Com:  0.104D+00 0.977D+00
 Coeff:     -0.512D-03 0.620D-02 0.805D-02-0.844D-02-0.437D-01-0.422D-01
 Coeff:      0.104D+00 0.977D+00
 Gap=     0.291 Goal=   None    Shift=    0.000
 RMSDP=5.26D-09 MaxDP=1.29D-07 DE=-7.73D-12 OVMax= 8.58D-07

 SCF Done:  E(RCAM-B3LYP) =  -323.422129841     A.U. after   15 cycles
            NFock= 15  Conv=0.53D-08     -V/T= 2.0037
 KE= 3.222382389786D+02 PE=-1.310078090490D+03 EE= 3.867189810654D+02
 Leave Link  502 at Sat Aug 28 00:50:49 2021, MaxMem= 17179869184 cpu:       440.2
 (Enter /public3/home/sc51754/softwares/g09e01/l801.exe)
 DoSCS=F DFT=T ScalE2(SS,OS)=  1.000000  1.000000
 Range of M.O.s used for correlation:     1   280
 NBasis=   280 NAE=    25 NBE=    25 NFC=     0 NFV=     0
 NROrb=    280 NOA=    25 NOB=    25 NVA=   255 NVB=   255

 **** Warning!!: The largest alpha MO coefficient is  0.20309754D+02

 Leave Link  801 at Sat Aug 28 00:50:49 2021, MaxMem= 17179869184 cpu:         0.7
 (Enter /public3/home/sc51754/softwares/g09e01/l1101.exe)
 Using compressed storage, NAtomX=    12.
 Will process     13 centers per pass.
 Leave Link 1101 at Sat Aug 28 00:50:51 2021, MaxMem= 17179869184 cpu:        50.1
 (Enter /public3/home/sc51754/softwares/g09e01/l1102.exe)
 Symmetrizing basis deriv contribution to polar:
 IMax=3 JMax=2 DiffMx= 0.00D+00
 Leave Link 1102 at Sat Aug 28 00:50:52 2021, MaxMem= 17179869184 cpu:        13.0
 (Enter /public3/home/sc51754/softwares/g09e01/l1110.exe)
 Forming Gx(P) for the SCF density, NAtomX=    12.
 Integral derivatives from FoFJK, PRISM(SPDF).
 Do as many integral derivatives as possible in FoFJK.
 G2DrvN: MDV=   17179868984.
 G2DrvN: will do    13 centers at a time, making    1 passes.
 Calling FoFCou, ICntrl=  3107 FMM=F I1Cent=   0 AccDes= 0.00D+00.
 FoFJK:  IHMeth= 1 ICntrl=    3107 DoSepK=T KAlg= 0 I1Cent=   0 FoldK=F
 IRaf=         1 NMat=   1 IRICut=       1 DoRegI=T DoRafI=F ISym2E= 1.
 FoFCou: FMM=F IPFlag=           0 FMFlag=      100000 FMFlg1=           0
         NFxFlg=           0 DoJE=F BraDBF=F KetDBF=F FulRan=T
         wScrn=  0.000000 ICntrl=    3507 IOpCl=  0 I1Cent=           0 NGrid=           0
         NMat0=    1 NMatS0=      1 NMatT0=    0 NMatD0=    1 NMtDS0=    0 NMtDT0=    0
 Petite list used in FoFCou.
 End of G2Drv F.D. properties file   721 does not exist.
 End of G2Drv F.D. properties file   722 does not exist.
 End of G2Drv F.D. properties file   788 does not exist.
 Leave Link 1110 at Sat Aug 28 00:50:59 2021, MaxMem= 17179869184 cpu:       413.3
 (Enter /public3/home/sc51754/softwares/g09e01/l1002.exe)
 Minotr:  Closed shell wavefunction.
          IDoAtm=111111111111
          Direct CPHF calculation.
          Differentiating once with respect to nuclear coordinates.
          Using symmetry in CPHF.
          Requested convergence is 1.0D-08 RMS, and 1.0D-07 maximum.
          Secondary convergence is 1.0D-12 RMS, and 1.0D-12 maximum.
          NewPWx=T KeepS1=F KeepF1=F KeepIn=T MapXYZ=F SortEE=F KeepMc=T.
          MDV=   17179868780 using IRadAn=       2.
 Generate precomputed XC quadrature information.
 Keep R1 ints in memory in symmetry-blocked form, NReq=2334829665.
 FoFCou: FMM=F IPFlag=           0 FMFlag=           0 FMFlg1=           0
         NFxFlg=           0 DoJE=F BraDBF=F KetDBF=F FulRan=T
         wScrn=  0.000000 ICntrl=     600 IOpCl=  0 I1Cent=           0 NGrid=           0
         NMat0=    1 NMatS0=  39340 NMatT0=    0 NMatD0=    1 NMtDS0=    0 NMtDT0=    0
 Petite list used in FoFCou.
          Solving linear equations simultaneously, MaxMat=       0.
          There are    39 degrees of freedom in the 1st order CPHF.  IDoFFX=6 NUNeed=     0.
     33 vectors produced by pass  0 Test12= 1.63D-14 2.56D-09 XBig12= 9.73D-02 7.40D-02.
 AX will form    33 AO Fock derivatives at one time.
     33 vectors produced by pass  1 Test12= 1.63D-14 2.56D-09 XBig12= 1.01D-02 3.43D-02.
     33 vectors produced by pass  2 Test12= 1.63D-14 2.56D-09 XBig12= 3.59D-04 3.79D-03.
     33 vectors produced by pass  3 Test12= 1.63D-14 2.56D-09 XBig12= 3.54D-06 4.25D-04.
     33 vectors produced by pass  4 Test12= 1.63D-14 2.56D-09 XBig12= 3.79D-08 4.07D-05.
     33 vectors produced by pass  5 Test12= 1.63D-14 2.56D-09 XBig12= 2.63D-10 2.87D-06.
     28 vectors produced by pass  6 Test12= 1.63D-14 2.56D-09 XBig12= 1.18D-12 1.52D-07.
     14 vectors produced by pass  7 Test12= 1.63D-14 2.56D-09 XBig12= 5.20D-15 1.21D-08.
 InvSVY:  IOpt=1 It=  1 EMax= 1.11D-15
 Solved reduced A of dimension   240 with    33 vectors.
 End of Minotr F.D. properties file   721 does not exist.
 End of Minotr F.D. properties file   722 does not exist.
 End of Minotr F.D. properties file   788 does not exist.
 Leave Link 1002 at Sat Aug 28 00:51:12 2021, MaxMem= 17179869184 cpu:       830.4
 (Enter /public3/home/sc51754/softwares/g09e01/l601.exe)
 Copying SCF densities to generalized density rwf, IOpCl= 0 IROHF=0.

 **********************************************************************

            Population analysis using the SCF density.

 **********************************************************************

 Orbital symmetries:
       Occupied  (A') (A') (A') (A') (A') (A') (A') (A') (A') (A')
                 (A') (A') (A') (A') (A') (A') (A") (A') (A') (A')
                 (A") (A') (A') (A") (A")
       Virtual   (A") (A") (A') (A') (A') (A') (A') (A') (A") (A')
                 (A") (A') (A') (A') (A") (A') (A") (A') (A') (A")
                 (A') (A") (A') (A') (A') (A') (A') (A') (A') (A')
                 (A") (A') (A') (A") (A') (A') (A') (A') (A') (A')
                 (A') (A') (A") (A') (A') (A') (A") (A') (A") (A")
                 (A') (A') (A') (A") (A") (A') (A") (A') (A') (A')
                 (A') (A') (A") (A') (A') (A") (A') (A') (A") (A')
                 (A") (A") (A") (A') (A") (A') (A") (A') (A') (A')
                 (A") (A') (A") (A') (A') (A") (A") (A') (A') (A')
                 (A") (A") (A') (A') (A') (A') (A') (A") (A') (A')
                 (A') (A') (A") (A') (A') (A') (A") (A') (A') (A')
                 (A") (A') (A') (A') (A') (A') (A") (A') (A') (A')
                 (A") (A') (A') (A") (A') (A") (A') (A") (A") (A")
                 (A') (A") (A') (A") (A') (A') (A') (A") (A') (A')
                 (A') (A') (A') (A") (A') (A") (A") (A') (A') (A')
                 (A') (A') (A") (A') (A") (A") (A") (A') (A') (A")
                 (A") (A') (A") (A') (A') (A") (A") (A') (A') (A')
                 (A') (A") (A") (A') (A") (A') (A') (A") (A") (A")
                 (A') (A') (A") (A') (A") (A") (A') (A") (A') (A")
                 (A") (A") (A') (A') (A') (A') (A") (A") (A') (A")
                 (A') (A") (A') (A") (A') (A') (A') (A") (A') (A')
                 (A') (A") (A') (A") (A') (A') (A") (A') (A") (A')
                 (A') (A") (A') (A') (A") (A') (A') (A") (A') (A')
                 (A') (A") (A') (A') (A') (A') (A') (A') (A") (A')
                 (A') (A') (A") (A') (A') (A') (A') (A') (A') (A')
                 (A') (A') (A') (A') (A')
 The electronic state is 1-A'.
 Alpha  occ. eigenvalues --  -19.20677 -14.42445 -10.35126 -10.31114 -10.28184
 Alpha  occ. eigenvalues --  -10.26430 -10.26073  -1.13298  -1.03810  -0.91271
 Alpha  occ. eigenvalues --   -0.84695  -0.75107  -0.70693  -0.62211  -0.59294
 Alpha  occ. eigenvalues --   -0.54743  -0.52646  -0.51226  -0.50679  -0.45794
 Alpha  occ. eigenvalues --   -0.41902  -0.41017  -0.38452  -0.37374  -0.29753
 Alpha virt. eigenvalues --   -0.00604   0.03123   0.03939   0.05486   0.06898
 Alpha virt. eigenvalues --    0.08691   0.10696   0.15849   0.17399   0.17950
 Alpha virt. eigenvalues --    0.19032   0.19069   0.21213   0.22180   0.23176
 Alpha virt. eigenvalues --    0.23400   0.23949   0.28390   0.28523   0.30592
 Alpha virt. eigenvalues --    0.31802   0.33210   0.33390   0.34063   0.35991
 Alpha virt. eigenvalues --    0.37900   0.39608   0.41076   0.41439   0.43793
 Alpha virt. eigenvalues --    0.46836   0.47700   0.48426   0.48969   0.49064
 Alpha virt. eigenvalues --    0.54201   0.55405   0.56169   0.59480   0.63804
 Alpha virt. eigenvalues --    0.66670   0.67441   0.69606   0.70237   0.71999
 Alpha virt. eigenvalues --    0.72578   0.75865   0.77494   0.82505   0.86032
 Alpha virt. eigenvalues --    0.87112   0.94068   0.95278   0.96883   0.99939
 Alpha virt. eigenvalues --    1.01071   1.01398   1.02460   1.03886   1.06543
 Alpha virt. eigenvalues --    1.07858   1.13956   1.15571   1.15830   1.20217
 Alpha virt. eigenvalues --    1.20267   1.21653   1.22737   1.26691   1.27421
 Alpha virt. eigenvalues --    1.28614   1.31371   1.33110   1.33386   1.35453
 Alpha virt. eigenvalues --    1.42046   1.46706   1.46858   1.48203   1.54024
 Alpha virt. eigenvalues --    1.55283   1.57376   1.58116   1.59909   1.62606
 Alpha virt. eigenvalues --    1.63185   1.67239   1.68109   1.71313   1.72257
 Alpha virt. eigenvalues --    1.73698   1.76186   1.76948   1.81217   1.82958
 Alpha virt. eigenvalues --    1.83738   1.86946   1.91648   1.91862   1.92585
 Alpha virt. eigenvalues --    1.96675   1.98601   2.04071   2.05756   2.07457
 Alpha virt. eigenvalues --    2.16149   2.17447   2.19968   2.23968   2.25297
 Alpha virt. eigenvalues --    2.28154   2.29254   2.31536   2.33264   2.36607
 Alpha virt. eigenvalues --    2.39826   2.46637   2.50189   2.70402   2.74377
 Alpha virt. eigenvalues --    2.92108   2.92305   2.99184   3.01826   3.09594
 Alpha virt. eigenvalues --    3.19929   3.24245   3.25454   3.29990   3.33304
 Alpha virt. eigenvalues --    3.34365   3.36585   3.42309   3.43558   3.46373
 Alpha virt. eigenvalues --    3.47791   3.49828   3.55772   3.55788   3.63161
 Alpha virt. eigenvalues --    3.64755   3.65410   3.67541   3.68055   3.71048
 Alpha virt. eigenvalues --    3.74031   3.80103   3.80254   3.84090   3.90970
 Alpha virt. eigenvalues --    3.95892   3.97713   3.98694   3.98800   3.99405
 Alpha virt. eigenvalues --    4.03503   4.08198   4.10705   4.12308   4.13407
 Alpha virt. eigenvalues --    4.16368   4.17585   4.19663   4.21811   4.24075
 Alpha virt. eigenvalues --    4.24429   4.26208   4.26566   4.28606   4.30362
 Alpha virt. eigenvalues --    4.34196   4.34359   4.35523   4.37324   4.37468
 Alpha virt. eigenvalues --    4.40063   4.40439   4.40575   4.44342   4.47046
 Alpha virt. eigenvalues --    4.49108   4.50051   4.50111   4.52440   4.52830
 Alpha virt. eigenvalues --    4.56405   4.56562   4.57037   4.62084   4.63542
 Alpha virt. eigenvalues --    4.65164   4.69014   4.70279   4.73595   4.76890
 Alpha virt. eigenvalues --    4.79687   4.82694   4.86834   4.88673   4.91257
 Alpha virt. eigenvalues --    4.94327   5.00380   5.01085   5.02764   5.08294
 Alpha virt. eigenvalues --    5.11918   5.15352   5.18358   5.24238   5.26815
 Alpha virt. eigenvalues --    5.30629   5.32864   5.33426   5.35651   5.38462
 Alpha virt. eigenvalues --    5.41340   5.43997   5.44399   5.48142   5.48881
 Alpha virt. eigenvalues --    5.49885   5.49965   5.57994   5.59754   5.61682
 Alpha virt. eigenvalues --    5.64843   5.70747   5.70864   5.73889   5.81502
 Alpha virt. eigenvalues --    5.85435   5.90840   5.93869   5.98430   6.08586
 Alpha virt. eigenvalues --    6.14280   6.18680   6.21995   6.32315   6.41140
 Alpha virt. eigenvalues --    6.48513   6.55612   6.59215   6.60665   6.71795
 Alpha virt. eigenvalues --    6.91824   7.15825   7.27510   9.54392  12.00994
 Alpha virt. eigenvalues --   12.67663  14.80102  17.51234  18.54400  22.31223
          Condensed to atoms (all electrons):
               1          2          3          4          5          6
     1  O    8.123867  -0.138533   0.386656  -0.075580   0.001360   0.006626
     2  N   -0.138533   6.717718   0.384303  -0.017584   0.503251  -0.030105
     3  C    0.386656   0.384303   4.479686   0.493432  -0.087141  -0.053783
     4  C   -0.075580  -0.017584   0.493432   4.866808  -0.040803   0.527566
     5  C    0.001360   0.503251  -0.087141  -0.040803   4.608396  -0.076633
     6  C    0.006626  -0.030105  -0.053783   0.527566  -0.076633   4.739344
     7  C   -0.000527  -0.043550  -0.046512  -0.064537   0.543990   0.474118
     8  H    0.210569   0.079089  -0.048977   0.024814  -0.003147  -0.006730
     9  H    0.003088   0.006233  -0.037322   0.446933  -0.001988  -0.035881
    10  H   -0.000715  -0.036155   0.004788  -0.002751   0.445425   0.007959
    11  H   -0.000341  -0.001297   0.008560  -0.035124   0.008018   0.437471
    12  H    0.000037   0.005694  -0.001207   0.007700  -0.032247  -0.036393
               7          8          9         10         11         12
     1  O   -0.000527   0.210569   0.003088  -0.000715  -0.000341   0.000037
     2  N   -0.043550   0.079089   0.006233  -0.036155  -0.001297   0.005694
     3  C   -0.046512  -0.048977  -0.037322   0.004788   0.008560  -0.001207
     4  C   -0.064537   0.024814   0.446933  -0.002751  -0.035124   0.007700
     5  C    0.543990  -0.003147  -0.001988   0.445425   0.008018  -0.032247
     6  C    0.474118  -0.006730  -0.035881   0.007959   0.437471  -0.036393
     7  C    4.935404   0.004366   0.007687  -0.059593  -0.045032   0.440866
     8  H    0.004366   0.462319  -0.000714  -0.003017   0.000167  -0.000104
     9  H    0.007687  -0.000714   0.556734   0.000194  -0.006195   0.000101
    10  H   -0.059593  -0.003017   0.000194   0.580071   0.000058  -0.004431
    11  H   -0.045032   0.000167  -0.006195   0.000058   0.578707  -0.006712
    12  H    0.440866  -0.000104   0.000101  -0.004431  -0.006712   0.571438
 Mulliken charges:
               1
     1  O   -0.516507
     2  N   -0.429062
     3  C    0.517517
     4  C   -0.130872
     5  C    0.131519
     6  C    0.046441
     7  C   -0.146679
     8  H    0.281365
     9  H    0.061130
    10  H    0.068168
    11  H    0.061722
    12  H    0.055257
 Sum of Mulliken charges =  -0.00000
 Mulliken charges with hydrogens summed into heavy atoms:
               1
     1  O   -0.235141
     2  N   -0.429062
     3  C    0.517517
     4  C   -0.069742
     5  C    0.199688
     6  C    0.108162
     7  C   -0.091422
 APT charges:
               1
     1  O   -0.298305
     2  N   -0.393022
     3  C    0.199197
     4  C   -0.515129
     5  C   -0.382316
     6  C   -0.344954
     7  C   -0.482483
     8  H    0.298161
     9  H    0.425586
    10  H    0.479118
    11  H    0.487498
    12  H    0.526649
 Sum of APT charges =  -0.00000
 APT charges with hydrogens summed into heavy atoms:
               1
     1  O   -0.000144
     2  N   -0.393022
     3  C    0.199197
     4  C   -0.089543
     5  C    0.096802
     6  C    0.142544
     7  C    0.044166
 Electronic spatial extent (au):  <R**2>=            620.3111
 Charge=             -0.0000 electrons
 Dipole moment (field-independent basis, Debye):
    X=              0.0793    Y=             -3.3400    Z=              0.0000  Tot=              3.3410
 Quadrupole moment (field-independent basis, Debye-Ang):
   XX=            -35.8816   YY=            -44.0248   ZZ=            -43.3965
   XY=             -0.8922   XZ=             -0.0000   YZ=              0.0000
 Traceless Quadrupole moment (field-independent basis, Debye-Ang):
   XX=              5.2194   YY=             -2.9238   ZZ=             -2.2955
   XY=             -0.8922   XZ=             -0.0000   YZ=              0.0000
 Octapole moment (field-independent basis, Debye-Ang**2):
  XXX=              2.9861  YYY=            -22.1597  ZZZ=              0.0000  XYY=             -4.3637
  XXY=              0.1665  XXZ=              0.0000  XZZ=             -1.3139  YZZ=              4.3913
  YYZ=              0.0000  XYZ=             -0.0000
 Hexadecapole moment (field-independent basis, Debye-Ang**3):
 XXXX=           -261.7971 YYYY=           -522.5067 ZZZZ=            -47.9153 XXXY=              8.9026
 XXXZ=             -0.0000 YYYX=             -4.7332 YYYZ=              0.0000 ZZZX=              0.0000
 ZZZY=              0.0000 XXYY=           -111.6320 XXZZ=            -60.3741 YYZZ=            -98.1356
 XXYZ=              0.0000 YYXZ=             -0.0000 ZZXY=              1.6597
 N-N= 2.776987406042D+02 E-N=-1.310078086255D+03  KE= 3.222382389786D+02
 Symmetry A'   KE= 3.105485300625D+02
 Symmetry A"   KE= 1.168970891611D+01
  Exact polarizability:   0.000   0.000   0.000   0.000   0.000   0.000
 Approx polarizability:  97.315   3.993 113.028  -0.000   0.000  48.948
 No NMR shielding tensors so no spin-rotation constants.
 Leave Link  601 at Sat Aug 28 00:51:14 2021, MaxMem= 17179869184 cpu:        65.7
 (Enter /public3/home/sc51754/softwares/g09e01/l701.exe)
 Compute integral second derivatives.
 ... and contract with generalized density number  0.
 Leave Link  701 at Sat Aug 28 00:51:15 2021, MaxMem= 17179869184 cpu:        68.6
 (Enter /public3/home/sc51754/softwares/g09e01/l702.exe)
 L702 exits ... SP integral derivatives will be done elsewhere.
 Leave Link  702 at Sat Aug 28 00:51:15 2021, MaxMem= 17179869184 cpu:         0.8
 (Enter /public3/home/sc51754/softwares/g09e01/l703.exe)
 Compute integral second derivatives, UseDBF=F ICtDFT=           0.
 Integral derivatives from FoFJK, PRISM(SPDF).
 Calling FoFJK, ICntrl=    100147 FMM=F ISym2X=1 I1Cent= 0 IOpClX= 0 NMat=1 NMatS=1 NMatT=0.
 FoFJK:  IHMeth= 1 ICntrl=  100147 DoSepK=T KAlg= 0 I1Cent=   0 FoldK=F
 IRaf=         1 NMat=   1 IRICut=       1 DoRegI=T DoRafI=F ISym2E= 1.
 FoFCou: FMM=F IPFlag=           0 FMFlag=      100000 FMFlg1=         800
         NFxFlg=           0 DoJE=F BraDBF=F KetDBF=F FulRan=T
         wScrn=  0.000000 ICntrl=  100547 IOpCl=  0 I1Cent=           0 NGrid=           0
         NMat0=    1 NMatS0=      1 NMatT0=    0 NMatD0=    1 NMtDS0=    0 NMtDT0=    0
 Petite list used in FoFCou.
 Leave Link  703 at Sat Aug 28 00:51:29 2021, MaxMem= 17179869184 cpu:       865.4
 (Enter /public3/home/sc51754/softwares/g09e01/l716.exe)
 Dipole        = 3.12066974D-02-1.31406676D+00 1.33996276D-31
 Polarizability= 0.00000000D+00 0.00000000D+00 0.00000000D+00
                 0.00000000D+00 0.00000000D+00 0.00000000D+00
 ***** Axes restored to original set *****
 -------------------------------------------------------------------
 Center     Atomic                   Forces (Hartrees/Bohr)
 Number     Number              X              Y              Z
 -------------------------------------------------------------------
      1        8          -0.091692611   -0.063273911   -0.000000000
      2        7           0.008056871    0.018989792   -0.000000000
      3        6           0.060232568    0.032698039    0.000000000
      4        6           0.004496424   -0.018492823    0.000000000
      5        6          -0.012183645   -0.015542477    0.000000000
      6        6           0.006417654    0.007621042   -0.000000000
      7        6          -0.008457322    0.003750442   -0.000000000
      8        1           0.035057967    0.033606376    0.000000000
      9        1          -0.001192547    0.000334564   -0.000000000
     10        1           0.000661981    0.000126113    0.000000000
     11        1          -0.000006304   -0.000621620    0.000000000
     12        1          -0.001391036    0.000804463   -0.000000000
 -------------------------------------------------------------------
 Cartesian Forces:  Max     0.091692611 RMS     0.024056790
 Force constants in Cartesian coordinates: 
                1             2             3             4             5 
      1  0.687623D-01
      2  0.437888D-02  0.419204D+00
      3  0.000000D+00  0.000000D+00  0.825985D-01
      4 -0.152738D-01 -0.286345D-01  0.000000D+00  0.528893D+00
      5 -0.109464D+00 -0.450956D-01  0.000000D+00  0.129997D+00  0.643991D+00
      6  0.000000D+00  0.000000D+00  0.174068D-01  0.000000D+00  0.000000D+00
      7 -0.929201D-01  0.101681D-01  0.000000D+00 -0.342917D+00 -0.620746D-01
      8 -0.209480D-01 -0.284737D+00  0.000000D+00 -0.109709D+00 -0.215127D+00
      9  0.000000D+00  0.000000D+00 -0.764897D-01  0.000000D+00  0.000000D+00
     10 -0.402184D-02  0.212733D-01  0.000000D+00 -0.602107D-01 -0.352429D-01
     11  0.580401D-01 -0.528536D-01  0.000000D+00  0.162789D-01  0.772121D-01
     12  0.000000D+00  0.000000D+00  0.155101D-01  0.000000D+00  0.000000D+00
     13  0.525035D-02  0.642234D-03  0.000000D+00 -0.126854D+00 -0.923934D-02
     14  0.229970D-01 -0.312875D-02  0.000000D+00  0.137008D-01 -0.349056D+00
     15  0.000000D+00  0.000000D+00  0.735839D-02  0.000000D+00  0.000000D+00
     16 -0.159466D-01  0.822163D-02  0.000000D+00 -0.207792D-01 -0.500424D-01
     17 -0.120435D-01  0.137587D-01  0.000000D+00 -0.305980D-01 -0.646664D-01
     18  0.000000D+00  0.000000D+00  0.546304D-02  0.000000D+00  0.000000D+00
     19  0.155318D-01 -0.105185D-01  0.000000D+00  0.429516D-01  0.949285D-01
     20 -0.638614D-02 -0.719733D-02  0.000000D+00  0.223731D-01 -0.557466D-01
     21  0.000000D+00  0.000000D+00 -0.205845D-02  0.000000D+00  0.000000D+00
     22  0.346831D-01 -0.517537D-02  0.000000D+00 -0.300058D-02  0.368734D-01
     23  0.639142D-01 -0.390125D-01  0.000000D+00  0.129989D-01  0.325187D-01
     24  0.000000D+00  0.000000D+00 -0.462150D-01  0.000000D+00  0.000000D+00
     25  0.275525D-02 -0.160663D-03  0.000000D+00 -0.448947D-02  0.382777D-02
     26 -0.868491D-03  0.641919D-03  0.000000D+00  0.539518D-02 -0.828873D-03
     27  0.000000D+00  0.000000D+00 -0.230300D-02  0.000000D+00  0.000000D+00
     28 -0.609911D-03 -0.520714D-04  0.000000D+00  0.510043D-02 -0.416492D-02
     29 -0.673568D-03 -0.122970D-02  0.000000D+00 -0.342314D-01 -0.219609D-01
     30  0.000000D+00  0.000000D+00  0.687869D-03  0.000000D+00  0.000000D+00
     31  0.175795D-05  0.174350D-03  0.000000D+00  0.607566D-03 -0.691392D-03
     32  0.165398D-02 -0.691433D-03  0.000000D+00 -0.489501D-03 -0.611861D-03
     33  0.000000D+00  0.000000D+00 -0.113520D-02  0.000000D+00  0.000000D+00
     34  0.178788D-02 -0.317460D-03  0.000000D+00 -0.402790D-02  0.529326D-02
     35 -0.600642D-03  0.340515D-03  0.000000D+00  0.291860D-02 -0.629440D-03
     36  0.000000D+00  0.000000D+00 -0.823390D-03  0.000000D+00  0.000000D+00
                6             7             8             9            10 
      6  0.951538D-01
      7  0.000000D+00  0.779828D+00
      8  0.000000D+00 -0.356339D-01  0.665769D+00
      9 -0.771722D-01  0.000000D+00  0.000000D+00  0.193011D+00
     10  0.000000D+00 -0.281563D+00  0.920909D-01  0.000000D+00  0.741180D+00
     11  0.000000D+00  0.374589D-01 -0.143137D+00  0.000000D+00  0.515616D-01
     12  0.152974D-01  0.000000D+00  0.000000D+00 -0.817177D-01  0.000000D+00
     13  0.000000D+00  0.287720D-01 -0.402761D-01  0.000000D+00 -0.183020D-01
     14  0.000000D+00 -0.118562D+00 -0.328472D-01  0.000000D+00  0.399799D-01
     15 -0.572162D-01  0.000000D+00  0.000000D+00  0.269955D-02  0.000000D+00
     16  0.000000D+00  0.565690D-01  0.272722D-01  0.000000D+00 -0.145410D+00
     17  0.000000D+00  0.839765D-01 -0.423999D-01  0.000000D+00 -0.380801D-01
     18 -0.646805D-02  0.000000D+00  0.000000D+00  0.279591D-02  0.000000D+00
     19  0.000000D+00 -0.873122D-01  0.959366D-02  0.000000D+00  0.387210D-01
     20  0.000000D+00  0.163199D-01  0.275056D-02  0.000000D+00 -0.358897D-01
     21  0.194267D-01  0.000000D+00  0.000000D+00 -0.952237D-02  0.000000D+00
     22  0.000000D+00 -0.462942D-01  0.946611D-01  0.000000D+00  0.374673D-02
     23  0.000000D+00  0.549938D-01  0.469990D-01  0.000000D+00  0.683176D-02
     24 -0.162936D-01  0.000000D+00  0.000000D+00  0.234961D-01  0.000000D+00
     25  0.000000D+00 -0.167266D-01 -0.178567D-01  0.000000D+00 -0.275022D+00
     26  0.000000D+00  0.137214D-01  0.116976D-01  0.000000D+00 -0.129011D+00
     27  0.509905D-02  0.000000D+00  0.000000D+00  0.237213D-02  0.000000D+00
     28  0.000000D+00  0.318946D-02  0.118426D-02  0.000000D+00  0.254900D-03
     29  0.000000D+00  0.971776D-03 -0.383757D-02  0.000000D+00  0.524665D-04
     30 -0.999137D-03  0.000000D+00  0.000000D+00  0.947353D-02  0.000000D+00
     31  0.000000D+00  0.165535D-02 -0.129017D-02  0.000000D+00  0.523342D-02
     32  0.000000D+00 -0.127267D-02 -0.534390D-02  0.000000D+00  0.288895D-01
     33 -0.221126D-02  0.000000D+00  0.000000D+00  0.111907D-01  0.000000D+00
     34  0.000000D+00 -0.228106D-02  0.911583D-03  0.000000D+00 -0.460674D-02
     35  0.000000D+00 -0.672449D-04  0.213386D-03  0.000000D+00 -0.245577D-02
     36  0.797662D-02  0.000000D+00  0.000000D+00 -0.136598D-03  0.000000D+00
               11            12            13            14            15 
     11  0.743510D+00
     12  0.000000D+00  0.126102D+00
     13  0.261944D-01  0.000000D+00  0.770794D+00
     14 -0.606138D-01  0.000000D+00  0.361551D-01  0.699721D+00
     15  0.000000D+00 -0.299445D-02  0.000000D+00  0.000000D+00  0.155532D+00
     16  0.275046D-01  0.000000D+00 -0.646983D-01  0.383529D-01  0.000000D+00
     17 -0.376051D+00  0.000000D+00 -0.200887D-01  0.779495D-01  0.000000D+00
     18  0.000000D+00 -0.629214D-01  0.000000D+00  0.000000D+00  0.802319D-02
     19 -0.797599D-01  0.000000D+00 -0.292204D+00  0.537771D-01  0.000000D+00
     20 -0.231604D-01  0.000000D+00  0.128848D+00 -0.194271D+00  0.000000D+00
     21  0.000000D+00  0.889742D-02  0.000000D+00  0.000000D+00 -0.713691D-01
     22 -0.746354D-02  0.000000D+00 -0.112993D-01 -0.915354D-02  0.000000D+00
     23 -0.193466D-01  0.000000D+00 -0.151914D-01 -0.202315D-01  0.000000D+00
     24  0.000000D+00  0.537652D-02  0.000000D+00  0.000000D+00 -0.395241D-02
     25 -0.126951D+00  0.000000D+00  0.202609D-03  0.207548D-02  0.000000D+00
     26 -0.135297D+00  0.000000D+00  0.329878D-03 -0.136120D-02  0.000000D+00
     27  0.000000D+00 -0.349074D-01  0.000000D+00  0.000000D+00 -0.235127D-03
     28  0.992801D-03  0.000000D+00 -0.294210D+00 -0.102825D+00  0.000000D+00
     29 -0.527818D-03  0.000000D+00 -0.992908D-01 -0.103725D+00  0.000000D+00
     30  0.000000D+00 -0.773430D-03  0.000000D+00  0.000000D+00 -0.442951D-01
     31 -0.173793D-02  0.000000D+00 -0.414082D-02 -0.363544D-02  0.000000D+00
     32 -0.104800D-01  0.000000D+00 -0.363457D-02 -0.644231D-03  0.000000D+00
     33  0.000000D+00  0.656868D-02  0.000000D+00  0.000000D+00  0.680874D-02
     34 -0.211929D-02  0.000000D+00  0.669020D-02  0.271370D-01  0.000000D+00
     35  0.745815D-03  0.000000D+00 -0.444893D-02 -0.117911D-01  0.000000D+00
     36  0.000000D+00  0.556241D-02  0.000000D+00  0.000000D+00 -0.359510D-03
               16            17            18            19            20 
     16  0.738449D+00
     17 -0.423458D-01  0.718100D+00
     18  0.000000D+00  0.000000D+00  0.151758D+00
     19 -0.290085D+00 -0.472463D-01  0.000000D+00  0.669445D+00
     20 -0.118364D+00 -0.178787D+00  0.000000D+00  0.394843D-02  0.779298D+00
     21  0.000000D+00  0.000000D+00 -0.650115D-01  0.000000D+00  0.000000D+00
     22  0.296098D-02  0.572872D-02  0.000000D+00 -0.482888D-02  0.156083D-02
     23  0.834059D-02  0.108380D-01  0.000000D+00 -0.122095D-01  0.542989D-02
     24  0.000000D+00  0.000000D+00 -0.425844D-03  0.000000D+00  0.000000D+00
     25  0.581953D-02  0.207679D-02  0.000000D+00  0.201050D-02  0.816666D-03
     26 -0.281404D-01 -0.101300D-01  0.000000D+00  0.143694D-02 -0.518119D-02
     27  0.000000D+00  0.000000D+00  0.255095D-02  0.000000D+00  0.000000D+00
     28 -0.335471D-02  0.369215D-02  0.000000D+00 -0.165685D-01 -0.132954D-01
     29  0.332528D-02 -0.168586D-02  0.000000D+00  0.159181D-01  0.122551D-01
     30  0.000000D+00  0.000000D+00  0.811594D-02  0.000000D+00  0.000000D+00
     31 -0.267303D+00  0.124563D+00  0.000000D+00 -0.170507D-01  0.168898D-01
     32  0.124259D+00 -0.138078D+00  0.000000D+00 -0.136893D-01  0.127046D-01
     33  0.000000D+00  0.000000D+00 -0.452996D-01  0.000000D+00  0.000000D+00
     34  0.377831D-02 -0.296344D-01  0.000000D+00 -0.606104D-01 -0.168214D-01
     35  0.161714D-02 -0.884753D-02  0.000000D+00 -0.161793D-01 -0.348094D+00
     36  0.000000D+00  0.000000D+00  0.141908D-02  0.000000D+00  0.000000D+00
               21            22            23            24            25 
     21  0.126850D+00
     22  0.000000D+00  0.258600D-01
     23  0.000000D+00 -0.117143D+00 -0.183212D-01
     24  0.278306D-02  0.000000D+00  0.000000D+00  0.372945D-01
     25  0.000000D+00 -0.116351D-02 -0.159008D-02  0.000000D+00  0.285849D+00
     26  0.000000D+00 -0.710544D-04  0.849521D-03  0.000000D+00  0.138177D+00
     27  0.899393D-02  0.000000D+00  0.000000D+00 -0.334818D-03  0.000000D+00
     28  0.000000D+00  0.459079D-03  0.793530D-03  0.000000D+00 -0.305565D-04
     29  0.000000D+00 -0.326825D-03 -0.143727D-03  0.000000D+00 -0.134631D-03
     30  0.762459D-02  0.000000D+00  0.000000D+00 -0.149077D-02  0.000000D+00
     31  0.000000D+00 -0.185974D-04 -0.117199D-04  0.000000D+00  0.641656D-03
     32  0.000000D+00 -0.161602D-04 -0.502430D-03  0.000000D+00 -0.509909D-03
     33  0.548009D-02  0.000000D+00  0.000000D+00 -0.788319D-03  0.000000D+00
     34  0.000000D+00 -0.110474D-02 -0.172734D-02  0.000000D+00  0.153696D-03
     35  0.000000D+00  0.525074D-03  0.922909D-03  0.000000D+00  0.228736D-03
     36 -0.320939D-01  0.000000D+00  0.000000D+00  0.550513D-03  0.000000D+00
               26            27            28            29            30 
     26  0.138732D+00
     27  0.000000D+00  0.247038D-01
     28 -0.433548D-04  0.000000D+00  0.305918D+00
     29  0.989683D-04  0.000000D+00  0.114103D+00  0.119740D+00
     30  0.000000D+00 -0.146745D-02  0.000000D+00  0.000000D+00  0.279283D-01
     31  0.358113D-03  0.000000D+00 -0.895736D-03  0.852564D-03  0.000000D+00
     32  0.119961D-02  0.000000D+00 -0.719136D-03  0.458282D-03  0.000000D+00
     33  0.000000D+00 -0.489458D-02  0.000000D+00  0.000000D+00 -0.537625D-03
     34 -0.128441D-02  0.000000D+00  0.748090D-03 -0.565873D-03  0.000000D+00
     35 -0.421248D-03  0.000000D+00  0.333852D-03  0.558348D-03  0.000000D+00
     36  0.000000D+00  0.422477D-03  0.000000D+00  0.000000D+00 -0.426669D-02
               31            32            33            34            35 
     31  0.280207D+00
     32 -0.135229D+00  0.141326D+00
     33  0.000000D+00  0.000000D+00  0.281221D-01
     34  0.106187D-02  0.757718D-03  0.000000D+00  0.584108D-01
     35 -0.242235D-03  0.663618D-03  0.000000D+00  0.183707D-01  0.366339D+00
     36  0.000000D+00  0.000000D+00 -0.330367D-02  0.000000D+00  0.000000D+00
               36 
     36  0.250526D-01
 FormGI is forming the generalized inverse of G from B-inverse, IUseBI=4.
 Leave Link  716 at Sat Aug 28 00:51:29 2021, MaxMem= 17179869184 cpu:         8.6
 (Enter /public3/home/sc51754/softwares/g09e01/l103.exe)

 GradGradGradGradGradGradGradGradGradGradGradGradGradGradGradGradGradGrad
 Berny optimization.
 Red2BG is reusing G-inverse.
 Internal  Forces:  Max     0.054074323 RMS     0.012651141
 Search for a saddle point.
 Step number   1 out of a maximum of  100
 All quantities printed in internal units (Hartrees-Bohrs-Radians)
 Second derivative matrix not updated -- analytic derivatives used.
 ITU=  0
 LST/QST climbing along tangent vector
     Eigenvalues ---   -0.06592   0.00110   0.00526   0.01636   0.01794
     Eigenvalues ---    0.02143   0.02376   0.02820   0.03171   0.04515
     Eigenvalues ---    0.06954   0.10538   0.10957   0.12237   0.13176
     Eigenvalues ---    0.14934   0.20362   0.20467   0.24125   0.28886
     Eigenvalues ---    0.32855   0.35881   0.36359   0.36841   0.36995
     Eigenvalues ---    0.42800   0.44087   0.48571   0.51030   0.56295
     Eigenvalues --- 1000.000001000.000001000.000001000.000001000.00000
     Eigenvalues --- 1000.000001000.000001000.000001000.000001000.00000
     Eigenvalues --- 1000.000001000.000001000.000001000.000001000.00000
     Eigenvalues --- 1000.000001000.000001000.000001000.000001000.00000
     Eigenvalues --- 1000.000001000.000001000.000001000.000001000.00000
     Eigenvalues --- 1000.000001000.000001000.00000
 Eigenvectors required to have negative eigenvalues:
                          R2        R5        A4        A3        D22
   1                    0.64821  -0.53346  -0.21426   0.18084   0.17783
                          D8        D21       D10       A1        D9
   1                   -0.16339   0.16187  -0.14698  -0.14174   0.13497
 QST in optimization variable space.
                        Tangent   TS vect  // Eig F  Eigenval
   1         R1        -0.04503  -0.04503  -0.03256  -0.06592
   2         R2         0.64821   0.64821  -0.00077   0.00110
   3         R3         0.02099   0.02099   0.00662   0.00526
   4         R4         0.01065   0.01065  -0.00066   0.01636
   5         R5        -0.53346  -0.53346   0.00079   0.01794
   6         R6         0.02355   0.02355  -0.00006   0.02143
   7         R7        -0.01034  -0.01034   0.00057   0.02376
   8         R8        -0.00004  -0.00004   0.00026   0.02820
   9         R9        -0.01273  -0.01273   0.00046   0.03171
  10         R10       -0.00138  -0.00138   0.00047   0.04515
  11         R11        0.01457   0.01457  -0.01876   0.06954
  12         R12        0.00029   0.00029  -0.00380   0.10538
  13         R13       -0.00084  -0.00084   0.00654   0.10957
  14         A1        -0.14174  -0.14174  -0.00063   0.12237
  15         A2         0.03341   0.03341   0.00169   0.13176
  16         A3         0.18084   0.18084  -0.02514   0.14934
  17         A4        -0.21426  -0.21426   0.00474   0.20362
  18         A5         0.00674   0.00674   0.00731   0.20467
  19         A6         0.03627   0.03627  -0.01325   0.24125
  20         A7        -0.04301  -0.04301   0.02410   0.28886
  21         A8         0.01517   0.01517  -0.01080   0.32855
  22         A9        -0.01420  -0.01420  -0.00047   0.35881
  23         A10       -0.00097  -0.00097  -0.00030   0.36359
  24         A11       -0.01222  -0.01222  -0.00140   0.36841
  25         A12        0.00142   0.00142   0.00021   0.36995
  26         A13        0.01081   0.01081   0.00025   0.42800
  27         A14        0.00747   0.00747  -0.00170   0.44087
  28         A15       -0.00185  -0.00185  -0.00074   0.48571
  29         A16       -0.00562  -0.00562   0.00145   0.51030
  30         A17       -0.00082  -0.00082   0.00290   0.56295
  31         A18        0.00011   0.00011   0.000001000.00000
  32         A19        0.00071   0.00071  -0.000001000.00000
  33         D1         0.02091   0.02091   0.000001000.00000
  34         D2         0.03202   0.03202  -0.000001000.00000
  35         D3        -0.01776  -0.01776   0.000001000.00000
  36         D4        -0.02949  -0.02949   0.000001000.00000
  37         D5        -0.01959  -0.01959  -0.000001000.00000
  38         D6        -0.03133  -0.03133  -0.000001000.00000
  39         D7         0.11856   0.11856  -0.000001000.00000
  40         D8        -0.16339  -0.16339  -0.000001000.00000
  41         D9         0.13497   0.13497  -0.000001000.00000
  42         D10       -0.14698  -0.14698   0.000001000.00000
  43         D11       -0.05083  -0.05083   0.000001000.00000
  44         D12       -0.01198  -0.01198   0.000001000.00000
[...]
    A4        2.82179  -0.00003   0.00000  -0.00025  -0.00025   2.82154
    A5        1.84307  -0.00000   0.00000   0.00006   0.00006   1.84313
    A6        2.34201  -0.00001   0.00000  -0.00006  -0.00006   2.34195
    A7        2.09811   0.00002   0.00000   0.00001   0.00001   2.09811
    A8        2.03408   0.00000   0.00000   0.00002   0.00002   2.03410
    A9        2.10760  -0.00000   0.00000  -0.00003  -0.00003   2.10757
   A10        2.14150   0.00000   0.00000   0.00001   0.00001   2.14152
   A11        2.08280   0.00002   0.00000   0.00003   0.00003   2.08282
   A12        2.05253  -0.00001   0.00000  -0.00006  -0.00006   2.05247
   A13        2.14786  -0.00000   0.00000   0.00004   0.00004   2.14789
   A14        2.13081  -0.00002   0.00000  -0.00004  -0.00004   2.13077
   A15        2.07755   0.00001   0.00000   0.00003   0.00003   2.07757
   A16        2.07483   0.00001   0.00000   0.00001   0.00001   2.07484
   A17        2.06872  -0.00002   0.00000  -0.00004  -0.00004   2.06868
   A18        2.10113   0.00001   0.00000   0.00002   0.00002   2.10115
   A19        2.11333   0.00001   0.00000   0.00003   0.00003   2.11336
    D1       -0.00041   0.00002   0.00000   0.00041   0.00041   0.00000
    D2        3.14138   0.00000   0.00000   0.00022   0.00022  -3.14159
    D3       -3.14145  -0.00002   0.00000  -0.00015  -0.00015  -3.14159
    D4       -0.00002  -0.00000   0.00000   0.00002   0.00002   0.00000
    D5        0.00044  -0.00002   0.00000  -0.00044  -0.00044  -0.00000
    D6       -3.14132  -0.00001   0.00000  -0.00027  -0.00027   3.14159
    D7        0.00011   0.00000   0.00000  -0.00011  -0.00011  -0.00000
    D8       -3.14146  -0.00000   0.00000  -0.00013  -0.00013   3.14159
    D9        3.14081   0.00001   0.00000   0.00078   0.00078  -3.14159
   D10       -0.00076   0.00001   0.00000   0.00076   0.00076   0.00000
   D11        3.14134   0.00002   0.00000   0.00025   0.00025   3.14159
   D12       -0.00029   0.00002   0.00000   0.00029   0.00029  -0.00000
   D13       -0.00003   0.00000   0.00000   0.00003   0.00003  -0.00000
   D14        3.14152  -0.00000   0.00000   0.00007   0.00007   3.14159
   D15       -0.00001   0.00000   0.00000   0.00001   0.00001  -0.00000
   D16        3.14149   0.00000   0.00000   0.00010   0.00010  -3.14159
   D17       -3.14157   0.00001   0.00000  -0.00002  -0.00002   3.14159
   D18       -0.00006   0.00001   0.00000   0.00006   0.00006  -0.00000
   D19       -0.00015   0.00000   0.00000   0.00015   0.00015   0.00000
   D20        3.14147  -0.00000   0.00000   0.00012   0.00012  -3.14159
   D21        3.14142   0.00001   0.00000   0.00017   0.00017   3.14159
   D22       -0.00014   0.00000   0.00000   0.00014   0.00014   0.00000
   D23        0.00011  -0.00000   0.00000  -0.00010  -0.00010   0.00000
   D24       -3.14152  -0.00000   0.00000  -0.00008  -0.00008   3.14159
   D25       -3.14140  -0.00000   0.00000  -0.00019  -0.00019  -3.14159
   D26        0.00016  -0.00000   0.00000  -0.00016  -0.00016  -0.00000
         Item               Value     Threshold  Converged?
 Maximum Force            0.000078     0.000450     YES
 RMS     Force            0.000018     0.000300     YES
 Maximum Displacement     0.000515     0.001800     YES
 RMS     Displacement     0.000132     0.001200     YES
 Predicted change in Energy=-4.344143D-08
 Optimization completed.
    -- Stationary point found.
                           ----------------------------
                           !   Optimized Parameters   !
                           ! (Angstroms and Degrees)  !
 --------------------------                            --------------------------
 ! Name  Definition              Value          Derivative Info.                !
 --------------------------------------------------------------------------------
 ! R1    R(1,3)                  1.2811         -DE/DX =    0.0                 !
 ! R2    R(1,8)                  1.3623         -DE/DX =    0.0                 !
 ! R3    R(2,3)                  1.3504         -DE/DX =   -0.0001              !
 ! R4    R(2,5)                  1.3301         -DE/DX =    0.0                 !
 ! R5    R(2,8)                  1.2881         -DE/DX =    0.0001              !
 ! R6    R(3,4)                  1.4011         -DE/DX =    0.0                 !
 ! R7    R(4,6)                  1.3734         -DE/DX =    0.0                 !
 ! R8    R(4,9)                  1.078          -DE/DX =    0.0                 !
 ! R9    R(5,7)                  1.3731         -DE/DX =    0.0                 !
 ! R10   R(5,10)                 1.0803         -DE/DX =    0.0                 !
 ! R11   R(6,7)                  1.4016         -DE/DX =    0.0                 !
 ! R12   R(6,11)                 1.0817         -DE/DX =    0.0                 !
 ! R13   R(7,12)                 1.078          -DE/DX =    0.0                 !
 ! A1    A(3,1,8)               74.8391         -DE/DX =    0.0                 !
 ! A2    A(3,2,5)              123.2921         -DE/DX =    0.0                 !
 ! A3    A(3,2,8)               75.0312         -DE/DX =    0.0                 !
 ! A4    A(5,2,8)              161.6767         -DE/DX =    0.0                 !
 ! A5    A(1,3,2)              105.6            -DE/DX =    0.0                 !
 ! A6    A(1,3,4)              134.1873         -DE/DX =    0.0                 !
 ! A7    A(2,3,4)              120.2127         -DE/DX =    0.0                 !
 ! A8    A(3,4,6)              116.5442         -DE/DX =    0.0                 !
 ! A9    A(3,4,9)              120.7567         -DE/DX =    0.0                 !
 ! A10   A(6,4,9)              122.6992         -DE/DX =    0.0                 !
 ! A11   A(2,5,7)              119.3355         -DE/DX =    0.0                 !
 ! A12   A(2,5,10)             117.6013         -DE/DX =    0.0                 !
 ! A13   A(7,5,10)             123.0632         -DE/DX =    0.0                 !
 ! A14   A(4,6,7)              122.0866         -DE/DX =    0.0                 !
 ! A15   A(4,6,11)             119.0346         -DE/DX =    0.0                 !
 ! A16   A(7,6,11)             118.8788         -DE/DX =    0.0                 !
 ! A17   A(5,7,6)              118.529          -DE/DX =    0.0                 !
 ! A18   A(5,7,12)             120.3859         -DE/DX =    0.0                 !
 ! A19   A(6,7,12)             121.0851         -DE/DX =    0.0                 !
 ! D1    D(8,1,3,2)             -0.0237         -DE/DX =    0.0                 !
 ! D2    D(8,1,3,4)           -180.0124         -DE/DX =    0.0                 !
 ! D3    D(5,2,3,1)           -179.9916         -DE/DX =    0.0                 !
 ! D4    D(5,2,3,4)             -0.001          -DE/DX =    0.0                 !
 ! D5    D(8,2,3,1)              0.025          -DE/DX =    0.0                 !
 ! D6    D(8,2,3,4)            180.0157         -DE/DX =    0.0                 !
 ! D7    D(3,2,5,7)              0.0064         -DE/DX =    0.0                 !
 ! D8    D(3,2,5,10)           180.0075         -DE/DX =    0.0                 !
 ! D9    D(8,2,5,7)           -180.0446         -DE/DX =    0.0                 !
 ! D10   D(8,2,5,10)            -0.0435         -DE/DX =    0.0                 !
 ! D11   D(1,3,4,6)            179.9855         -DE/DX =    0.0                 !
 ! D12   D(1,3,4,9)             -0.0165         -DE/DX =    0.0                 !
 ! D13   D(2,3,4,6)             -0.0019         -DE/DX =    0.0                 !
 ! D14   D(2,3,4,9)            179.9961         -DE/DX =    0.0                 !
 ! D15   D(3,4,6,7)             -0.0007         -DE/DX =    0.0                 !
 ! D16   D(3,4,6,11)          -180.0058         -DE/DX =    0.0                 !
 ! D17   D(9,4,6,7)            180.0013         -DE/DX =    0.0                 !
 ! D18   D(9,4,6,11)            -0.0037         -DE/DX =    0.0                 !
 ! D19   D(2,5,7,6)             -0.0087         -DE/DX =    0.0                 !
 ! D20   D(2,5,7,12)          -180.0071         -DE/DX =    0.0                 !
 ! D21   D(10,5,7,6)           179.9901         -DE/DX =    0.0                 !
 ! D22   D(10,5,7,12)           -0.0083         -DE/DX =    0.0                 !
 ! D23   D(4,6,7,5)              0.006          -DE/DX =    0.0                 !
 ! D24   D(4,6,7,12)           180.0044         -DE/DX =    0.0                 !
 ! D25   D(11,6,7,5)          -179.989          -DE/DX =    0.0                 !
 ! D26   D(11,6,7,12)            0.0094         -DE/DX =    0.0                 !
 --------------------------------------------------------------------------------
 GradGradGradGradGradGradGradGradGradGradGradGradGradGradGradGradGradGrad

 Leave Link  103 at Sat Aug 28 00:59:03 2021, MaxMem= 17179869184 cpu:        27.4
 (Enter /public3/home/sc51754/softwares/g09e01/l9999.exe)
 1\1\GINC-Q2206\Freq\RCAM-B3LYP\Gen\C5H5N1O1\SC51754\28-Aug-2021\0\\#P 
 Geom=AllCheck Guess=TCheck SCRF=Check GenChk RCAM-B3LYP/ChkBas Freq\\H
 Y_CAM-B3LYP_PC2_OPT_FREQ\\0,1\O,0.0163065999,2.5807824229,0.0027318603
 \N,-0.8876676761,0.6891760521,0.0012278927\C,0.3001966046,1.3315290662
 ,0.0011979154\C,1.4962786014,0.6018840342,-0.0001327293\C,-1.001028238
 6,-0.6360480986,0.0000181323\C,1.3803924313,-0.7666267165,-0.001323013
 7\C,0.134277005,-1.4083168695,-0.0012064454\H,-1.1869190106,1.94199163
 21,0.0022320348\H,2.4493261236,1.1056218865,-0.0002308504\H,-1.9975491
 283,-1.0531489222,0.0000345385\H,2.2785189015,-1.3695707388,-0.0024677
 128\H,0.0621032864,-2.4839254485,-0.0020816225\\Version=EM64L-G09RevE.
 01\State=1-A\HF=-323.4400381\RMSD=2.979e-09\RMSF=3.055e-05\ZeroPoint=0
 .0896501\Thermal=0.0945765\Dipole=-0.0244374,-1.422176,-0.0016856\Dipo
 leDeriv=-0.5319742,0.0205464,0.0000516,0.1713439,-1.7413669,-0.0014004
 ,0.0002045,-0.0015973,-0.4045926,-0.328217,-0.4036694,-0.000365,0.2016
 435,-1.0617162,-0.0009821,0.0003829,-0.0005855,-0.2252602,0.1766235,-0
 .4436118,-0.0003699,-0.2466482,1.7990359,0.0016953,-0.0002636,0.001954
 6,0.2370212,-0.0218013,0.5240707,0.0003946,-0.1201168,-0.6744334,-0.00
 04133,-0.0002038,-0.0007502,-0.1875535,0.4960425,0.1302692,-0.0000935,
 -0.5412301,0.4443551,0.0006967,-0.0007367,0.0003598,0.0385971,0.414466
 5,0.1717077,-0.0001113,0.25963,0.5195892,0.0004021,-0.0000574,0.000507
 4,-0.0587934,-0.6856496,-0.1812665,0.0000897,0.0892529,-0.1789618,-0.0
 000458,0.0002971,0.0000632,-0.2130123,0.4190953,0.2076474,0.0001532,0.
 2042196,0.7810149,0.000459,0.0000867,0.0004657,0.2372629,0.0089839,-0.
 0322223,0.0000557,-0.0352843,0.0525878,-0.000074,0.0000639,-0.0000998,
 0.1601753,-0.0048289,-0.0545488,0.0000103,-0.0334321,0.0587931,-0.0000
 479,0.0000239,-0.0000262,0.1263522,-0.012596,0.0702631,0.0001412,0.070
 9612,0.0457533,-0.0001127,0.0001627,-0.0001241,0.1241848,0.0698553,-0.
 0091857,0.0000434,-0.0203397,-0.0446511,-0.0001768,0.0000397,-0.000167
 5,0.1656185\Polar=73.4219758,0.1460832,87.5430538,-0.0181416,0.0470289
 ,37.5313433\PG=C01 [X(C5H5N1O1)]\NImag=1\\0.08217278,-0.01434129,0.623
 31556,-0.00005349,0.00061372,0.05547533,-0.00875293,-0.05926419,-0.000
 03559,0.50058519,-0.16281296,-0.13260932,-0.00010398,0.12537316,0.7331
 5976,-0.00013093,-0.00015813,0.03732620,-0.00006062,0.00055379,0.09648
 009,-0.10592233,0.06006078,0.00007876,-0.26985376,-0.01557701,0.000084
 68,0.72702560,0.02765372,-0.42953483,-0.00041980,-0.07334136,-0.197810
 92,-0.00005983,-0.11659170,0.74757303,0.00004234,-0.00041317,-0.075508
 40,0.00003038,-0.00010994,-0.08273703,-0.00038118,0.00061623,0.1977731
 7,-0.00694074,0.02270339,0.00003353,-0.05030800,-0.02450031,0.00000708
 ,-0.26954466,0.07682627,0.00017732,0.73591282,0.06303775,-0.02896736,-
 0.00007295,0.01583072,0.07604060,0.00005034,0.03518705,-0.14725769,-0.
 00008304,0.06581880,0.71618969,0.00007466,-0.00005439,0.01348836,0.000
 04328,0.00007142,0.00861386,0.00014444,-0.00010753,-0.07677872,-0.0002
 9439,0.00051386,0.12216305,0.00860874,-0.00133998,0.00000406,-0.149314
 62,-0.02754319,0.00000926,0.03358577,-0.02886759,-0.00004786,-0.013234
 32,0.02420139,0.00002792,0.79762156,0.02613428,0.00124872,-0.00001926,
 -0.00820716,-0.35568076,-0.00027698,-0.10950314,-0.02118655,0.00003877
 ,0.03223417,-0.06046847,-0.00006906,0.03378487,0.69338726,0.00002770,-
 0.00000522,0.00704000,0.00003161,-0.00026074,-0.05471129,-0.00012188,-
 0.00000048,0.00027814,0.00003899,-0.00007022,-0.00106781,-0.00024316,0
 .00047844,0.15462177,-0.02178048,0.00283261,0.00001672,-0.02198727,-0.
 05065048,-0.00003802,0.05759053,0.02726887,-0.00000493,-0.14200561,0.0
 1127328,0.00005346,-0.06198402,0.04236045,0.00007784,0.70534456,-0.021
 02119,0.01042092,0.00001691,-0.02360000,-0.06152277,-0.00003997,0.0809
 3301,-0.04708679,-0.00009223,-0.05467842,-0.37804983,-0.00026365,-0.01
 490656,0.07425676,0.00007564,-0.04470042,0.72358617,-0.00000402,0.0000
 0284,0.00539550,-0.00001473,-0.00002328,-0.00632333,0.00004571,-0.0000
 6044,0.00123637,-0.00000395,-0.00029649,-0.05917957,0.00002107,0.00004
 099,0.00693555,-0.00037296,0.00055466,0.15367168,0.02404135,-0.0051978
 7,-0.00001983,0.04004804,0.09386143,0.00007938,-0.08624560,0.01179560,
 0.00005571,0.03248364,-0.08065893,-0.00008394,-0.30117784,0.06262988,0
 .00014973,-0.26817460,-0.03305461,0.00009037,0.65439842,-0.00652168,-0
 .00956521,-0.00000548,0.02707868,-0.06420627,-0.00008433,0.01332144,0.
 00366002,0.00000706,-0.03411909,-0.01900417,-0.00000663,0.13534174,-0.
 19704199,-0.00017818,-0.10521642,-0.17061995,-0.00003589,-0.01711478,0
 .77971184,-0.00001930,-0.00000259,-0.00236513,0.00001512,-0.00012527,0
 .01853887,0.00004820,0.00000421,-0.00889313,-0.00004125,0.00001464,0.0
 0879570,0.00022823,-0.00014165,-0.06911701,0.00002056,-0.00007126,-0.0
 6651451,-0.00028941,0.00057351,0.12320707,0.02453253,-0.00618881,-0.00
 002099,-0.03559468,0.05902096,0.00003800,-0.07218184,0.09114249,0.0001
 2204,0.00273893,-0.01244423,-0.00000943,-0.00787636,-0.00870722,-0.000
 00592,0.00431511,0.00674337,0.00000379,-0.00563274,0.00091738,0.000006
 31,0.09171503,0.08931608,-0.03274525,-0.00001208,0.02486139,0.02089086
 ,0.00002953,0.03562686,0.08642788,0.00006363,0.00998682,-0.02515896,-0
 .00003756,-0.01975336,-0.02128372,-0.00001141,0.01179646,0.01628786,0.
 00000839,-0.01791497,0.00651047,0.00001254,-0.13131203,-0.05182202,0.0
 0006849,0.00001616,-0.03693423,0.00000847,0.00003383,-0.03048967,0.000
 06734,0.00003035,0.02300217,0.00001116,-0.00002462,0.00628784,-0.00001
 459,-0.00001261,-0.00603095,0.00000844,0.00001216,-0.00059158,-0.00001
 232,-0.00000041,0.00467735,-0.00013403,-0.00005794,0.04280882,0.002351
 64,0.00075930,-0.00000148,-0.00354480,0.00333729,0.00000807,-0.0170865
 8,-0.01657707,-0.00000364,-0.29083159,-0.11861346,0.00004189,-0.000175
 60,0.00222818,0.00000195,0.00401457,0.00090157,-0.00000034,0.00250933,
 0.00051503,0.00000447,-0.00150481,-0.00127034,-0.00000107,0.30350774,-
 0.00214625,0.00024478,0.00000329,0.00487125,-0.00119878,-0.00000885,0.
 01530301,0.01327855,0.00000103,-0.11947014,-0.12113857,-0.00001039,0.0
 0046517,-0.00152454,-0.00000146,-0.02902183,-0.00891455,0.00000691,0.0
 0118007,-0.00478981,-0.00001313,0.00066135,0.00078574,0.00000108,0.129
 12840,0.12227471,-0.00000403,0.00000175,-0.00229896,0.00001006,-0.0000
 0879,0.00597711,0.00002177,0.00002196,0.00192986,0.00004422,-0.0000129
 4,-0.03333464,0.00000037,-0.00000324,-0.00031904,-0.00002703,-0.000008
 80,0.00183166,0.00000341,-0.00001304,0.00896779,0.00000156,0.00000144,
 -0.00033557,-0.00004521,0.00001433,0.02384340,-0.00072989,-0.00037775,
 -0.00000003,0.00304718,-0.00459585,-0.00000477,0.00313024,0.00122860,0
 .00000315,0.00016359,0.00077338,0.00000031,-0.30859977,-0.09748752,0.0
 0001815,-0.00284102,0.00350044,0.00000774,-0.01442979,-0.01230852,-0.0
 0000201,0.00043011,0.00081198,-0.00000051,-0.00004223,-0.00003690,-0.0
 0000063,0.31997567,0.00005076,-0.00185746,-0.00000192,-0.03691085,-0.0
 1581610,0.00000199,0.00256419,-0.00194042,-0.00001285,-0.00011672,-0.0
 0064337,0.00000005,-0.09333172,-0.09851055,-0.00001284,0.00336638,-0.0
 0191216,-0.00001095,0.01571326,0.01280765,-0.00000169,-0.00024141,-0.0
 0081896,0.00000161,-0.00016237,0.00015099,0.00000178,0.10885497,0.1075
 4359,0.00000065,-0.00000211,0.00033213,-0.00003608,-0.00001728,0.00036
 320,0.00000794,-0.00000981,0.00941271,-0.00000135,0.00000118,-0.000596
 52,0.00001854,-0.00000684,-0.04344360,0.00000736,-0.00001140,0.0081312
 5,0.00002775,0.00000916,0.00738419,-0.00000172,0.00000069,-0.00246466,
 -0.00000118,0.00000175,-0.00168990,-0.00001951,0.00002997,0.02730092,0
 .00009118,0.00024690,-0.00000057,0.00057719,-0.00120347,-0.00000209,0.
 00157413,-0.00181949,0.00000438,0.00613786,-0.00263115,-0.00000198,-0.
 00455788,-0.00300769,0.00000379,-0.25528345,0.12962072,0.00025482,-0.0
 1725074,0.01753452,0.00003013,0.00001870,0.00000064,-0.00000055,0.0007
 1880,0.00032729,-0.00000346,-0.00085072,0.00087262,0.00000059,0.267757
 34,0.00168108,-0.00013008,0.00000040,-0.00043115,-0.00043536,0.0000008
 1,-0.00112436,-0.00599772,-0.00001563,0.02741999,-0.01240978,-0.000033
 84,-0.00354843,-0.00052334,-0.00000461,0.12915914,-0.14821714,-0.00017
 813,-0.01294957,0.01223779,0.00001408,-0.00010951,-0.00049058,0.000000
 28,-0.00041401,0.00121953,0.00000642,-0.00066297,0.00047526,0.00000098
 ,-0.13967423,0.15361303,0.00000078,0.00000063,-0.00122503,-0.00000112,
 0.00000228,-0.00095605,0.00000294,-0.00001371,0.01073570,0.00002534,-0
 .00001673,0.00644018,0.00000306,-0.00000441,0.00624105,0.00025859,-0.0
 0017907,-0.04510965,-0.00000096,-0.00000443,0.00542872,-0.00000078,0.0
 0000051,-0.00090175,-0.00000378,0.00000553,-0.00509061,-0.00000020,0.0
 0000020,-0.00057345,-0.00028200,0.00020573,0.02832898,0.00232815,0.000
 10692,-0.00000110,-0.00490154,0.00529043,0.00000996,-0.00207149,0.0012
 8167,0.00000229,-0.00457191,-0.00177461,0.00000379,0.00710433,0.027540
 90,0.00002120,0.00279168,-0.02973792,-0.00002750,-0.06056948,-0.019428
 31,-0.00000103,-0.00095998,-0.00214953,-0.00000082,0.00008353,-0.00126
 142,-0.00000102,0.00074662,-0.00065912,-0.00000298,0.00106758,0.000654
 02,-0.00000185,0.05895252,-0.00103030,0.00017952,0.00000115,0.00373950
 ,-0.00081092,-0.00000838,-0.00020013,-0.00012456,0.00000014,-0.0021047
 8,0.00086790,-0.00000228,-0.00450233,-0.01267282,-0.00000893,0.0015319
 6,-0.00822852,-0.00000863,-0.01828950,-0.34970036,-0.00026339,0.000517
 67,0.00141668,0.00000010,0.00016748,-0.00038805,-0.00000086,0.00030014
 ,0.00052152,0.00000371,-0.00026665,0.00065839,0.00000347,0.02013697,0.
 36828124,-0.00000284,0.00000050,-0.00072575,0.00000922,-0.00001204,0.0
 0791805,0.00000128,-0.00000116,-0.00045084,0.00000329,-0.00000303,0.00
 516827,-0.00000688,-0.00002415,-0.00042681,-0.00000002,0.00000701,0.00
 051664,0.00000012,-0.00026135,-0.03010989,0.00000116,0.00000227,0.0009
 7224,0.00000033,-0.00000010,0.00051890,-0.00000168,0.00000466,-0.00415
 626,-0.00000306,0.00000350,-0.00331807,-0.00000092,0.00028389,0.024093
 53\\0.00001490,0.00003989,0.00004465,-0.00009383,-0.00003328,0.0000408
 3,0.00005969,0.00004345,-0.00004902,0.00000213,-0.00002860,0.00000357,
 -0.00002660,0.00001035,0.00000020,-0.00002600,0.00001323,0.00000433,0.
 00002929,0.00001956,0.00000074,0.00003376,-0.00006124,-0.00003947,0.00
 000040,-0.00000440,-0.00000058,0.00000826,0.00000063,-0.00000346,-0.00
 000137,-0.00000084,-0.00000590,-0.00000063,0.00000124,0.00000412\\\@


 PENOTUS DIED A HUNDRED YEARS OLD WANTING BUT TWO...
 AND HE USED TO SAY BEFORE HE DIED, HAVING SPENT HIS
 WHOLE LIFE IN VAINLY SEARCHING AFTER THE PHILOSOPHER'S
 STONE, THAT IF HE HAD A MORTAL ENEMY HE DID NOT DARE
 TO ENCOUNTER OPENLY, HE WOULD ADVISE HIM ABOVE ALL
 THINGS TO GIVE HIMSELF UP TO THE STUDY AND PRACTICE
 OF ALCHEMY.  --  NICOLAS LEMERY, M.D.
 "A COURSE OF CHYMISTRY", WALTER KETTILBY, LONDON, 1686
 Job cpu time:       0 days  0 hours 50 minutes 46.8 seconds.
 File lengths (MBytes):  RWF=     81 Int=      0 D2E=      0 Chk=      7 Scr=      1
 Normal termination of Gaussian 09 at Sat Aug 28 00:59:03 2021.
