 Entering Gaussian System, Link 0=g09
 AtFile(1): pc-2.gbs
            -H     0
            S    4   1.00
                  0.754230D+02           0.240650D-02
                  0.113500D+02           0.184870D-01
                  0.259930D+01           0.897420D-01
                  0.735130D+00           0.281110D+00
            S    1   1.00
                  0.231670D+00           0.100000D+01
            S    1   1.00
                  0.741470D-01           0.100000D+01
            P    1   1.00
                  0.160000D+01           0.100000D+01
            P    1   1.00
                  0.450000D+00           0.100000D+01
            D    1   1.00
                  0.125000D+01           0.100000D+01
            ****
            -C     0
            S    7   1.00
                  0.785710D+04           0.568250D-03
                  0.117870D+04           0.439150D-02
                  0.268320D+03           0.225040D-01
                  0.759480D+02           0.866530D-01
                  0.245590D+02           0.244050D+00
                  0.862120D+01           0.441480D+00
                  0.312780D+01           0.353320D+00
            S    7   1.00
                  0.117870D+04          -0.594920D-06
                  0.268320D+03          -0.627480D-04
                  0.759480D+02          -0.757730D-03
                  0.245590D+02          -0.733080D-02
                  0.862120D+01          -0.389320D-01
                  0.312780D+01          -0.889080D-01
                  0.822020D+00           0.216890D+00
            S    1   1.00
                  0.330170D+00           0.100000D+01
            S    1   1.00
                  0.114630D+00           0.100000D+01
            P    4   1.00
                  0.337750D+02           0.602940D-02
                  0.767660D+01           0.432280D-01
                  0.223570D+01           0.163010D+00
                  0.764470D+00           0.365040D+00
            P    1   1.00
                  0.262320D+00           0.100000D+01
            P    1   1.00
                  0.846380D-01           0.100000D+01
            D    1   1.00
                  0.140000D+01           0.100000D+01
            D    1   1.00
                  0.450000D+00           0.100000D+01
            F    1   1.00
                  0.950000D+00           0.100000D+01
            ****
            -N     0
            S    7   1.00
                  0.111010D+05           0.545700D-03
                  0.166530D+04           0.421810D-02
                  0.379080D+03           0.216450D-01
                  0.107300D+03           0.837760D-01
                  0.347470D+02           0.238810D+00
                  0.122490D+02           0.439940D+00
                  0.447430D+01           0.363640D+00
            S    7   1.00
                  0.166530D+04          -0.150060D-05
                  0.379080D+03          -0.587530D-04
                  0.107300D+03          -0.774530D-03
                  0.347470D+02          -0.721610D-02
                  0.122490D+02          -0.393380D-01
                  0.447430D+01          -0.906110D-01
                  0.124040D+01           0.198820D+00
            S    1   1.00
                  0.487430D+00           0.100000D+01
            S    1   1.00
                  0.164840D+00           0.100000D+01
            P    4   1.00
                  0.479340D+02           0.617060D-02
                  0.109990D+02           0.442600D-01
                  0.324720D+01           0.168250D+00
                  0.111140D+01           0.368480D+00
            P    1   1.00
                  0.379880D+00           0.100000D+01
            P    1   1.00
                  0.120680D+00           0.100000D+01
            D    1   1.00
                  0.180000D+01           0.100000D+01
            D    1   1.00
                  0.550000D+00           0.100000D+01
            F    1   1.00
                  0.102000D+01           0.100000D+01
            ****
            -O     0
            S    7   1.00
                  0.147820D+05           0.535190D-03
                  0.221730D+04           0.413750D-02
                  0.504740D+03           0.212450D-01
                  0.142870D+03           0.824530D-01
                  0.463000D+02           0.236710D+00
                  0.163370D+02           0.440390D+00
                  0.598280D+01           0.364650D+00
            S    7   1.00
                  0.221730D+04          -0.192750D-05
                  0.504740D+03          -0.579640D-04
                  0.142870D+03          -0.794940D-03
                  0.463000D+02          -0.731250D-02
                  0.163370D+02          -0.405740D-01
                  0.598280D+01          -0.915940D-01
                  0.167180D+01           0.209400D+00
            S    1   1.00
                  0.646620D+00           0.100000D+01
            S    1   1.00
                  0.216690D+00           0.100000D+01
            P    4   1.00
                  0.604240D+02           0.689490D-02
                  0.139350D+02           0.490050D-01
                  0.415310D+01           0.182550D+00
                  0.141580D+01           0.376330D+00
            P    1   1.00
                  0.475490D+00           0.100000D+01
            P    1   1.00
                  0.145290D+00           0.100000D+01
            D    1   1.00
                  0.220000D+01           0.100000D+01
            D    1   1.00
                  0.650000D+00           0.100000D+01
            F    1   1.00
                  0.110000D+01           0.100000D+01
            ****
 Initial command:
 /public3/home/sc51754/softwares/g09e01/l1.exe "./Gau-1325.inp" -scrdir="./"
 Entering Link 1 = /public3/home/sc51754/softwares/g09e01/l1.exe PID=      1326.
  
 Copyright (c) 1988,1990,1992,1993,1995,1998,2003,2009,2015,
            Gaussian, Inc.  All Rights Reserved.
  
 This is part of the Gaussian(R) 09 program.  It is based on
 the Gaussian(R) 03 system (copyright 2003, Gaussian, Inc.),
 the Gaussian(R) 98 system (copyright 1998, Gaussian, Inc.),
 the Gaussian(R) 94 system (copyright 1995, Gaussian, Inc.),
 the Gaussian 92(TM) system (copyright 1992, Gaussian, Inc.),
 the Gaussian 90(TM) system (copyright 1990, Gaussian, Inc.),
 the Gaussian 88(TM) system (copyright 1988, Gaussian, Inc.),
 the Gaussian 86(TM) system (copyright 1986, Carnegie Mellon
 University), and the Gaussian 82(TM) system (copyright 1983,
 Carnegie Mellon University). Gaussian is a federally registered
 trademark of Gaussian, Inc.
  
 This software contains proprietary and confidential information,
 including trade secrets, belonging to Gaussian, Inc.
  
 This software is provided under written license and may be
 used, copied, transmitted, or stored only in accord with that
 written license.
  
 The following legend is applicable only to US Government
 contracts under FAR:
  
                    RESTRICTED RIGHTS LEGEND
  
 Use, reproduction and disclosure by the US Government is
 subject to restrictions as set forth in subparagraphs (a)
 and (c) of the Commercial Computer Software - Restricted
 Rights clause in FAR 52.227-19.
  
 Gaussian, Inc.
 340 Quinnipiac St., Bldg. 40, Wallingford CT 06492
  
  
 ---------------------------------------------------------------
 Warning -- This program may not be used in any manner that
 competes with the business of Gaussian, Inc. or will provide
 assistance to any competitor of Gaussian, Inc.  The licensee
 of this program is prohibited from giving any competitor of
 Gaussian, Inc. access to this program.  By using this program,
 the user acknowledges that Gaussian, Inc. is engaged in the
 business of creating and licensing software in the field of
 computational chemistry and represents and warrants to the
 licensee that it is not a competitor of Gaussian, Inc. and that
 it will not use this program in any manner prohibited above.
 ---------------------------------------------------------------
  

 Cite this work as:
 Gaussian 09, Revision E.01,
 M. J. Frisch, G. W. Trucks, H. B. Schlegel, G. E. Scuseria, 
 M. A. Robb, J. R. Cheeseman, G. Scalmani, V. Barone, B. Mennucci, 
 G. A. Petersson, H. Nakatsuji, M. Caricato, X. Li, H. P. Hratchian, 
 A. F. Izmaylov, J. Bloino, G. Zheng, J. L. Sonnenberg, M. Hada, 
 M. Ehara, K. Toyota, R. Fukuda, J. Hasegawa, M. Ishida, T. Nakajima, 
 Y. Honda, O. Kitao, H. Nakai, T. Vreven, J. A. Montgomery, Jr., 
 J. E. Peralta, F. Ogliaro, M. Bearpark, J. J. Heyd, E. Brothers, 
 K. N. Kudin, V. N. Staroverov, T. Keith, R. Kobayashi, J. Normand, 
 K. Raghavachari, A. Rendell, J. C. Burant, S. S. Iyengar, J. Tomasi, 
 M. Cossi, N. Rega, J. M. Millam, M. Klene, J. E. Knox, J. B. Cross, 
 V. Bakken, C. Adamo, J. Jaramillo, R. Gomperts, R. E. Stratmann, 
 O. Yazyev, A. J. Austin, R. Cammi, C. Pomelli, J. W. Ochterski, 
 R. L. Martin, K. Morokuma, V. G. Zakrzewski, G. A. Voth, 
 P. Salvador, J. J. Dannenberg, S. Dapprich, A. D. Daniels, 
 O. Farkas, J. B. Foresman, J. V. Ortiz, J. Cioslowski, 
 and D. J. Fox, Gaussian, Inc., Wallingford CT, 2013.
 
 ******************************************
 Gaussian 09:  EM64L-G09RevE.01 30-Nov-2015
                27-Aug-2021 
 ******************************************
 %nprocshared=64
 Will use up to   64 processors via shared memory.
 %mem=128GB
 %chk=HY_H2O_BP86_PC2_OPT_FREQ.chk
 --------------------
 #p opt freq BP86/gen
 --------------------
 1/14=-1,18=20,19=15,26=3,38=1/1,3;
 2/9=110,12=2,17=6,18=5,40=1/2;
 3/5=7,11=2,16=1,25=1,30=1,71=1,74=404/1,2,3;
 4//1;
 5/5=2,38=5/2;
 6/7=2,8=2,9=2,10=2,28=1/1;
 7//1,2,3,16;
 1/14=-1,18=20,19=15,26=3/3(2);
 2/9=110/2;
 99//99;
 2/9=110/2;
 3/5=7,6=1,11=2,16=1,25=1,30=1,71=1,74=404,82=7/1,2,3;
 4/5=5,16=3,69=1/1;
 5/5=2,38=5/2;
 7//1,2,3,16;
 1/14=-1,18=20,19=15,26=3/3(-5);
 2/9=110/2;
 6/7=2,8=2,9=2,10=2,19=2,28=1/1;
 99/9=1/99;
 Leave Link    1 at Fri Aug 27 00:08:29 2021, MaxMem= 17179869184 cpu:         3.6
 (Enter /public3/home/sc51754/softwares/g09e01/l101.exe)
 ------------------------
 HY_H2O_BP86_PC2_OPT_FREQ
 ------------------------
 Symbolic Z-matrix:
 Charge =  0 Multiplicity = 1
 O                     1.216     1.44855  -0.00262 
 N                     0.30594  -0.66619  -0.00547 
 C                     0.13701   0.65516  -0.00009 
 C                    -1.12976   1.25518   0.00826 
 C                    -0.78318  -1.4465   -0.00563 
 C                    -2.23812   0.43549   0.00911 
 C                    -2.07199  -0.951     0.00173 
 H                     2.03022   0.90023  -0.0153 
 H                    -1.20631   2.3321    0.01208 
 H                    -0.59906  -2.51382  -0.01294 
 H                    -3.22982   0.86768   0.01456 
 H                    -2.91795  -1.62195   0.00074 
 O                     3.09571  -0.58722  -0.08503 
 H                     3.59397  -0.87925   0.68253 
 H                     2.20982  -1.00228  -0.02248 
 
 Add virtual bond connecting atoms O13        and H8         Dist= 3.46D+00.
 Add virtual bond connecting atoms H15        and N2         Dist= 3.65D+00.
 Add virtual bond connecting atoms H15        and H8         Dist= 3.61D+00.
 Add atom     13 valence  3 ND=      2 dihedral       8     13     14     15
 NAtoms=     15 NQM=       15 NQMF=       0 NMMI=      0 NMMIF=      0
                NMic=       0 NMicF=      0.
                    Isotopes and Nuclear Properties:
 (Nuclear quadrupole moments (NQMom) in fm**2, nuclear magnetic moments (NMagM)
  in nuclear magnetons)

  Atom         1           2           3           4           5           6           7           8           9          10
 IAtWgt=          16          14          12          12          12          12          12           1           1           1
 AtmWgt=  15.9949146  14.0030740  12.0000000  12.0000000  12.0000000  12.0000000  12.0000000   1.0078250   1.0078250   1.0078250
 NucSpn=           0           2           0           0           0           0           0           1           1           1
 AtZEff=   0.0000000   0.0000000   0.0000000   0.0000000   0.0000000   0.0000000   0.0000000   0.0000000   0.0000000   0.0000000
 NQMom=    0.0000000   2.0440000   0.0000000   0.0000000   0.0000000   0.0000000   0.0000000   0.0000000   0.0000000   0.0000000
 NMagM=    0.0000000   0.4037610   0.0000000   0.0000000   0.0000000   0.0000000   0.0000000   2.7928460   2.7928460   2.7928460
 AtZNuc=   8.0000000   7.0000000   6.0000000   6.0000000   6.0000000   6.0000000   6.0000000   1.0000000   1.0000000   1.0000000

  Atom        11          12          13          14          15
 IAtWgt=           1           1          16           1           1
 AtmWgt=   1.0078250   1.0078250  15.9949146   1.0078250   1.0078250
 NucSpn=           1           1           0           1           1
 AtZEff=   0.0000000   0.0000000   0.0000000   0.0000000   0.0000000
 NQMom=    0.0000000   0.0000000   0.0000000   0.0000000   0.0000000
 NMagM=    2.7928460   2.7928460   0.0000000   2.7928460   2.7928460
 AtZNuc=   1.0000000   1.0000000   8.0000000   1.0000000   1.0000000
 Leave Link  101 at Fri Aug 27 00:08:29 2021, MaxMem= 17179869184 cpu:         7.5
 (Enter /public3/home/sc51754/softwares/g09e01/l103.exe)

 GradGradGradGradGradGradGradGradGradGradGradGradGradGradGradGradGradGrad
 Berny optimization.
 Initialization pass.
                           ----------------------------
                           !    Initial Parameters    !
                           ! (Angstroms and Degrees)  !
 --------------------------                            --------------------------
 ! Name  Definition              Value          Derivative Info.                !
 --------------------------------------------------------------------------------
 ! R1    R(1,3)                  1.3393         estimate D2E/DX2                !
 ! R2    R(1,8)                  0.9817         estimate D2E/DX2                !
 ! R3    R(2,3)                  1.3321         estimate D2E/DX2                !
 ! R4    R(2,5)                  1.3398         estimate D2E/DX2                !
 ! R5    R(2,15)                 1.9334         estimate D2E/DX2                !
 ! R6    R(3,4)                  1.4017         estimate D2E/DX2                !
 ! R7    R(4,6)                  1.3785         estimate D2E/DX2                !
 ! R8    R(4,9)                  1.0796         estimate D2E/DX2                !
 ! R9    R(5,7)                  1.3808         estimate D2E/DX2                !
 ! R10   R(5,10)                 1.0831         estimate D2E/DX2                !
 ! R11   R(6,7)                  1.3964         estimate D2E/DX2                !
 ! R12   R(6,11)                 1.0818         estimate D2E/DX2                !
 ! R13   R(7,12)                 1.0797         estimate D2E/DX2                !
 ! R14   R(8,13)                 1.831          estimate D2E/DX2                !
 ! R15   R(8,15)                 1.911          estimate D2E/DX2                !
 ! R16   R(13,14)                0.9606         estimate D2E/DX2                !
 ! R17   R(13,15)                0.9803         estimate D2E/DX2                !
 ! A1    A(3,1,8)              109.7141         estimate D2E/DX2                !
 ! A2    A(3,2,5)              118.3342         estimate D2E/DX2                !
 ! A3    A(3,2,15)             107.2978         estimate D2E/DX2                !
 ! A4    A(5,2,15)             134.3668         estimate D2E/DX2                !
 ! A5    A(1,3,2)              119.0414         estimate D2E/DX2                !
 ! A6    A(1,3,4)              118.3271         estimate D2E/DX2                !
 ! A7    A(2,3,4)              122.6315         estimate D2E/DX2                !
 ! A8    A(3,4,6)              118.1694         estimate D2E/DX2                !
 ! A9    A(3,4,9)              119.4119         estimate D2E/DX2                !
 ! A10   A(6,4,9)              122.4186         estimate D2E/DX2                !
 ! A11   A(2,5,7)              123.3496         estimate D2E/DX2                !
 ! A12   A(2,5,10)             115.832          estimate D2E/DX2                !
 ! A13   A(7,5,10)             120.8184         estimate D2E/DX2                !
 ! A14   A(4,6,7)              119.6513         estimate D2E/DX2                !
 ! A15   A(4,6,11)             119.9667         estimate D2E/DX2                !
 ! A16   A(7,6,11)             120.382          estimate D2E/DX2                !
 ! A17   A(5,7,6)              117.8639         estimate D2E/DX2                !
 ! A18   A(5,7,12)             120.5506         estimate D2E/DX2                !
 ! A19   A(6,7,12)             121.5855         estimate D2E/DX2                !
 ! A20   A(1,8,13)             159.5294         estimate D2E/DX2                !
 ! A21   A(1,8,15)             129.3503         estimate D2E/DX2                !
 ! A22   A(8,13,14)            121.2243         estimate D2E/DX2                !
 ! A23   A(14,13,15)           106.8012         estimate D2E/DX2                !
 ! A24   A(2,15,8)              74.5948         estimate D2E/DX2                !
 ! A25   A(2,15,13)            144.7717         estimate D2E/DX2                !
 ! D1    D(8,1,3,2)              0.4232         estimate D2E/DX2                !
 ! D2    D(8,1,3,4)           -179.5823         estimate D2E/DX2                !
 ! D3    D(3,1,8,13)             4.1107         estimate D2E/DX2                !
 ! D4    D(3,1,8,15)            -0.4785         estimate D2E/DX2                !
 ! D5    D(5,2,3,1)           -179.8646         estimate D2E/DX2                !
 ! D6    D(5,2,3,4)              0.1411         estimate D2E/DX2                !
 ! D7    D(15,2,3,1)            -0.2046         estimate D2E/DX2                !
 ! D8    D(15,2,3,4)           179.8011         estimate D2E/DX2                !
 ! D9    D(3,2,5,7)             -0.1121         estimate D2E/DX2                !
 ! D10   D(3,2,5,10)           179.8324         estimate D2E/DX2                !
 ! D11   D(15,2,5,7)          -179.6581         estimate D2E/DX2                !
 ! D12   D(15,2,5,10)            0.2865         estimate D2E/DX2                !
 ! D13   D(3,2,15,8)            -0.0003         estimate D2E/DX2                !
 ! D14   D(3,2,15,13)           -5.7168         estimate D2E/DX2                !
 ! D15   D(5,2,15,8)           179.5811         estimate D2E/DX2                !
 ! D16   D(5,2,15,13)          173.8646         estimate D2E/DX2                !
 ! D17   D(1,3,4,6)            179.9187         estimate D2E/DX2                !
 ! D18   D(1,3,4,9)              0.0211         estimate D2E/DX2                !
 ! D19   D(2,3,4,6)             -0.0869         estimate D2E/DX2                !
 ! D20   D(2,3,4,9)           -179.9845         estimate D2E/DX2                !
 ! D21   D(3,4,6,7)             -0.0001         estimate D2E/DX2                !
 ! D22   D(3,4,6,11)          -179.9445         estimate D2E/DX2                !
 ! D23   D(9,4,6,7)            179.8942         estimate D2E/DX2                !
 ! D24   D(9,4,6,11)            -0.0502         estimate D2E/DX2                !
 ! D25   D(2,5,7,6)              0.0291         estimate D2E/DX2                !
 ! D26   D(2,5,7,12)           179.968          estimate D2E/DX2                !
 ! D27   D(10,5,7,6)          -179.9128         estimate D2E/DX2                !
 ! D28   D(10,5,7,12)            0.0261         estimate D2E/DX2                !
 ! D29   D(4,6,7,5)              0.0272         estimate D2E/DX2                !
 ! D30   D(4,6,7,12)          -179.911          estimate D2E/DX2                !
 ! D31   D(11,6,7,5)           179.9714         estimate D2E/DX2                !
 ! D32   D(11,6,7,12)            0.0332         estimate D2E/DX2                !
 ! D33   D(1,8,13,14)         -110.3582         estimate D2E/DX2                !
 ! D34   D(1,8,15,2)             0.3164         estimate D2E/DX2                !
 ! D35   D(8,13,14,15)          87.5843         estimate D2E/DX2                !
 ! D36   D(14,13,15,2)         125.4771         estimate D2E/DX2                !
 --------------------------------------------------------------------------------
 Trust Radius=3.00D-01 FncErr=1.00D-07 GrdErr=1.00D-06
 Number of steps in this run=     88 maximum allowed number of steps=    100.
 GradGradGradGradGradGradGradGradGradGradGradGradGradGradGradGradGradGrad

 Leave Link  103 at Fri Aug 27 00:08:29 2021, MaxMem= 17179869184 cpu:         0.1
 (Enter /public3/home/sc51754/softwares/g09e01/l202.exe)
                          Input orientation:                          
 ---------------------------------------------------------------------
 Center     Atomic      Atomic             Coordinates (Angstroms)
 Number     Number       Type             X           Y           Z
 ---------------------------------------------------------------------
      1          8           0        1.216003    1.448553   -0.002617
      2          7           0        0.305942   -0.666194   -0.005465
      3          6           0        0.137014    0.655155   -0.000094
      4          6           0       -1.129757    1.255183    0.008257
      5          6           0       -0.783175   -1.446498   -0.005634
      6          6           0       -2.238124    0.435485    0.009108
      7          6           0       -2.071986   -0.950998    0.001732
      8          1           0        2.030216    0.900227   -0.015295
      9          1           0       -1.206308    2.332099    0.012077
     10          1           0       -0.599059   -2.513820   -0.012944
     11          1           0       -3.229823    0.867678    0.014558
     12          1           0       -2.917952   -1.621952    0.000735
     13          8           0        3.095711   -0.587217   -0.085025
     14          1           0        3.593966   -0.879251    0.682533
     15          1           0        2.209819   -1.002278   -0.022484
 ---------------------------------------------------------------------
                    Distance matrix (angstroms):
                    1          2          3          4          5
     1  O    0.000000
     2  N    2.302254   0.000000
     3  C    1.339292   1.332114   0.000000
     4  C    2.353742   2.398564   1.401718   0.000000
     5  C    3.518244   1.339795   2.294281   2.723856   0.000000
     6  C    3.599644   2.772396   2.385292   1.378544   2.378856
     7  C    4.070471   2.394934   2.731192   2.398973   1.380800
     8  H    0.981715   2.329569   1.909059   3.179934   3.663657
     9  H    2.578461   3.358120   2.148675   1.079640   3.802256
    10  H    4.358320   2.057378   3.253363   3.806241   1.083111
    11  H    4.483646   3.854192   3.373570   2.135527   3.367774
    12  H    5.149524   3.362589   3.810254   3.387566   2.141984
    13  O    2.772085   2.792020   3.210076   4.610609   3.973717
    14  H    3.397471   3.365982   3.843293   5.227238   4.467069
    15  H    2.644738   1.933388   2.654073   4.031109   3.025827
                    6          7          8          9         10
     6  C    0.000000
     7  C    1.396421   0.000000
     8  H    4.293636   4.500598   0.000000
     9  H    2.159120   3.395325   3.539222   0.000000
    10  H    3.374229   2.147590   4.309154   4.883883   0.000000
    11  H    1.081798   2.155999   5.260224   2.497829   4.284414
    12  H    2.166860   1.079740   5.553918   4.308639   2.484528
    13  O    5.431812   5.181212   1.831019   5.199923   4.167532
    14  H    6.016253   5.707158   2.469579   5.814199   4.553786
    15  H    4.674651   4.282181   1.910977   4.773802   3.189772
                   11         12         13         14         15
    11  H    0.000000
    12  H    2.509126   0.000000
    13  O    6.491457   6.102637   0.000000
    14  H    7.075454   6.589501   0.960566   0.000000
    15  H    5.752201   5.165130   0.980302   1.558219   0.000000
 Stoichiometry    C5H7NO2
 Framework group  C1[X(C5H7NO2)]
 Deg. of freedom    39
 Full point group                 C1      NOp   1
 Largest Abelian subgroup         C1      NOp   1
 Largest concise Abelian subgroup C1      NOp   1
                         Standard orientation:                         
 ---------------------------------------------------------------------
 Center     Atomic      Atomic             Coordinates (Angstroms)
 Number     Number       Type             X           Y           Z
 ---------------------------------------------------------------------
      1          8           0        1.216003    1.448553   -0.002617
      2          7           0        0.305942   -0.666194   -0.005465
      3          6           0        0.137014    0.655155   -0.000094
      4          6           0       -1.129757    1.255183    0.008257
      5          6           0       -0.783175   -1.446498   -0.005634
      6          6           0       -2.238124    0.435485    0.009108
      7          6           0       -2.071986   -0.950998    0.001732
      8          1           0        2.030216    0.900227   -0.015295
      9          1           0       -1.206308    2.332099    0.012077
     10          1           0       -0.599059   -2.513820   -0.012944
     11          1           0       -3.229823    0.867678    0.014558
     12          1           0       -2.917952   -1.621952    0.000735
     13          8           0        3.095711   -0.587217   -0.085025
     14          1           0        3.593966   -0.879251    0.682533
     15          1           0        2.209819   -1.002278   -0.022484
 ---------------------------------------------------------------------
 Rotational constants (GHZ):      4.0123302      1.4179596      1.0501753
 Leave Link  202 at Fri Aug 27 00:08:29 2021, MaxMem= 17179869184 cpu:         3.5
 (Enter /public3/home/sc51754/softwares/g09e01/l301.exe)
 General basis read from cards:  (5D, 7F)
 Centers:       8      9     10     11     12     14     15
 S 4 1.00
     Exponent=  7.5423000000D+01 Coefficients=  2.4065000000D-03
     Exponent=  1.1350000000D+01 Coefficients=  1.8487000000D-02
     Exponent=  2.5993000000D+00 Coefficients=  8.9742000000D-02
     Exponent=  7.3513000000D-01 Coefficients=  2.8111000000D-01
 S 1 1.00
     Exponent=  2.3167000000D-01 Coefficients=  1.0000000000D+00
 S 1 1.00
     Exponent=  7.4147000000D-02 Coefficients=  1.0000000000D+00
 P 1 1.00
     Exponent=  1.6000000000D+00 Coefficients=  1.0000000000D+00
 P 1 1.00
     Exponent=  4.5000000000D-01 Coefficients=  1.0000000000D+00
 D 1 1.00
     Exponent=  1.2500000000D+00 Coefficients=  1.0000000000D+00
 ****
 Centers:       3      4      5      6      7
 S 7 1.00
     Exponent=  7.8571000000D+03 Coefficients=  5.6825000000D-04
     Exponent=  1.1787000000D+03 Coefficients=  4.3915000000D-03
     Exponent=  2.6832000000D+02 Coefficients=  2.2504000000D-02
     Exponent=  7.5948000000D+01 Coefficients=  8.6653000000D-02
     Exponent=  2.4559000000D+01 Coefficients=  2.4405000000D-01
     Exponent=  8.6212000000D+00 Coefficients=  4.4148000000D-01
     Exponent=  3.1278000000D+00 Coefficients=  3.5332000000D-01
 S 7 1.00
     Exponent=  1.1787000000D+03 Coefficients= -5.9492000000D-07
     Exponent=  2.6832000000D+02 Coefficients= -6.2748000000D-05
     Exponent=  7.5948000000D+01 Coefficients= -7.5773000000D-04
     Exponent=  2.4559000000D+01 Coefficients= -7.3308000000D-03
     Exponent=  8.6212000000D+00 Coefficients= -3.8932000000D-02
     Exponent=  3.1278000000D+00 Coefficients= -8.8908000000D-02
     Exponent=  8.2202000000D-01 Coefficients=  2.1689000000D-01
 S 1 1.00
     Exponent=  3.3017000000D-01 Coefficients=  1.0000000000D+00
 S 1 1.00
     Exponent=  1.1463000000D-01 Coefficients=  1.0000000000D+00
 P 4 1.00
     Exponent=  3.3775000000D+01 Coefficients=  6.0294000000D-03
     Exponent=  7.6766000000D+00 Coefficients=  4.3228000000D-02
     Exponent=  2.2357000000D+00 Coefficients=  1.6301000000D-01
     Exponent=  7.6447000000D-01 Coefficients=  3.6504000000D-01
 P 1 1.00
     Exponent=  2.6232000000D-01 Coefficients=  1.0000000000D+00
 P 1 1.00
     Exponent=  8.4638000000D-02 Coefficients=  1.0000000000D+00
 D 1 1.00
     Exponent=  1.4000000000D+00 Coefficients=  1.0000000000D+00
 D 1 1.00
     Exponent=  4.5000000000D-01 Coefficients=  1.0000000000D+00
 F 1 1.00
     Exponent=  9.5000000000D-01 Coefficients=  1.0000000000D+00
 ****
 Centers:       2
 S 7 1.00
     Exponent=  1.1101000000D+04 Coefficients=  5.4570000000D-04
     Exponent=  1.6653000000D+03 Coefficients=  4.2181000000D-03
     Exponent=  3.7908000000D+02 Coefficients=  2.1645000000D-02
     Exponent=  1.0730000000D+02 Coefficients=  8.3776000000D-02
     Exponent=  3.4747000000D+01 Coefficients=  2.3881000000D-01
     Exponent=  1.2249000000D+01 Coefficients=  4.3994000000D-01
     Exponent=  4.4743000000D+00 Coefficients=  3.6364000000D-01
 S 7 1.00
     Exponent=  1.6653000000D+03 Coefficients= -1.5006000000D-06
     Exponent=  3.7908000000D+02 Coefficients= -5.8753000000D-05
     Exponent=  1.0730000000D+02 Coefficients= -7.7453000000D-04
     Exponent=  3.4747000000D+01 Coefficients= -7.2161000000D-03
     Exponent=  1.2249000000D+01 Coefficients= -3.9338000000D-02
     Exponent=  4.4743000000D+00 Coefficients= -9.0611000000D-02
     Exponent=  1.2404000000D+00 Coefficients=  1.9882000000D-01
 S 1 1.00
     Exponent=  4.8743000000D-01 Coefficients=  1.0000000000D+00
 S 1 1.00
     Exponent=  1.6484000000D-01 Coefficients=  1.0000000000D+00
 P 4 1.00
     Exponent=  4.7934000000D+01 Coefficients=  6.1706000000D-03
     Exponent=  1.0999000000D+01 Coefficients=  4.4260000000D-02
     Exponent=  3.2472000000D+00 Coefficients=  1.6825000000D-01
     Exponent=  1.1114000000D+00 Coefficients=  3.6848000000D-01
 P 1 1.00
     Exponent=  3.7988000000D-01 Coefficients=  1.0000000000D+00
 P 1 1.00
     Exponent=  1.2068000000D-01 Coefficients=  1.0000000000D+00
 D 1 1.00
     Exponent=  1.8000000000D+00 Coefficients=  1.0000000000D+00
 D 1 1.00
     Exponent=  5.5000000000D-01 Coefficients=  1.0000000000D+00
 F 1 1.00
     Exponent=  1.0200000000D+00 Coefficients=  1.0000000000D+00
 ****
 Centers:       1     13
 S 7 1.00
     Exponent=  1.4782000000D+04 Coefficients=  5.3519000000D-04
     Exponent=  2.2173000000D+03 Coefficients=  4.1375000000D-03
     Exponent=  5.0474000000D+02 Coefficients=  2.1245000000D-02
     Exponent=  1.4287000000D+02 Coefficients=  8.2453000000D-02
     Exponent=  4.6300000000D+01 Coefficients=  2.3671000000D-01
     Exponent=  1.6337000000D+01 Coefficients=  4.4039000000D-01
     Exponent=  5.9828000000D+00 Coefficients=  3.6465000000D-01
 S 7 1.00
     Exponent=  2.2173000000D+03 Coefficients= -1.9275000000D-06
     Exponent=  5.0474000000D+02 Coefficients= -5.7964000000D-05
     Exponent=  1.4287000000D+02 Coefficients= -7.9494000000D-04
     Exponent=  4.6300000000D+01 Coefficients= -7.3125000000D-03
     Exponent=  1.6337000000D+01 Coefficients= -4.0574000000D-02
     Exponent=  5.9828000000D+00 Coefficients= -9.1594000000D-02
     Exponent=  1.6718000000D+00 Coefficients=  2.0940000000D-01
 S 1 1.00
     Exponent=  6.4662000000D-01 Coefficients=  1.0000000000D+00
 S 1 1.00
     Exponent=  2.1669000000D-01 Coefficients=  1.0000000000D+00
 P 4 1.00
     Exponent=  6.0424000000D+01 Coefficients=  6.8949000000D-03
     Exponent=  1.3935000000D+01 Coefficients=  4.9005000000D-02
     Exponent=  4.1531000000D+00 Coefficients=  1.8255000000D-01
     Exponent=  1.4158000000D+00 Coefficients=  3.7633000000D-01
 P 1 1.00
     Exponent=  4.7549000000D-01 Coefficients=  1.0000000000D+00
 P 1 1.00
     Exponent=  1.4529000000D-01 Coefficients=  1.0000000000D+00
 D 1 1.00
     Exponent=  2.2000000000D+00 Coefficients=  1.0000000000D+00
 D 1 1.00
     Exponent=  6.5000000000D-01 Coefficients=  1.0000000000D+00
 F 1 1.00
     Exponent=  1.1000000000D+00 Coefficients=  1.0000000000D+00
 ****
 Ernie: Thresh=  0.10000D-02 Tol=  0.10000D-05 Strict=F.
 Ernie:  8 primitive shells out of 263 were deleted.
 There are   385 symmetry adapted cartesian basis functions of A   symmetry.
 There are   338 symmetry adapted basis functions of A   symmetry.
   338 basis functions,   566 primitive gaussians,   385 cartesian basis functions
    30 alpha electrons       30 beta electrons
       nuclear repulsion energy       357.6226221683 Hartrees.
 IExCor=  404 DFT=T Ex=B Corr=P86 ExCW=0 ScaHFX=  0.000000
 ScaDFX=  1.000000  1.000000  1.000000  1.000000 ScalE2=  1.000000  1.000000
 IRadAn=      0 IRanWt=     -1 IRanGd=            0 ICorTp=0 IEmpDi=  4
 NAtoms=   15 NActive=   15 NUniq=   15 SFac= 1.00D+00 NAtFMM=   60 NAOKFM=F Big=F
 Integral buffers will be    131072 words long.
 Raffenetti 2 integral format.
 Two-electron integral symmetry is turned on.
 Leave Link  301 at Fri Aug 27 00:08:30 2021, MaxMem= 17179869184 cpu:         2.3
 (Enter /public3/home/sc51754/softwares/g09e01/l302.exe)
 NPDir=0 NMtPBC=     1 NCelOv=     1 NCel=       1 NClECP=     1 NCelD=      1
         NCelK=      1 NCelE2=     1 NClLst=     1 CellRange=     0.0.
 One-electron integrals computed using PRISM.
 NBasis=   338 RedAO= T EigKep=  1.46D-04  NBF=   338
 NBsUse=   338 1.00D-06 EigRej= -1.00D+00 NBFU=   338
 Precomputing XC quadrature grid using
 IXCGrd= 4 IRadAn=           0 IRanWt=          -1 IRanGd=           0 AccXCQ= 0.00D+00.
 Generated NRdTot=       0 NPtTot=           0 NUsed=           0 NTot=          32
 NSgBfM=   384   384   384   384   385 MxSgAt=    15 MxSgA2=    15.
 Leave Link  302 at Fri Aug 27 00:08:31 2021, MaxMem= 17179869184 cpu:        48.6
 (Enter /public3/home/sc51754/softwares/g09e01/l303.exe)
 DipDrv:  MaxL=1.
 Leave Link  303 at Fri Aug 27 00:08:31 2021, MaxMem= 17179869184 cpu:        12.2
 (Enter /public3/home/sc51754/softwares/g09e01/l401.exe)
 ExpMin= 7.41D-02 ExpMax= 1.48D+04 ExpMxC= 5.05D+02 IAcc=2 IRadAn=         4 AccDes= 0.00D+00
 Harris functional with IExCor=  404 and IRadAn=       4 diagonalized for initial guess.
 HarFok:  IExCor=  404 AccDes= 0.00D+00 IRadAn=         4 IDoV= 1 UseB2=F ITyADJ=14
 ICtDFT=  3500011 ScaDFX=  1.000000  1.000000  1.000000  1.000000
 FoFCou: FMM=F IPFlag=           0 FMFlag=      100000 FMFlg1=           0
         NFxFlg=           0 DoJE=T BraDBF=F KetDBF=T FulRan=T
         wScrn=  0.000000 ICntrl=     500 IOpCl=  0 I1Cent=   200000004 NGrid=           0
         NMat0=    1 NMatS0=      1 NMatT0=    0 NMatD0=    1 NMtDS0=    0 NMtDT0=    0
 Petite list used in FoFCou.
 Harris En= -400.275489920734    
 JPrj=0 DoOrth=F DoCkMO=F.
 Leave Link  401 at Fri Aug 27 00:08:32 2021, MaxMem= 17179869184 cpu:        49.4
 (Enter /public3/home/sc51754/softwares/g09e01/l502.exe)
 Closed shell SCF:
 Using DIIS extrapolation, IDIIS=  1040.
 Integral symmetry usage will be decided dynamically.
 Keep J ints in memory in canonical form, NReq=1670404686.
 IVT=      490665 IEndB=      490665 NGot= 17179869184 MDV= 15538220534
 LenX= 15538220534 LenY= 15538071868
 Requested convergence on RMS density matrix=1.00D-08 within 128 cycles.
 Requested convergence on MAX density matrix=1.00D-06.
 Requested convergence on             energy=1.00D-06.
 No special actions if energy rises.
 FoFCou: FMM=F IPFlag=           0 FMFlag=           0 FMFlg1=           0
         NFxFlg=           0 DoJE=F BraDBF=F KetDBF=F FulRan=T
         wScrn=  0.000000 ICntrl=     600 IOpCl=  0 I1Cent=           0 NGrid=           0
         NMat0=    1 NMatS0=  57291 NMatT0=    0 NMatD0=    1 NMtDS0=    0 NMtDT0=    0
 Symmetry not used in FoFCou.
 Integral accuracy reduced to 1.0D-05 until final iterations.

 Cycle   1  Pass 0  IDiag  1:
 E= -399.931210547931    
 DIIS: error= 2.29D-02 at cycle   1 NSaved=   1.
 NSaved= 1 IEnMin= 1 EnMin= -399.931210547931     IErMin= 1 ErrMin= 2.29D-02
 ErrMax= 2.29D-02  0.00D+00 EMaxC= 1.00D-01 BMatC= 2.51D-01 BMatP= 2.51D-01
 IDIUse=3 WtCom= 7.71D-01 WtEn= 2.29D-01
 Coeff-Com:  0.100D+01
 Coeff-En:   0.100D+01
 Coeff:      0.100D+01
 Gap=     0.142 Goal=   None    Shift=    0.000
 GapD=    0.142 DampG=1.000 DampE=0.500 DampFc=0.5000 IDamp=-1.
 Damping current iteration by 5.00D-01
 RMSDP=2.82D-03 MaxDP=1.17D-01              OVMax= 2.28D-01

 Cycle   2  Pass 0  IDiag  1:
 E= -399.970413377609     Delta-E=       -0.039202829677 Rises=F Damp=T
 DIIS: error= 8.63D-03 at cycle   2 NSaved=   2.
 NSaved= 2 IEnMin= 2 EnMin= -399.970413377609     IErMin= 2 ErrMin= 8.63D-03
 ErrMax= 8.63D-03  0.00D+00 EMaxC= 1.00D-01 BMatC= 4.29D-02 BMatP= 2.51D-01
 IDIUse=3 WtCom= 9.14D-01 WtEn= 8.63D-02
 Coeff-Com:  0.267D+00 0.733D+00
 Coeff-En:   0.416D+00 0.584D+00
 Coeff:      0.280D+00 0.720D+00
 Gap=     0.205 Goal=   None    Shift=    0.000
 RMSDP=8.11D-04 MaxDP=3.18D-02 DE=-3.92D-02 OVMax= 1.90D-01

 Cycle   3  Pass 0  IDiag  1:
 E= -400.125767767765     Delta-E=       -0.155354390157 Rises=F Damp=F
 DIIS: error= 8.63D-03 at cycle   3 NSaved=   3.
 NSaved= 3 IEnMin= 3 EnMin= -400.125767767765     IErMin= 2 ErrMin= 8.63D-03
 ErrMax= 8.63D-03  0.00D+00 EMaxC= 1.00D-01 BMatC= 1.86D-02 BMatP= 4.29D-02
 IDIUse=3 WtCom= 9.14D-01 WtEn= 8.63D-02
 Coeff-Com:  0.130D+00 0.438D+00 0.432D+00
 Coeff-En:   0.000D+00 0.000D+00 0.100D+01
 Coeff:      0.119D+00 0.400D+00 0.481D+00
 Gap=     0.150 Goal=   None    Shift=    0.000
 RMSDP=4.67D-04 MaxDP=2.37D-02 DE=-1.55D-01 OVMax= 7.10D-02

 Cycle   4  Pass 0  IDiag  1:
 E= -400.137436834639     Delta-E=       -0.011669066874 Rises=F Damp=F
 DIIS: error= 6.09D-03 at cycle   4 NSaved=   4.
 NSaved= 4 IEnMin= 4 EnMin= -400.137436834639     IErMin= 4 ErrMin= 6.09D-03
 ErrMax= 6.09D-03  0.00D+00 EMaxC= 1.00D-01 BMatC= 6.33D-03 BMatP= 1.86D-02
 IDIUse=3 WtCom= 9.39D-01 WtEn= 6.09D-02
 Coeff-Com:  0.455D-01 0.176D+00 0.354D+00 0.425D+00
 Coeff-En:   0.000D+00 0.000D+00 0.305D+00 0.695D+00
 Coeff:      0.427D-01 0.165D+00 0.351D+00 0.441D+00
 Gap=     0.149 Goal=   None    Shift=    0.000
 RMSDP=2.03D-04 MaxDP=1.26D-02 DE=-1.17D-02 OVMax= 4.23D-02

 Cycle   5  Pass 0  IDiag  1:
 E= -400.143069539704     Delta-E=       -0.005632705065 Rises=F Damp=F
 DIIS: error= 1.43D-03 at cycle   5 NSaved=   5.
 NSaved= 5 IEnMin= 5 EnMin= -400.143069539704     IErMin= 5 ErrMin= 1.43D-03
 ErrMax= 1.43D-03  0.00D+00 EMaxC= 1.00D-01 BMatC= 7.05D-04 BMatP= 6.33D-03
 IDIUse=3 WtCom= 9.86D-01 WtEn= 1.43D-02
 Coeff-Com:  0.139D-01 0.626D-01 0.190D+00 0.311D+00 0.422D+00
 Coeff-En:   0.000D+00 0.000D+00 0.000D+00 0.976D-01 0.902D+00
 Coeff:      0.137D-01 0.617D-01 0.187D+00 0.308D+00 0.429D+00
 Gap=     0.148 Goal=   None    Shift=    0.000
 RMSDP=6.40D-05 MaxDP=3.27D-03 DE=-5.63D-03 OVMax= 1.03D-02

 Cycle   6  Pass 0  IDiag  1:
 E= -400.143723477660     Delta-E=       -0.000653937957 Rises=F Damp=F
 DIIS: error= 2.89D-04 at cycle   6 NSaved=   6.
 NSaved= 6 IEnMin= 6 EnMin= -400.143723477660     IErMin= 6 ErrMin= 2.89D-04
 ErrMax= 2.89D-04  0.00D+00 EMaxC= 1.00D-01 BMatC= 3.53D-05 BMatP= 7.05D-04
 IDIUse=3 WtCom= 9.97D-01 WtEn= 2.89D-03
 Coeff-Com:  0.979D-03 0.852D-02 0.511D-01 0.103D+00 0.237D+00 0.600D+00
 Coeff-En:   0.000D+00 0.000D+00 0.000D+00 0.000D+00 0.282D-02 0.997D+00
 Coeff:      0.976D-03 0.850D-02 0.509D-01 0.103D+00 0.236D+00 0.601D+00
 Gap=     0.149 Goal=   None    Shift=    0.000
 RMSDP=1.57D-05 MaxDP=5.50D-04 DE=-6.54D-04 OVMax= 3.09D-03

 Cycle   7  Pass 0  IDiag  1:
 E= -400.143747626565     Delta-E=       -0.000024148904 Rises=F Damp=F
 DIIS: error= 2.05D-04 at cycle   7 NSaved=   7.
 NSaved= 7 IEnMin= 7 EnMin= -400.143747626565     IErMin= 7 ErrMin= 2.05D-04
 ErrMax= 2.05D-04  0.00D+00 EMaxC= 1.00D-01 BMatC= 7.59D-06 BMatP= 3.53D-05
 IDIUse=3 WtCom= 9.98D-01 WtEn= 2.05D-03
 Coeff-Com:  0.247D-03 0.345D-02 0.268D-01 0.554D-01 0.141D+00 0.418D+00
 Coeff-Com:  0.354D+00
 Coeff-En:   0.000D+00 0.000D+00 0.000D+00 0.000D+00 0.000D+00 0.158D+00
 Coeff-En:   0.842D+00
 Coeff:      0.246D-03 0.344D-02 0.268D-01 0.553D-01 0.141D+00 0.418D+00
 Coeff:      0.355D+00
 Gap=     0.149 Goal=   None    Shift=    0.000
 RMSDP=7.05D-06 MaxDP=3.01D-04 DE=-2.41D-05 OVMax= 1.56D-03

 Initial convergence to 1.0D-05 achieved.  Increase integral accuracy.
 Cycle   8  Pass 1  IDiag  1:
 E= -400.143811432350     Delta-E=       -0.000063805785 Rises=F Damp=F
 DIIS: error= 4.16D-05 at cycle   1 NSaved=   1.
 NSaved= 1 IEnMin= 1 EnMin= -400.143811432350     IErMin= 1 ErrMin= 4.16D-05
 ErrMax= 4.16D-05  0.00D+00 EMaxC= 1.00D-01 BMatC= 6.59D-07 BMatP= 6.59D-07
 IDIUse=1 WtCom= 1.00D+00 WtEn= 0.00D+00
 Coeff-Com:  0.100D+01
 Coeff:      0.100D+01
 Gap=     0.149 Goal=   None    Shift=    0.000
 RMSDP=7.05D-06 MaxDP=3.01D-04 DE=-6.38D-05 OVMax= 1.26D-03

 Cycle   9  Pass 1  IDiag  1:
 E= -400.143808955586     Delta-E=        0.000002476764 Rises=F Damp=F
 DIIS: error= 1.23D-04 at cycle   2 NSaved=   2.
 NSaved= 2 IEnMin= 1 EnMin= -400.143811432350     IErMin= 1 ErrMin= 4.16D-05
 ErrMax= 1.23D-04  0.00D+00 EMaxC= 1.00D-01 BMatC= 3.00D-06 BMatP= 6.59D-07
 IDIUse=3 WtCom= 4.74D-01 WtEn= 5.26D-01
 Coeff-Com:  0.698D+00 0.302D+00
 Coeff-En:   0.796D+00 0.204D+00
 Coeff:      0.750D+00 0.250D+00
 Gap=     0.149 Goal=   None    Shift=    0.000
 RMSDP=3.69D-06 MaxDP=1.30D-04 DE= 2.48D-06 OVMax= 9.07D-04

 Cycle  10  Pass 1  IDiag  1:
 E= -400.143812062994     Delta-E=       -0.000003107408 Rises=F Damp=F
 DIIS: error= 6.49D-06 at cycle   3 NSaved=   3.
 NSaved= 3 IEnMin= 3 EnMin= -400.143812062994     IErMin= 3 ErrMin= 6.49D-06
 ErrMax= 6.49D-06  0.00D+00 EMaxC= 1.00D-01 BMatC= 2.75D-08 BMatP= 6.59D-07
 IDIUse=1 WtCom= 1.00D+00 WtEn= 0.00D+00
 Coeff-Com:  0.131D+00-0.135D-02 0.870D+00
 Coeff:      0.131D+00-0.135D-02 0.870D+00
 Gap=     0.149 Goal=   None    Shift=    0.000
 RMSDP=5.74D-07 MaxDP=3.17D-05 DE=-3.11D-06 OVMax= 7.01D-05

 Cycle  11  Pass 1  IDiag  1:
 E= -400.143812057588     Delta-E=        0.000000005406 Rises=F Damp=F
 DIIS: error= 7.75D-06 at cycle   4 NSaved=   4.
 NSaved= 4 IEnMin= 3 EnMin= -400.143812062994     IErMin= 3 ErrMin= 6.49D-06
 ErrMax= 7.75D-06  0.00D+00 EMaxC= 1.00D-01 BMatC= 3.18D-08 BMatP= 2.75D-08
 IDIUse=1 WtCom= 1.00D+00 WtEn= 0.00D+00
 Coeff-Com:  0.168D-01-0.366D-01 0.609D+00 0.411D+00
 Coeff:      0.168D-01-0.366D-01 0.609D+00 0.411D+00
 Gap=     0.149 Goal=   None    Shift=    0.000
 RMSDP=3.93D-07 MaxDP=1.92D-05 DE= 5.41D-09 OVMax= 7.00D-05

 Cycle  12  Pass 1  IDiag  1:
 E= -400.143812082532     Delta-E=       -0.000000024944 Rises=F Damp=F
 DIIS: error= 3.13D-06 at cycle   5 NSaved=   5.
 NSaved= 5 IEnMin= 5 EnMin= -400.143812082532     IErMin= 5 ErrMin= 3.13D-06
 ErrMax= 3.13D-06  0.00D+00 EMaxC= 1.00D-01 BMatC= 1.48D-09 BMatP= 2.75D-08
 IDIUse=1 WtCom= 1.00D+00 WtEn= 0.00D+00
 Coeff-Com: -0.109D-02-0.236D-01 0.283D+00 0.243D+00 0.499D+00
 Coeff:     -0.109D-02-0.236D-01 0.283D+00 0.243D+00 0.499D+00
 Gap=     0.149 Goal=   None    Shift=    0.000
 RMSDP=1.28D-07 MaxDP=4.81D-06 DE=-2.49D-08 OVMax= 2.60D-05

 Cycle  13  Pass 1  IDiag  1:
 E= -400.143812083708     Delta-E=       -0.000000001176 Rises=F Damp=F
 DIIS: error= 1.71D-06 at cycle   6 NSaved=   6.
 NSaved= 6 IEnMin= 6 EnMin= -400.143812083708     IErMin= 6 ErrMin= 1.71D-06
 ErrMax= 1.71D-06  0.00D+00 EMaxC= 1.00D-01 BMatC= 4.71D-10 BMatP= 1.48D-09
 IDIUse=1 WtCom= 1.00D+00 WtEn= 0.00D+00
 Coeff-Com: -0.257D-02-0.149D-01 0.159D+00 0.147D+00 0.378D+00 0.333D+00
 Coeff:     -0.257D-02-0.149D-01 0.159D+00 0.147D+00 0.378D+00 0.333D+00
 Gap=     0.149 Goal=   None    Shift=    0.000
 RMSDP=4.74D-08 MaxDP=2.27D-06 DE=-1.18D-09 OVMax= 7.97D-06

 Cycle  14  Pass 1  IDiag  1:
 E= -400.143812084175     Delta-E=       -0.000000000467 Rises=F Damp=F
 DIIS: error= 8.27D-08 at cycle   7 NSaved=   7.
 NSaved= 7 IEnMin= 7 EnMin= -400.143812084175     IErMin= 7 ErrMin= 8.27D-08
 ErrMax= 8.27D-08  0.00D+00 EMaxC= 1.00D-01 BMatC= 4.04D-12 BMatP= 4.71D-10
 IDIUse=1 WtCom= 1.00D+00 WtEn= 0.00D+00
 Coeff-Com: -0.684D-03-0.330D-02 0.317D-01 0.312D-01 0.994D-01 0.128D+00
 Coeff-Com:  0.713D+00
 Coeff:     -0.684D-03-0.330D-02 0.317D-01 0.312D-01 0.994D-01 0.128D+00
 Coeff:      0.713D+00
 Gap=     0.149 Goal=   None    Shift=    0.000
 RMSDP=6.05D-09 MaxDP=2.85D-07 DE=-4.67D-10 OVMax= 5.19D-07

 SCF Done:  E(RB-P86) =  -400.143812084     A.U. after   14 cycles
            NFock= 14  Conv=0.61D-08     -V/T= 2.0035
 KE= 3.987534618461D+02 PE=-1.651349192003D+03 EE= 4.948292959049D+02
 Leave Link  502 at Fri Aug 27 00:08:53 2021, MaxMem= 17179869184 cpu:       305.4
 (Enter /public3/home/sc51754/softwares/g09e01/l601.exe)
 Copying SCF densities to generalized density rwf, IOpCl= 0 IROHF=0.

 **********************************************************************

            Population analysis using the SCF density.

 **********************************************************************

 Orbital symmetries:
       Occupied  (A) (A) (A) (A) (A) (A) (A) (A) (A) (A) (A) (A)
                 (A) (A) (A) (A) (A) (A) (A) (A) (A) (A) (A) (A)
                 (A) (A) (A) (A) (A) (A)
       Virtual   (A) (A) (A) (A) (A) (A) (A) (A) (A) (A) (A) (A)
                 (A) (A) (A) (A) (A) (A) (A) (A) (A) (A) (A) (A)
                 (A) (A) (A) (A) (A) (A) (A) (A) (A) (A) (A) (A)
                 (A) (A) (A) (A) (A) (A) (A) (A) (A) (A) (A) (A)
                 (A) (A) (A) (A) (A) (A) (A) (A) (A) (A) (A) (A)
                 (A) (A) (A) (A) (A) (A) (A) (A) (A) (A) (A) (A)
                 (A) (A) (A) (A) (A) (A) (A) (A) (A) (A) (A) (A)
                 (A) (A) (A) (A) (A) (A) (A) (A) (A) (A) (A) (A)
                 (A) (A) (A) (A) (A) (A) (A) (A) (A) (A) (A) (A)
                 (A) (A) (A) (A) (A) (A) (A) (A) (A) (A) (A) (A)
                 (A) (A) (A) (A) (A) (A) (A) (A) (A) (A) (A) (A)
                 (A) (A) (A) (A) (A) (A) (A) (A) (A) (A) (A) (A)
                 (A) (A) (A) (A) (A) (A) (A) (A) (A) (A) (A) (A)
                 (A) (A) (A) (A) (A) (A) (A) (A) (A) (A) (A) (A)
                 (A) (A) (A) (A) (A) (A) (A) (A) (A) (A) (A) (A)
                 (A) (A) (A) (A) (A) (A) (A) (A) (A) (A) (A) (A)
                 (A) (A) (A) (A) (A) (A) (A) (A) (A) (A) (A) (A)
                 (A) (A) (A) (A) (A) (A) (A) (A) (A) (A) (A) (A)
                 (A) (A) (A) (A) (A) (A) (A) (A) (A) (A) (A) (A)
                 (A) (A) (A) (A) (A) (A) (A) (A) (A) (A) (A) (A)
                 (A) (A) (A) (A) (A) (A) (A) (A) (A) (A) (A) (A)
                 (A) (A) (A) (A) (A) (A) (A) (A) (A) (A) (A) (A)
                 (A) (A) (A) (A) (A) (A) (A) (A) (A) (A) (A) (A)
                 (A) (A) (A) (A) (A) (A) (A) (A) (A) (A) (A) (A)
                 (A) (A) (A) (A) (A) (A) (A) (A) (A) (A) (A) (A)
                 (A) (A) (A) (A) (A) (A) (A) (A)
 The electronic state is 1-A.
 Alpha  occ. eigenvalues --  -18.79443 -18.77143 -14.01027  -9.99724  -9.94447
 Alpha  occ. eigenvalues --   -9.92558  -9.91280  -9.91010  -0.99061  -0.92863
 Alpha  occ. eigenvalues --   -0.87073  -0.74487  -0.69714  -0.59690  -0.58016
 Alpha  occ. eigenvalues --   -0.51097  -0.49318  -0.46911  -0.44249  -0.40817
 Alpha  occ. eigenvalues --   -0.40129  -0.37437  -0.36052  -0.34677  -0.32740
 Alpha  occ. eigenvalues --   -0.32136  -0.27656  -0.27381  -0.24739  -0.22109
 Alpha virt. eigenvalues --   -0.07237  -0.04489  -0.00041   0.01353   0.03477
 Alpha virt. eigenvalues --    0.05205   0.06344   0.08318   0.08414   0.10404
 Alpha virt. eigenvalues --    0.12027   0.13950   0.14891   0.16359   0.17103
 Alpha virt. eigenvalues --    0.17455   0.18557   0.18831   0.20740   0.21901
 Alpha virt. eigenvalues --    0.23151   0.23863   0.24677   0.25747   0.26542
 Alpha virt. eigenvalues --    0.26889   0.27369   0.28306   0.29497   0.30381
 Alpha virt. eigenvalues --    0.31580   0.32675   0.33057   0.33597   0.35938
 Alpha virt. eigenvalues --    0.38722   0.39362   0.40921   0.41514   0.44018
 Alpha virt. eigenvalues --    0.46624   0.48536   0.49520   0.50543   0.51314
 Alpha virt. eigenvalues --    0.55363   0.56271   0.58104   0.59255   0.59853
 Alpha virt. eigenvalues --    0.60731   0.63858   0.65399   0.68428   0.69907
 Alpha virt. eigenvalues --    0.71937   0.73104   0.76049   0.76268   0.79877
 Alpha virt. eigenvalues --    0.83471   0.85634   0.86641   0.87156   0.89157
 Alpha virt. eigenvalues --    0.90424   0.92351   0.92604   0.93960   0.96751
 Alpha virt. eigenvalues --    0.97993   1.03106   1.03482   1.04749   1.07138
 Alpha virt. eigenvalues --    1.08524   1.08680   1.10200   1.11102   1.12202
 Alpha virt. eigenvalues --    1.14265   1.16327   1.17660   1.19617   1.20442
 Alpha virt. eigenvalues --    1.21815   1.22199   1.25543   1.25955   1.28144
 Alpha virt. eigenvalues --    1.34998   1.35281   1.37947   1.38187   1.43332
 Alpha virt. eigenvalues --    1.43405   1.44865   1.45929   1.48102   1.49618
 Alpha virt. eigenvalues --    1.51271   1.52542   1.54647   1.55586   1.58703
 Alpha virt. eigenvalues --    1.59552   1.61148   1.63678   1.63879   1.67383
 Alpha virt. eigenvalues --    1.69806   1.73692   1.75450   1.78492   1.79750
 Alpha virt. eigenvalues --    1.80015   1.81133   1.82421   1.83771   1.88444
 Alpha virt. eigenvalues --    1.90188   1.90997   1.93633   1.96594   2.00328
 Alpha virt. eigenvalues --    2.03799   2.05837   2.07276   2.08900   2.10175
 Alpha virt. eigenvalues --    2.11475   2.15501   2.16382   2.18229   2.20411
 Alpha virt. eigenvalues --    2.23892   2.30375   2.32612   2.41588   2.54392
 Alpha virt. eigenvalues --    2.61252   2.70546   2.78221   2.86597   2.87169
 Alpha virt. eigenvalues --    2.89596   2.93700   3.06578   3.09152   3.11803
 Alpha virt. eigenvalues --    3.14833   3.16809   3.17818   3.21967   3.26211
 Alpha virt. eigenvalues --    3.28270   3.28774   3.29378   3.32583   3.33241
 Alpha virt. eigenvalues --    3.36259   3.38371   3.40623   3.43480   3.48166
 Alpha virt. eigenvalues --    3.49277   3.51106   3.52331   3.53190   3.54662
 Alpha virt. eigenvalues --    3.58928   3.59622   3.61011   3.63761   3.65304
 Alpha virt. eigenvalues --    3.69153   3.70408   3.71528   3.74125   3.78126
 Alpha virt. eigenvalues --    3.81215   3.82692   3.84316   3.85351   3.87944
 Alpha virt. eigenvalues --    3.90509   3.92102   3.95399   3.96799   3.96994
 Alpha virt. eigenvalues --    3.98591   3.99822   4.00861   4.03778   4.07511
 Alpha virt. eigenvalues --    4.08117   4.08555   4.09132   4.10948   4.13012
 Alpha virt. eigenvalues --    4.13485   4.16007   4.18548   4.19928   4.21380
 Alpha virt. eigenvalues --    4.22028   4.22698   4.23952   4.25470   4.29140
 Alpha virt. eigenvalues --    4.30016   4.31124   4.31841   4.34363   4.34731
 Alpha virt. eigenvalues --    4.36077   4.36504   4.37859   4.38510   4.41524
 Alpha virt. eigenvalues --    4.42426   4.43207   4.44604   4.46967   4.49228
 Alpha virt. eigenvalues --    4.50656   4.52492   4.55506   4.56438   4.57036
 Alpha virt. eigenvalues --    4.59447   4.63986   4.66820   4.67486   4.72647
 Alpha virt. eigenvalues --    4.74328   4.78008   4.79750   4.79907   4.81240
 Alpha virt. eigenvalues --    4.82425   4.86825   4.87483   4.91258   4.92969
 Alpha virt. eigenvalues --    4.96007   5.00360   5.00585   5.04519   5.09760
 Alpha virt. eigenvalues --    5.09956   5.13429   5.13884   5.19179   5.23125
 Alpha virt. eigenvalues --    5.24403   5.25252   5.28938   5.31004   5.31895
 Alpha virt. eigenvalues --    5.33501   5.36396   5.36930   5.44475   5.45865
 Alpha virt. eigenvalues --    5.52476   5.53216   5.56972   5.58845   5.67387
 Alpha virt. eigenvalues --    5.69073   5.72505   5.74361   5.82516   5.87084
 Alpha virt. eigenvalues --    5.91737   5.94075   5.95787   5.96164   6.00438
 Alpha virt. eigenvalues --    6.08539   6.11826   6.12903   6.14117   6.18140
 Alpha virt. eigenvalues --    6.18755   6.20482   6.25908   6.30755   6.37364
 Alpha virt. eigenvalues --    6.40963   6.48885   6.52709   6.59492   6.77151
 Alpha virt. eigenvalues --    6.81641   6.85416   7.03498   7.21373   7.30839
 Alpha virt. eigenvalues --    9.19039  12.03389  12.58843  15.35648  15.38418
 Alpha virt. eigenvalues --   17.23522  18.48988  22.12430
          Condensed to atoms (all electrons):
               1          2          3          4          5          6
     1  O    7.871925  -0.089158   0.320416  -0.064501   0.005291   0.008828
     2  N   -0.089158   6.733580   0.445967  -0.021963   0.493606  -0.033579
     3  C    0.320416   0.445967   4.462409   0.504278  -0.070910  -0.051590
     4  C   -0.064501  -0.021963   0.504278   4.890228  -0.040560   0.509759
     5  C    0.005291   0.493606  -0.070910  -0.040560   4.628012  -0.068093
     6  C    0.008828  -0.033579  -0.051590   0.509759  -0.068093   4.758586
     7  C   -0.000293  -0.036102  -0.051940  -0.046451   0.509526   0.482262
     8  H    0.342133   0.007143  -0.024799   0.006643  -0.000015  -0.001066
     9  H    0.005269   0.007303  -0.040673   0.436291  -0.002237  -0.038775
    10  H   -0.000475  -0.041617   0.006276  -0.003522   0.444967   0.008747
    11  H   -0.000385  -0.001796   0.008593  -0.041059   0.008613   0.435754
    12  H    0.000063   0.007442  -0.000639   0.007409  -0.031886  -0.041068
    13  O   -0.028475  -0.041550  -0.005217   0.000963  -0.001299   0.000132
    14  H    0.001215   0.003620   0.000285   0.000157   0.000139  -0.000022
    15  H   -0.000187   0.038927  -0.005508   0.001144   0.002290  -0.000411
               7          8          9         10         11         12
     1  O   -0.000293   0.342133   0.005269  -0.000475  -0.000385   0.000063
     2  N   -0.036102   0.007143   0.007303  -0.041617  -0.001796   0.007442
     3  C   -0.051940  -0.024799  -0.040673   0.006276   0.008593  -0.000639
     4  C   -0.046451   0.006643   0.436291  -0.003522  -0.041059   0.007409
     5  C    0.509526  -0.000015  -0.002237   0.444967   0.008613  -0.031886
     6  C    0.482262  -0.001066  -0.038775   0.008747   0.435754  -0.041068
     7  C    4.955721   0.000330   0.009053  -0.069837  -0.044952   0.431881
     8  H    0.000330   0.404611   0.000027  -0.000121   0.000013  -0.000011
     9  H    0.009053   0.000027   0.569989   0.000218  -0.009393  -0.000094
    10  H   -0.069837  -0.000121   0.000218   0.600591  -0.000379  -0.004884
    11  H   -0.044952   0.000013  -0.009393  -0.000379   0.590444  -0.008482
    12  H    0.431881  -0.000011  -0.000094  -0.004884  -0.008482   0.587452
    13  O   -0.000416   0.061936   0.000022   0.000375  -0.000006   0.000013
    14  H    0.000082  -0.003609  -0.000004  -0.000036   0.000000  -0.000002
    15  H    0.001590  -0.008334  -0.000068  -0.001029   0.000029  -0.000047
              13         14         15
     1  O   -0.028475   0.001215  -0.000187
     2  N   -0.041550   0.003620   0.038927
     3  C   -0.005217   0.000285  -0.005508
     4  C    0.000963   0.000157   0.001144
     5  C   -0.001299   0.000139   0.002290
     6  C    0.000132  -0.000022  -0.000411
     7  C   -0.000416   0.000082   0.001590
     8  H    0.061936  -0.003609  -0.008334
     9  H    0.000022  -0.000004  -0.000068
    10  H    0.000375  -0.000036  -0.001029
    11  H   -0.000006   0.000000   0.000029
    12  H    0.000013  -0.000002  -0.000047
    13  O    7.757592   0.352269   0.335811
    14  H    0.352269   0.450572  -0.020061
    15  H    0.335811  -0.020061   0.427258
 Mulliken charges:
               1
     1  O   -0.371666
     2  N   -0.471822
     3  C    0.503053
     4  C   -0.138817
     5  C    0.122559
     6  C    0.030537
     7  C   -0.140454
     8  H    0.215119
     9  H    0.063071
    10  H    0.060727
    11  H    0.063007
    12  H    0.052850
    13  O   -0.432151
    14  H    0.215392
    15  H    0.228597
 Sum of Mulliken charges =  -0.00000
 Mulliken charges with hydrogens summed into heavy atoms:
               1
     1  O   -0.156547
     2  N   -0.471822
     3  C    0.503053
     4  C   -0.075746
     5  C    0.183285
     6  C    0.093544
     7  C   -0.087604
    13  O    0.011838
 Electronic spatial extent (au):  <R**2>=           1070.0550
 Charge=             -0.0000 electrons
 Dipole moment (field-independent basis, Debye):
    X=             -1.7053    Y=             -1.2272    Z=              1.3175  Tot=              2.4799
 Quadrupole moment (field-independent basis, Debye-Ang):
   XX=            -42.3942   YY=            -45.0779   ZZ=            -49.3849
   XY=             -2.6534   XZ=              5.2603   YZ=             -1.3306
 Traceless Quadrupole moment (field-independent basis, Debye-Ang):
   XX=              3.2248   YY=              0.5411   ZZ=             -3.7659
   XY=             -2.6534   XZ=              5.2603   YZ=             -1.3306
 Octapole moment (field-independent basis, Debye-Ang**2):
  XXX=             12.1981  YYY=             -7.0875  ZZZ=              1.0461  XYY=             -0.4329
  XXY=             -4.2249  XXZ=             19.9728  XZZ=             12.3612  YZZ=              0.3913
  YYZ=              1.2711  XYZ=             -5.1164
 Hexadecapole moment (field-independent basis, Debye-Ang**3):
 XXXX=           -843.7378 YYYY=           -358.3059 ZZZZ=            -54.0301 XXXY=            -20.9380
 XXXZ=             75.5315 YYYX=            -12.6736 YYYZ=             -1.5496 ZZZX=              4.9486
 ZZZY=             -1.3967 XXYY=           -202.7928 XXZZ=           -168.1946 YYZZ=            -77.0792
 XXYZ=            -18.5024 YYXZ=              5.2307 ZZXY=             -3.7138
 N-N= 3.576226221683D+02 E-N=-1.651349195972D+03  KE= 3.987534618461D+02
 No NMR shielding tensors so no spin-rotation constants.
 Leave Link  601 at Fri Aug 27 00:08:54 2021, MaxMem= 17179869184 cpu:        57.0
 (Enter /public3/home/sc51754/softwares/g09e01/l701.exe)
 Compute integral first derivatives.
 ... and contract with generalized density number  0.
 Leave Link  701 at Fri Aug 27 00:08:55 2021, MaxMem= 17179869184 cpu:        71.6
 (Enter /public3/home/sc51754/softwares/g09e01/l702.exe)
 L702 exits ... SP integral derivatives will be done elsewhere.
 Leave Link  702 at Fri Aug 27 00:08:55 2021, MaxMem= 17179869184 cpu:         0.2
 (Enter /public3/home/sc51754/softwares/g09e01/l703.exe)
 Compute integral first derivatives, UseDBF=F ICtDFT=           0.
 Integral derivatives from FoFJK, PRISM(SPDF).
 Calling FoFJK, ICntrl=      2527 FMM=F ISym2X=0 I1Cent= 0 IOpClX= 0 NMat=1 NMatS=1 NMatT=0.
 FoFJK:  IHMeth= 1 ICntrl=    2527 DoSepK=F KAlg= 0 I1Cent=   0 FoldK=F
 IRaf=         0 NMat=   1 IRICut=       1 DoRegI=T DoRafI=F ISym2E= 0.
 FoFCou: FMM=F IPFlag=           0 FMFlag=      100000 FMFlg1=         800
         NFxFlg=           0 DoJE=F BraDBF=F KetDBF=F FulRan=T
         wScrn=  0.000000 ICntrl=    2527 IOpCl=  0 I1Cent=           0 NGrid=           0
         NMat0=    1 NMatS0=      1 NMatT0=    0 NMatD0=    1 NMtDS0=    0 NMtDT0=    0
 Symmetry not used in FoFCou.
 Leave Link  703 at Fri Aug 27 00:08:58 2021, MaxMem= 17179869184 cpu:       189.3
 (Enter /public3/home/sc51754/softwares/g09e01/l716.exe)
 Dipole        =-6.70902891D-01-4.82827028D-01 5.18353247D-01
 ***** Axes restored to original set *****
 -------------------------------------------------------------------
 Center     Atomic                   Forces (Hartrees/Bohr)
 Number     Number              X              Y              Z
 -------------------------------------------------------------------
      1        8          -0.003770405    0.011964604    0.000040939
      2        7           0.008817432   -0.006607712    0.000004890
      3        6           0.001174555    0.003689607    0.000065384
      4        6          -0.000056855    0.001618575   -0.000001263
      5        6          -0.000129938   -0.001847485    0.000004221
      6        6          -0.001697837   -0.000380610    0.000026931
      7        6          -0.002113291    0.000113223   -0.000001322
      8        1           0.009274327   -0.008277295    0.000038265
      9        1          -0.000514014    0.006336451    0.000020340
     10        1           0.001221098   -0.006407814   -0.000045515
     11        1          -0.005696969    0.002531319    0.000027385
     12        1          -0.004973398   -0.003902832   -0.000006080
     13        8           0.004471490    0.007950195   -0.008333277
     14        1           0.003946960   -0.002663991    0.007211901
     15        1          -0.009953154   -0.004116237    0.000947201
 -------------------------------------------------------------------
 Cartesian Forces:  Max     0.011964604 RMS     0.004637765
 Leave Link  716 at Fri Aug 27 00:08:59 2021, MaxMem= 17179869184 cpu:         0.4
 (Enter /public3/home/sc51754/softwares/g09e01/l103.exe)

 GradGradGradGradGradGradGradGradGradGradGradGradGradGradGradGradGradGrad
 Berny optimization.
 FormGI is forming the generalized inverse of G from B-inverse, IUseBI=4.
 Internal  Forces:  Max     0.011393058 RMS     0.003489083
 Search for a local minimum.
 Step number   1 out of a maximum of   88
 All quantities printed in internal units (Hartrees-Bohrs-Radians)
 RMS Force = .34891D-02 SwitMx=.10000D-02 MixMth= 1
 Mixed Optimization -- RFO/linear search
 Second derivative matrix not updated -- first step.
 ITU=  0
     Eigenvalues ---    0.00525   0.00832   0.01684   0.02094   0.02184
     Eigenvalues ---    0.02225   0.02239   0.02286   0.02319   0.02409
     Eigenvalues ---    0.02460   0.05224   0.06028   0.06507   0.08515
     Eigenvalues ---    0.13089   0.16000   0.16000   0.16000   0.16000
     Eigenvalues ---    0.19207   0.20418   0.22000   0.22270   0.23481
     Eigenvalues ---    0.35621   0.35778   0.36026   0.36038   0.41939
     Eigenvalues ---    0.43696   0.46841   0.47322   0.48462   0.48884
     Eigenvalues ---    0.52273   0.55339   0.55352   0.56565
 RFO step:  Lambda=-2.02810182D-03 EMin= 5.24515301D-03
 Linear search not attempted -- first point.
 Iteration  1 RMS(Cart)=  0.01064062 RMS(Int)=  0.00003234
 Iteration  2 RMS(Cart)=  0.00002264 RMS(Int)=  0.00000824
 Iteration  3 RMS(Cart)=  0.00000000 RMS(Int)=  0.00000824
 ITry= 1 IFail=0 DXMaxC= 3.37D-02 DCOld= 1.00D+10 DXMaxT= 3.00D-01 DXLimC= 3.00D+00 Rises=F
 Variable       Old X    -DE/DX   Delta X   Delta X   Delta X     New X
                                 (Linear)    (Quad)   (Total)
    R1        2.53090   0.00582   0.00000   0.01140   0.01141   2.54231
    R2        1.85517   0.01139   0.00000   0.02211   0.02212   1.87729
    R3        2.51733   0.01044   0.00000   0.01918   0.01917   2.53650
    R4        2.53185   0.00834   0.00000   0.01482   0.01482   2.54667
    R5        3.65357  -0.00066   0.00000  -0.01864  -0.01865   3.63492
    R6        2.64886   0.00769   0.00000   0.01709   0.01709   2.66595
    R7        2.60507   0.00831   0.00000   0.01641   0.01641   2.62148
    R8        2.04022   0.00636   0.00000   0.01754   0.01754   2.05776
    R9        2.60933   0.00861   0.00000   0.01737   0.01737   2.62670
   R10        2.04678   0.00652   0.00000   0.01821   0.01821   2.06499
   R11        2.63885   0.00728   0.00000   0.01512   0.01512   2.65397
   R12        2.04430   0.00623   0.00000   0.01732   0.01732   2.06163
   R13        2.04041   0.00632   0.00000   0.01745   0.01745   2.05786
   R14        3.46012  -0.00153   0.00000  -0.01349  -0.01351   3.44661
   R15        3.61122   0.00156   0.00000   0.00038   0.00041   3.61163
   R16        1.81521   0.00862   0.00000   0.01552   0.01552   1.83072
   R17        1.85250   0.00937   0.00000   0.01891   0.01890   1.87141
    A1        1.91487  -0.00229   0.00000  -0.00950  -0.00947   1.90540
    A2        2.06532  -0.00027   0.00000   0.00068   0.00069   2.06601
    A3        1.87270   0.00013   0.00000   0.00072   0.00071   1.87341
    A4        2.34514   0.00014   0.00000  -0.00141  -0.00140   2.34374
    A5        2.07766  -0.00046   0.00000   0.00150   0.00150   2.07916
    A6        2.06520   0.00080   0.00000   0.00019   0.00019   2.06539
    A7        2.14032  -0.00034   0.00000  -0.00169  -0.00169   2.13863
    A8        2.06244   0.00012   0.00000   0.00054   0.00054   2.06298
    A9        2.08413   0.00001   0.00000   0.00015   0.00015   2.08428
   A10        2.13661  -0.00013   0.00000  -0.00068  -0.00068   2.13592
   A11        2.15286  -0.00027   0.00000  -0.00032  -0.00032   2.15254
   A12        2.02165   0.00002   0.00000  -0.00058  -0.00057   2.02107
   A13        2.10868   0.00025   0.00000   0.00089   0.00090   2.10957
   A14        2.08831   0.00045   0.00000   0.00047   0.00046   2.08877
   A15        2.09381  -0.00027   0.00000  -0.00049  -0.00049   2.09332
   A16        2.10106  -0.00018   0.00000   0.00003   0.00003   2.10109
   A17        2.05711   0.00032   0.00000   0.00032   0.00032   2.05743
   A18        2.10400  -0.00013   0.00000   0.00002   0.00002   2.10403
   A19        2.12207  -0.00019   0.00000  -0.00035  -0.00035   2.12172
   A20        2.78431   0.00221   0.00000   0.00492   0.00493   2.78924
   A21        2.25759  -0.00047   0.00000  -0.00128  -0.00127   2.25632
   A22        2.11576  -0.00027   0.00000  -0.00308  -0.00306   2.11270
   A23        1.86403  -0.00044   0.00000  -0.00574  -0.00573   1.85830
   A24        1.30192   0.00308   0.00000   0.00857   0.00854   1.31047
   A25        2.52674   0.00055   0.00000  -0.00081  -0.00080   2.52595
    D1        0.00739   0.00009   0.00000  -0.00072  -0.00072   0.00667
    D2       -3.13430   0.00008   0.00000  -0.00031  -0.00030  -3.13460
    D3        0.07175   0.00044   0.00000   0.00377   0.00378   0.07552
    D4       -0.00835  -0.00017   0.00000   0.00155   0.00154  -0.00681
    D5       -3.13923  -0.00002   0.00000   0.00033   0.00033  -3.13890
    D6        0.00246   0.00000   0.00000  -0.00011  -0.00011   0.00236
    D7       -0.00357  -0.00001   0.00000  -0.00027  -0.00026  -0.00383
    D8        3.13812   0.00001   0.00000  -0.00070  -0.00070   3.13742
    D9       -0.00196   0.00001   0.00000   0.00001   0.00001  -0.00195
   D10        3.13867   0.00000   0.00000  -0.00025  -0.00025   3.13842
   D11       -3.13562  -0.00001   0.00000   0.00079   0.00079  -3.13484
   D12        0.00500  -0.00001   0.00000   0.00053   0.00052   0.00552
   D13       -0.00000  -0.00006   0.00000   0.00060   0.00060   0.00059
   D14       -0.09978  -0.00002   0.00000   0.00301   0.00301  -0.09677
   D15        3.13428  -0.00004   0.00000  -0.00012  -0.00012   3.13416
   D16        3.03451  -0.00001   0.00000   0.00229   0.00229   3.03680
   D17        3.14017   0.00001   0.00000  -0.00021  -0.00021   3.13997
   D18        0.00037   0.00001   0.00000  -0.00023  -0.00024   0.00013
   D19       -0.00152  -0.00001   0.00000   0.00023   0.00023  -0.00129
   D20       -3.14132  -0.00000   0.00000   0.00020   0.00020  -3.14113
   D21       -0.00000   0.00000   0.00000  -0.00024  -0.00024  -0.00024
   D22       -3.14062   0.00000   0.00000   0.00004   0.00004  -3.14059
   D23        3.13975   0.00000   0.00000  -0.00021  -0.00021   3.13954
   D24       -0.00088   0.00000   0.00000   0.00007   0.00007  -0.00081
   D25        0.00051  -0.00001   0.00000  -0.00003  -0.00003   0.00047
   D26        3.14103  -0.00001   0.00000  -0.00010  -0.00010   3.14093
   D27       -3.14007  -0.00000   0.00000   0.00024   0.00024  -3.13983
   D28        0.00046   0.00000   0.00000   0.00017   0.00017   0.00063
   D29        0.00048   0.00001   0.00000   0.00015   0.00015   0.00063
   D30       -3.14004  -0.00000   0.00000   0.00022   0.00022  -3.13982
   D31        3.14109   0.00000   0.00000  -0.00013  -0.00013   3.14097
   D32        0.00058  -0.00000   0.00000  -0.00006  -0.00006   0.00052
   D33       -1.92611   0.00017   0.00000   0.00247   0.00247  -1.92365
   D34        0.00552   0.00015   0.00000  -0.00140  -0.00140   0.00412
   D35        1.52863  -0.00052   0.00000  -0.00036  -0.00038   1.52825
   D36        2.18999  -0.00015   0.00000  -0.00407  -0.00408   2.18591
         Item               Value     Threshold  Converged?
 Maximum Force            0.011393     0.000450     NO 
 RMS     Force            0.003489     0.000300     NO 
 Maximum Displacement     0.033663     0.001800     NO 
 RMS     Displacement     0.010635     0.001200     NO 
 Predicted change in Energy=-1.019145D-03
 Lowest energy point so far.  Saving SCF results.
 GradGradGradGradGradGradGradGradGradGradGradGradGradGradGradGradGradGrad

 Leave Link  103 at Fri Aug 27 00:09:00 2021, MaxMem= 17179869184 cpu:        45.9
 (Enter /public3/home/sc51754/softwares/g09e01/l202.exe)
                          Input orientation:                          
 ---------------------------------------------------------------------
 Center     Atomic      Atomic             Coordinates (Angstroms)
 Number     Number       Type             X           Y           Z
 ---------------------------------------------------------------------
      1          8           0        1.226202    1.460439   -0.003726
      2          7           0        0.313497   -0.669460   -0.006109
      3          6           0        0.143450    0.661972   -0.000487
      4          6           0       -1.132434    1.263873    0.008345
      5          6           0       -0.781554   -1.454949   -0.005948
      6          6           0       -2.246935    0.437865    0.009677
      7          6           0       -2.079062   -0.956466    0.002009
      8          1           0        2.045600    0.898917   -0.016525
      9          1           0       -1.211503    2.349913    0.012175
     10          1           0       -0.594578   -2.531552   -0.013764
     11          1           0       -3.247270    0.873184    0.015476
     12          1           0       -2.932116   -1.633344    0.001163
     13          8           0        3.102287   -0.585974   -0.087281
     14          1           0        3.599543   -0.882846    0.689334
     15          1           0        2.207360   -1.005401   -0.024896
 ---------------------------------------------------------------------
                    Distance matrix (angstroms):
                    1          2          3          4          5
     1  O    0.000000
     2  N    2.317219   0.000000
     3  C    1.345330   1.342259   0.000000
     4  C    2.366844   2.414271   1.410760   0.000000
     5  C    3.539855   1.347638   2.310198   2.741407   0.000000
     6  C    3.620568   2.789664   2.400888   1.387228   2.393810
     7  C    4.094659   2.409725   2.749346   2.413721   1.389991
     8  H    0.993420   2.336685   1.916918   3.199018   3.678803
     9  H    2.594961   3.382687   2.164532   1.088921   3.829119
    10  H    4.387634   2.071725   3.277721   3.833409   1.092746
    11  H    4.511894   3.880628   3.397329   2.150632   3.391227
    12  H    5.182965   3.385725   3.837654   3.410685   2.157961
    13  O    2.777496   2.791219   3.212416   4.622114   3.980697
    14  H    3.406474   3.365601   3.847973   5.240588   4.472664
    15  H    2.653957   1.923519   2.653385   4.037937   3.022591
                    6          7          8          9         10
     6  C    0.000000
     7  C    1.404421   0.000000
     8  H    4.317303   4.522789   0.000000
     9  H    2.174409   3.418318   3.565800   0.000000
    10  H    3.398274   2.164448   4.328818   4.920362   0.000000
    11  H    1.090966   2.170832   5.293029   2.514972   4.316231
    12  H    2.181617   1.088975   5.584829   4.339005   2.504214
    13  O    5.447184   5.195345   1.823868   5.219013   4.178216
    14  H    6.032206   5.720523   2.467318   5.835703   4.561055
    15  H    4.682409   4.286786   1.911194   4.790420   3.190630
                   11         12         13         14         15
    11  H    0.000000
    12  H    2.526303   0.000000
    13  O    6.515870   6.125261   0.000000
    14  H    7.100462   6.610552   0.968776   0.000000
    15  H    5.769202   5.177761   0.990305   1.569495   0.000000
 Stoichiometry    C5H7NO2
 Framework group  C1[X(C5H7NO2)]
 Deg. of freedom    39
 Full point group                 C1      NOp   1
 RotChk:  IX=0 Diff= 2.27D-03
 Largest Abelian subgroup         C1      NOp   1
 Largest concise Abelian subgroup C1      NOp   1
                         Standard orientation:                         
 ---------------------------------------------------------------------
 Center     Atomic      Atomic             Coordinates (Angstroms)
 Number     Number       Type             X           Y           Z
 ---------------------------------------------------------------------
      1          8           0        1.226657    1.456978   -0.002831
      2          7           0        0.310607   -0.671484   -0.005581
      3          6           0        0.142650    0.660213    0.000016
      4          6           0       -1.132290    1.264117    0.008426
      5          6           0       -0.785676   -1.455252   -0.005815
      6          6           0       -2.248087    0.439861    0.009355
      7          6           0       -2.082402   -0.954731    0.001710
      8          1           0        2.045176    0.894170   -0.015364
      9          1           0       -1.209653    2.350280    0.012256
     10          1           0       -0.600390   -2.532147   -0.013594
     11          1           0       -3.247738    0.876752    0.014822
     12          1           0       -2.936519   -1.630268    0.000554
     13          8           0        3.099552   -0.592378   -0.085795
     14          1           0        3.596075   -0.890051    0.690983
     15          1           0        2.203947   -1.010400   -0.023727
 ---------------------------------------------------------------------
 Rotational constants (GHZ):      3.9609877      1.4087519      1.0416579
 Leave Link  202 at Fri Aug 27 00:09:00 2021, MaxMem= 17179869184 cpu:         7.0
 (Enter /public3/home/sc51754/softwares/g09e01/l301.exe)
 Basis read from rwf:  (5D, 7F)
 No pseudopotential information found on rwf file.
 There are   385 symmetry adapted cartesian basis functions of A   symmetry.
 There are   338 symmetry adapted basis functions of A   symmetry.
   338 basis functions,   566 primitive gaussians,   385 cartesian basis functions
    30 alpha electrons       30 beta electrons
       nuclear repulsion energy       355.6866728907 Hartrees.
 IExCor=  404 DFT=T Ex=B Corr=P86 ExCW=0 ScaHFX=  0.000000
 ScaDFX=  1.000000  1.000000  1.000000  1.000000 ScalE2=  1.000000  1.000000
 IRadAn=      0 IRanWt=     -1 IRanGd=            0 ICorTp=0 IEmpDi=  4
 NAtoms=   15 NActive=   15 NUniq=   15 SFac= 1.00D+00 NAtFMM=   60 NAOKFM=F Big=F
 Integral buffers will be    131072 words long.
 Raffenetti 2 integral format.
 Two-electron integral symmetry is turned on.
 No density basis found on file   724.
 Leave Link  301 at Fri Aug 27 00:09:00 2021, MaxMem= 17179869184 cpu:         0.9
 (Enter /public3/home/sc51754/softwares/g09e01/l302.exe)
 NPDir=0 NMtPBC=     1 NCelOv=     1 NCel=       1 NClECP=     1 NCelD=      1
         NCelK=      1 NCelE2=     1 NClLst=     1 CellRange=     0.0.
 One-electron integrals computed using PRISM.
 NBasis=   338 RedAO= T EigKep=  1.52D-04  NBF=   338
 NBsUse=   338 1.00D-06 EigRej= -1.00D+00 NBFU=   338
 Precomputing XC quadrature grid using
 IXCGrd= 4 IRadAn=           0 IRanWt=          -1 IRanGd=           0 AccXCQ= 0.00D+00.
 Generated NRdTot=       0 NPtTot=           0 NUsed=           0 NTot=          32
 NSgBfM=   384   384   384   384   385 MxSgAt=    15 MxSgA2=    15.
 Leave Link  302 at Fri Aug 27 00:09:01 2021, MaxMem= 17179869184 cpu:        45.9
 (Enter /public3/home/sc51754/softwares/g09e01/l303.exe)
 DipDrv:  MaxL=1.
 Leave Link  303 at Fri Aug 27 00:09:01 2021, MaxMem= 17179869184 cpu:        10.6
 (Enter /public3/home/sc51754/softwares/g09e01/l401.exe)
 Initial guess from the checkpoint file:  "HY_H2O_BP86_PC2_OPT_FREQ.chk"
 B after Tr=    -0.000000    0.000000    0.000000
         Rot=    1.000000   -0.000028    0.000013    0.000624 Ang=  -0.07 deg.
 Guess basis will be translated and rotated to current coordinates.
 JPrj=2 DoOrth=T DoCkMO=T.
 Generating alternative initial guess.
 ExpMin= 7.41D-02 ExpMax= 1.48D+04 ExpMxC= 5.05D+02 IAcc=2 IRadAn=         4 AccDes= 0.00D+00
 Harris functional with IExCor=  404 and IRadAn=       4 diagonalized for initial guess.
 HarFok:  IExCor=  404 AccDes= 0.00D+00 IRadAn=         4 IDoV= 1 UseB2=F ITyADJ=14
 ICtDFT=  3500011 ScaDFX=  1.000000  1.000000  1.000000  1.000000
 FoFCou: FMM=F IPFlag=           0 FMFlag=      100000 FMFlg1=           0
         NFxFlg=           0 DoJE=T BraDBF=F KetDBF=T FulRan=T
         wScrn=  0.000000 ICntrl=     500 IOpCl=  0 I1Cent=   200000004 NGrid=           0
         NMat0=    1 NMatS0=      1 NMatT0=    0 NMatD0=    1 NMtDS0=    0 NMtDT0=    0
 Petite list used in FoFCou.
 Harris En= -400.267898893155    
 Leave Link  401 at Fri Aug 27 00:09:03 2021, MaxMem= 17179869184 cpu:        80.5
 (Enter /public3/home/sc51754/softwares/g09e01/l502.exe)
 Closed shell SCF:
 Using DIIS extrapolation, IDIIS=  1040.
 Integral symmetry usage will be decided dynamically.
 Keep J ints in memory in canonical form, NReq=1670404686.
 IVT=      490665 IEndB=      490665 NGot= 17179869184 MDV= 15538220534
 LenX= 15538220534 LenY= 15538071868
 Requested convergence on RMS density matrix=1.00D-08 within 128 cycles.
 Requested convergence on MAX density matrix=1.00D-06.
 Requested convergence on             energy=1.00D-06.
 No special actions if energy rises.
 FoFCou: FMM=F IPFlag=           0 FMFlag=           0 FMFlg1=           0
         NFxFlg=           0 DoJE=F BraDBF=F KetDBF=F FulRan=T
         wScrn=  0.000000 ICntrl=     600 IOpCl=  0 I1Cent=           0 NGrid=           0
         NMat0=    1 NMatS0=  57291 NMatT0=    0 NMatD0=    1 NMtDS0=    0 NMtDT0=    0
 Symmetry not used in FoFCou.
 Integral accuracy reduced to 1.0D-05 until final iterations.

 Cycle   1  Pass 0  IDiag  1:
 E= -400.144569759253    
 DIIS: error= 7.07D-04 at cycle   1 NSaved=   1.
 NSaved= 1 IEnMin= 1 EnMin= -400.144569759253     IErMin= 1 ErrMin= 7.07D-04
 ErrMax= 7.07D-04  0.00D+00 EMaxC= 1.00D-01 BMatC= 3.30D-04 BMatP= 3.30D-04
 IDIUse=3 WtCom= 9.93D-01 WtEn= 7.07D-03
 Coeff-Com:  0.100D+01
 Coeff-En:   0.100D+01
 Coeff:      0.100D+01
 Gap=     0.545 Goal=   None    Shift=    0.000
 RMSDP=6.05D-05 MaxDP=2.20D-03              OVMax= 3.70D-03

 Cycle   2  Pass 0  IDiag  1:
 E= -400.144799153434     Delta-E=       -0.000229394182 Rises=F Damp=F
 DIIS: error= 3.55D-04 at cycle   2 NSaved=   2.
 NSaved= 2 IEnMin= 2 EnMin= -400.144799153434     IErMin= 2 ErrMin= 3.55D-04
 ErrMax= 3.55D-04  0.00D+00 EMaxC= 1.00D-01 BMatC= 5.71D-05 BMatP= 3.30D-04
 IDIUse=3 WtCom= 9.96D-01 WtEn= 3.55D-03
 Coeff-Com:  0.229D+00 0.771D+00
 Coeff-En:   0.000D+00 0.100D+01
 Coeff:      0.228D+00 0.772D+00
 Gap=     0.147 Goal=   None    Shift=    0.000
 RMSDP=3.00D-05 MaxDP=1.37D-03 DE=-2.29D-04 OVMax= 2.02D-03

 Cycle   3  Pass 0  IDiag  1:
 E= -400.144809863335     Delta-E=       -0.000010709901 Rises=F Damp=F
 DIIS: error= 3.07D-04 at cycle   3 NSaved=   3.
 NSaved= 3 IEnMin= 3 EnMin= -400.144809863335     IErMin= 3 ErrMin= 3.07D-04
 ErrMax= 3.07D-04  0.00D+00 EMaxC= 1.00D-01 BMatC= 4.60D-05 BMatP= 5.71D-05
 IDIUse=3 WtCom= 9.97D-01 WtEn= 3.07D-03
 Coeff-Com:  0.439D-01 0.471D+00 0.485D+00
 Coeff-En:   0.000D+00 0.446D+00 0.554D+00
 Coeff:      0.438D-01 0.471D+00 0.486D+00
 Gap=     0.147 Goal=   None    Shift=    0.000
 RMSDP=1.46D-05 MaxDP=7.94D-04 DE=-1.07D-05 OVMax= 1.23D-03

 Cycle   4  Pass 0  IDiag  1:
 E= -400.144846509424     Delta-E=       -0.000036646088 Rises=F Damp=F
 DIIS: error= 8.37D-05 at cycle   4 NSaved=   4.
 NSaved= 4 IEnMin= 4 EnMin= -400.144846509424     IErMin= 4 ErrMin= 8.37D-05
 ErrMax= 8.37D-05  0.00D+00 EMaxC= 1.00D-01 BMatC= 2.54D-06 BMatP= 4.60D-05
 IDIUse=1 WtCom= 1.00D+00 WtEn= 0.00D+00
 Coeff-Com:  0.100D-01 0.218D+00 0.278D+00 0.494D+00
 Coeff:      0.100D-01 0.218D+00 0.278D+00 0.494D+00
 Gap=     0.147 Goal=   None    Shift=    0.000
 RMSDP=4.30D-06 MaxDP=2.08D-04 DE=-3.66D-05 OVMax= 6.87D-04

 Initial convergence to 1.0D-05 achieved.  Increase integral accuracy.
 Cycle   5  Pass 1  IDiag  1:
 E= -400.144902152935     Delta-E=       -0.000055643512 Rises=F Damp=F
[...]
   A10        2.13610  -0.00001   0.00000  -0.00007  -0.00007   2.13603
   A11        2.15360   0.00000   0.00000   0.00001   0.00001   2.15361
   A12        2.01866  -0.00000   0.00000  -0.00001  -0.00001   2.01865
   A13        2.11093   0.00000   0.00000  -0.00000  -0.00000   2.11093
   A14        2.08959   0.00000   0.00000   0.00003   0.00003   2.08962
   A15        2.09254  -0.00000   0.00000  -0.00003  -0.00003   2.09251
   A16        2.10106  -0.00000   0.00000  -0.00000  -0.00000   2.10105
   A17        2.05754  -0.00000   0.00000  -0.00004  -0.00004   2.05751
   A18        2.10348   0.00001   0.00000   0.00007   0.00007   2.10355
   A19        2.12216  -0.00000   0.00000  -0.00003  -0.00003   2.12213
   A20        2.79587  -0.00001   0.00000   0.00025   0.00025   2.79612
   A21        2.23358  -0.00001   0.00000   0.00027   0.00027   2.23386
   A22        2.03793  -0.00003   0.00000  -0.00285  -0.00285   2.03508
   A23        1.84992  -0.00001   0.00000  -0.00023  -0.00023   1.84969
   A24        1.36687  -0.00001   0.00000  -0.00055  -0.00055   1.36632
   A25        2.55819  -0.00002   0.00000  -0.00115  -0.00115   2.55703
    D1        0.00524   0.00000   0.00000   0.00042   0.00042   0.00566
    D2       -3.13567   0.00000   0.00000   0.00039   0.00039  -3.13529
    D3        0.08236  -0.00000   0.00000  -0.00448  -0.00448   0.07788
    D4        0.00054  -0.00000   0.00000  -0.00188  -0.00188  -0.00133
    D5       -3.13850  -0.00000   0.00000  -0.00005  -0.00005  -3.13855
    D6        0.00238  -0.00000   0.00000  -0.00001  -0.00001   0.00237
    D7       -0.00782   0.00000   0.00000   0.00094   0.00094  -0.00687
    D8        3.13307   0.00000   0.00000   0.00098   0.00098   3.13405
    D9       -0.00192   0.00000   0.00000  -0.00003  -0.00003  -0.00195
   D10        3.13840   0.00000   0.00000  -0.00005  -0.00005   3.13835
   D11       -3.12862  -0.00000   0.00000  -0.00139  -0.00139  -3.13001
   D12        0.01170  -0.00000   0.00000  -0.00141  -0.00141   0.01029
   D13        0.00554  -0.00000   0.00000  -0.00123  -0.00123   0.00431
   D14       -0.07505  -0.00001   0.00000  -0.00176  -0.00176  -0.07680
   D15        3.13347   0.00000   0.00000   0.00002   0.00002   3.13349
   D16        3.05288  -0.00001   0.00000  -0.00051  -0.00051   3.05237
   D17        3.13947   0.00000   0.00000   0.00008   0.00008   3.13955
   D18       -0.00016   0.00000   0.00000   0.00007   0.00007  -0.00009
   D19       -0.00141   0.00000   0.00000   0.00005   0.00005  -0.00137
   D20       -3.14104   0.00000   0.00000   0.00003   0.00003  -3.14101
   D21       -0.00009   0.00000   0.00000  -0.00003  -0.00003  -0.00012
   D22       -3.14041  -0.00000   0.00000  -0.00004  -0.00004  -3.14045
   D23        3.13948   0.00000   0.00000  -0.00002  -0.00002   3.13946
   D24       -0.00085  -0.00000   0.00000  -0.00003  -0.00003  -0.00087
   D25        0.00048   0.00000   0.00000   0.00004   0.00004   0.00052
   D26        3.14087   0.00000   0.00000   0.00002   0.00002   3.14089
   D27       -3.13977   0.00000   0.00000   0.00006   0.00006  -3.13971
   D28        0.00062   0.00000   0.00000   0.00003   0.00003   0.00065
   D29        0.00053  -0.00000   0.00000  -0.00001  -0.00001   0.00052
   D30       -3.13984  -0.00000   0.00000   0.00002   0.00002  -3.13983
   D31        3.14084   0.00000   0.00000   0.00000   0.00000   3.14085
   D32        0.00047   0.00000   0.00000   0.00003   0.00003   0.00050
   D33       -1.91230  -0.00000   0.00000   0.00355   0.00355  -1.90875
   D34       -0.00411   0.00000   0.00000   0.00208   0.00208  -0.00203
   D35        1.49940   0.00001   0.00000  -0.00002  -0.00002   1.49939
   D36        2.09210  -0.00001   0.00000  -0.00223  -0.00223   2.08987
         Item               Value     Threshold  Converged?
 Maximum Force            0.000028     0.000450     YES
 RMS     Force            0.000008     0.000300     YES
 Maximum Displacement     0.005023     0.001800     NO 
 RMS     Displacement     0.000897     0.001200     YES
 Predicted change in Energy=-1.264733D-07
 GradGradGradGradGradGradGradGradGradGradGradGradGradGradGradGradGradGrad

 Leave Link  103 at Fri Aug 27 00:14:04 2021, MaxMem= 17179869184 cpu:        75.7
 (Enter /public3/home/sc51754/softwares/g09e01/l9999.exe)
 1\1\GINC-S1512\Freq\RBP86\Gen\C5H7N1O2\SC51754\27-Aug-2021\0\\#P Geom=
 AllCheck Guess=TCheck SCRF=Check GenChk RBP86/ChkBas Freq\\HY_H2O_BP86
 _PC2_OPT_FREQ\\0,1\O,1.2487160288,1.4442933459,-0.0075407333\N,0.32793
 11346,-0.6810245165,-0.0113791868\C,0.1613554791,0.6549073515,-0.00215
 73082\C,-1.1129852541,1.2579182637,0.0121154133\C,-0.7706901856,-1.461
 7094673,-0.0095128318\C,-2.2290692877,0.4349723758,0.0149854289\C,-2.0
 658848675,-0.9590939328,0.0036625358\H,2.06557429,0.8607471362,-0.0233
 520371\H,-1.1891766615,2.3441541335,0.0185896942\H,-0.5859526932,-2.53
 85029083,-0.0203983568\H,-3.2279951638,0.8735305149,0.0248121335\H,-2.
 9208264624,-1.6335282111,0.0039218042\O,3.0550977949,-0.5681333135,-0.
 0982315674\H,3.5128697233,-0.8257659271,0.7173940484\H,2.1435231251,-0
 .976592845,-0.0434670367\\Version=EM64L-G09RevE.01\State=1-A\HF=-400.1
 452517\RMSD=5.497e-09\RMSF=1.582e-05\ZeroPoint=0.1149241\Thermal=0.122
 7761\Dipole=-0.7204661,-0.478031,0.5378041\DipoleDeriv=-1.5269445,-0.4
 307316,-0.0014866,-0.3482354,-0.6437486,0.002621,-0.0031391,0.0050395,
 -0.3092905,-0.8698501,0.1063888,0.0006378,-0.3675494,-0.5480711,0.0001
 28,-0.0111976,0.0023314,-0.2164093,1.4325473,0.6822086,-0.0048856,0.57
 31247,0.596264,-0.0027134,-0.0084959,-0.0039202,0.1658501,-0.4961674,-
 0.346042,-0.0006967,0.1131865,0.0268246,0.0001019,0.0069855,0.0010468,
 -0.1385241,0.4680557,-0.2092958,-0.0041065,0.2207372,0.314414,0.007013
 7,-0.002356,0.0065952,-0.0287892,0.2293272,0.0815547,-0.0017904,0.0462
 784,0.369974,0.0028858,-0.001818,0.002471,-0.096354,-0.1966495,0.26279
 14,0.0012653,0.0416558,-0.317529,-0.0019848,0.0039658,-0.0024229,-0.14
 94118,0.8060034,-0.1915527,0.0004027,-0.4176026,0.4037321,-0.0084256,-
 0.0007355,-0.0121943,0.2467734,0.0665288,0.0049129,0.0002459,0.0117922
 ,-0.0464032,-0.0011619,0.0010296,-0.0008279,0.1449003,0.0576153,0.0272
 135,0.0000784,-0.0182737,-0.1031482,-0.0016929,-0.0012112,-0.0015252,0
 .1099805,-0.055523,0.0611195,0.0014936,0.0632349,0.0562581,-0.0009263,
 0.0007517,-0.0008171,0.1238414,-0.0280833,-0.0740366,0.0001935,-0.0723
 544,0.0049835,-0.0004559,0.0003374,-0.0007206,0.1486486,-1.2397107,0.1
 700601,-0.0076072,0.1676504,-0.5747744,-0.1043732,0.0457415,-0.0863505
 ,-0.34326,0.3049315,-0.0150817,-0.0046922,0.0083894,0.2644638,0.064039
 8,-0.0367894,0.0517225,0.1616631,1.0479191,-0.1295092,0.0209481,-0.022
 0339,0.1967603,0.044944,0.0069312,0.0395724,0.1803814\Polar=104.790510
 8,2.4285552,88.0745072,0.8858981,-0.0579802,45.7295651\PG=C01 [X(C5H7N
 1O2)]\NImag=0\\0.54493095,-0.02904290,0.38452343,-0.00686544,0.0031407
 9,0.03929114,0.01275762,-0.04854765,-0.00011590,0.45894553,-0.02379312
 ,-0.05749984,-0.00032116,0.11264060,0.57419905,0.00005673,0.00005182,0
 .00674573,-0.00148616,0.00260941,0.08418484,-0.24362477,-0.07436757,0.
 00201501,-0.14365871,0.02412061,0.00040834,0.70335151,-0.10633620,-0.1
 6525990,0.00072729,0.04321786,-0.27716443,-0.00171048,0.00940174,0.629
 87302,0.00105031,-0.00028511,-0.04889760,0.00083943,-0.00138514,-0.064
 91141,-0.00444214,0.00274554,0.17326671,-0.06236602,0.00635219,0.00052
 540,0.02420594,0.06682205,0.00048965,-0.23461175,0.04327635,0.00158938
 ,0.63658345,-0.02888544,0.01639390,0.00031229,0.03037629,-0.02854211,-
 0.00052128,0.10011447,-0.15118345,-0.00135878,0.03090542,0.72120458,0.
 00059791,0.00018864,0.00879773,-0.00006550,-0.00073641,0.01638148,0.00
 197795,-0.00110930,-0.06992387,-0.00387296,0.00338052,0.11208822,-0.00
 798457,0.00845402,0.00010533,-0.25151293,-0.09189298,0.00092155,0.0400
 7316,-0.07059747,-0.00080555,-0.05679879,-0.00118446,0.00037740,0.6370
 6221,0.00055677,0.00013572,-0.00009336,-0.10596865,-0.18186170,-0.0001
 7665,-0.02724762,-0.06623836,-0.00014046,-0.00852238,0.00029463,0.0000
 7401,-0.03060851,0.71109138,0.00013412,-0.00008421,0.00943060,0.000558
 48,-0.00040675,-0.05621492,-0.00055866,0.00007841,-0.00376598,0.000313
 59,0.00007056,-0.00424079,-0.00374541,0.00491134,0.14182401,0.00243295
 ,0.00319038,0.00006845,-0.00690507,-0.01954750,-0.00018367,-0.05328533
 ,0.00432435,0.00047612,-0.27165468,-0.13552013,0.00073238,0.01491598,0
 .03520569,0.00024219,0.70465889,0.01507742,-0.00545408,-0.00010725,-0.
 02789466,-0.05128699,-0.00013882,-0.03715588,0.06227782,0.00068046,-0.
 08619678,-0.20176862,-0.00023995,0.07704816,-0.01534510,-0.00072583,-0
 .01579421,0.63859897,0.00009333,-0.00006986,0.00406524,-0.00013807,-0.
 00016445,-0.00676421,0.00015293,0.00039041,0.00146888,0.00099653,0.000
 03850,-0.05218595,0.00047130,-0.00039297,0.00731915,-0.00421748,0.0035
 9575,0.13086045,0.00300593,-0.00561387,-0.00003981,-0.06595875,-0.0465
 4717,0.00024971,-0.02488464,0.04112473,0.00035938,0.03721075,-0.025006
 94,-0.00035954,-0.29302905,0.10347452,0.00243914,-0.11996905,-0.003947
 38,0.00039687,0.68652495,-0.01036428,0.00050454,0.00003496,0.00163150,
 0.04965914,0.00027835,0.02943029,-0.03597774,-0.00043561,-0.05501462,-
 0.03564201,0.00012336,0.04798032,-0.15266395,-0.00112376,0.04933981,-0
 .30615556,-0.00216713,0.04437043,0.65148677,-0.00008696,0.00006379,-0.
 00137665,0.00047360,0.00054223,0.01962915,0.00033748,-0.00051654,-0.00
 798145,-0.00057969,-0.00015287,0.00636404,0.00200895,-0.00146916,-0.06
 133737,0.00075702,-0.00186472,-0.05713900,-0.00359960,0.00390682,0.111
 15886,-0.22818189,0.12856824,0.00395712,0.00057532,0.00974261,-0.00015
 435,-0.05303872,0.00259638,0.00062791,0.00366312,-0.00234174,-0.000032
 30,0.00033749,0.00066614,-0.00001691,-0.00158990,-0.00105563,0.0000339
 1,0.00038226,0.00185790,0.00003739,0.26939022,0.15970466,-0.16415983,-
 0.00376186,0.00266848,-0.00331191,0.00007623,-0.01456812,0.02660241,0.
 00049212,-0.00855930,-0.00422611,0.00004735,-0.00166749,-0.00191310,-0
 .00002352,0.00038492,0.00354999,-0.00001044,0.00110065,-0.00216220,-0.
 00002485,-0.12495790,0.15041740,0.00565974,-0.00395728,-0.01943518,-0.
 00016727,0.00005569,-0.00260173,-0.00011166,-0.00013898,-0.00093539,0.
 00008043,-0.00001817,0.00380465,0.00001404,-0.00000516,-0.00072010,-0.
 00002300,-0.00003341,0.00150471,-0.00001737,0.00001215,0.00038822,-0.0
 0464294,0.00508923,0.02699791,0.00178385,-0.00069165,-0.00002955,-0.00
 576107,0.00456839,0.00010083,0.00415047,0.02678052,0.00012639,-0.05573
 360,0.02110337,0.00032013,-0.00195169,-0.00125310,0.00000247,0.0064075
 4,-0.02503036,-0.00017526,-0.00355162,-0.00254353,0.00007154,-0.000264
 39,0.00017781,-0.00001562,0.05286196,-0.00054441,0.00104437,0.00002191
 ,0.00280121,-0.00006142,-0.00005555,-0.00331712,-0.01045789,-0.0000295
 1,0.02274331,-0.32415728,-0.00178565,0.00054965,0.00100595,0.00001095,
 0.00312726,-0.01226599,-0.00010057,-0.00340257,0.00108376,-0.00000737,
 0.00024491,-0.00010666,0.00000605,-0.02216344,0.34357409,-0.00003238,0
 .00000144,-0.00168486,0.00012030,-0.00009378,0.00530529,-0.00006274,-0
 .00026517,0.00187387,0.00034231,-0.00168556,-0.03105869,0.00003317,0.0
 0002712,-0.00041806,-0.00002750,0.00006591,0.00147784,0.00005044,-0.00
 003047,0.00825479,-0.00000788,0.00000784,-0.00065144,-0.00035293,0.001
 92535,0.02220831,-0.00036363,-0.00125096,0.00000062,0.00173241,-0.0317
 5847,-0.00030498,-0.00250786,-0.00352156,0.00006510,-0.00059997,-0.000
 71133,-0.00000452,-0.06390307,0.05492940,0.00063052,-0.00539379,0.0013
 4551,0.00009706,0.00072021,0.02711028,0.00026440,0.00046521,-0.0002085
 1,-0.00000299,0.00018100,-0.00001044,-0.00001372,0.06911510,-0.0002743
 4,-0.00107997,-0.00000393,-0.00688450,-0.02061136,-0.00010094,-0.00216
 547,0.00174154,-0.00008884,-0.00000350,0.00043659,0.00001260,0.0534445
 6,-0.30155198,-0.00267935,0.00247392,0.00078486,-0.00008103,-0.0004909
 8,-0.00690894,-0.00010820,0.00037787,-0.00003458,-0.00000461,0.0000987
 2,-0.00011552,0.00001417,-0.04681947,0.32746969,-0.00000123,-0.0000004
 6,0.00039867,-0.00001999,0.00016650,-0.00339662,0.00009222,-0.00002533
 ,0.00933770,-0.00000536,0.00002004,-0.00067845,0.00058564,-0.00286456,
 -0.03738735,0.00009248,-0.00004128,0.00698591,0.00005311,-0.00027089,0
 .00597854,-0.00001096,-0.00000084,-0.00017795,-0.00001521,0.00000705,-
 0.00159108,-0.00067706,0.00300176,0.02425316,-0.00165527,0.00078059,0.
 00001999,0.00021048,-0.00058338,-0.00002529,-0.00099169,-0.00386220,0.
 00004198,-0.01814914,0.01167450,0.00022905,0.00177777,0.00066218,0.000
 03494,-0.27713347,0.09729644,0.00230536,0.00034008,-0.00059403,0.00001
 890,0.00004453,-0.00044609,-0.00000685,0.00105831,-0.00014836,-0.00004
 005,-0.00009863,-0.00013799,-0.00000315,0.29406405,-0.00092635,0.00060
 282,0.00001650,-0.00076153,-0.00026421,0.00002205,-0.00326246,-0.00169
 893,-0.00004600,-0.01707600,0.01064771,0.00015211,-0.00030212,-0.00620
 884,-0.00009431,0.09790047,-0.09823963,-0.00107430,0.02824717,-0.00640
 695,-0.00026236,-0.00017832,-0.00022465,0.00000296,0.00046863,0.000826
 94,0.00002907,0.00152531,-0.00045192,-0.00000868,-0.10508186,0.1002737
 0,-0.00000981,-0.00001607,-0.00033215,-0.00000932,0.00002230,-0.002934
 89,0.00006213,-0.00002937,0.00945933,0.00006274,-0.00001654,0.00447297
 ,0.00003529,-0.00010976,0.00688843,0.00226283,-0.00105737,-0.03793192,
 0.00023497,-0.00008158,0.00414823,-0.00000571,0.00000133,-0.00045364,-
 0.00003792,0.00002497,-0.00433588,0.00000775,-0.00000016,-0.00036400,-
 0.00256147,0.00122664,0.02463665,0.00034921,-0.00038562,-0.00000968,-0
 .00501891,0.00250049,0.00011018,-0.00037381,0.00202741,0.00001331,0.00
 119378,0.00144162,0.00003590,-0.01556241,-0.02085148,-0.00008002,0.006
 86310,0.00460551,-0.00000380,-0.22193875,-0.13152741,0.00023942,0.0000
 2575,0.00026031,-0.00000371,0.00024959,0.00038329,0.00000310,0.0006233
 1,0.00032320,-0.00002004,0.00062681,-0.00049101,-0.00002683,0.23282173
 ,-0.00031984,0.00042193,0.00001283,0.00319252,0.00060171,-0.00008362,0
 .00132452,-0.00129849,-0.00001831,0.00225852,-0.00462859,-0.00009788,0
 .00980185,0.01015884,0.00002595,-0.02468465,-0.01311333,0.00005350,-0.
 13207588,-0.15731450,-0.00014923,0.00004321,-0.00013721,0.00000178,-0.
 00125411,-0.00052285,0.00000213,-0.00053857,0.00044424,0.00003320,0.00
 029153,0.00107498,0.00003149,0.14200082,0.16417350,-0.00001793,0.00000
 181,-0.00125050,0.00011772,-0.00007769,0.00777596,0.00001367,-0.000013
 79,0.00024513,0.00005384,-0.00008175,0.00598006,0.00017543,0.00023974,
 -0.00109574,-0.00022011,-0.00011637,0.00045426,0.00019876,-0.00020291,
 -0.02867196,0.00000345,-0.00000299,-0.00002629,-0.00000919,-0.00000910
 ,0.00060004,-0.00002962,0.00003469,-0.00314351,-0.00002232,0.00003646,
 -0.00320507,-0.00026093,0.00018689,0.02224740,-0.00867814,0.01318779,0
 .00014471,-0.02332602,-0.00360726,-0.00084880,-0.00146953,-0.00238192,
 0.00015213,-0.00031438,0.00093263,0.00014546,-0.00073914,0.00702333,0.
 00005726,-0.00021443,-0.00034241,-0.00002265,-0.00225201,-0.00106091,0
 .00013358,-0.00296948,-0.00680965,-0.00014888,-0.00040396,0.00028905,0
 .00000060,-0.00023827,-0.00077968,-0.00006951,-0.00019750,0.00002516,-
 0.00001962,-0.00074421,0.00014710,0.00001315,0.47107529,0.02599847,-0.
 00820423,0.00184428,-0.00365797,0.00838147,-0.00046819,-0.01278730,-0.
 01190368,-0.00002194,0.00398151,0.00239199,-0.00017783,0.00113386,0.00
 110488,-0.00001981,-0.00053271,-0.00186195,-0.00002503,-0.00064273,0.0
 0130900,0.00003799,-0.01367481,0.00540473,-0.00629183,-0.00059588,0.00
 024927,-0.00000193,0.00030797,0.00006947,-0.00001125,0.00017236,0.0000
 9877,0.00002519,-0.00011827,0.00011198,0.00000804,0.08340554,0.1393857
 4,-0.00226440,0.00271784,0.00564740,-0.00171643,0.00008247,0.00686369,
 0.00024278,-0.00039575,-0.00051389,-0.00000394,0.00003219,-0.00081198,
 0.00005226,-0.00008766,0.00022938,-0.00000857,-0.00007686,0.00008128,-
 0.00002961,0.00008702,-0.00064333,0.00136719,-0.00364039,-0.01084499,0
 .00001024,-0.00000391,0.00003156,0.00003273,0.00001183,0.00022945,0.00
 001021,0.00000449,0.00010643,-0.00000796,-0.00000815,-0.00007201,0.168
 62474,-0.13695262,0.39218506,0.00090640,0.00059563,0.00070600,-0.00206
 794,-0.00071504,0.00221760,-0.00068980,-0.00053188,-0.00030240,0.00014
 768,0.00006409,-0.00025505,-0.00053164,0.00028920,0.00003080,-0.000000
 37,-0.00005390,0.00003419,-0.00003744,-0.00012240,-0.00021603,-0.00161
 730,0.00036027,-0.00139277,0.00000448,0.00001389,0.00000227,-0.0000493
 1,-0.00004726,0.00008139,0.00001982,-0.00000315,0.00003631,-0.00002827
 ,0.00001880,-0.00001857,-0.13031514,0.03446639,-0.16414296,0.14785806,
 0.00264196,-0.00264352,-0.00177235,-0.00126620,0.00030663,0.00042004,-
 0.00018272,-0.00054549,0.00004345,0.00010805,0.00008764,0.00011369,0.0
 0004595,0.00036799,-0.00000857,0.00001541,-0.00002179,0.00001393,-0.00
 009091,-0.00006349,-0.00000951,-0.00130431,0.00339955,0.00513539,-0.00
 002226,0.00001188,0.00000473,-0.00005410,-0.00007229,-0.00002105,0.000
 01118,-0.00000031,-0.00001935,-0.00003221,0.00000522,-0.00000021,0.056
 00069,-0.05193661,0.12212582,-0.04789701,0.04733737,0.00272622,-0.0021
 9099,-0.00017820,0.00136301,-0.00003378,0.00000641,-0.00061174,-0.0002
 0499,0.00002414,0.00015116,0.00001133,-0.00001239,-0.00001916,-0.00004
 180,0.00001125,0.00001002,-0.00001141,-0.00000556,0.00007177,0.0000092
 3,-0.00001210,-0.00214500,0.00311586,0.00034081,-0.00000060,0.00000126
 ,0.00000708,-0.00002364,0.00001809,0.00001763,0.00000803,-0.00000241,0
 .00000693,0.00002378,0.00000821,0.00000624,-0.20474482,0.10700219,-0.3
 5014867,0.19866112,-0.11022938,0.35175725,-0.01331264,-0.00122862,-0.0
 0048223,0.00578212,-0.00194981,-0.00155133,0.01156147,0.01448189,0.000
 20865,-0.00277639,-0.00296236,0.00017368,-0.00215331,-0.00835548,-0.00
 004250,0.00086763,0.00209818,-0.00002421,0.00343713,-0.00049334,0.0001
 4001,0.01277777,-0.00744003,0.00077885,0.00096912,-0.00056624,-0.00001
 498,0.00031730,0.00088492,-0.00008234,0.00008384,-0.00008393,-0.000031
 34,0.00091306,-0.00020583,0.00000268,-0.29921307,-0.11745644,-0.002166
 30,-0.01359925,-0.00797352,0.00452986,0.29434523,-0.00349238,0.0006746
 6,-0.00005095,-0.00154731,-0.01254404,-0.00020239,0.01066263,0.0012335
 9,-0.00015188,-0.00107483,-0.00130887,0.00005473,-0.00220533,0.0016236
 6,0.00006888,0.00011699,0.00030140,-0.00000629,-0.00049907,-0.00074788
 ,0.00001397,-0.00058456,-0.01309781,0.00014617,0.00035689,-0.00010866,
 -0.00000086,-0.00034504,-0.00011983,0.00001578,-0.00003489,-0.00002948
 ,-0.00000171,-0.00013662,0.00002256,-0.00000281,-0.14602946,-0.0846008
 5,0.01610369,0.01356237,0.00376722,0.00254858,0.13125061,0.10493433,-0
 .00104022,0.00043786,-0.00122136,0.00024610,-0.00025945,-0.01006878,0.
 00048443,0.00046803,0.00125381,-0.00014308,-0.00003048,0.00102295,-0.0
 0021024,0.00012932,-0.00052251,0.00003886,0.00007113,-0.00019109,-0.00
 000823,-0.00013953,0.00124003,0.00098910,-0.00136508,0.00281041,0.0000
 0470,-0.00000588,-0.00001878,-0.00004165,-0.00002610,-0.00046211,-0.00
 000933,-0.00000222,-0.00016143,-0.00001271,0.00000122,0.00015599,0.036
 58266,0.03505274,-0.04233939,-0.03544189,-0.01579663,-0.00182083,-0.00
 143850,-0.01853491,0.05032308\\0.00004102,0.00000589,-0.00001575,0.000
 01979,-0.00001806,0.00001144,-0.00001497,-0.00000287,-0.00000019,0.000
 00152,-0.00000334,0.00000075,-0.00001960,-0.00000543,-0.00000089,-0.00
 000596,0.00000568,0.00000158,0.00000577,0.00000709,-0.00000374,-0.0000
 4022,-0.00000792,0.00000734,0.00000983,0.00000100,0.00000027,-0.000004
 60,0.00000290,0.00000220,0.00000455,0.00000147,-0.00000126,0.00000098,
 -0.00000037,-0.00000087,0.00001815,-0.00000993,0.00004396,0.00000537,-
 0.00001614,-0.00002282,-0.00002164,0.00004004,-0.00002202\\\@


 HAPPINESS IS NOT HAVING WHAT YOU WANT --
 HAPPINESS IS WANTING WHAT YOU HAVE!

              -- FROM MRS. SEVERN'S DESK
 Job cpu time:       0 days  0 hours 58 minutes 30.0 seconds.
 File lengths (MBytes):  RWF=    137 Int=      0 D2E=      0 Chk=      9 Scr=      1
 Normal termination of Gaussian 09 at Fri Aug 27 00:14:04 2021.
