 Entering Gaussian System, Link 0=g09
 AtFile(1): pc-2.gbs
            -H     0
            S    4   1.00
                  0.754230D+02           0.240650D-02
                  0.113500D+02           0.184870D-01
                  0.259930D+01           0.897420D-01
                  0.735130D+00           0.281110D+00
            S    1   1.00
                  0.231670D+00           0.100000D+01
            S    1   1.00
                  0.741470D-01           0.100000D+01
            P    1   1.00
                  0.160000D+01           0.100000D+01
            P    1   1.00
                  0.450000D+00           0.100000D+01
            D    1   1.00
                  0.125000D+01           0.100000D+01
            ****
            -C     0
            S    7   1.00
                  0.785710D+04           0.568250D-03
                  0.117870D+04           0.439150D-02
                  0.268320D+03           0.225040D-01
                  0.759480D+02           0.866530D-01
                  0.245590D+02           0.244050D+00
                  0.862120D+01           0.441480D+00
                  0.312780D+01           0.353320D+00
            S    7   1.00
                  0.117870D+04          -0.594920D-06
                  0.268320D+03          -0.627480D-04
                  0.759480D+02          -0.757730D-03
                  0.245590D+02          -0.733080D-02
                  0.862120D+01          -0.389320D-01
                  0.312780D+01          -0.889080D-01
                  0.822020D+00           0.216890D+00
            S    1   1.00
                  0.330170D+00           0.100000D+01
            S    1   1.00
                  0.114630D+00           0.100000D+01
            P    4   1.00
                  0.337750D+02           0.602940D-02
                  0.767660D+01           0.432280D-01
                  0.223570D+01           0.163010D+00
                  0.764470D+00           0.365040D+00
            P    1   1.00
                  0.262320D+00           0.100000D+01
            P    1   1.00
                  0.846380D-01           0.100000D+01
            D    1   1.00
                  0.140000D+01           0.100000D+01
            D    1   1.00
                  0.450000D+00           0.100000D+01
            F    1   1.00
                  0.950000D+00           0.100000D+01
            ****
            -N     0
            S    7   1.00
                  0.111010D+05           0.545700D-03
                  0.166530D+04           0.421810D-02
                  0.379080D+03           0.216450D-01
                  0.107300D+03           0.837760D-01
                  0.347470D+02           0.238810D+00
                  0.122490D+02           0.439940D+00
                  0.447430D+01           0.363640D+00
            S    7   1.00
                  0.166530D+04          -0.150060D-05
                  0.379080D+03          -0.587530D-04
                  0.107300D+03          -0.774530D-03
                  0.347470D+02          -0.721610D-02
                  0.122490D+02          -0.393380D-01
                  0.447430D+01          -0.906110D-01
                  0.124040D+01           0.198820D+00
            S    1   1.00
                  0.487430D+00           0.100000D+01
            S    1   1.00
                  0.164840D+00           0.100000D+01
            P    4   1.00
                  0.479340D+02           0.617060D-02
                  0.109990D+02           0.442600D-01
                  0.324720D+01           0.168250D+00
                  0.111140D+01           0.368480D+00
            P    1   1.00
                  0.379880D+00           0.100000D+01
            P    1   1.00
                  0.120680D+00           0.100000D+01
            D    1   1.00
                  0.180000D+01           0.100000D+01
            D    1   1.00
                  0.550000D+00           0.100000D+01
            F    1   1.00
                  0.102000D+01           0.100000D+01
            ****
            -O     0
            S    7   1.00
                  0.147820D+05           0.535190D-03
                  0.221730D+04           0.413750D-02
                  0.504740D+03           0.212450D-01
                  0.142870D+03           0.824530D-01
                  0.463000D+02           0.236710D+00
                  0.163370D+02           0.440390D+00
                  0.598280D+01           0.364650D+00
            S    7   1.00
                  0.221730D+04          -0.192750D-05
                  0.504740D+03          -0.579640D-04
                  0.142870D+03          -0.794940D-03
                  0.463000D+02          -0.731250D-02
                  0.163370D+02          -0.405740D-01
                  0.598280D+01          -0.915940D-01
                  0.167180D+01           0.209400D+00
            S    1   1.00
                  0.646620D+00           0.100000D+01
            S    1   1.00
                  0.216690D+00           0.100000D+01
            P    4   1.00
                  0.604240D+02           0.689490D-02
                  0.139350D+02           0.490050D-01
                  0.415310D+01           0.182550D+00
                  0.141580D+01           0.376330D+00
            P    1   1.00
                  0.475490D+00           0.100000D+01
            P    1   1.00
                  0.145290D+00           0.100000D+01
            D    1   1.00
                  0.220000D+01           0.100000D+01
            D    1   1.00
                  0.650000D+00           0.100000D+01
            F    1   1.00
                  0.110000D+01           0.100000D+01
            ****
 Initial command:
 /public3/home/sc51754/softwares/g09e01/l1.exe "./Gau-55242.inp" -scrdir="./"
 Entering Link 1 = /public3/home/sc51754/softwares/g09e01/l1.exe PID=     55243.
  
 Copyright (c) 1988,1990,1992,1993,1995,1998,2003,2009,2015,
            Gaussian, Inc.  All Rights Reserved.
  
 This is part of the Gaussian(R) 09 program.  It is based on
 the Gaussian(R) 03 system (copyright 2003, Gaussian, Inc.),
 the Gaussian(R) 98 system (copyright 1998, Gaussian, Inc.),
 the Gaussian(R) 94 system (copyright 1995, Gaussian, Inc.),
 the Gaussian 92(TM) system (copyright 1992, Gaussian, Inc.),
 the Gaussian 90(TM) system (copyright 1990, Gaussian, Inc.),
 the Gaussian 88(TM) system (copyright 1988, Gaussian, Inc.),
 the Gaussian 86(TM) system (copyright 1986, Carnegie Mellon
 University), and the Gaussian 82(TM) system (copyright 1983,
 Carnegie Mellon University). Gaussian is a federally registered
 trademark of Gaussian, Inc.
  
 This software contains proprietary and confidential information,
 including trade secrets, belonging to Gaussian, Inc.
  
 This software is provided under written license and may be
 used, copied, transmitted, or stored only in accord with that
 written license.
  
 The following legend is applicable only to US Government
 contracts under FAR:
  
                    RESTRICTED RIGHTS LEGEND
  
 Use, reproduction and disclosure by the US Government is
 subject to restrictions as set forth in subparagraphs (a)
 and (c) of the Commercial Computer Software - Restricted
 Rights clause in FAR 52.227-19.
  
 Gaussian, Inc.
 340 Quinnipiac St., Bldg. 40, Wallingford CT 06492
  
  
 ---------------------------------------------------------------
 Warning -- This program may not be used in any manner that
 competes with the business of Gaussian, Inc. or will provide
 assistance to any competitor of Gaussian, Inc.  The licensee
 of this program is prohibited from giving any competitor of
 Gaussian, Inc. access to this program.  By using this program,
 the user acknowledges that Gaussian, Inc. is engaged in the
 business of creating and licensing software in the field of
 computational chemistry and represents and warrants to the
 licensee that it is not a competitor of Gaussian, Inc. and that
 it will not use this program in any manner prohibited above.
 ---------------------------------------------------------------
  

 Cite this work as:
 Gaussian 09, Revision E.01,
 M. J. Frisch, G. W. Trucks, H. B. Schlegel, G. E. Scuseria, 
 M. A. Robb, J. R. Cheeseman, G. Scalmani, V. Barone, B. Mennucci, 
 G. A. Petersson, H. Nakatsuji, M. Caricato, X. Li, H. P. Hratchian, 
 A. F. Izmaylov, J. Bloino, G. Zheng, J. L. Sonnenberg, M. Hada, 
 M. Ehara, K. Toyota, R. Fukuda, J. Hasegawa, M. Ishida, T. Nakajima, 
 Y. Honda, O. Kitao, H. Nakai, T. Vreven, J. A. Montgomery, Jr., 
 J. E. Peralta, F. Ogliaro, M. Bearpark, J. J. Heyd, E. Brothers, 
 K. N. Kudin, V. N. Staroverov, T. Keith, R. Kobayashi, J. Normand, 
 K. Raghavachari, A. Rendell, J. C. Burant, S. S. Iyengar, J. Tomasi, 
 M. Cossi, N. Rega, J. M. Millam, M. Klene, J. E. Knox, J. B. Cross, 
 V. Bakken, C. Adamo, J. Jaramillo, R. Gomperts, R. E. Stratmann, 
 O. Yazyev, A. J. Austin, R. Cammi, C. Pomelli, J. W. Ochterski, 
 R. L. Martin, K. Morokuma, V. G. Zakrzewski, G. A. Voth, 
 P. Salvador, J. J. Dannenberg, S. Dapprich, A. D. Daniels, 
 O. Farkas, J. B. Foresman, J. V. Ortiz, J. Cioslowski, 
 and D. J. Fox, Gaussian, Inc., Wallingford CT, 2013.
 
 ******************************************
 Gaussian 09:  EM64L-G09RevE.01 30-Nov-2015
                28-Aug-2021 
 ******************************************
 %nprocshared=64
 Will use up to   64 processors via shared memory.
 %mem=128GB
 %chk=TST_H2O_BP86.chk
 -----------------------------------------------------------------
 #p opt=(calcfc,qst3,maxcycle=200) freq gen geom=connectivity bp86
 -----------------------------------------------------------------
 1/5=1,6=200,10=4,14=-1,18=20,26=3,27=203,38=1,57=2/1,3;
 2/9=110,12=2,17=6,18=5,40=1/2;
 3/5=7,11=2,16=1,25=1,30=1,71=2,74=404,140=1/1,2,3;
 4//1;
 5/5=2,38=5/2;
 8/6=4,10=90,11=11/1;
 11/6=1,8=1,9=11,15=111,16=1/1,2,10;
 10/6=1,13=1/2;
 6/7=2,8=2,9=2,10=2,28=1/1;
 7/10=1,18=20,25=1/1,2,3,16;
 1/5=1,6=200,10=4,14=-1,18=20,26=3,27=203/3(2);
 2/9=110/2;
 99//99;
 2/9=110/2;
 3/5=7,6=1,11=2,16=1,25=1,30=1,71=1,74=404,82=7/1,2,3;
 4/5=5,16=3,69=1/1;
 5/5=2,38=5/2;
 7//1,2,3,16;
 1/5=1,6=200,14=-1,18=20,26=3,27=203/3(-5);
 2/9=110/2;
 6/7=2,8=2,9=2,10=2,19=2,28=1/1;
 99/9=1/99;
 Leave Link    1 at Sat Aug 28 23:57:27 2021, MaxMem= 17179869184 cpu:        14.4
 (Enter /public3/home/sc51754/softwares/g09e01/l101.exe)
 ------------------------
 HY_H2O_BP86_PC2_OPT_FREQ
 ------------------------
 Symbolic Z-matrix:
 Charge =  0 Multiplicity = 1
 O                     1.25879   1.43098  -0.00495 
 N                     0.31286  -0.68327  -0.00695 
 C                     0.16213   0.65456  -0.00084 
 C                    -1.105     1.27267   0.0089 
 C                    -0.79494  -1.45087  -0.0064 
 C                    -2.23078   0.46302   0.01049 
 C                    -2.08412  -0.9329    0.00238 
 H                     2.0687    0.83776  -0.01746 
 H                    -1.16832   2.35974   0.013 
 H                    -0.62297  -2.52979  -0.01465 
 H                    -3.22445   0.91342   0.01683 
 H                    -2.947    -1.59715   0.00175 
 O                     3.04139  -0.6029   -0.0869 
 H                     3.49396  -0.86429   0.73044 
 H                     2.1249   -1.00041  -0.0337 
 
 Add virtual bond connecting atoms O13        and H8         Dist= 3.29D+00.
 Add virtual bond connecting atoms H15        and N2         Dist= 3.48D+00.
 Add virtual bond connecting atoms H15        and H8         Dist= 3.48D+00.
 Add atom     13 valence  3 ND=      2 dihedral       8     13     14     15
 ------------------------
 PY_H2O_BP86_PC2_OPT_FREQ
 ------------------------
 Symbolic Z-matrix:
 Charge =  0 Multiplicity = 1
 O                     1.29072   1.39775   0.00189 
 N                     0.26323  -0.66299   0.00819 
 C                     0.22529   0.7439    0.00467 
 C                    -1.10673   1.29753   0.0028 
 C                    -0.83331  -1.46631   0.00466 
 C                    -2.21596   0.48689  -0.00036 
 C                    -2.0952   -0.92843  -0.00024 
 H                     2.64142   0.27311  -0.04883 
 H                    -1.18476   2.38351   0.00119 
 H                    -0.63959  -2.53851   0.00409 
 H                    -3.21049   0.93733  -0.00395 
 H                    -2.96795  -1.57678  -0.00459 
 O                     3.05202  -0.63747  -0.09106 
 H                     3.71022  -0.66449   0.6198 
 H                     1.22213  -1.05691   0.01915 
 
 Add virtual bond connecting atoms H8         and O1         Dist= 3.32D+00.
 Add virtual bond connecting atoms O13        and H15        Dist= 3.55D+00.
 ------------
 TST_H2O_BP86
 ------------
 Symbolic Z-matrix:
 Charge =  0 Multiplicity = 1
 O                     1.32312   1.40232  -0.00382 
 N                     0.3772   -0.71193  -0.00582 
 C                     0.22646   0.6259    0.0003 
 C                    -1.04067   1.24401   0.01003 
 C                    -0.73061  -1.47953  -0.00527 
 C                    -2.16644   0.43436   0.01163 
 C                    -2.01978  -0.96156   0.00352 
 H                     2.23547   0.62006  -0.03454 
 H                    -1.10398   2.33108   0.01414 
 H                    -0.55863  -2.55845  -0.01352 
 H                    -3.16011   0.88476   0.01797 
 H                    -2.88266  -1.62581   0.00289 
 O                     2.64063  -0.42025  -0.07419 
 H                     3.0932   -0.68163   0.74314 
 H                     1.64977  -0.89453  -0.0171 
 
 NAtoms=     15 NQM=       15 NQMF=       0 NMMI=      0 NMMIF=      0
                NMic=       0 NMicF=      0.
                    Isotopes and Nuclear Properties:
 (Nuclear quadrupole moments (NQMom) in fm**2, nuclear magnetic moments (NMagM)
  in nuclear magnetons)

  Atom         1           2           3           4           5           6           7           8           9          10
 IAtWgt=          16          14          12          12          12          12          12           1           1           1
 AtmWgt=  15.9949146  14.0030740  12.0000000  12.0000000  12.0000000  12.0000000  12.0000000   1.0078250   1.0078250   1.0078250
 NucSpn=           0           2           0           0           0           0           0           1           1           1
 AtZEff=   0.0000000   0.0000000   0.0000000   0.0000000   0.0000000   0.0000000   0.0000000   0.0000000   0.0000000   0.0000000
 NQMom=    0.0000000   2.0440000   0.0000000   0.0000000   0.0000000   0.0000000   0.0000000   0.0000000   0.0000000   0.0000000
 NMagM=    0.0000000   0.4037610   0.0000000   0.0000000   0.0000000   0.0000000   0.0000000   2.7928460   2.7928460   2.7928460
 AtZNuc=   8.0000000   7.0000000   6.0000000   6.0000000   6.0000000   6.0000000   6.0000000   1.0000000   1.0000000   1.0000000

  Atom        11          12          13          14          15
 IAtWgt=           1           1          16           1           1
 AtmWgt=   1.0078250   1.0078250  15.9949146   1.0078250   1.0078250
 NucSpn=           1           1           0           1           1
 AtZEff=   0.0000000   0.0000000   0.0000000   0.0000000   0.0000000
 NQMom=    0.0000000   0.0000000   0.0000000   0.0000000   0.0000000
 NMagM=    2.7928460   2.7928460   0.0000000   2.7928460   2.7928460
 AtZNuc=   1.0000000   1.0000000   8.0000000   1.0000000   1.0000000
 Leave Link  101 at Sat Aug 28 23:57:28 2021, MaxMem= 17179869184 cpu:        25.8
 (Enter /public3/home/sc51754/softwares/g09e01/l103.exe)

 GradGradGradGradGradGradGradGradGradGradGradGradGradGradGradGradGradGrad
 Berny optimization.
 Initialization pass.
                           ----------------------------
                           !    Initial Parameters    !
                           ! (Angstroms and Degrees)  !
 --------------------------                            --------------------------
 ! Name  Definition        TS        Reactant  Product Derivative Info.         !
 --------------------------------------------------------------------------------
 ! R1    R(1,3)             1.3437    1.3437    1.2501 calculate D2E/DX2 analyti!
 ! R2    R(1,8)             1.2022    1.004     1.7583 calculate D2E/DX2 analyti!
 ! R3    R(2,3)             1.3463    1.3463    1.4074 calculate D2E/DX2 analyti!
 ! R4    R(2,5)             1.3478    1.3478    1.3593 calculate D2E/DX2 analyti!
 ! R5    R(2,15)            1.2857    1.8398    1.0367 calculate D2E/DX2 analyti!
 ! R6    R(3,4)             1.4099    1.4099    1.4425 calculate D2E/DX2 analyti!
 ! R7    R(4,6)             1.3867    1.3867    1.3739 calculate D2E/DX2 analyti!
 ! R8    R(4,9)             1.0889    1.0889    1.0888 calculate D2E/DX2 analyti!
 ! R9    R(5,7)             1.3894    1.3894    1.3718 calculate D2E/DX2 analyti!
 ! R10   R(5,10)            1.0926    1.0926    1.0896 calculate D2E/DX2 analyti!
 ! R11   R(6,7)             1.4036    1.4036    1.4205 calculate D2E/DX2 analyti!
 ! R12   R(6,11)            1.091     1.091     1.0918 calculate D2E/DX2 analyti!
 ! R13   R(7,12)            1.0889    1.0889    1.0872 calculate D2E/DX2 analyti!
 ! R14   R(8,13)            1.1171    1.7397    0.9998 calculate D2E/DX2 analyti!
 ! R15   R(8,15)            1.624     1.8391    1.9463 calculate D2E/DX2 analyti!
 ! R16   R(13,14)           0.9701    0.9701    0.9692 calculate D2E/DX2 analyti!
 ! R17   R(13,15)           1.1       1.0004    1.8806 calculate D2E/DX2 analyti!
 ! A1    A(3,1,8)         104.0915  108.4817  108.6765 calculate D2E/DX2 analyti!
 ! A2    A(3,2,5)         118.289   118.289   124.6811 calculate D2E/DX2 analyti!
 ! A3    A(3,2,15)        104.5958  106.358   113.8781 calculate D2E/DX2 analyti!
 ! A4    A(5,2,15)        137.1144  135.349   121.4401 calculate D2E/DX2 analyti!
 ! A5    A(1,3,2)         118.8681  118.8681  119.9929 calculate D2E/DX2 analyti!
 ! A6    A(1,3,4)         118.6992  118.6992  125.8933 calculate D2E/DX2 analyti!
 ! A7    A(2,3,4)         122.4327  122.4327  114.1138 calculate D2E/DX2 analyti!
 ! A8    A(3,4,6)         118.2732  118.2732  121.271  calculate D2E/DX2 analyti!
 ! A9    A(3,4,9)         119.3373  119.3373  116.6786 calculate D2E/DX2 analyti!
 ! A10   A(6,4,9)         122.3894  122.3894  122.0501 calculate D2E/DX2 analyti!
 ! A11   A(2,5,7)         123.392   123.392   120.6882 calculate D2E/DX2 analyti!
 ! A12   A(2,5,10)        115.6605  115.6605  115.9849 calculate D2E/DX2 analyti!
 ! A13   A(7,5,10)        120.9474  120.9474  123.3268 calculate D2E/DX2 analyti!
 ! A14   A(4,6,7)         119.7246  119.7246  121.2829 calculate D2E/DX2 analyti!
 ! A15   A(4,6,11)        119.8937  119.8937  119.4732 calculate D2E/DX2 analyti!
 ! A16   A(7,6,11)        120.3817  120.3817  119.2439 calculate D2E/DX2 analyti!
 ! A17   A(5,7,6)         117.8884  117.8884  117.9625 calculate D2E/DX2 analyti!
 ! A18   A(5,7,12)        120.5206  120.5206  120.3068 calculate D2E/DX2 analyti!
 ! A19   A(6,7,12)        121.591   121.591   121.7307 calculate D2E/DX2 analyti!
 ! A20   A(1,8,13)        151.8968  160.1918  154.0594 calculate D2E/DX2 analyti!
 ! A21   A(1,8,15)        109.444   127.9748   82.8715 calculate D2E/DX2 analyti!
 ! A22   A(8,13,14)       112.9663  116.7646  105.8622 calculate D2E/DX2 analyti!
 ! A23   A(8,13,15)        94.1853   79.3216   78.5236 calculate D2E/DX2 analyti!
 ! A24   A(14,13,15)      105.0886  105.9925  127.7076 calculate D2E/DX2 analyti!
 ! A25   A(2,15,8)        102.9805   78.3157  114.4856 calculate D2E/DX2 analyti!
 ! A26   A(2,15,13)       146.1841  146.5733  144.5517 calculate D2E/DX2 analyti!
 ! D1    D(8,1,3,2)         1.0715    0.3       1.7942 calculate D2E/DX2 analyti!
 ! D2    D(8,1,3,4)      -178.8893 -179.6609 -178.1145 calculate D2E/DX2 analyti!
 ! D3    D(3,1,8,13)        1.3901    4.7189    1.7116 calculate D2E/DX2 analyti!
 ! D4    D(3,1,8,15)       -1.3564    0.0311   -2.2358 calculate D2E/DX2 analyti!
 ! D5    D(5,2,3,1)      -179.8228 -179.8228 -179.6555 calculate D2E/DX2 analyti!
 ! D6    D(5,2,3,4)         0.1365    0.1365    0.2634 calculate D2E/DX2 analyti!
 ! D7    D(15,2,3,1)       -0.1076   -0.4478    0.6628 calculate D2E/DX2 analyti!
 ! D8    D(15,2,3,4)      179.8517  179.5115 -179.4182 calculate D2E/DX2 analyti!
 ! D9    D(3,2,5,7)        -0.11     -0.11     -0.1285 calculate D2E/DX2 analyti!
 ! D10   D(3,2,5,10)      179.817   179.817   179.7618 calculate D2E/DX2 analyti!
 ! D11   D(15,2,5,7)     -179.7051 -179.2568  179.5303 calculate D2E/DX2 analyti!
 ! D12   D(15,2,5,10)       0.2219    0.6703   -0.5794 calculate D2E/DX2 analyti!
 ! D13   D(3,2,15,8)       -0.6538    0.3176   -2.5869 calculate D2E/DX2 analyti!
 ! D14   D(3,2,15,13)      -4.7365   -4.2999   -6.7668 calculate D2E/DX2 analyti!
 ! D15   D(5,2,15,8)      178.9778  179.5345  177.7199 calculate D2E/DX2 analyti!
 ! D16   D(5,2,15,13)     174.895   174.917   173.5401 calculate D2E/DX2 analyti!
 ! D17   D(1,3,4,6)       179.8785  179.8785  179.6802 calculate D2E/DX2 analyti!
 ! D18   D(1,3,4,9)        -0.009    -0.009    -0.1532 calculate D2E/DX2 analyti!
 ! D19   D(2,3,4,6)        -0.0808   -0.0808   -0.2331 calculate D2E/DX2 analyti!
 ! D20   D(2,3,4,9)      -179.9683 -179.9683  179.9334 calculate D2E/DX2 analyti!
 ! D21   D(3,4,6,7)        -0.0051   -0.0051    0.0793 calculate D2E/DX2 analyti!
 ! D22   D(3,4,6,11)     -179.9323 -179.9323 -179.8653 calculate D2E/DX2 analyti!
 ! D23   D(9,4,6,7)       179.8787  179.8787  179.9037 calculate D2E/DX2 analyti!
 ! D24   D(9,4,6,11)       -0.0485   -0.0485   -0.0409 calculate D2E/DX2 analyti!
 ! D25   D(2,5,7,6)         0.0277    0.0277   -0.0506 calculate D2E/DX2 analyti!
 ! D26   D(2,5,7,12)      179.9587  179.9587  179.9055 calculate D2E/DX2 analyti!
 ! D27   D(10,5,7,6)     -179.8956 -179.8956 -179.9326 calculate D2E/DX2 analyti!
 ! D28   D(10,5,7,12)       0.0354    0.0354    0.0236 calculate D2E/DX2 analyti!
 ! D29   D(4,6,7,5)         0.0303    0.0303    0.0713 calculate D2E/DX2 analyti!
 ! D30   D(4,6,7,12)     -179.8999 -179.8999 -179.8842 calculate D2E/DX2 analyti!
 ! D31   D(11,6,7,5)      179.9571  179.9571 -179.984  calculate D2E/DX2 analyti!
 ! D32   D(11,6,7,12)       0.027     0.027     0.0605 calculate D2E/DX2 analyti!
 ! D33   D(1,8,13,14)    -112.1651 -109.5668 -130.3739 calculate D2E/DX2 analyti!
 ! D34   D(1,8,13,15)      -3.8351   -6.9221   -4.1368 calculate D2E/DX2 analyti!
 ! D35   D(1,8,15,2)        1.3962   -0.2353    2.9945 calculate D2E/DX2 analyti!
 ! D36   D(8,13,14,15)    101.3236   85.9094   87.6058 calculate D2E/DX2 analyti!
 ! D37   D(8,13,15,2)       5.804     4.8651    7.5715 calculate D2E/DX2 analyti!
 ! D38   D(14,13,15,2)    120.9503  119.8683  108.8496 calculate D2E/DX2 analyti!
 --------------------------------------------------------------------------------
 Trust Radius=3.00D-01 FncErr=1.00D-07 GrdErr=1.00D-06
 Number of steps in this run=    100 maximum allowed number of steps=    100.
 Search for a saddle point of order  1.
 GradGradGradGradGradGradGradGradGradGradGradGradGradGradGradGradGradGrad

 Leave Link  103 at Sat Aug 28 23:57:29 2021, MaxMem= 17179869184 cpu:         7.2
 (Enter /public3/home/sc51754/softwares/g09e01/l202.exe)
                          Input orientation:                          
 ---------------------------------------------------------------------
 Center     Atomic      Atomic             Coordinates (Angstroms)
 Number     Number       Type             X           Y           Z
 ---------------------------------------------------------------------
      1          8           0        1.323123    1.402323   -0.003817
      2          7           0        0.377201   -0.711929   -0.005819
      3          6           0        0.226463    0.625900    0.000299
      4          6           0       -1.040666    1.244008    0.010033
      5          6           0       -0.730606   -1.479526   -0.005267
      6          6           0       -2.166439    0.434363    0.011627
      7          6           0       -2.019777   -0.961560    0.003516
      8          1           0        2.235473    0.620061   -0.034535
      9          1           0       -1.103982    2.331082    0.014138
     10          1           0       -0.558629   -2.558454   -0.013518
     11          1           0       -3.160114    0.884756    0.017965
     12          1           0       -2.882657   -1.625806    0.002887
     13          8           0        2.640629   -0.420246   -0.074189
     14          1           0        3.093196   -0.681634    0.743144
     15          1           0        1.649772   -0.894528   -0.017096
 ---------------------------------------------------------------------
                    Distance matrix (angstroms):
                    1          2          3          4          5
     1  O    0.000000
     2  N    2.316211   0.000000
     3  C    1.343694   1.346308   0.000000
     4  C    2.369125   2.415841   1.409882   0.000000
     5  C    3.538765   1.347754   2.312754   2.741169   0.000000
     6  C    3.621357   2.790053   2.400582   1.386684   2.392671
     7  C    4.094261   2.409960   2.750570   2.413137   1.389362
     8  H    1.202189   2.286525   2.009320   3.335323   3.634108
     9  H    2.598799   3.384408   2.162850   1.088924   3.828906
    10  H    4.385070   2.070143   3.279736   3.832966   1.092579
    11  H    4.513066   3.881052   3.396501   2.149694   3.390115
    12  H    5.182489   3.385546   3.838856   3.410105   2.157032
    13  O    2.250007   2.283169   2.632141   4.040887   3.534409
    14  H    2.834428   2.817533   3.237224   4.618914   3.977212
    15  H    2.320000   1.285654   2.082742   3.436936   2.451237
                    6          7          8          9         10
     6  C    0.000000
     7  C    1.403630   0.000000
     8  H    4.406069   4.539837   0.000000
     9  H    2.174020   3.417643   3.752588   0.000000
    10  H    3.397446   2.164559   4.232068   4.919933   0.000000
    11  H    1.091001   2.170129   5.402330   2.513872   4.315601
    12  H    2.181133   1.088938   5.589326   4.338292   2.504238
    13  O    4.883198   4.692381   1.117122   4.647550   3.848489
    14  H    5.426263   5.173770   1.742092   5.217682   4.175023
    15  H    4.041070   3.670219   1.623985   4.241308   2.765086
                   11         12         13         14         15
    11  H    0.000000
    12  H    2.525892   0.000000
    13  O    5.946439   5.653849   0.000000
    14  H    6.487168   6.095101   0.970141   0.000000
    15  H    5.128556   4.591087   1.100000   1.645224   0.000000
 Stoichiometry    C5H7NO2
 Framework group  C1[X(C5H7NO2)]
 Deg. of freedom    39
 Full point group                 C1      NOp   1
 Largest Abelian subgroup         C1      NOp   1
 Largest concise Abelian subgroup C1      NOp   1
                         Standard orientation:                         
 ---------------------------------------------------------------------
 Center     Atomic      Atomic             Coordinates (Angstroms)
 Number     Number       Type             X           Y           Z
 ---------------------------------------------------------------------
      1          8           0        1.443871    1.288497   -0.007192
      2          7           0        0.331343   -0.743030   -0.010101
      3          6           0        0.288452    0.602571   -0.002193
      4          6           0       -0.924975    1.320350    0.010312
      5          6           0       -0.834485   -1.419260   -0.008637
      6          6           0       -2.112083    0.603648    0.012798
      7          6           0       -2.077920   -0.799531    0.002837
      8          1           0        2.290460    0.435589   -0.040295
      9          1           0       -0.900850    2.408993    0.015775
     10          1           0       -0.749652   -2.508497   -0.018414
     11          1           0       -3.066401    1.132314    0.021270
     12          1           0       -2.991319   -1.392394    0.002841
     13          8           0        2.610770   -0.633822   -0.081808
     14          1           0        3.042150   -0.931729    0.734486
     15          1           0        1.585139   -1.027139   -0.023655
 ---------------------------------------------------------------------
 Rotational constants (GHZ):      4.1998182      1.6483640      1.1873180
 Leave Link  202 at Sat Aug 28 23:57:29 2021, MaxMem= 17179869184 cpu:         3.9
 (Enter /public3/home/sc51754/softwares/g09e01/l301.exe)
 General basis read from cards:  (5D, 7F)
 Centers:       8      9     10     11     12     14     15
 S 4 1.00
     Exponent=  7.5423000000D+01 Coefficients=  2.4065000000D-03
     Exponent=  1.1350000000D+01 Coefficients=  1.8487000000D-02
     Exponent=  2.5993000000D+00 Coefficients=  8.9742000000D-02
     Exponent=  7.3513000000D-01 Coefficients=  2.8111000000D-01
 S 1 1.00
     Exponent=  2.3167000000D-01 Coefficients=  1.0000000000D+00
 S 1 1.00
     Exponent=  7.4147000000D-02 Coefficients=  1.0000000000D+00
 P 1 1.00
     Exponent=  1.6000000000D+00 Coefficients=  1.0000000000D+00
 P 1 1.00
     Exponent=  4.5000000000D-01 Coefficients=  1.0000000000D+00
 D 1 1.00
     Exponent=  1.2500000000D+00 Coefficients=  1.0000000000D+00
 ****
 Centers:       3      4      5      6      7
 S 7 1.00
     Exponent=  7.8571000000D+03 Coefficients=  5.6825000000D-04
     Exponent=  1.1787000000D+03 Coefficients=  4.3915000000D-03
     Exponent=  2.6832000000D+02 Coefficients=  2.2504000000D-02
     Exponent=  7.5948000000D+01 Coefficients=  8.6653000000D-02
     Exponent=  2.4559000000D+01 Coefficients=  2.4405000000D-01
     Exponent=  8.6212000000D+00 Coefficients=  4.4148000000D-01
     Exponent=  3.1278000000D+00 Coefficients=  3.5332000000D-01
 S 7 1.00
     Exponent=  1.1787000000D+03 Coefficients= -5.9492000000D-07
     Exponent=  2.6832000000D+02 Coefficients= -6.2748000000D-05
     Exponent=  7.5948000000D+01 Coefficients= -7.5773000000D-04
     Exponent=  2.4559000000D+01 Coefficients= -7.3308000000D-03
     Exponent=  8.6212000000D+00 Coefficients= -3.8932000000D-02
     Exponent=  3.1278000000D+00 Coefficients= -8.8908000000D-02
     Exponent=  8.2202000000D-01 Coefficients=  2.1689000000D-01
 S 1 1.00
     Exponent=  3.3017000000D-01 Coefficients=  1.0000000000D+00
 S 1 1.00
     Exponent=  1.1463000000D-01 Coefficients=  1.0000000000D+00
 P 4 1.00
     Exponent=  3.3775000000D+01 Coefficients=  6.0294000000D-03
     Exponent=  7.6766000000D+00 Coefficients=  4.3228000000D-02
     Exponent=  2.2357000000D+00 Coefficients=  1.6301000000D-01
     Exponent=  7.6447000000D-01 Coefficients=  3.6504000000D-01
 P 1 1.00
     Exponent=  2.6232000000D-01 Coefficients=  1.0000000000D+00
 P 1 1.00
     Exponent=  8.4638000000D-02 Coefficients=  1.0000000000D+00
 D 1 1.00
     Exponent=  1.4000000000D+00 Coefficients=  1.0000000000D+00
 D 1 1.00
     Exponent=  4.5000000000D-01 Coefficients=  1.0000000000D+00
 F 1 1.00
     Exponent=  9.5000000000D-01 Coefficients=  1.0000000000D+00
 ****
 Centers:       2
 S 7 1.00
     Exponent=  1.1101000000D+04 Coefficients=  5.4570000000D-04
     Exponent=  1.6653000000D+03 Coefficients=  4.2181000000D-03
     Exponent=  3.7908000000D+02 Coefficients=  2.1645000000D-02
     Exponent=  1.0730000000D+02 Coefficients=  8.3776000000D-02
     Exponent=  3.4747000000D+01 Coefficients=  2.3881000000D-01
     Exponent=  1.2249000000D+01 Coefficients=  4.3994000000D-01
     Exponent=  4.4743000000D+00 Coefficients=  3.6364000000D-01
 S 7 1.00
     Exponent=  1.6653000000D+03 Coefficients= -1.5006000000D-06
     Exponent=  3.7908000000D+02 Coefficients= -5.8753000000D-05
     Exponent=  1.0730000000D+02 Coefficients= -7.7453000000D-04
     Exponent=  3.4747000000D+01 Coefficients= -7.2161000000D-03
     Exponent=  1.2249000000D+01 Coefficients= -3.9338000000D-02
     Exponent=  4.4743000000D+00 Coefficients= -9.0611000000D-02
     Exponent=  1.2404000000D+00 Coefficients=  1.9882000000D-01
 S 1 1.00
     Exponent=  4.8743000000D-01 Coefficients=  1.0000000000D+00
 S 1 1.00
     Exponent=  1.6484000000D-01 Coefficients=  1.0000000000D+00
 P 4 1.00
     Exponent=  4.7934000000D+01 Coefficients=  6.1706000000D-03
     Exponent=  1.0999000000D+01 Coefficients=  4.4260000000D-02
     Exponent=  3.2472000000D+00 Coefficients=  1.6825000000D-01
     Exponent=  1.1114000000D+00 Coefficients=  3.6848000000D-01
 P 1 1.00
     Exponent=  3.7988000000D-01 Coefficients=  1.0000000000D+00
 P 1 1.00
     Exponent=  1.2068000000D-01 Coefficients=  1.0000000000D+00
 D 1 1.00
     Exponent=  1.8000000000D+00 Coefficients=  1.0000000000D+00
 D 1 1.00
     Exponent=  5.5000000000D-01 Coefficients=  1.0000000000D+00
 F 1 1.00
     Exponent=  1.0200000000D+00 Coefficients=  1.0000000000D+00
 ****
 Centers:       1     13
 S 7 1.00
     Exponent=  1.4782000000D+04 Coefficients=  5.3519000000D-04
     Exponent=  2.2173000000D+03 Coefficients=  4.1375000000D-03
     Exponent=  5.0474000000D+02 Coefficients=  2.1245000000D-02
     Exponent=  1.4287000000D+02 Coefficients=  8.2453000000D-02
     Exponent=  4.6300000000D+01 Coefficients=  2.3671000000D-01
     Exponent=  1.6337000000D+01 Coefficients=  4.4039000000D-01
     Exponent=  5.9828000000D+00 Coefficients=  3.6465000000D-01
 S 7 1.00
     Exponent=  2.2173000000D+03 Coefficients= -1.9275000000D-06
     Exponent=  5.0474000000D+02 Coefficients= -5.7964000000D-05
     Exponent=  1.4287000000D+02 Coefficients= -7.9494000000D-04
     Exponent=  4.6300000000D+01 Coefficients= -7.3125000000D-03
     Exponent=  1.6337000000D+01 Coefficients= -4.0574000000D-02
     Exponent=  5.9828000000D+00 Coefficients= -9.1594000000D-02
     Exponent=  1.6718000000D+00 Coefficients=  2.0940000000D-01
 S 1 1.00
     Exponent=  6.4662000000D-01 Coefficients=  1.0000000000D+00
 S 1 1.00
     Exponent=  2.1669000000D-01 Coefficients=  1.0000000000D+00
 P 4 1.00
     Exponent=  6.0424000000D+01 Coefficients=  6.8949000000D-03
     Exponent=  1.3935000000D+01 Coefficients=  4.9005000000D-02
     Exponent=  4.1531000000D+00 Coefficients=  1.8255000000D-01
     Exponent=  1.4158000000D+00 Coefficients=  3.7633000000D-01
 P 1 1.00
     Exponent=  4.7549000000D-01 Coefficients=  1.0000000000D+00
 P 1 1.00
     Exponent=  1.4529000000D-01 Coefficients=  1.0000000000D+00
 D 1 1.00
     Exponent=  2.2000000000D+00 Coefficients=  1.0000000000D+00
 D 1 1.00
     Exponent=  6.5000000000D-01 Coefficients=  1.0000000000D+00
 F 1 1.00
     Exponent=  1.1000000000D+00 Coefficients=  1.0000000000D+00
 ****
 Ernie: Thresh=  0.10000D-02 Tol=  0.10000D-05 Strict=F.
 Ernie:  8 primitive shells out of 263 were deleted.
 There are   385 symmetry adapted cartesian basis functions of A   symmetry.
 There are   338 symmetry adapted basis functions of A   symmetry.
   338 basis functions,   566 primitive gaussians,   385 cartesian basis functions
    30 alpha electrons       30 beta electrons
       nuclear repulsion energy       369.0604109449 Hartrees.
 IExCor=  404 DFT=T Ex=B Corr=P86 ExCW=0 ScaHFX=  0.000000
 ScaDFX=  1.000000  1.000000  1.000000  1.000000 ScalE2=  1.000000  1.000000
 IRadAn=      0 IRanWt=     -1 IRanGd=            0 ICorTp=0 IEmpDi=  4
 NAtoms=   15 NActive=   15 NUniq=   15 SFac= 1.00D+00 NAtFMM=   60 NAOKFM=F Big=F
 Integral buffers will be    131072 words long.
 Raffenetti 2 integral format.
 Two-electron integral symmetry is turned on.
 Leave Link  301 at Sat Aug 28 23:57:30 2021, MaxMem= 17179869184 cpu:        22.5
 (Enter /public3/home/sc51754/softwares/g09e01/l302.exe)
 NPDir=0 NMtPBC=     1 NCelOv=     1 NCel=       1 NClECP=     1 NCelD=      1
         NCelK=      1 NCelE2=     1 NClLst=     1 CellRange=     0.0.
 One-electron integrals computed using PRISM.
 NBasis=   338 RedAO= T EigKep=  1.53D-04  NBF=   338
 NBsUse=   338 1.00D-06 EigRej= -1.00D+00 NBFU=   338
 Precomputing XC quadrature grid using
 IXCGrd= 4 IRadAn=           0 IRanWt=          -1 IRanGd=           0 AccXCQ= 0.00D+00.
 Generated NRdTot=       0 NPtTot=           0 NUsed=           0 NTot=          32
 NSgBfM=   385   385   385   385   385 MxSgAt=    15 MxSgA2=    15.
 Leave Link  302 at Sat Aug 28 23:57:32 2021, MaxMem= 17179869184 cpu:        69.8
 (Enter /public3/home/sc51754/softwares/g09e01/l303.exe)
 DipDrv:  MaxL=1.
 Leave Link  303 at Sat Aug 28 23:57:33 2021, MaxMem= 17179869184 cpu:        16.2
 (Enter /public3/home/sc51754/softwares/g09e01/l401.exe)
 ExpMin= 7.41D-02 ExpMax= 1.48D+04 ExpMxC= 5.05D+02 IAcc=2 IRadAn=         4 AccDes= 0.00D+00
 Harris functional with IExCor=  404 and IRadAn=       4 diagonalized for initial guess.
 HarFok:  IExCor=  404 AccDes= 0.00D+00 IRadAn=         4 IDoV= 1 UseB2=F ITyADJ=14
 ICtDFT=  3500011 ScaDFX=  1.000000  1.000000  1.000000  1.000000
 FoFCou: FMM=F IPFlag=           0 FMFlag=      100000 FMFlg1=           0
         NFxFlg=           0 DoJE=T BraDBF=F KetDBF=T FulRan=T
         wScrn=  0.000000 ICntrl=     500 IOpCl=  0 I1Cent=   200000004 NGrid=           0
         NMat0=    1 NMatS0=      1 NMatT0=    0 NMatD0=    1 NMtDS0=    0 NMtDT0=    0
 Petite list used in FoFCou.
 Harris En= -400.242288748944    
 JPrj=0 DoOrth=F DoCkMO=F.
 Leave Link  401 at Sat Aug 28 23:57:35 2021, MaxMem= 17179869184 cpu:        85.5
 (Enter /public3/home/sc51754/softwares/g09e01/l502.exe)
 Closed shell SCF:
 Using DIIS extrapolation, IDIIS=  1040.
 Integral symmetry usage will be decided dynamically.
 Keep J ints in memory in canonical form, NReq=1670404686.
 IVT=      490665 IEndB=      490665 NGot= 17179869184 MDV= 15538220534
 LenX= 15538220534 LenY= 15538071868
 Requested convergence on RMS density matrix=1.00D-08 within 128 cycles.
 Requested convergence on MAX density matrix=1.00D-06.
 Requested convergence on             energy=1.00D-06.
 No special actions if energy rises.
 FoFCou: FMM=F IPFlag=           0 FMFlag=           0 FMFlg1=           0
         NFxFlg=           0 DoJE=F BraDBF=F KetDBF=F FulRan=T
         wScrn=  0.000000 ICntrl=     600 IOpCl=  0 I1Cent=           0 NGrid=           0
         NMat0=    1 NMatS0=  57291 NMatT0=    0 NMatD0=    1 NMtDS0=    0 NMtDT0=    0
 Symmetry not used in FoFCou.
 Integral accuracy reduced to 1.0D-05 until final iterations.

 Cycle   1  Pass 0  IDiag  1:
 E= -399.906633287476    
 DIIS: error= 2.09D-02 at cycle   1 NSaved=   1.
 NSaved= 1 IEnMin= 1 EnMin= -399.906633287476     IErMin= 1 ErrMin= 2.09D-02
 ErrMax= 2.09D-02  0.00D+00 EMaxC= 1.00D-01 BMatC= 2.47D-01 BMatP= 2.47D-01
 IDIUse=3 WtCom= 7.91D-01 WtEn= 2.09D-01
 Coeff-Com:  0.100D+01
 Coeff-En:   0.100D+01
 Coeff:      0.100D+01
 Gap=     0.099 Goal=   None    Shift=    0.000
 GapD=    0.099 DampG=0.500 DampE=0.500 DampFc=0.2500 IDamp=-1.
 Damping current iteration by 2.50D-01
 RMSDP=3.52D-03 MaxDP=1.33D-01              OVMax= 3.62D-01

 Cycle   2  Pass 0  IDiag  1:
 E= -399.975817987672     Delta-E=       -0.069184700196 Rises=F Damp=T
 DIIS: error= 1.11D-02 at cycle   2 NSaved=   2.
 NSaved= 2 IEnMin= 2 EnMin= -399.975817987672     IErMin= 2 ErrMin= 1.11D-02
 ErrMax= 1.11D-02  0.00D+00 EMaxC= 1.00D-01 BMatC= 3.40D-02 BMatP= 2.47D-01
 IDIUse=3 WtCom= 8.89D-01 WtEn= 1.11D-01
 Coeff-Com: -0.348D+00 0.135D+01
 Coeff-En:   0.000D+00 0.100D+01
 Coeff:     -0.310D+00 0.131D+01
 Gap=     0.188 Goal=   None    Shift=    0.000
 RMSDP=9.76D-04 MaxDP=4.11D-02 DE=-6.92D-02 OVMax= 3.40D-01

 Cycle   3  Pass 0  IDiag  1:
 E= -400.046433386760     Delta-E=       -0.070615399089 Rises=F Damp=F
 DIIS: error= 1.00D-02 at cycle   3 NSaved=   3.
 NSaved= 3 IEnMin= 3 EnMin= -400.046433386760     IErMin= 3 ErrMin= 1.00D-02
 ErrMax= 1.00D-02  0.00D+00 EMaxC= 1.00D-01 BMatC= 7.37D-02 BMatP= 3.40D-02
 IDIUse=2 WtCom= 0.00D+00 WtEn= 1.00D+00
 Coeff-En:   0.000D+00 0.116D+00 0.884D+00
 Coeff:      0.000D+00 0.116D+00 0.884D+00
 Gap=     0.094 Goal=   None    Shift=    0.000
 RMSDP=2.33D-03 MaxDP=1.38D-01 DE=-7.06D-02 OVMax= 5.63D-01

 Cycle   4  Pass 0  IDiag  1:
 E= -399.442649054268     Delta-E=        0.603784332492 Rises=F Damp=F
 DIIS: error= 4.43D-02 at cycle   4 NSaved=   4.
 NSaved= 4 IEnMin= 3 EnMin= -400.046433386760     IErMin= 3 ErrMin= 1.00D-02
 ErrMax= 4.43D-02  0.00D+00 EMaxC= 1.00D-01 BMatC= 7.29D-01 BMatP= 3.40D-02
 IDIUse=2 WtCom= 0.00D+00 WtEn= 1.00D+00
 Coeff-En:   0.000D+00 0.000D+00 0.840D+00 0.160D+00
 Coeff:      0.000D+00 0.000D+00 0.840D+00 0.160D+00
 Gap=     0.112 Goal=   None    Shift=    0.000
 RMSDP=1.39D-03 MaxDP=8.61D-02 DE= 6.04D-01 OVMax= 3.78D-01

 Cycle   5  Pass 0  IDiag  1:
 E= -400.053443935784     Delta-E=       -0.610794881516 Rises=F Damp=F
 DIIS: error= 1.07D-02 at cycle   5 NSaved=   5.
 NSaved= 5 IEnMin= 5 EnMin= -400.053443935784     IErMin= 3 ErrMin= 1.00D-02
 ErrMax= 1.07D-02  0.00D+00 EMaxC= 1.00D-01 BMatC= 6.74D-02 BMatP= 3.40D-02
 IDIUse=2 WtCom= 0.00D+00 WtEn= 1.00D+00
 Coeff-En:   0.000D+00 0.000D+00 0.481D+00 0.000D+00 0.519D+00
 Coeff:      0.000D+00 0.000D+00 0.481D+00 0.000D+00 0.519D+00
 Gap=     0.129 Goal=   None    Shift=    0.000
 RMSDP=5.88D-04 MaxDP=3.45D-02 DE=-6.11D-01 OVMax= 1.37D-01

 Cycle   6  Pass 0  IDiag  1:
 E= -400.113651307950     Delta-E=       -0.060207372165 Rises=F Damp=F
 DIIS: error= 2.77D-03 at cycle   6 NSaved=   6.
 NSaved= 6 IEnMin= 6 EnMin= -400.113651307950     IErMin= 6 ErrMin= 2.77D-03
 ErrMax= 2.77D-03  0.00D+00 EMaxC= 1.00D-01 BMatC= 1.94D-03 BMatP= 3.40D-02
 IDIUse=3 WtCom= 9.72D-01 WtEn= 2.77D-02
 Coeff-Com: -0.348D-01 0.708D-01 0.234D+00-0.380D-01 0.355D+00 0.413D+00
 Coeff-En:   0.000D+00 0.000D+00 0.000D+00 0.000D+00 0.000D+00 0.100D+01
 Coeff:     -0.338D-01 0.688D-01 0.228D+00-0.369D-01 0.345D+00 0.429D+00
 Gap=     0.128 Goal=   None    Shift=    0.000
 RMSDP=1.17D-04 MaxDP=6.67D-03 DE=-6.02D-02 OVMax= 2.08D-02

 Cycle   7  Pass 0  IDiag  1:
 E= -400.115215067158     Delta-E=       -0.001563759209 Rises=F Damp=F
 DIIS: error= 9.57D-04 at cycle   7 NSaved=   7.
 NSaved= 7 IEnMin= 7 EnMin= -400.115215067158     IErMin= 7 ErrMin= 9.57D-04
 ErrMax= 9.57D-04  0.00D+00 EMaxC= 1.00D-01 BMatC= 2.76D-04 BMatP= 1.94D-03
 IDIUse=3 WtCom= 9.90D-01 WtEn= 9.57D-03
 Coeff-Com: -0.161D-01 0.321D-01 0.113D+00-0.234D-01 0.176D+00 0.280D+00
 Coeff-Com:  0.438D+00
 Coeff-En:   0.000D+00 0.000D+00 0.000D+00 0.000D+00 0.000D+00 0.137D+00
 Coeff-En:   0.863D+00
 Coeff:     -0.160D-01 0.318D-01 0.112D+00-0.232D-01 0.174D+00 0.279D+00
 Coeff:      0.442D+00
 Gap=     0.128 Goal=   None    Shift=    0.000
 RMSDP=4.31D-05 MaxDP=2.31D-03 DE=-1.56D-03 OVMax= 1.03D-02

 Cycle   8  Pass 0  IDiag  1:
 E= -400.115460974443     Delta-E=       -0.000245907284 Rises=F Damp=F
 DIIS: error= 3.03D-04 at cycle   8 NSaved=   8.
 NSaved= 8 IEnMin= 8 EnMin= -400.115460974443     IErMin= 8 ErrMin= 3.03D-04
 ErrMax= 3.03D-04  0.00D+00 EMaxC= 1.00D-01 BMatC= 3.69D-05 BMatP= 2.76D-04
 IDIUse=3 WtCom= 9.97D-01 WtEn= 3.03D-03
 Coeff-Com:  0.931D-03 0.189D-02 0.216D-01-0.378D-02 0.185D-01 0.704D-01
 Coeff-Com:  0.278D+00 0.613D+00
 Coeff-En:   0.000D+00 0.000D+00 0.000D+00 0.000D+00 0.000D+00 0.000D+00
 Coeff-En:   0.280D-01 0.972D+00
 Coeff:      0.928D-03 0.188D-02 0.215D-01-0.377D-02 0.184D-01 0.702D-01
 Coeff:      0.277D+00 0.614D+00
 Gap=     0.128 Goal=   None    Shift=    0.000
 RMSDP=1.64D-05 MaxDP=8.32D-04 DE=-2.46D-04 OVMax= 3.94D-03

 Cycle   9  Pass 0  IDiag  1:
 E= -400.115490754348     Delta-E=       -0.000029779906 Rises=F Damp=F
 DIIS: error= 1.65D-04 at cycle   9 NSaved=   9.
 NSaved= 9 IEnMin= 9 EnMin= -400.115490754348     IErMin= 9 ErrMin= 1.65D-04
 ErrMax= 1.65D-04  0.00D+00 EMaxC= 1.00D-01 BMatC= 5.22D-06 BMatP= 3.69D-05
 IDIUse=3 WtCom= 9.98D-01 WtEn= 1.65D-03
 Coeff-Com:  0.305D-02-0.423D-02 0.720D-02-0.844D-03 0.141D-02 0.335D-01
 Coeff-Com:  0.157D+00 0.412D+00 0.391D+00
 Coeff-En:   0.000D+00 0.000D+00 0.000D+00 0.000D+00 0.000D+00 0.000D+00
 Coeff-En:   0.000D+00 0.604D-01 0.940D+00
 Coeff:      0.305D-02-0.423D-02 0.719D-02-0.843D-03 0.141D-02 0.334D-01
 Coeff:      0.156D+00 0.412D+00 0.392D+00
 Gap=     0.128 Goal=   None    Shift=    0.000
 RMSDP=5.36D-06 MaxDP=3.70D-04 DE=-2.98D-05 OVMax= 1.11D-03

 Initial convergence to 1.0D-05 achieved.  Increase integral accuracy.
 Cycle  10  Pass 1  IDiag  1:
 E= -400.115392550124     Delta-E=        0.000098204224 Rises=F Damp=F
 DIIS: error= 4.85D-05 at cycle   1 NSaved=   1.
 NSaved= 1 IEnMin= 1 EnMin= -400.115392550124     IErMin= 1 ErrMin= 4.85D-05
 ErrMax= 4.85D-05  0.00D+00 EMaxC= 1.00D-01 BMatC= 4.41D-07 BMatP= 4.41D-07
 IDIUse=1 WtCom= 1.00D+00 WtEn= 0.00D+00
 Coeff-Com:  0.100D+01
 Coeff:      0.100D+01
 Gap=     0.128 Goal=   None    Shift=    0.000
 RMSDP=5.36D-06 MaxDP=3.70D-04 DE= 9.82D-05 OVMax= 5.43D-04

 Cycle  11  Pass 1  IDiag  1:
 E= -400.115392605849     Delta-E=       -0.000000055724 Rises=F Damp=F
 DIIS: error= 4.13D-05 at cycle   2 NSaved=   2.
 NSaved= 2 IEnMin= 2 EnMin= -400.115392605849     IErMin= 2 ErrMin= 4.13D-05
 ErrMax= 4.13D-05  0.00D+00 EMaxC= 1.00D-01 BMatC= 5.02D-07 BMatP= 4.41D-07
 IDIUse=1 WtCom= 1.00D+00 WtEn= 0.00D+00
 Coeff-Com:  0.523D+00 0.477D+00
 Coeff:      0.523D+00 0.477D+00
 Gap=     0.128 Goal=   None    Shift=    0.000
 RMSDP=2.37D-06 MaxDP=1.07D-04 DE=-5.57D-08 OVMax= 5.24D-04

 Cycle  12  Pass 1  IDiag  1:
 E= -400.115392856886     Delta-E=       -0.000000251037 Rises=F Damp=F
 DIIS: error= 3.24D-05 at cycle   3 NSaved=   3.
 NSaved= 3 IEnMin= 3 EnMin= -400.115392856886     IErMin= 3 ErrMin= 3.24D-05
 ErrMax= 3.24D-05  0.00D+00 EMaxC= 1.00D-01 BMatC= 2.42D-07 BMatP= 4.41D-07
 IDIUse=1 WtCom= 1.00D+00 WtEn= 0.00D+00
 Coeff-Com:  0.279D-01 0.403D+00 0.569D+00
 Coeff:      0.279D-01 0.403D+00 0.569D+00
 Gap=     0.128 Goal=   None    Shift=    0.000
 RMSDP=1.07D-06 MaxDP=4.76D-05 DE=-2.51D-07 OVMax= 2.45D-04

 Cycle  13  Pass 1  IDiag  1:
 E= -400.115393115490     Delta-E=       -0.000000258604 Rises=F Damp=F
 DIIS: error= 6.81D-06 at cycle   4 NSaved=   4.
 NSaved= 4 IEnMin= 4 EnMin= -400.115393115490     IErMin= 4 ErrMin= 6.81D-06
 ErrMax= 6.81D-06  0.00D+00 EMaxC= 1.00D-01 BMatC= 1.63D-08 BMatP= 2.42D-07
 IDIUse=1 WtCom= 1.00D+00 WtEn= 0.00D+00
 Coeff-Com: -0.433D-02 0.244D+00 0.372D+00 0.389D+00
 Coeff:     -0.433D-02 0.244D+00 0.372D+00 0.389D+00
 Gap=     0.128 Goal=   None    Shift=    0.000
 RMSDP=3.01D-07 MaxDP=1.54D-05 DE=-2.59D-07 OVMax= 4.22D-05

 Cycle  14  Pass 1  IDiag  1:
 E= -400.115393130016     Delta-E=       -0.000000014526 Rises=F Damp=F
 DIIS: error= 1.59D-06 at cycle   5 NSaved=   5.
 NSaved= 5 IEnMin= 5 EnMin= -400.115393130016     IErMin= 5 ErrMin= 1.59D-06
 ErrMax= 1.59D-06  0.00D+00 EMaxC= 1.00D-01 BMatC= 8.43D-10 BMatP= 1.63D-08
 IDIUse=1 WtCom= 1.00D+00 WtEn= 0.00D+00
 Coeff-Com: -0.433D-02 0.113D+00 0.174D+00 0.242D+00 0.475D+00
 Coeff:     -0.433D-02 0.113D+00 0.174D+00 0.242D+00 0.475D+00
 Gap=     0.128 Goal=   None    Shift=    0.000
 RMSDP=8.69D-08 MaxDP=3.35D-06 DE=-1.45D-08 OVMax= 1.88D-05

 Cycle  15  Pass 1  IDiag  1:
 E= -400.115393123752     Delta-E=        0.000000006264 Rises=F Damp=F
 DIIS: error= 7.42D-07 at cycle   6 NSaved=   6.
 NSaved= 6 IEnMin= 5 EnMin= -400.115393130016     IErMin= 6 ErrMin= 7.42D-07
 ErrMax= 7.42D-07  0.00D+00 EMaxC= 1.00D-01 BMatC= 1.51D-10 BMatP= 8.43D-10
 IDIUse=1 WtCom= 1.00D+00 WtEn= 0.00D+00
 Coeff-Com: -0.283D-02 0.617D-01 0.954D-01 0.143D+00 0.337D+00 0.365D+00
 Coeff:     -0.283D-02 0.617D-01 0.954D-01 0.143D+00 0.337D+00 0.365D+00
 Gap=     0.128 Goal=   None    Shift=    0.000
 RMSDP=3.34D-08 MaxDP=1.69D-06 DE= 6.26D-09 OVMax= 8.01D-06

 Cycle  16  Pass 1  IDiag  1:
 E= -400.115393123903     Delta-E=       -0.000000000150 Rises=F Damp=F
 DIIS: error= 1.30D-07 at cycle   7 NSaved=   7.
 NSaved= 7 IEnMin= 5 EnMin= -400.115393130016     IErMin= 7 ErrMin= 1.30D-07
 ErrMax= 1.30D-07  0.00D+00 EMaxC= 1.00D-01 BMatC= 8.34D-12 BMatP= 1.51D-10
 IDIUse=1 WtCom= 1.00D+00 WtEn= 0.00D+00
 Coeff-Com: -0.851D-03 0.169D-01 0.262D-01 0.444D-01 0.121D+00 0.218D+00
 Coeff-Com:  0.574D+00
 Coeff:     -0.851D-03 0.169D-01 0.262D-01 0.444D-01 0.121D+00 0.218D+00
 Coeff:      0.574D+00
 Gap=     0.128 Goal=   None    Shift=    0.000
 RMSDP=8.15D-09 MaxDP=3.88D-07 DE=-1.50D-10 OVMax= 1.55D-06

 SCF Done:  E(RB-P86) =  -400.115393124     A.U. after   16 cycles
            NFock= 16  Conv=0.82D-08     -V/T= 2.0031
 KE= 3.988618024861D+02 PE=-1.674483267650D+03 EE= 5.064456610950D+02
 Leave Link  502 at Sat Aug 28 23:58:05 2021, MaxMem= 17179869184 cpu:       412.1
 (Enter /public3/home/sc51754/softwares/g09e01/l801.exe)
 Range of M.O.s used for correlation:     1   338
 NBasis=   338 NAE=    30 NBE=    30 NFC=     0 NFV=     0
 NROrb=    338 NOA=    30 NOB=    30 NVA=   308 NVB=   308

 **** Warning!!: The largest alpha MO coefficient is  0.14561756D+02

 Leave Link  801 at Sat Aug 28 23:58:05 2021, MaxMem= 17179869184 cpu:         1.1
 (Enter /public3/home/sc51754/softwares/g09e01/l1101.exe)
 Using compressed storage, NAtomX=    15.
 Will process     16 centers per pass.
 Leave Link 1101 at Sat Aug 28 23:58:07 2021, MaxMem= 17179869184 cpu:        65.4
 (Enter /public3/home/sc51754/softwares/g09e01/l1102.exe)
 Symmetrizing basis deriv contribution to polar:
 IMax=3 JMax=2 DiffMx= 0.00D+00
 Leave Link 1102 at Sat Aug 28 23:58:08 2021, MaxMem= 17179869184 cpu:         9.3
 (Enter /public3/home/sc51754/softwares/g09e01/l1110.exe)
 Forming Gx(P) for the SCF density, NAtomX=    15.
 Integral derivatives from FoFJK, PRISM(SPDF).
 Do as many integral derivatives as possible in FoFJK.
 G2DrvN: MDV=   17179868960.
 G2DrvN: will do    16 centers at a time, making    1 passes.
 Calling FoFCou, ICntrl=  3507 FMM=F I1Cent=   0 AccDes= 0.00D+00.
 FoFJK:  IHMeth= 1 ICntrl=    3507 DoSepK=F KAlg= 0 I1Cent=   0 FoldK=F
 IRaf=         0 NMat=   1 IRICut=       1 DoRegI=T DoRafI=F ISym2E= 0.
 FoFCou: FMM=F IPFlag=           0 FMFlag=      100000 FMFlg1=           0
         NFxFlg=           0 DoJE=F BraDBF=F KetDBF=F FulRan=T
         wScrn=  0.000000 ICntrl=    3507 IOpCl=  0 I1Cent=           0 NGrid=           0
         NMat0=    1 NMatS0=      1 NMatT0=    0 NMatD0=    1 NMtDS0=    0 NMtDT0=    0
 Symmetry not used in FoFCou.
 End of G2Drv F.D. properties file   721 does not exist.
 End of G2Drv F.D. properties file   722 does not exist.
 End of G2Drv F.D. properties file   788 does not exist.
 Leave Link 1110 at Sat Aug 28 23:58:17 2021, MaxMem= 17179869184 cpu:       560.0
 (Enter /public3/home/sc51754/softwares/g09e01/l1002.exe)
 Minotr:  Closed shell wavefunction.
          IDoAtm=111111111111111
          Direct CPHF calculation.
          Differentiating once with respect to nuclear coordinates.
          Requested convergence is 1.0D-08 RMS, and 1.0D-07 maximum.
          Secondary convergence is 1.0D-12 RMS, and 1.0D-12 maximum.
          NewPWx=T KeepS1=F KeepF1=F KeepIn=T MapXYZ=F SortEE=F KeepMc=T.
          MDV=   17179868692 using IRadAn=       2.
 Generate precomputed XC quadrature information.
 Keep J ints in memory in canonical form, NReq=1669919891.
 FoFCou: FMM=F IPFlag=           0 FMFlag=           0 FMFlg1=           0
         NFxFlg=           0 DoJE=F BraDBF=F KetDBF=F FulRan=T
         wScrn=  0.000000 ICntrl=     600 IOpCl=  0 I1Cent=           0 NGrid=           0
         NMat0=    1 NMatS0=  57291 NMatT0=    0 NMatD0=    1 NMtDS0=    0 NMtDT0=    0
 Symmetry not used in FoFCou.
          Solving linear equations simultaneously, MaxMat=       0.
          There are    48 degrees of freedom in the 1st order CPHF.  IDoFFX=6 NUNeed=     0.
     42 vectors produced by pass  0 Test12= 1.92D-14 2.08D-09 XBig12= 1.72D-01 1.41D-01.
 AX will form    42 AO Fock derivatives at one time.
     42 vectors produced by pass  1 Test12= 1.92D-14 2.08D-09 XBig12= 7.12D-02 6.45D-02.
     42 vectors produced by pass  2 Test12= 1.92D-14 2.08D-09 XBig12= 3.79D-04 1.99D-03.
     42 vectors produced by pass  3 Test12= 1.92D-14 2.08D-09 XBig12= 1.61D-06 1.90D-04.
     42 vectors produced by pass  4 Test12= 1.92D-14 2.08D-09 XBig12= 2.13D-09 4.50D-06.
     23 vectors produced by pass  5 Test12= 1.92D-14 2.08D-09 XBig12= 7.43D-13 7.05D-08.
      6 vectors produced by pass  6 Test12= 1.92D-14 2.08D-09 XBig12= 1.42D-15 5.18D-09.
 InvSVY:  IOpt=1 It=  1 EMax= 1.33D-15
 Solved reduced A of dimension   239 with    42 vectors.
 End of Minotr F.D. properties file   721 does not exist.
 End of Minotr F.D. properties file   722 does not exist.
 End of Minotr F.D. properties file   788 does not exist.
 Leave Link 1002 at Sat Aug 28 23:58:33 2021, MaxMem= 17179869184 cpu:       964.9
 (Enter /public3/home/sc51754/softwares/g09e01/l601.exe)
 Copying SCF densities to generalized density rwf, IOpCl= 0 IROHF=0.

 **********************************************************************

            Population analysis using the SCF density.

 **********************************************************************

 Orbital symmetries:
       Occupied  (A) (A) (A) (A) (A) (A) (A) (A) (A) (A) (A) (A)
                 (A) (A) (A) (A) (A) (A) (A) (A) (A) (A) (A) (A)
                 (A) (A) (A) (A) (A) (A)
       Virtual   (A) (A) (A) (A) (A) (A) (A) (A) (A) (A) (A) (A)
                 (A) (A) (A) (A) (A) (A) (A) (A) (A) (A) (A) (A)
                 (A) (A) (A) (A) (A) (A) (A) (A) (A) (A) (A) (A)
                 (A) (A) (A) (A) (A) (A) (A) (A) (A) (A) (A) (A)
                 (A) (A) (A) (A) (A) (A) (A) (A) (A) (A) (A) (A)
                 (A) (A) (A) (A) (A) (A) (A) (A) (A) (A) (A) (A)
                 (A) (A) (A) (A) (A) (A) (A) (A) (A) (A) (A) (A)
                 (A) (A) (A) (A) (A) (A) (A) (A) (A) (A) (A) (A)
                 (A) (A) (A) (A) (A) (A) (A) (A) (A) (A) (A) (A)
                 (A) (A) (A) (A) (A) (A) (A) (A) (A) (A) (A) (A)
                 (A) (A) (A) (A) (A) (A) (A) (A) (A) (A) (A) (A)
                 (A) (A) (A) (A) (A) (A) (A) (A) (A) (A) (A) (A)
                 (A) (A) (A) (A) (A) (A) (A) (A) (A) (A) (A) (A)
                 (A) (A) (A) (A) (A) (A) (A) (A) (A) (A) (A) (A)
                 (A) (A) (A) (A) (A) (A) (A) (A) (A) (A) (A) (A)
                 (A) (A) (A) (A) (A) (A) (A) (A) (A) (A) (A) (A)
                 (A) (A) (A) (A) (A) (A) (A) (A) (A) (A) (A) (A)
                 (A) (A) (A) (A) (A) (A) (A) (A) (A) (A) (A) (A)
                 (A) (A) (A) (A) (A) (A) (A) (A) (A) (A) (A) (A)
                 (A) (A) (A) (A) (A) (A) (A) (A) (A) (A) (A) (A)
                 (A) (A) (A) (A) (A) (A) (A) (A) (A) (A) (A) (A)
                 (A) (A) (A) (A) (A) (A) (A) (A) (A) (A) (A) (A)
                 (A) (A) (A) (A) (A) (A) (A) (A) (A) (A) (A) (A)
                 (A) (A) (A) (A) (A) (A) (A) (A) (A) (A) (A) (A)
                 (A) (A) (A) (A) (A) (A) (A) (A) (A) (A) (A) (A)
                 (A) (A) (A) (A) (A) (A) (A) (A)
 The electronic state is 1-A.
 Alpha  occ. eigenvalues --  -18.77685 -18.74040 -14.02284  -9.99110  -9.95402
 Alpha  occ. eigenvalues --   -9.92748  -9.91366  -9.91144  -0.97810  -0.91679
 Alpha  occ. eigenvalues --   -0.86582  -0.74554  -0.68897  -0.59897  -0.56927
 Alpha  occ. eigenvalues --   -0.51579  -0.50426  -0.45502  -0.44007  -0.41940
 Alpha  occ. eigenvalues --   -0.39805  -0.38788  -0.36092  -0.34610  -0.32761
 Alpha  occ. eigenvalues --   -0.30150  -0.27792  -0.26736  -0.23191  -0.20640
 Alpha virt. eigenvalues --   -0.07815  -0.04206  -0.00206   0.01274   0.03351
 Alpha virt. eigenvalues --    0.05070   0.06961   0.07924   0.09206   0.10960
 Alpha virt. eigenvalues --    0.12497   0.13980   0.14992   0.16087   0.16441
 Alpha virt. eigenvalues --    0.17540   0.18657   0.19100   0.21153   0.22074
 Alpha virt. eigenvalues --    0.24035   0.24762   0.25627   0.26287   0.26930
 Alpha virt. eigenvalues --    0.27489   0.28124   0.28290   0.30017   0.30920
 Alpha virt. eigenvalues --    0.32336   0.32992   0.35006   0.36170   0.37512
 Alpha virt. eigenvalues --    0.38385   0.40524   0.40913   0.41781   0.43670
 Alpha virt. eigenvalues --    0.47198   0.48999   0.49826   0.51040   0.53248
 Alpha virt. eigenvalues --    0.54433   0.57245   0.57766   0.59046   0.59818
 Alpha virt. eigenvalues --    0.60650   0.62596   0.64819   0.66624   0.70408
 Alpha virt. eigenvalues --    0.71670   0.73613   0.75812   0.77613   0.79403
 Alpha virt. eigenvalues --    0.83358   0.85859   0.86712   0.87703   0.88158
 Alpha virt. eigenvalues --    0.91047   0.92168   0.95482   0.97184   1.00719
 Alpha virt. eigenvalues --    1.01906   1.03989   1.05114   1.06985   1.08935
 Alpha virt. eigenvalues --    1.09380   1.09927   1.11435   1.12769   1.14625
 Alpha virt. eigenvalues --    1.16271   1.18377   1.19392   1.20659   1.21189
 Alpha virt. eigenvalues --    1.24025   1.25138   1.27256   1.30614   1.35041
 Alpha virt. eigenvalues --    1.35796   1.37883   1.41030   1.42082   1.43252
 Alpha virt. eigenvalues --    1.44249   1.46091   1.47662   1.51538   1.52242
 Alpha virt. eigenvalues --    1.54419   1.54928   1.56884   1.59842   1.61558
 Alpha virt. eigenvalues --    1.62202   1.64403   1.66579   1.68512   1.71742
 Alpha virt. eigenvalues --    1.74555   1.76674   1.78051   1.78817   1.80401
 Alpha virt. eigenvalues --    1.81369   1.82794   1.86511   1.89663   1.92885
 Alpha virt. eigenvalues --    1.94506   1.97169   1.98045   1.99672   2.02196
 Alpha virt. eigenvalues --    2.03806   2.07854   2.08666   2.12501   2.12925
 Alpha virt. eigenvalues --    2.14763   2.18386   2.19475   2.21028   2.24803
 Alpha virt. eigenvalues --    2.27372   2.37183   2.48724   2.53596   2.66264
 Alpha virt. eigenvalues --    2.74163   2.77338   2.80962   2.85574   2.86300
 Alpha virt. eigenvalues --    3.02787   3.06186   3.07133   3.09010   3.11025
 Alpha virt. eigenvalues --    3.13392   3.15150   3.16704   3.21040   3.22488
 Alpha virt. eigenvalues --    3.25243   3.26379   3.31461   3.32759   3.34662
 Alpha virt. eigenvalues --    3.35635   3.39186   3.41317   3.44603   3.47512
 Alpha virt. eigenvalues --    3.47957   3.50442   3.50936   3.53431   3.54215
 Alpha virt. eigenvalues --    3.54818   3.58871   3.59923   3.63629   3.66792
 Alpha virt. eigenvalues --    3.68384   3.69123   3.73671   3.77831   3.80016
 Alpha virt. eigenvalues --    3.83943   3.84496   3.87135   3.87912   3.93589
 Alpha virt. eigenvalues --    3.94204   3.96310   3.96835   3.98077   3.99163
 Alpha virt. eigenvalues --    4.00451   4.01055   4.04182   4.05040   4.06603
 Alpha virt. eigenvalues --    4.07795   4.09352   4.11321   4.11471   4.13168
 Alpha virt. eigenvalues --    4.13289   4.14789   4.17527   4.18149   4.21088
 Alpha virt. eigenvalues --    4.21685   4.22979   4.24570   4.24835   4.25170
 Alpha virt. eigenvalues --    4.27421   4.30517   4.31559   4.32221   4.34285
 Alpha virt. eigenvalues --    4.36037   4.36323   4.37672   4.38157   4.40225
 Alpha virt. eigenvalues --    4.41613   4.44203   4.46837   4.47429   4.48720
 Alpha virt. eigenvalues --    4.52591   4.53177   4.56177   4.59902   4.63989
 Alpha virt. eigenvalues --    4.65394   4.68899   4.71996   4.73292   4.75864
 Alpha virt. eigenvalues --    4.76530   4.80125   4.82143   4.83757   4.88928
 Alpha virt. eigenvalues --    4.90893   4.93719   4.94124   4.96408   4.99005
 Alpha virt. eigenvalues --    5.01852   5.04453   5.07238   5.09681   5.13281
 Alpha virt. eigenvalues --    5.15560   5.17309   5.20558   5.22081   5.24551
 Alpha virt. eigenvalues --    5.25379   5.30478   5.30775   5.31494   5.37481
 Alpha virt. eigenvalues --    5.38510   5.40826   5.41354   5.43269   5.45880
 Alpha virt. eigenvalues --    5.51285   5.51783   5.53663   5.58125   5.63216
 Alpha virt. eigenvalues --    5.65702   5.68776   5.70950   5.82178   5.87138
 Alpha virt. eigenvalues --    5.89568   5.96035   5.99111   6.00218   6.04341
 Alpha virt. eigenvalues --    6.15064   6.15934   6.19381   6.23452   6.29727
 Alpha virt. eigenvalues --    6.34141   6.37357   6.40045   6.46498   6.50858
 Alpha virt. eigenvalues --    6.51617   6.59731   6.63618   6.71298   6.91373
 Alpha virt. eigenvalues --    6.97416   7.03796   7.17705   7.38455   7.68156
 Alpha virt. eigenvalues --    9.19155  11.95451  12.89946  15.24602  16.92214
 Alpha virt. eigenvalues --   18.13386  18.45703  22.34354
          Condensed to atoms (all electrons):
               1          2          3          4          5          6
     1  O    8.223051  -0.094944   0.381285  -0.069014   0.005861   0.008242
     2  N   -0.094944   6.770038   0.390183  -0.018915   0.453157  -0.028167
     3  C    0.381285   0.390183   4.486879   0.505351  -0.062946  -0.054714
     4  C   -0.069014  -0.018915   0.505351   4.884486  -0.045635   0.508469
     5  C    0.005861   0.453157  -0.062946  -0.045635   4.644206  -0.066446
     6  C    0.008242  -0.028167  -0.054714   0.508469  -0.066446   4.781708
     7  C    0.000911  -0.036617  -0.036549  -0.054699   0.529684   0.470979
     8  H    0.214254   0.004141  -0.013894   0.004402  -0.000642  -0.000934
     9  H    0.006052   0.007405  -0.043311   0.439092  -0.001351  -0.038843
    10  H   -0.000752  -0.044989   0.003612  -0.002490   0.438774   0.008386
    11  H   -0.000600  -0.001707   0.009712  -0.038091   0.008408   0.428563
    12  H    0.000061   0.006056  -0.001612   0.007903  -0.031816  -0.039847
    13  O   -0.160426  -0.175900  -0.005971  -0.000495  -0.000007   0.000595
    14  H    0.008487   0.007824   0.001383   0.000511  -0.000445  -0.000091
    15  H    0.006019   0.163623  -0.017392   0.002913  -0.003309  -0.001453
               7          8          9         10         11         12
     1  O    0.000911   0.214254   0.006052  -0.000752  -0.000600   0.000061
     2  N   -0.036617   0.004141   0.007405  -0.044989  -0.001707   0.006056
     3  C   -0.036549  -0.013894  -0.043311   0.003612   0.009712  -0.001612
     4  C   -0.054699   0.004402   0.439092  -0.002490  -0.038091   0.007903
     5  C    0.529684  -0.000642  -0.001351   0.438774   0.008408  -0.031816
     6  C    0.470979  -0.000934  -0.038843   0.008386   0.428563  -0.039847
     7  C    4.935357   0.000453   0.008027  -0.059678  -0.045529   0.431465
     8  H    0.000453   0.350432   0.000437   0.000056   0.000005  -0.000023
     9  H    0.008027   0.000437   0.561076   0.000276  -0.009078  -0.000081
    10  H   -0.059678   0.000056   0.000276   0.600170  -0.000443  -0.004622
    11  H   -0.045529   0.000005  -0.009078  -0.000443   0.592680  -0.008521
    12  H    0.431465  -0.000023  -0.000081  -0.004622  -0.008521   0.583966
    13  O   -0.001884   0.213222   0.000378   0.000753  -0.000031   0.000066
    14  H    0.000256  -0.012189  -0.000052  -0.000262   0.000006  -0.000010
    15  H    0.002454  -0.017456  -0.000343  -0.003734   0.000128  -0.000049
              13         14         15
     1  O   -0.160426   0.008487   0.006019
     2  N   -0.175900   0.007824   0.163623
     3  C   -0.005971   0.001383  -0.017392
     4  C   -0.000495   0.000511   0.002913
     5  C   -0.000007  -0.000445  -0.003309
     6  C    0.000595  -0.000091  -0.001453
     7  C   -0.001884   0.000256   0.002454
     8  H    0.213222  -0.012189  -0.017456
     9  H    0.000378  -0.000052  -0.000343
    10  H    0.000753  -0.000262  -0.003734
    11  H   -0.000031   0.000006   0.000128
    12  H    0.000066  -0.000010  -0.000049
    13  O    7.912672   0.341809   0.258979
    14  H    0.341809   0.448258  -0.011184
    15  H    0.258979  -0.011184   0.383245
 Mulliken charges:
               1
     1  O   -0.528487
     2  N   -0.401190
     3  C    0.457981
     4  C   -0.123788
     5  C    0.132508
     6  C    0.023553
     7  C   -0.144631
     8  H    0.257734
     9  H    0.070319
    10  H    0.064941
    11  H    0.064498
    12  H    0.057065
    13  O   -0.383759
    14  H    0.215697
    15  H    0.237558
 Sum of Mulliken charges =  -0.00000
 Mulliken charges with hydrogens summed into heavy atoms:
               1
     1  O   -0.528487
     2  N   -0.401190
     3  C    0.457981
     4  C   -0.053469
     5  C    0.197449
     6  C    0.088051
     7  C   -0.087566
    13  O    0.327230
 APT charges:
               1
     1  O   -0.384957
     2  N   -0.415048
     3  C    0.065709
     4  C   -0.524246
     5  C   -0.361675
     6  C   -0.399401
     7  C   -0.504495
     8  H    0.289574
     9  H    0.478778
    10  H    0.460796
    11  H    0.601490
    12  H    0.617570
    13  O   -0.737575
    14  H    0.654251
    15  H    0.159228
 Sum of APT charges =  -0.00000
 APT charges with hydrogens summed into heavy atoms:
               1
     1  O   -0.384957
     2  N   -0.415048
     3  C    0.065709
     4  C   -0.045468
     5  C    0.099121
     6  C    0.202089
     7  C    0.113075
    13  O    0.365478
 Electronic spatial extent (au):  <R**2>=            960.5050
 Charge=             -0.0000 electrons
 Dipole moment (field-independent basis, Debye):
    X=             -1.6637    Y=             -2.1343    Z=              1.3306  Tot=              3.0155
 Quadrupole moment (field-independent basis, Debye-Ang):
   XX=            -42.6659   YY=            -45.6650   ZZ=            -49.2187
   XY=             -4.2894   XZ=              4.5860   YZ=             -1.4772
 Traceless Quadrupole moment (field-independent basis, Debye-Ang):
   XX=              3.1839   YY=              0.1849   ZZ=             -3.3688
   XY=             -4.2894   XZ=              4.5860   YZ=             -1.4772
 Octapole moment (field-independent basis, Debye-Ang**2):
  XXX=             12.1875  YYY=             -8.9211  ZZZ=              1.1164  XYY=             -3.5351
  XXY=             -6.0765  XXZ=             14.9097  XZZ=             12.6432  YZZ=             -0.8785
  YYZ=              1.4999  XYZ=             -4.9368
 Hexadecapole moment (field-independent basis, Debye-Ang**3):
 XXXX=           -739.7798 YYYY=           -343.6875 ZZZZ=            -54.1574 XXXY=            -16.8798
 XXXZ=             48.1977 YYYX=            -16.4665 YYYZ=             -1.7310 ZZZX=              4.6883
 ZZZY=             -1.6857 XXYY=           -190.3159 XXZZ=           -148.0265 YYZZ=            -75.4493
 XXYZ=            -15.0725 YYXZ=              5.2030 ZZXY=             -4.5166
 N-N= 3.690604109449D+02 E-N=-1.674483229668D+03  KE= 3.988618024861D+02
  Exact polarizability:   0.000   0.000   0.000   0.000   0.000   0.000
 Approx polarizability: 203.830  16.933 181.466   1.410  -0.913  75.937
 No NMR shielding tensors so no spin-rotation constants.
 Leave Link  601 at Sat Aug 28 23:58:34 2021, MaxMem= 17179869184 cpu:        54.9
 (Enter /public3/home/sc51754/softwares/g09e01/l701.exe)
 Compute integral second derivatives.
 ... and contract with generalized density number  0.
 Leave Link  701 at Sat Aug 28 23:58:37 2021, MaxMem= 17179869184 cpu:        91.1
 (Enter /public3/home/sc51754/softwares/g09e01/l702.exe)
 L702 exits ... SP integral derivatives will be done elsewhere.
 Leave Link  702 at Sat Aug 28 23:58:37 2021, MaxMem= 17179869184 cpu:         1.0
 (Enter /public3/home/sc51754/softwares/g09e01/l703.exe)
 Compute integral second derivatives, UseDBF=F ICtDFT=           0.
 Integral derivatives from FoFJK, PRISM(SPDF).
 Calling FoFJK, ICntrl=    100547 FMM=F ISym2X=0 I1Cent= 0 IOpClX= 0 NMat=1 NMatS=1 NMatT=0.
 FoFJK:  IHMeth= 1 ICntrl=  100547 DoSepK=F KAlg= 0 I1Cent=   0 FoldK=F
 IRaf=         0 NMat=   1 IRICut=       1 DoRegI=T DoRafI=F ISym2E= 0.
 FoFCou: FMM=F IPFlag=           0 FMFlag=      100000 FMFlg1=         800
         NFxFlg=           0 DoJE=F BraDBF=F KetDBF=F FulRan=T
         wScrn=  0.000000 ICntrl=  100547 IOpCl=  0 I1Cent=           0 NGrid=           0
         NMat0=    1 NMatS0=      1 NMatT0=    0 NMatD0=    1 NMtDS0=    0 NMtDT0=    0
 Symmetry not used in FoFCou.
 Leave Link  703 at Sat Aug 28 23:58:54 2021, MaxMem= 17179869184 cpu:      1052.8
 (Enter /public3/home/sc51754/softwares/g09e01/l716.exe)
 Dipole        =-6.54541239D-01-8.39698117D-01 5.23481468D-01
 Polarizability= 0.00000000D+00 0.00000000D+00 0.00000000D+00
                 0.00000000D+00 0.00000000D+00 0.00000000D+00
 ***** Axes restored to original set *****
 -------------------------------------------------------------------
 Center     Atomic                   Forces (Hartrees/Bohr)
 Number     Number              X              Y              Z
 -------------------------------------------------------------------
      1        8          -0.034331474    0.001051400   -0.000640301
      2        7          -0.037148697   -0.012202902    0.000801726
      3        6           0.032711228    0.046728736    0.000105638
      4        6          -0.013766810   -0.006470910    0.000148280
      5        6          -0.007357067   -0.007763426    0.000036161
      6        6           0.002309739    0.007603047    0.000007812
      7        6           0.004800019   -0.005735187   -0.000022537
      8        1          -0.014931076    0.020615712    0.003217852
      9        1           0.001575689   -0.000944370   -0.000009621
     10        1          -0.000115439    0.000209888   -0.000059556
     11        1          -0.000515905   -0.000216035   -0.000022165
     12        1           0.000773008   -0.000358614   -0.000014170
     13        8           0.068675084   -0.040398109    0.000532468
     14        1           0.006826637    0.002471423   -0.000239397
     15        1          -0.009504938   -0.004590654   -0.003842190
 -------------------------------------------------------------------
 Cartesian Forces:  Max     0.068675084 RMS     0.017396378
 FormGI is forming the generalized inverse of G from B-inverse, IUseBI=4.
 Leave Link  716 at Sat Aug 28 23:58:54 2021, MaxMem= 17179869184 cpu:         7.1
 (Enter /public3/home/sc51754/softwares/g09e01/l103.exe)

 GradGradGradGradGradGradGradGradGradGradGradGradGradGradGradGradGradGrad
 Berny optimization.
 Red2BG is reusing G-inverse.
 Internal  Forces:  Max     0.037318934 RMS     0.009398241
 Search for a saddle point.
 Step number   1 out of a maximum of  100
 All quantities printed in internal units (Hartrees-Bohrs-Radians)
 Second derivative matrix not updated -- analytic derivatives used.
 ITU=  0
 LST/QST climbing along tangent vector
     Eigenvalues ---    0.00159   0.00404   0.00524   0.01028   0.01129
     Eigenvalues ---    0.01233   0.01583   0.01724   0.01971   0.02189
     Eigenvalues ---    0.02530   0.02869   0.03174   0.04473   0.05477
     Eigenvalues ---    0.05862   0.07285   0.09793   0.10288   0.11427
     Eigenvalues ---    0.12406   0.14276   0.18620   0.18942   0.20383
     Eigenvalues ---    0.25454   0.26471   0.29293   0.32983   0.33490
     Eigenvalues ---    0.34141   0.34646   0.34844   0.39508   0.41040
     Eigenvalues ---    0.43452   0.45587   0.50175   0.507561000.00000
     Eigenvalues --- 1000.000001000.000001000.000001000.000001000.00000
     Eigenvalues --- 1000.000001000.000001000.000001000.000001000.00000
     Eigenvalues --- 1000.000001000.000001000.000001000.000001000.00000
     Eigenvalues --- 1000.000001000.000001000.000001000.000001000.00000
     Eigenvalues --- 1000.000001000.000001000.000001000.000001000.00000
     Eigenvalues --- 1000.000001000.000001000.000001000.000001000.00000
     Eigenvalues --- 1000.000001000.000001000.000001000.000001000.00000
     Eigenvalues --- 1000.000001000.000001000.000001000.000001000.00000
     Eigenvalues --- 1000.00000
 Eigenvectors required to have negative eigenvalues:
                          D33       D38       D34       D3        A22
   1                    0.58933  -0.49773   0.30103  -0.27195  -0.24856
                          D36       A24       D37       D14       D16
   1                   -0.24580  -0.18720  -0.17739   0.11122   0.08107
 Eigenvalue     1 is   1.59D-03 should be less than     0.000000 Eigenvector:
                          D33       D38       D34       D3        A22
   1                    0.58933  -0.49773   0.30103  -0.27195  -0.24856
                          D36       A24       D37       D14       D16
   1                   -0.24580  -0.18720  -0.17739   0.11122   0.08107
 QST in optimization variable space.
 Eigenvectors 1 and   6 swapped, overlap=  1.0000
                        Tangent   TS vect  // Eig F  Eigenval
   1         R1        -0.05188   0.05188   0.00958   0.01233
   2         R2         0.40070  -0.40070   0.00006   0.00404
   3         R3         0.02736  -0.02736   0.00009   0.00524
   4         R4         0.00609  -0.00609  -0.00105   0.01028
   5         R5        -0.50094   0.50094  -0.00043   0.01129
   6         R6         0.01504  -0.01504   0.00011   0.00159
   7         R7        -0.00668   0.00668   0.00001   0.01583
   8         R8        -0.00007   0.00007   0.00001   0.01724
   9         R9        -0.00786   0.00786   0.00004   0.01971
  10         R10       -0.00144   0.00144  -0.00003   0.02189
  11         R11        0.00798  -0.00798  -0.00002   0.02530
  12         R12        0.00037  -0.00037  -0.00016   0.02869
  13         R13       -0.00082   0.00082   0.00025   0.03174
  14         R14       -0.49039   0.49039  -0.00244   0.04473
  15         R15        0.00239  -0.00239  -0.00101   0.05477
  16         R16       -0.00047   0.00047   0.00620   0.05862
  17         R17        0.44759  -0.44759   0.00336   0.07285
  18         A1        -0.02064   0.02064  -0.00031   0.09793
  19         A2         0.02534  -0.02534   0.00096   0.10288
  20         A3         0.03629  -0.03629  -0.00066   0.11427
  21         A4        -0.06161   0.06161   0.00027   0.12406
  22         A5         0.00001  -0.00001  -0.00964   0.14276
  23         A6         0.03436  -0.03436  -0.00466   0.18620
  24         A7        -0.03437   0.03437   0.00934   0.18942
  25         A8         0.01228  -0.01228   0.00116   0.20383
  26         A9        -0.01125   0.01125   0.02135   0.25454
  27         A10       -0.00103   0.00103   0.02050   0.26471
  28         A11       -0.01066   0.01066  -0.01717   0.29293
  29         A12        0.00080  -0.00080  -0.01042   0.32983
  30         A13        0.00985  -0.00985  -0.00329   0.33490
  31         A14        0.00642  -0.00642  -0.00265   0.34141
  32         A15       -0.00163   0.00163  -0.00095   0.34646
  33         A16       -0.00479   0.00479   0.00324   0.34844
  34         A17        0.00099  -0.00099  -0.00863   0.39508
  35         A18       -0.00128   0.00128  -0.00124   0.41040
  36         A19        0.00028  -0.00028   0.00869   0.43452
  37         A20       -0.04183   0.04183   0.00255   0.45587
  38         A21       -0.23680   0.23680   0.00187   0.50175
  39         A22       -0.07055   0.07055   0.00572   0.50756
  40         A23        0.02688  -0.02688   0.000001000.00000
  41         A24        0.09591  -0.09591  -0.000001000.00000
  42         A25        0.22069  -0.22069  -0.000001000.00000
  43         A26       -0.00102   0.00102  -0.000001000.00000
  44         D1         0.00788  -0.00788   0.000001000.00000
  45         D2         0.00798  -0.00798  -0.000001000.00000
  46         D3        -0.01627   0.01627  -0.000001000.00000
  47         D4        -0.01094   0.01094  -0.000001000.00000
  48         D5         0.00105  -0.00105   0.000001000.00000
  49         D6         0.00098  -0.00098  -0.000001000.00000
  50         D7         0.00449  -0.00449   0.000001000.00000
  51         D8         0.00442  -0.00442   0.000001000.00000
  52         D9        -0.00046   0.00046   0.000001000.00000
  53         D10       -0.00056   0.00056  -0.000001000.00000
  54         D11       -0.00587   0.00587  -0.000001000.00000
  55         D12       -0.00598   0.00598  -0.000001000.00000
  56         D13       -0.01442   0.01442  -0.000001000.00000
  57         D14       -0.00898   0.00898   0.000001000.00000
  58         D15       -0.00946   0.00946   0.000001000.00000
  59         D16       -0.00403   0.00403   0.000001000.00000
  60         D17       -0.00097   0.00097   0.000001000.00000
  61         D18       -0.00068   0.00068   0.000001000.00000
  62         D19       -0.00089   0.00089   0.000001000.00000
  63         D20       -0.00059   0.00059   0.000001000.00000
  64         D21        0.00027  -0.00027   0.000001000.00000
  65         D22        0.00031  -0.00031  -0.000001000.00000
  66         D23       -0.00004   0.00004   0.000001000.00000
  67         D24       -0.00001   0.00001   0.000001000.00000
  68         D25       -0.00019   0.00019   0.000001000.00000
  69         D26       -0.00013   0.00013   0.000001000.00000
  70         D27       -0.00007   0.00007  -0.000001000.00000
  71         D28       -0.00001   0.00001   0.000001000.00000
  72         D29        0.00025  -0.00025   0.000001000.00000
  73         D30        0.00020  -0.00020  -0.000001000.00000
  74         D31        0.00022  -0.00022  -0.000001000.00000
  75         D32        0.00016  -0.00016   0.000001000.00000
  76         D33       -0.08744   0.08744  -0.000001000.00000
  77         D34        0.01610  -0.01610  -0.000001000.00000
  78         D35        0.01748  -0.01748   0.000001000.00000
  79         D36        0.05200  -0.05200  -0.000001000.00000
  80         D37        0.01098  -0.01098  -0.000001000.00000
  81         D38       -0.03472   0.03472   0.000001000.00000
 RFO step:  Lambda0=1.756350734D-02 Lambda=-7.24477939D-03.
 Linear search not attempted -- option 19 set.
 Maximum step size (   0.300) exceeded in Quadratic search.
    -- Step size scaled by   0.164
 Iteration  1 RMS(Cart)=  0.02381143 RMS(Int)=  0.00126120
 Iteration  2 RMS(Cart)=  0.00068888 RMS(Int)=  0.00046841
 Iteration  3 RMS(Cart)=  0.00000063 RMS(Int)=  0.00046841
 ITry= 1 IFail=0 DXMaxC= 1.52D-01 DCOld= 1.00D+10 DXMaxT= 3.00D-01 DXLimC= 3.00D+00 Rises=F
 Variable       Old X    -DE/DX   Delta X   Delta X   Delta X     New X
                                 (Linear)    (Quad)   (Total)
    R1        2.53921  -0.02118   0.00000  -0.02307  -0.02363   2.51559
    R2        2.27181   0.02580   0.00000   0.12349   0.12371   2.39552
    R3        2.54415   0.02348   0.00000   0.01224   0.01164   2.55579
    R4        2.54689   0.00522   0.00000   0.00189   0.00190   2.54878
    R5        2.42953   0.03191   0.00000  -0.14705  -0.14690   2.28263
    R6        2.66429   0.00696   0.00000   0.00634   0.00632   2.67062
    R7        2.62045  -0.00157   0.00000  -0.00277  -0.00277   2.61768
    R8        2.05777  -0.00103   0.00000  -0.00003  -0.00003   2.05774
    R9        2.62551  -0.00551   0.00000  -0.00335  -0.00333   2.62218
   R10        2.06468  -0.00023   0.00000  -0.00057  -0.00057   2.06411
   R11        2.65248   0.00639   0.00000   0.00340   0.00342   2.65589
   R12        2.06169   0.00038   0.00000   0.00019   0.00019   2.06188
   R13        2.05779  -0.00039   0.00000  -0.00036  -0.00036   2.05744
   R14        2.11105   0.03732   0.00000  -0.13413  -0.13549   1.97556
   R15        3.06889   0.01224   0.00000  -0.00078   0.00193   3.07082
   R16        1.83330   0.00232   0.00000  -0.00015  -0.00015   1.83315
   R17        2.07870   0.02886   0.00000   0.14765   0.14602   2.22472
    A1        1.81674   0.00700   0.00000  -0.00397  -0.00411   1.81263
    A2        2.06453   0.00582   0.00000   0.01157   0.01157   2.07611
    A3        1.82554  -0.00217   0.00000   0.01158   0.01145   1.83699
    A4        2.39310  -0.00365   0.00000  -0.02314  -0.02301   2.37009
    A5        2.07464   0.00423   0.00000  -0.00095  -0.00160   2.07304
    A6        2.07169   0.00830   0.00000   0.01633   0.01673   2.08842
    A7        2.13685  -0.01253   0.00000  -0.01538  -0.01513   2.12172
    A8        2.06426   0.00394   0.00000   0.00528   0.00518   2.06944
    A9        2.08283  -0.00354   0.00000  -0.00488  -0.00484   2.07799
   A10        2.13610  -0.00041   0.00000  -0.00040  -0.00035   2.13575
   A11        2.15360  -0.00229   0.00000  -0.00476  -0.00481   2.14879
   A12        2.01866   0.00123   0.00000   0.00057   0.00059   2.01925
   A13        2.11093   0.00106   0.00000   0.00419   0.00422   2.11515
   A14        2.08959   0.00318   0.00000   0.00303   0.00297   2.09255
   A15        2.09254  -0.00117   0.00000  -0.00081  -0.00078   2.09176
   A16        2.10106  -0.00201   0.00000  -0.00221  -0.00218   2.09887
   A17        2.05754   0.00187   0.00000   0.00025   0.00021   2.05775
[...]
 ! A15   A(4,6,11)             119.5781         -DE/DX =    0.0                 !
 ! A16   A(7,6,11)             119.7444         -DE/DX =    0.0                 !
 ! A17   A(5,7,6)              117.9126         -DE/DX =    0.0                 !
 ! A18   A(5,7,12)             120.4659         -DE/DX =    0.0                 !
 ! A19   A(6,7,12)             121.6214         -DE/DX =    0.0                 !
 ! A20   A(1,8,13)             158.4777         -DE/DX =    0.0                 !
 ! A21   A(1,8,15)             109.3197         -DE/DX =    0.0                 !
 ! A22   A(8,13,14)            110.612          -DE/DX =    0.0                 !
 ! A23   A(8,13,15)             81.6379         -DE/DX =    0.0                 !
 ! A24   A(14,13,15)           112.1282         -DE/DX =    0.0                 !
 ! A25   A(2,15,8)             101.4609         -DE/DX =    0.0                 !
 ! A26   A(2,15,13)            150.274          -DE/DX =    0.0                 !
 ! D1    D(8,1,3,2)             -0.1016         -DE/DX =    0.0                 !
 ! D2    D(8,1,3,4)            179.9718         -DE/DX =    0.0                 !
 ! D3    D(3,1,8,13)             5.8371         -DE/DX =    0.0                 !
 ! D4    D(3,1,8,15)            -0.5588         -DE/DX =    0.0                 !
 ! D5    D(5,2,3,1)           -179.832          -DE/DX =    0.0                 !
 ! D6    D(5,2,3,4)              0.0981         -DE/DX =    0.0                 !
 ! D7    D(15,2,3,1)             0.8849         -DE/DX =    0.0                 !
 ! D8    D(15,2,3,4)          -179.1849         -DE/DX =    0.0                 !
 ! D9    D(3,2,5,7)             -0.0503         -DE/DX =    0.0                 !
 ! D10   D(3,2,5,10)           179.7613         -DE/DX =    0.0                 !
 ! D11   D(15,2,5,7)           179.0169         -DE/DX =    0.0                 !
 ! D12   D(15,2,5,10)           -1.1715         -DE/DX =    0.0                 !
 ! D13   D(3,2,15,8)            -1.014          -DE/DX =    0.0                 !
 ! D14   D(3,2,15,13)           -7.3825         -DE/DX =    0.0                 !
 ! D15   D(5,2,15,8)           179.8131         -DE/DX =    0.0                 !
 ! D16   D(5,2,15,13)          173.4447         -DE/DX =    0.0                 !
 ! D17   D(1,3,4,6)            179.8293         -DE/DX =    0.0                 !
 ! D18   D(1,3,4,9)             -0.0288         -DE/DX =    0.0                 !
 ! D19   D(2,3,4,6)             -0.0968         -DE/DX =    0.0                 !
 ! D20   D(2,3,4,9)           -179.9549         -DE/DX =    0.0                 !
 ! D21   D(3,4,6,7)              0.0494         -DE/DX =    0.0                 !
 ! D22   D(3,4,6,11)          -179.8915         -DE/DX =    0.0                 !
 ! D23   D(9,4,6,7)            179.9016         -DE/DX =    0.0                 !
 ! D24   D(9,4,6,11)            -0.0393         -DE/DX =    0.0                 !
 ! D25   D(2,5,7,6)             -0.0002         -DE/DX =    0.0                 !
 ! D26   D(2,5,7,12)           179.8804         -DE/DX =    0.0                 !
 ! D27   D(10,5,7,6)          -179.7999         -DE/DX =    0.0                 !
 ! D28   D(10,5,7,12)            0.0807         -DE/DX =    0.0                 !
 ! D29   D(4,6,7,5)             -0.0007         -DE/DX =    0.0                 !
 ! D30   D(4,6,7,12)          -179.8799         -DE/DX =    0.0                 !
 ! D31   D(11,6,7,5)           179.9401         -DE/DX =    0.0                 !
 ! D32   D(11,6,7,12)            0.0609         -DE/DX =    0.0                 !
 ! D33   D(1,8,13,14)         -118.5458         -DE/DX =    0.0                 !
 ! D34   D(1,8,13,15)           -7.9679         -DE/DX =    0.0                 !
 ! D35   D(1,8,15,2)             1.0875         -DE/DX =    0.0                 !
 ! D36   D(8,13,14,15)          89.1526         -DE/DX =    0.0                 !
 ! D37   D(8,13,15,2)            8.2766         -DE/DX =    0.0                 !
 ! D38   D(14,13,15,2)         117.2023         -DE/DX =    0.0                 !
 --------------------------------------------------------------------------------
 GradGradGradGradGradGradGradGradGradGradGradGradGradGradGradGradGradGrad

 Leave Link  103 at Sun Aug 29 00:10:20 2021, MaxMem= 17179869184 cpu:        75.7
 (Enter /public3/home/sc51754/softwares/g09e01/l9999.exe)
 1\1\GINC-U1405\Freq\RBP86\Gen\C5H7N1O2\SC51754\29-Aug-2021\0\\#P Geom=
 AllCheck Guess=TCheck SCRF=Check GenChk RBP86/ChkBas Freq\\HY_H2O_BP86
 _PC2_OPT_FREQ\\0,1\O,1.3110811645,1.4057821056,-0.0101919081\N,0.34016
 01256,-0.6715724707,-0.0102034122\C,0.2202357926,0.6972782425,-0.00422
 00649\C,-1.0807967226,1.267432194,0.0065927982\C,-0.7430063101,-1.4749
 325173,-0.0080109733\C,-2.1844520425,0.4352574476,0.0087436274\C,-2.02
 8736186,-0.9665774462,0.001378957\H,2.2110964956,0.5999304963,-0.01817
 08676\H,-1.1700648248,2.3524679329,0.0105430723\H,-0.5417370603,-2.547
 3597408,-0.0173181585\H,-3.1860129626,0.8687742568,0.0152419806\H,-2.8
 866410648,-1.6358870453,0.0010048498\O,2.773350994,-0.516655351,-0.071
 1878138\H,3.2651284607,-0.6907716057,0.7472393471\H,1.5833795706,-0.91
 43580487,-0.0020745439\\Version=EM64L-G09RevE.01\State=1-A\HF=-400.132
 2142\RMSD=4.501e-09\RMSF=1.112e-05\ZeroPoint=0.1094778\Thermal=0.11622
 74\Dipole=-1.0127922,-0.6710539,0.5387028\DipoleDeriv=-1.7962472,-0.29
 20995,-0.0114406,-0.1584194,-0.7993617,0.0052708,-0.0123292,0.0047197,
 -0.311833,-1.2350418,0.1596305,-0.0057834,-0.4586352,-0.4550445,-0.000
 718,-0.0424713,0.0002048,-0.1404104,1.5474511,0.6773497,-0.00089,0.656
 5198,0.576385,0.0010628,-0.0097284,-0.0051897,0.1693165,-0.5703352,-0.
 3878524,-0.0020045,0.1008374,0.0417336,-0.0004492,0.0131919,0.0002378,
 -0.1520769,0.5441107,-0.2558763,-0.0031566,0.2853873,0.2342961,0.00840
 82,0.0003617,0.0072465,-0.016513,0.2443947,0.0930718,-0.0011016,0.0753
 367,0.4543237,0.0025127,-0.003028,0.0011551,-0.0854378,-0.2345926,0.29
 08867,0.0003872,0.0267292,-0.3754273,-0.0020509,0.0095511,-0.0018763,-
 0.1723554,1.0730362,-0.4069072,0.0031221,-0.9242867,0.681989,-0.034619
 7,-0.0069587,-0.0243345,0.1892277,0.0626528,-0.0039685,0.0000943,0.013
 0325,-0.0335395,-0.0006511,0.0004894,-0.0005823,0.1452111,0.060867,0.0
 264385,-0.0002521,-0.0158254,-0.0697161,-0.0012703,-0.0044561,-0.00180
 65,0.1250498,-0.0587972,0.061744,0.0008457,0.0628923,0.0587462,-0.0006
 626,-0.0010428,-0.0000277,0.1236702,-0.0184077,-0.0669622,-0.0001973,-
 0.0656234,0.0089942,-0.0003975,-0.0000146,-0.0003959,0.1529638,-1.6919
 44,0.2123172,0.0145876,0.3381005,-0.7321364,-0.0077666,0.0872837,-0.02
 50487,-0.3253877,0.2693736,0.0017451,-0.0251154,-0.0109713,0.2573289,0
 .0105876,-0.0553062,0.024158,0.1383814,1.8034798,-0.1095176,0.0309046,
 0.0749256,0.1514289,0.0207437,0.0244577,0.0215396,0.1601936\Polar=109.
 9872016,3.3819552,88.1557657,1.3325206,-0.2819621,45.3519567\PG=C01 [X
 (C5H7N1O2)]\NImag=1\\0.41484843,0.13367555,0.31835619,-0.00238699,-0.0
 0147598,0.04939863,0.02337629,-0.05521671,0.00041793,0.57007518,-0.035
 83394,-0.05479042,-0.00018424,0.11502866,0.57166863,0.00125419,-0.0002
 9235,0.01228130,-0.00004749,0.00142996,0.09350868,-0.30126079,-0.12549
 891,0.00153558,-0.16143984,0.01742992,-0.00103279,0.74798729,-0.125411
 35,-0.18546352,0.00136655,0.03796329,-0.22609317,-0.00122126,0.0352162
 4,0.58788940,0.00092210,0.00048368,-0.06041796,0.00028323,-0.00085254,
 -0.06612592,-0.00264173,0.00115009,0.18136309,-0.06814528,0.00433240,0
 .00051445,0.02518953,0.05642829,0.00061546,-0.22310950,0.04732504,0.00
 086390,0.63018270,-0.02829967,0.01934953,0.00016427,0.03461803,-0.0250
 3861,-0.00026994,0.08753595,-0.14745425,-0.00092470,0.03970970,0.72071
 911,0.00052734,0.00053283,0.01223419,-0.00031734,-0.00054401,0.0113342
 4,0.00141867,-0.00097599,-0.06970094,-0.00284780,0.00209872,0.10977822
 ,-0.01208705,0.01144884,-0.00001270,-0.25539958,-0.08796148,0.00078577
 ,0.04518525,-0.06760860,-0.00049375,-0.05167730,-0.00313690,0.00027819
 ,0.66238768,-0.00318561,-0.00031632,-0.00015114,-0.10548212,-0.1970282
 3,0.00014234,-0.02179877,-0.05307145,0.00003715,-0.00787920,-0.0001311
 3,0.00010843,-0.04057453,0.71560448,0.00000307,0.00002332,0.00766970,0
 .00041410,-0.00011282,-0.05023821,-0.00034473,0.00008776,-0.00278394,0
 .00018934,0.00008455,-0.00267034,-0.00289353,0.00380835,0.13592328,0.0
 0366447,0.00340873,-0.00003063,-0.00760305,-0.01379519,-0.00027455,-0.
 04923053,-0.00221134,0.00031961,-0.27728158,-0.14003778,0.00068518,0.0
 1262461,0.03452012,0.00020911,0.70595360,0.01919707,-0.00631741,-0.000
 05744,-0.03132103,-0.04436400,-0.00013784,-0.03414374,0.05678321,0.000
 53219,-0.09410076,-0.20822677,-0.00012438,0.07375922,-0.01617787,-0.00
 051837,-0.00602828,0.63237231,0.00008988,-0.00007358,0.00439344,-0.000
 03170,-0.00009667,-0.00585369,0.00006909,0.00027105,0.00036663,0.00075
 186,0.00004676,-0.05109981,0.00034104,-0.00029032,0.00688233,-0.002872
 68,0.00220434,0.13112654,0.00562340,-0.00588789,0.00001582,-0.07221736
 ,-0.03939859,0.00021683,-0.02314270,0.03670762,0.00023986,0.03553266,-
 0.02398413,-0.00029964,-0.30901694,0.10852967,0.00179557,-0.11846698,-
 0.00518131,0.00022762,0.70451608,-0.01322169,0.00173575,0.00002727,0.0
 0133207,0.04453948,0.00028034,0.02767023,-0.03071133,-0.00031214,-0.05
 065801,-0.03631309,0.00006720,0.05862166,-0.15413110,-0.00091997,0.046
 22555,-0.29415368,-0.00126593,0.04003103,0.64048254,-0.00018130,0.0001
 4833,-0.00089400,0.00020249,0.00033957,0.01550155,0.00033045,-0.000382
 15,-0.00735555,-0.00042935,-0.00013451,0.00623707,0.00144736,-0.001032
 02,-0.05953688,0.00052949,-0.00114476,-0.05625436,-0.00251305,0.002690
 75,0.10799135,-0.00526631,-0.00661039,-0.00130137,-0.01495704,0.012894
 44,-0.00123363,-0.05958862,-0.01856352,0.00045506,0.01032391,0.0016724
 7,0.00012333,0.00162594,0.00318539,0.00002166,-0.00182300,-0.00463860,
 -0.00001569,-0.00120495,0.00368690,0.00018077,0.06802072,-0.02652928,-
 0.04922286,0.00082147,0.01554508,-0.01179173,0.00141107,0.02148122,0.0
 4499978,-0.00011975,-0.01604662,-0.00624763,-0.00008763,-0.00340670,-0
 .00543834,-0.00010174,0.00157301,0.00775917,0.00003273,0.00304363,-0.0
 0504209,-0.00019945,0.04645888,0.05100119,0.00158945,-0.00151814,-0.03
 241743,-0.00092023,0.00007150,-0.00140214,-0.00059558,-0.00043807,0.00
 072718,0.00024732,0.00002939,0.00355405,-0.00002020,0.00011914,-0.0007
 5423,-0.00005956,-0.00012371,0.00089160,-0.00010550,0.00005631,0.00032
 029,0.00495646,0.00419906,0.06389926,0.00230501,-0.00166570,-0.0000272
 7,-0.00608501,0.00400129,0.00003322,0.00314421,0.02763482,0.00007675,-
 0.05576641,0.02462136,0.00026259,-0.00192620,-0.00102702,-0.00000069,0
 .00631964,-0.02503188,-0.00011173,-0.00344105,-0.00247285,0.00005437,-
 0.00077145,0.00089464,-0.00003007,0.05354131,-0.00040077,0.00135370,0.
 00001629,0.00272872,-0.00023050,-0.00001529,-0.00291204,-0.00979336,0.
 00000486,0.02629956,-0.32466115,-0.00114071,0.00059638,0.00090663,0.00
 000552,0.00324005,-0.01250207,-0.00005125,-0.00337261,0.00110578,0.000
 00293,0.00043731,-0.00038873,0.00001167,-0.02607790,0.34384402,-0.0000
 2726,-0.00000912,-0.00213724,0.00008884,-0.00002840,0.00508972,0.00000
 656,-0.00018117,0.00219875,0.00022928,-0.00101529,-0.03083132,0.000013
 06,0.00000921,-0.00053237,-0.00001985,0.00004660,0.00152623,0.00003884
 ,-0.00003709,0.00831436,-0.00001440,0.00000968,-0.00034817,-0.00027016
 ,0.00119664,0.02218861,-0.00089579,-0.00152333,-0.00000185,0.00406572,
 -0.03212461,-0.00023836,-0.00300717,-0.00118461,0.00005505,-0.00041481
 ,-0.00067937,0.00000337,-0.06663925,0.05787728,0.00056251,-0.00542498,
 0.00120795,0.00006386,0.00147941,0.02659693,0.00021507,0.00081856,-0.0
 0077314,0.00001312,0.00017189,0.00000462,-0.00001164,0.06884082,-0.000
 47146,-0.00142853,0.00000950,-0.00370101,-0.02096597,-0.00013144,-0.00
 255039,0.00323618,-0.00008106,0.00016268,0.00040367,0.00000259,0.05467
 486,-0.30613573,-0.00226123,0.00226279,0.00071169,-0.00006240,-0.00051
 681,-0.00588148,-0.00010004,0.00043595,-0.00033844,0.00000418,0.000078
 25,-0.00010014,0.00001041,-0.05081853,0.33020299,0.00004983,-0.0000387
 1,0.00005717,0.00013353,0.00020842,-0.00080980,0.00001142,0.00000057,0
 .00789200,0.00005675,0.00002521,-0.00037360,0.00051225,-0.00258342,-0.
 03631950,0.00002825,-0.00006601,0.00701585,0.00002645,-0.00013765,0.00
 579501,-0.00008037,0.00007878,-0.00013237,-0.00001146,0.00000392,-0.00
 143774,-0.00058931,0.00255948,0.02366262,-0.00190581,0.00070946,0.0000
 0861,0.00025002,-0.00055424,-0.00000879,-0.00074354,-0.00384087,0.0000
 1718,-0.01852454,0.01137533,0.00014617,0.00164863,0.00061108,0.0000176
 7,-0.27729643,0.09634368,0.00154584,0.00034509,-0.00060965,0.00000080,
 0.00040396,-0.00074623,-0.00000024,0.00106650,-0.00014341,-0.00002299,
 -0.00006793,-0.00013070,-0.00000131,0.29442081,-0.00092028,0.00062707,
 0.00001049,-0.00090664,-0.00016955,0.00000814,-0.00317852,-0.00204341,
 -0.00003224,-0.01744389,0.01066066,0.00010802,-0.00007386,-0.00621440,
 -0.00005791,0.09679383,-0.09718888,-0.00069971,0.02809101,-0.00662398,
 -0.00016875,0.00002911,-0.00029985,0.00000308,0.00040906,0.00080754,0.
 00001888,0.00150948,-0.00040935,-0.00000439,-0.10373865,0.09955448,-0.
 00000052,-0.00007012,-0.00098256,0.00004732,0.00001191,-0.00193525,0.0
 0003135,0.00000102,0.01005538,0.00007714,0.00001585,0.00503800,0.00003
 950,-0.00008482,0.00615816,0.00145011,-0.00069922,-0.03853267,0.000144
 48,-0.00003415,0.00412164,-0.00003771,0.00003436,-0.00044114,-0.000029
 50,0.00000755,-0.00460447,0.00000132,0.00000337,-0.00040156,-0.0017006
 4,0.00079354,0.02469280,0.00053346,-0.00029420,0.00000380,-0.00498866,
 0.00324614,0.00007707,-0.00031661,0.00132720,-0.00000935,0.00106957,0.
 00147295,0.00001640,-0.01625261,-0.02015741,-0.00009385,0.00692438,0.0
 0450088,-0.00001392,-0.22481950,-0.13216738,0.00008874,-0.00025133,0.0
 0053527,-0.00002227,0.00023513,0.00035180,0.00000129,0.00065954,0.0002
 2380,-0.00001185,0.00059986,-0.00046276,-0.00000914,0.23612242,-0.0004
 4999,0.00044522,0.00000576,0.00362240,0.00024256,-0.00005588,0.0012316
 2,-0.00115561,-0.00001032,0.00237270,-0.00456318,-0.00006066,0.0102004
 8,0.01016841,0.00002519,-0.02458630,-0.01298337,0.00001919,-0.13340890
 ,-0.15659640,-0.00018440,0.00019165,-0.00032093,0.00000801,-0.00122299
 ,-0.00053603,0.00000050,-0.00052065,0.00048043,0.00002657,0.00027100,0
 .00108068,0.00002252,0.14240518,0.16321388,-0.00000351,-0.00003962,-0.
 00088194,0.00005915,-0.00009029,0.00764504,-0.00001143,0.00003102,-0.0
 0021789,0.00002388,-0.00005306,0.00527835,0.00014358,0.00015751,-0.001
 38187,-0.00014562,-0.00003334,0.00001368,0.00002307,-0.00027037,-0.027
 07208,0.00001518,-0.00001693,-0.00000631,-0.00000574,-0.00000396,0.000
 61472,-0.00002311,0.00003504,-0.00349153,-0.00001150,0.00002172,-0.002
 88138,-0.00006470,0.00021817,0.02172290,-0.01912685,0.03671724,0.00061
 190,-0.07773481,-0.00980041,-0.00267906,-0.00321957,-0.00391567,0.0003
 7547,0.00046594,0.00136002,0.00024718,-0.00205975,0.01382597,-0.000113
 08,-0.00060677,-0.00156911,-0.00007361,-0.00495301,-0.00152885,0.00034
 416,-0.02893701,0.00754582,-0.00179935,-0.00057495,0.00038617,-0.00000
 804,-0.00030951,-0.00105470,-0.00015603,-0.00028035,0.00005262,-0.0000
 3296,-0.00133262,0.00037746,0.00005436,0.27831105,0.08036323,-0.040000
 42,0.00332510,-0.02436310,0.01859275,-0.00358735,-0.02835321,-0.030584
 58,0.00032053,0.01008153,0.00548215,-0.00037821,0.00349224,0.00497395,
 -0.00007337,-0.00105674,-0.00534165,-0.00005879,-0.00264280,0.00334663
 ,0.00029217,-0.03311411,-0.01128419,-0.02185340,-0.00113352,0.00052544
 ,-0.00002696,0.00063356,0.00001740,-0.00009009,0.00043027,0.00021082,0
 .00006564,-0.00044132,0.00028559,0.00006210,-0.06739966,0.12421192,-0.
 00373238,0.00495023,0.01429240,-0.00624703,-0.00063543,0.01513832,0.00
 108483,-0.00042086,-0.00019190,-0.00021111,0.00003752,-0.00180392,-0.0
 0041019,0.00040226,0.00080668,0.00011095,-0.00002350,0.00012296,-0.000
 11606,-0.00016830,-0.00122763,-0.00341487,-0.00673058,-0.03751928,0.00
 003121,-0.00000692,0.00015108,0.00000866,-0.00009321,0.00054394,0.0000
 1125,0.00000934,0.00024744,-0.00008836,-0.00000589,-0.00021590,0.20286
 585,-0.07216427,0.40053792,0.00088677,0.00193447,0.00165945,-0.0068761
 9,-0.00177592,0.00398863,-0.00058250,-0.00105314,-0.00057827,0.0001139
 5,0.00015643,-0.00051261,-0.00080277,0.00099283,0.00009721,0.00004340,
 -0.00013788,0.00006284,-0.00026263,-0.00027315,-0.00036539,-0.00434522
 ,-0.00099841,-0.00569026,0.00000503,0.00003525,0.00001008,-0.00005722,
 -0.00014199,0.00015041,0.00001860,0.00000031,0.00007273,-0.00011026,0.
 00003590,-0.00003858,-0.13453009,0.03824228,-0.19358366,0.14456488,0.0
 0632269,-0.00631908,-0.00382334,-0.00509034,0.00086750,0.00189644,-0.0
 0148133,-0.00176458,-0.00010504,0.00045758,0.00022595,0.00037302,-0.00
 000581,0.00091228,-0.00000413,-0.00003876,-0.00020093,0.00002035,-0.00
 032923,-0.00004648,-0.00009560,0.00275365,0.00770334,0.01846207,-0.000
 07089,0.00004678,0.00001153,-0.00004864,-0.00012653,-0.00000617,0.0000
 2117,0.00000309,-0.00006786,-0.00009494,0.00002572,-0.00001966,0.03696
 084,-0.03967723,0.06786050,-0.04405620,0.03695144,0.00321290,-0.003129
 54,0.00014602,0.00443899,0.00008160,0.00003424,-0.00040314,-0.00015272
 ,0.00000804,0.00007451,0.00000962,-0.00004747,0.00028628,-0.00032923,0
 .00003287,0.00002536,0.00002788,-0.00001050,0.00017193,0.00008484,-0.0
 0001163,-0.00101028,0.00257991,-0.00019037,0.00001118,0.00000099,0.000
 00558,-0.00001975,0.00005878,0.00001905,0.00000737,-0.00000539,0.00001
 448,0.00007643,0.00000250,0.00000230,-0.21436500,0.07731854,-0.3536090
 9,0.21082683,-0.07522988,0.35308311,-0.04254995,0.00447046,-0.00100674
 ,-0.01565520,0.01221564,-0.00145649,0.02932462,0.03761488,0.00011489,-
 0.00795884,-0.00638441,0.00026896,-0.00761065,-0.01943768,0.00013564,0
 .00220322,0.00714377,-0.00003271,0.01002848,-0.00323278,0.00009539,0.0
 3595182,-0.04857718,0.00243691,0.00177635,-0.00117314,-0.00001361,0.00
 078072,0.00154727,-0.00011858,0.00006511,-0.00016080,-0.00005347,0.001
 92722,-0.00051956,-0.00001503,-0.00511171,0.02526136,0.00369090,0.0019
 3425,0.00470020,-0.00333360,-0.00510544,-0.00483449,0.00199110,-0.0000
 5456,0.01524270,-0.05543876,0.00054307,0.02935173,-0.00477332,-0.00009
 069,-0.00104101,-0.00420528,0.00002077,-0.01002582,0.00607884,0.000014
 84,-0.00026970,-0.00016975,0.00000422,-0.00168068,-0.00171055,-0.00003
 207,-0.00881915,-0.02108869,0.00096892,0.00106333,-0.00037793,-0.00000
 542,-0.00015694,0.00033380,0.00002350,0.00000177,0.00000509,0.00000041
 ,-0.00044521,0.00021304,0.00000168,-0.01195774,-0.03075858,0.00698911,
 0.00703922,0.00139872,-0.00131791,-0.01346801,0.10850228,-0.00131682,0
 .00050876,-0.00274173,0.00147820,0.00040145,-0.03416809,0.00054145,0.0
 0086415,0.00418303,-0.00015562,-0.00011441,0.00307328,-0.00001666,-0.0
 0031343,-0.00325568,0.00004483,0.00011756,-0.00058824,0.00013378,-0.00
 006110,0.00407087,0.00135587,-0.00191096,0.00381905,0.00001728,-0.0000
 3225,-0.00019773,-0.00003894,0.00004605,-0.00201954,-0.00000943,-0.000
 00481,-0.00054887,0.00004971,-0.00001127,0.00087191,0.01472820,0.01684
 835,-0.03727303,-0.01609941,-0.00927223,0.00052338,-0.00071245,-0.0070
 6587,0.06425139\\0.00002329,-0.00001483,0.00000252,-0.00000602,0.00000
 271,-0.00000742,-0.00000278,-0.00000151,0.00000176,0.00000262,0.000001
 64,0.00000116,-0.00000311,0.00000101,-0.00000051,0.00000084,0.00000251
 ,0.00000131,-0.00000110,0.00000272,-0.00000043,-0.00001321,-0.00000412
 ,-0.00000835,0.00000346,0.00000138,0.00000179,-0.00000331,0.00000044,-
 0.00000172,0.00000155,0.00000428,0.00000111,-0.00000212,0.00000404,-0.
 00000004,0.00003236,0.00003745,-0.00000695,-0.00000457,-0.00001496,-0.
 00000061,-0.00002790,-0.00002277,0.00001638\\\@


 LOVE IS BLIND, THAT'S WHY ALL THE WORLD LOVES A LOUVER.
 Job cpu time:       0 days  1 hours  1 minutes 37.9 seconds.
 File lengths (MBytes):  RWF=    137 Int=      0 D2E=      0 Chk=      9 Scr=      1
 Normal termination of Gaussian 09 at Sun Aug 29 00:10:20 2021.
