 Entering Gaussian System, Link 0=g09
 AtFile(1): pc-2.gbs
            -H     0
            S    4   1.00
                  0.754230D+02           0.240650D-02
                  0.113500D+02           0.184870D-01
                  0.259930D+01           0.897420D-01
                  0.735130D+00           0.281110D+00
            S    1   1.00
                  0.231670D+00           0.100000D+01
            S    1   1.00
                  0.741470D-01           0.100000D+01
            P    1   1.00
                  0.160000D+01           0.100000D+01
            P    1   1.00
                  0.450000D+00           0.100000D+01
            D    1   1.00
                  0.125000D+01           0.100000D+01
            ****
            -C     0
            S    7   1.00
                  0.785710D+04           0.568250D-03
                  0.117870D+04           0.439150D-02
                  0.268320D+03           0.225040D-01
                  0.759480D+02           0.866530D-01
                  0.245590D+02           0.244050D+00
                  0.862120D+01           0.441480D+00
                  0.312780D+01           0.353320D+00
            S    7   1.00
                  0.117870D+04          -0.594920D-06
                  0.268320D+03          -0.627480D-04
                  0.759480D+02          -0.757730D-03
                  0.245590D+02          -0.733080D-02
                  0.862120D+01          -0.389320D-01
                  0.312780D+01          -0.889080D-01
                  0.822020D+00           0.216890D+00
            S    1   1.00
                  0.330170D+00           0.100000D+01
            S    1   1.00
                  0.114630D+00           0.100000D+01
            P    4   1.00
                  0.337750D+02           0.602940D-02
                  0.767660D+01           0.432280D-01
                  0.223570D+01           0.163010D+00
                  0.764470D+00           0.365040D+00
            P    1   1.00
                  0.262320D+00           0.100000D+01
            P    1   1.00
                  0.846380D-01           0.100000D+01
            D    1   1.00
                  0.140000D+01           0.100000D+01
            D    1   1.00
                  0.450000D+00           0.100000D+01
            F    1   1.00
                  0.950000D+00           0.100000D+01
            ****
            -N     0
            S    7   1.00
                  0.111010D+05           0.545700D-03
                  0.166530D+04           0.421810D-02
                  0.379080D+03           0.216450D-01
                  0.107300D+03           0.837760D-01
                  0.347470D+02           0.238810D+00
                  0.122490D+02           0.439940D+00
                  0.447430D+01           0.363640D+00
            S    7   1.00
                  0.166530D+04          -0.150060D-05
                  0.379080D+03          -0.587530D-04
                  0.107300D+03          -0.774530D-03
                  0.347470D+02          -0.721610D-02
                  0.122490D+02          -0.393380D-01
                  0.447430D+01          -0.906110D-01
                  0.124040D+01           0.198820D+00
            S    1   1.00
                  0.487430D+00           0.100000D+01
            S    1   1.00
                  0.164840D+00           0.100000D+01
            P    4   1.00
                  0.479340D+02           0.617060D-02
                  0.109990D+02           0.442600D-01
                  0.324720D+01           0.168250D+00
                  0.111140D+01           0.368480D+00
            P    1   1.00
                  0.379880D+00           0.100000D+01
            P    1   1.00
                  0.120680D+00           0.100000D+01
            D    1   1.00
                  0.180000D+01           0.100000D+01
            D    1   1.00
                  0.550000D+00           0.100000D+01
            F    1   1.00
                  0.102000D+01           0.100000D+01
            ****
            -O     0
            S    7   1.00
                  0.147820D+05           0.535190D-03
                  0.221730D+04           0.413750D-02
                  0.504740D+03           0.212450D-01
                  0.142870D+03           0.824530D-01
                  0.463000D+02           0.236710D+00
                  0.163370D+02           0.440390D+00
                  0.598280D+01           0.364650D+00
            S    7   1.00
                  0.221730D+04          -0.192750D-05
                  0.504740D+03          -0.579640D-04
                  0.142870D+03          -0.794940D-03
                  0.463000D+02          -0.731250D-02
                  0.163370D+02          -0.405740D-01
                  0.598280D+01          -0.915940D-01
                  0.167180D+01           0.209400D+00
            S    1   1.00
                  0.646620D+00           0.100000D+01
            S    1   1.00
                  0.216690D+00           0.100000D+01
            P    4   1.00
                  0.604240D+02           0.689490D-02
                  0.139350D+02           0.490050D-01
                  0.415310D+01           0.182550D+00
                  0.141580D+01           0.376330D+00
            P    1   1.00
                  0.475490D+00           0.100000D+01
            P    1   1.00
                  0.145290D+00           0.100000D+01
            D    1   1.00
                  0.220000D+01           0.100000D+01
            D    1   1.00
                  0.650000D+00           0.100000D+01
            F    1   1.00
                  0.110000D+01           0.100000D+01
            ****
 Initial command:
 /public3/home/sc51754/softwares/g09e01/l1.exe "./Gau-9644.inp" -scrdir="./"
 Entering Link 1 = /public3/home/sc51754/softwares/g09e01/l1.exe PID=      9645.
  
 Copyright (c) 1988,1990,1992,1993,1995,1998,2003,2009,2015,
            Gaussian, Inc.  All Rights Reserved.
  
 This is part of the Gaussian(R) 09 program.  It is based on
 the Gaussian(R) 03 system (copyright 2003, Gaussian, Inc.),
 the Gaussian(R) 98 system (copyright 1998, Gaussian, Inc.),
 the Gaussian(R) 94 system (copyright 1995, Gaussian, Inc.),
 the Gaussian 92(TM) system (copyright 1992, Gaussian, Inc.),
 the Gaussian 90(TM) system (copyright 1990, Gaussian, Inc.),
 the Gaussian 88(TM) system (copyright 1988, Gaussian, Inc.),
 the Gaussian 86(TM) system (copyright 1986, Carnegie Mellon
 University), and the Gaussian 82(TM) system (copyright 1983,
 Carnegie Mellon University). Gaussian is a federally registered
 trademark of Gaussian, Inc.
  
 This software contains proprietary and confidential information,
 including trade secrets, belonging to Gaussian, Inc.
  
 This software is provided under written license and may be
 used, copied, transmitted, or stored only in accord with that
 written license.
  
 The following legend is applicable only to US Government
 contracts under FAR:
  
                    RESTRICTED RIGHTS LEGEND
  
 Use, reproduction and disclosure by the US Government is
 subject to restrictions as set forth in subparagraphs (a)
 and (c) of the Commercial Computer Software - Restricted
 Rights clause in FAR 52.227-19.
  
 Gaussian, Inc.
 340 Quinnipiac St., Bldg. 40, Wallingford CT 06492
  
  
 ---------------------------------------------------------------
 Warning -- This program may not be used in any manner that
 competes with the business of Gaussian, Inc. or will provide
 assistance to any competitor of Gaussian, Inc.  The licensee
 of this program is prohibited from giving any competitor of
 Gaussian, Inc. access to this program.  By using this program,
 the user acknowledges that Gaussian, Inc. is engaged in the
 business of creating and licensing software in the field of
 computational chemistry and represents and warrants to the
 licensee that it is not a competitor of Gaussian, Inc. and that
 it will not use this program in any manner prohibited above.
 ---------------------------------------------------------------
  

 Cite this work as:
 Gaussian 09, Revision E.01,
 M. J. Frisch, G. W. Trucks, H. B. Schlegel, G. E. Scuseria, 
 M. A. Robb, J. R. Cheeseman, G. Scalmani, V. Barone, B. Mennucci, 
 G. A. Petersson, H. Nakatsuji, M. Caricato, X. Li, H. P. Hratchian, 
 A. F. Izmaylov, J. Bloino, G. Zheng, J. L. Sonnenberg, M. Hada, 
 M. Ehara, K. Toyota, R. Fukuda, J. Hasegawa, M. Ishida, T. Nakajima, 
 Y. Honda, O. Kitao, H. Nakai, T. Vreven, J. A. Montgomery, Jr., 
 J. E. Peralta, F. Ogliaro, M. Bearpark, J. J. Heyd, E. Brothers, 
 K. N. Kudin, V. N. Staroverov, T. Keith, R. Kobayashi, J. Normand, 
 K. Raghavachari, A. Rendell, J. C. Burant, S. S. Iyengar, J. Tomasi, 
 M. Cossi, N. Rega, J. M. Millam, M. Klene, J. E. Knox, J. B. Cross, 
 V. Bakken, C. Adamo, J. Jaramillo, R. Gomperts, R. E. Stratmann, 
 O. Yazyev, A. J. Austin, R. Cammi, C. Pomelli, J. W. Ochterski, 
 R. L. Martin, K. Morokuma, V. G. Zakrzewski, G. A. Voth, 
 P. Salvador, J. J. Dannenberg, S. Dapprich, A. D. Daniels, 
 O. Farkas, J. B. Foresman, J. V. Ortiz, J. Cioslowski, 
 and D. J. Fox, Gaussian, Inc., Wallingford CT, 2013.
 
 ******************************************
 Gaussian 09:  EM64L-G09RevE.01 30-Nov-2015
                27-Aug-2021 
 ******************************************
 %nprocshared=64
 Will use up to   64 processors via shared memory.
 %mem=128GB
 %chk=HY_B3LYP_PC2_OPT_FREQ.chk
 ---------------------
 #p opt freq B3LYP/gen
 ---------------------
 1/14=-1,18=20,19=15,26=3,38=1/1,3;
 2/9=110,12=2,17=6,18=5,40=1/2;
 3/5=7,11=2,16=1,25=1,30=1,71=1,74=-5/1,2,3;
 4//1;
 5/5=2,38=5/2;
 6/7=2,8=2,9=2,10=2,28=1/1;
 7//1,2,3,16;
 1/14=-1,18=20,19=15,26=3/3(2);
 2/9=110/2;
 99//99;
 2/9=110/2;
 3/5=7,6=1,11=2,16=1,25=1,30=1,71=1,74=-5,82=7/1,2,3;
 4/5=5,16=3,69=1/1;
 5/5=2,38=5/2;
 7//1,2,3,16;
 1/14=-1,18=20,19=15,26=3/3(-5);
 2/9=110/2;
 6/7=2,8=2,9=2,10=2,19=2,28=1/1;
 99/9=1/99;
 Leave Link    1 at Fri Aug 27 00:06:29 2021, MaxMem= 17179869184 cpu:         3.9
 (Enter /public3/home/sc51754/softwares/g09e01/l101.exe)
 ---------------------
 HY_B3LYP_PC2_OPT_FREQ
 ---------------------
 Symbolic Z-matrix:
 Charge =  0 Multiplicity = 1
 O                     0.00837   2.23974   0. 
 N                    -1.17143   0.29602   0. 
 C                     0.        0.89831   0. 
 C                     1.21926   0.22535   0. 
 C                    -1.18415  -1.03535   0. 
 C                     1.18363  -1.14867   0. 
 C                    -0.04131  -1.80488   0. 
 H                    -0.91394   2.51588   0. 
 H                     2.14363   0.78426   0. 
 H                    -2.16362  -1.50192   0. 
 H                     2.10659  -1.71377   0. 
 H                    -0.10426  -2.88308   0. 
 
 NAtoms=     12 NQM=       12 NQMF=       0 NMMI=      0 NMMIF=      0
                NMic=       0 NMicF=      0.
                    Isotopes and Nuclear Properties:
 (Nuclear quadrupole moments (NQMom) in fm**2, nuclear magnetic moments (NMagM)
  in nuclear magnetons)

  Atom         1           2           3           4           5           6           7           8           9          10
 IAtWgt=          16          14          12          12          12          12          12           1           1           1
 AtmWgt=  15.9949146  14.0030740  12.0000000  12.0000000  12.0000000  12.0000000  12.0000000   1.0078250   1.0078250   1.0078250
 NucSpn=           0           2           0           0           0           0           0           1           1           1
 AtZEff=   0.0000000   0.0000000   0.0000000   0.0000000   0.0000000   0.0000000   0.0000000   0.0000000   0.0000000   0.0000000
 NQMom=    0.0000000   2.0440000   0.0000000   0.0000000   0.0000000   0.0000000   0.0000000   0.0000000   0.0000000   0.0000000
 NMagM=    0.0000000   0.4037610   0.0000000   0.0000000   0.0000000   0.0000000   0.0000000   2.7928460   2.7928460   2.7928460
 AtZNuc=   8.0000000   7.0000000   6.0000000   6.0000000   6.0000000   6.0000000   6.0000000   1.0000000   1.0000000   1.0000000

  Atom        11          12
 IAtWgt=           1           1
 AtmWgt=   1.0078250   1.0078250
 NucSpn=           1           1
 AtZEff=   0.0000000   0.0000000
 NQMom=    0.0000000   0.0000000
 NMagM=    2.7928460   2.7928460
 AtZNuc=   1.0000000   1.0000000
 Leave Link  101 at Fri Aug 27 00:06:30 2021, MaxMem= 17179869184 cpu:         5.0
 (Enter /public3/home/sc51754/softwares/g09e01/l103.exe)

 GradGradGradGradGradGradGradGradGradGradGradGradGradGradGradGradGradGrad
 Berny optimization.
 Initialization pass.
                           ----------------------------
                           !    Initial Parameters    !
                           ! (Angstroms and Degrees)  !
 --------------------------                            --------------------------
 ! Name  Definition              Value          Derivative Info.                !
 --------------------------------------------------------------------------------
 ! R1    R(1,3)                  1.3415         estimate D2E/DX2                !
 ! R2    R(1,8)                  0.9628         estimate D2E/DX2                !
 ! R3    R(2,3)                  1.3172         estimate D2E/DX2                !
 ! R4    R(2,5)                  1.3314         estimate D2E/DX2                !
 ! R5    R(3,4)                  1.3927         estimate D2E/DX2                !
 ! R6    R(4,6)                  1.3745         estimate D2E/DX2                !
 ! R7    R(4,9)                  1.0802         estimate D2E/DX2                !
 ! R8    R(5,7)                  1.3778         estimate D2E/DX2                !
 ! R9    R(5,10)                 1.0849         estimate D2E/DX2                !
 ! R10   R(6,7)                  1.3896         estimate D2E/DX2                !
 ! R11   R(6,11)                 1.0822         estimate D2E/DX2                !
 ! R12   R(7,12)                 1.08           estimate D2E/DX2                !
 ! A1    A(3,1,8)              106.3104         estimate D2E/DX2                !
 ! A2    A(3,2,5)              117.7571         estimate D2E/DX2                !
 ! A3    A(1,3,2)              117.5674         estimate D2E/DX2                !
 ! A4    A(1,3,4)              118.5383         estimate D2E/DX2                !
 ! A5    A(2,3,4)              123.8942         estimate D2E/DX2                !
 ! A6    A(3,4,6)              117.4104         estimate D2E/DX2                !
 ! A7    A(3,4,9)              119.945          estimate D2E/DX2                !
 ! A8    A(6,4,9)              122.6446         estimate D2E/DX2                !
 ! A9    A(2,5,7)              123.4071         estimate D2E/DX2                !
 ! A10   A(2,5,10)             116.018          estimate D2E/DX2                !
 ! A11   A(7,5,10)             120.5749         estimate D2E/DX2                !
 ! A12   A(4,6,7)              119.6636         estimate D2E/DX2                !
 ! A13   A(4,6,11)             119.9925         estimate D2E/DX2                !
 ! A14   A(7,6,11)             120.3439         estimate D2E/DX2                !
 ! A15   A(5,7,6)              117.8675         estimate D2E/DX2                !
 ! A16   A(5,7,12)             120.6134         estimate D2E/DX2                !
 ! A17   A(6,7,12)             121.519          estimate D2E/DX2                !
 ! D1    D(8,1,3,2)              0.0            estimate D2E/DX2                !
 ! D2    D(8,1,3,4)            180.0            estimate D2E/DX2                !
 ! D3    D(5,2,3,1)            180.0            estimate D2E/DX2                !
 ! D4    D(5,2,3,4)              0.0            estimate D2E/DX2                !
 ! D5    D(3,2,5,7)              0.0            estimate D2E/DX2                !
 ! D6    D(3,2,5,10)           180.0            estimate D2E/DX2                !
 ! D7    D(1,3,4,6)            180.0            estimate D2E/DX2                !
 ! D8    D(1,3,4,9)              0.0            estimate D2E/DX2                !
 ! D9    D(2,3,4,6)              0.0            estimate D2E/DX2                !
 ! D10   D(2,3,4,9)            180.0            estimate D2E/DX2                !
 ! D11   D(3,4,6,7)              0.0            estimate D2E/DX2                !
 ! D12   D(3,4,6,11)           180.0            estimate D2E/DX2                !
 ! D13   D(9,4,6,7)            180.0            estimate D2E/DX2                !
 ! D14   D(9,4,6,11)             0.0            estimate D2E/DX2                !
 ! D15   D(2,5,7,6)              0.0            estimate D2E/DX2                !
 ! D16   D(2,5,7,12)           180.0            estimate D2E/DX2                !
 ! D17   D(10,5,7,6)           180.0            estimate D2E/DX2                !
 ! D18   D(10,5,7,12)            0.0            estimate D2E/DX2                !
 ! D19   D(4,6,7,5)              0.0            estimate D2E/DX2                !
 ! D20   D(4,6,7,12)           180.0            estimate D2E/DX2                !
 ! D21   D(11,6,7,5)           180.0            estimate D2E/DX2                !
 ! D22   D(11,6,7,12)            0.0            estimate D2E/DX2                !
 --------------------------------------------------------------------------------
 Trust Radius=3.00D-01 FncErr=1.00D-07 GrdErr=1.00D-06
 Number of steps in this run=     61 maximum allowed number of steps=    100.
 GradGradGradGradGradGradGradGradGradGradGradGradGradGradGradGradGradGrad

 Leave Link  103 at Fri Aug 27 00:06:30 2021, MaxMem= 17179869184 cpu:         0.1
 (Enter /public3/home/sc51754/softwares/g09e01/l202.exe)
                          Input orientation:                          
 ---------------------------------------------------------------------
 Center     Atomic      Atomic             Coordinates (Angstroms)
 Number     Number       Type             X           Y           Z
 ---------------------------------------------------------------------
      1          8           0        0.008372    2.239736    0.000000
      2          7           0       -1.171427    0.296023    0.000000
      3          6           0        0.000000    0.898309    0.000000
      4          6           0        1.219264    0.225352    0.000000
      5          6           0       -1.184145   -1.035351    0.000000
      6          6           0        1.183632   -1.148671    0.000000
      7          6           0       -0.041314   -1.804878    0.000000
      8          1           0       -0.913944    2.515883    0.000000
      9          1           0        2.143627    0.784264    0.000000
     10          1           0       -2.163617   -1.501920    0.000000
     11          1           0        2.106589   -1.713772    0.000000
     12          1           0       -0.104256   -2.883075    0.000000
 ---------------------------------------------------------------------
                    Distance matrix (angstroms):
                    1          2          3          4          5
     1  O    0.000000
     2  N    2.273752   0.000000
     3  C    1.341453   1.317190   0.000000
     4  C    2.350320   2.391735   1.392651   0.000000
     5  C    3.485440   1.331435   2.267430   2.713991   0.000000
     6  C    3.586438   2.762869   2.364553   1.374485   2.370487
     7  C    4.044919   2.385569   2.703503   2.389747   1.377764
     8  H    0.962769   2.234743   1.857913   3.130033   3.561498
     9  H    2.584127   3.350815   2.146659   1.080199   3.792765
    10  H    4.326376   2.053543   3.231461   3.798335   1.084920
    11  H    4.475795   3.845083   3.355694   2.132498   3.359938
    12  H    5.124049   3.353434   3.782821   3.378465   2.140151
                    6          7          8          9         10
     6  C    0.000000
     7  C    1.389640   0.000000
     8  H    4.222414   4.407999   0.000000
     9  H    2.158200   3.387864   3.513865   0.000000
    10  H    3.365837   2.143818   4.207662   4.876370   0.000000
    11  H    1.082215   2.149834   5.197461   2.498311   4.275458
    12  H    2.160281   1.080033   5.459335   4.301436   2.479628
                   11         12
    11  H    0.000000
    12  H    2.501021   0.000000
 Stoichiometry    C5H5NO
 Framework group  CS[SG(C5H5NO)]
 Deg. of freedom    21
 Full point group                 CS      NOp   2
 Largest Abelian subgroup         CS      NOp   2
 Largest concise Abelian subgroup C1      NOp   1
                         Standard orientation:                         
 ---------------------------------------------------------------------
 Center     Atomic      Atomic             Coordinates (Angstroms)
 Number     Number       Type             X           Y           Z
 ---------------------------------------------------------------------
      1          8           0        0.008372    2.239736    0.000000
      2          7           0       -1.171427    0.296023    0.000000
      3          6           0       -0.000000    0.898309    0.000000
      4          6           0        1.219264    0.225352    0.000000
      5          6           0       -1.184145   -1.035351    0.000000
      6          6           0        1.183632   -1.148671    0.000000
      7          6           0       -0.041314   -1.804878    0.000000
      8          1           0       -0.913944    2.515883    0.000000
      9          1           0        2.143627    0.784264    0.000000
     10          1           0       -2.163617   -1.501920    0.000000
     11          1           0        2.106589   -1.713772    0.000000
     12          1           0       -0.104257   -2.883075    0.000000
 ---------------------------------------------------------------------
 Rotational constants (GHZ):      5.9244098      2.8053779      1.9038502
 Leave Link  202 at Fri Aug 27 00:06:30 2021, MaxMem= 17179869184 cpu:         6.4
 (Enter /public3/home/sc51754/softwares/g09e01/l301.exe)
 General basis read from cards:  (5D, 7F)
 Centers:       8      9     10     11     12
 S 4 1.00
     Exponent=  7.5423000000D+01 Coefficients=  2.4065000000D-03
     Exponent=  1.1350000000D+01 Coefficients=  1.8487000000D-02
     Exponent=  2.5993000000D+00 Coefficients=  8.9742000000D-02
     Exponent=  7.3513000000D-01 Coefficients=  2.8111000000D-01
 S 1 1.00
     Exponent=  2.3167000000D-01 Coefficients=  1.0000000000D+00
 S 1 1.00
     Exponent=  7.4147000000D-02 Coefficients=  1.0000000000D+00
 P 1 1.00
     Exponent=  1.6000000000D+00 Coefficients=  1.0000000000D+00
 P 1 1.00
     Exponent=  4.5000000000D-01 Coefficients=  1.0000000000D+00
 D 1 1.00
     Exponent=  1.2500000000D+00 Coefficients=  1.0000000000D+00
 ****
 Centers:       3      4      5      6      7
 S 7 1.00
     Exponent=  7.8571000000D+03 Coefficients=  5.6825000000D-04
     Exponent=  1.1787000000D+03 Coefficients=  4.3915000000D-03
     Exponent=  2.6832000000D+02 Coefficients=  2.2504000000D-02
     Exponent=  7.5948000000D+01 Coefficients=  8.6653000000D-02
     Exponent=  2.4559000000D+01 Coefficients=  2.4405000000D-01
     Exponent=  8.6212000000D+00 Coefficients=  4.4148000000D-01
     Exponent=  3.1278000000D+00 Coefficients=  3.5332000000D-01
 S 7 1.00
     Exponent=  1.1787000000D+03 Coefficients= -5.9492000000D-07
     Exponent=  2.6832000000D+02 Coefficients= -6.2748000000D-05
     Exponent=  7.5948000000D+01 Coefficients= -7.5773000000D-04
     Exponent=  2.4559000000D+01 Coefficients= -7.3308000000D-03
     Exponent=  8.6212000000D+00 Coefficients= -3.8932000000D-02
     Exponent=  3.1278000000D+00 Coefficients= -8.8908000000D-02
     Exponent=  8.2202000000D-01 Coefficients=  2.1689000000D-01
 S 1 1.00
     Exponent=  3.3017000000D-01 Coefficients=  1.0000000000D+00
 S 1 1.00
     Exponent=  1.1463000000D-01 Coefficients=  1.0000000000D+00
 P 4 1.00
     Exponent=  3.3775000000D+01 Coefficients=  6.0294000000D-03
     Exponent=  7.6766000000D+00 Coefficients=  4.3228000000D-02
     Exponent=  2.2357000000D+00 Coefficients=  1.6301000000D-01
     Exponent=  7.6447000000D-01 Coefficients=  3.6504000000D-01
 P 1 1.00
     Exponent=  2.6232000000D-01 Coefficients=  1.0000000000D+00
 P 1 1.00
     Exponent=  8.4638000000D-02 Coefficients=  1.0000000000D+00
 D 1 1.00
     Exponent=  1.4000000000D+00 Coefficients=  1.0000000000D+00
 D 1 1.00
     Exponent=  4.5000000000D-01 Coefficients=  1.0000000000D+00
 F 1 1.00
     Exponent=  9.5000000000D-01 Coefficients=  1.0000000000D+00
 ****
 Centers:       2
 S 7 1.00
     Exponent=  1.1101000000D+04 Coefficients=  5.4570000000D-04
     Exponent=  1.6653000000D+03 Coefficients=  4.2181000000D-03
     Exponent=  3.7908000000D+02 Coefficients=  2.1645000000D-02
     Exponent=  1.0730000000D+02 Coefficients=  8.3776000000D-02
     Exponent=  3.4747000000D+01 Coefficients=  2.3881000000D-01
     Exponent=  1.2249000000D+01 Coefficients=  4.3994000000D-01
     Exponent=  4.4743000000D+00 Coefficients=  3.6364000000D-01
 S 7 1.00
     Exponent=  1.6653000000D+03 Coefficients= -1.5006000000D-06
     Exponent=  3.7908000000D+02 Coefficients= -5.8753000000D-05
     Exponent=  1.0730000000D+02 Coefficients= -7.7453000000D-04
     Exponent=  3.4747000000D+01 Coefficients= -7.2161000000D-03
     Exponent=  1.2249000000D+01 Coefficients= -3.9338000000D-02
     Exponent=  4.4743000000D+00 Coefficients= -9.0611000000D-02
     Exponent=  1.2404000000D+00 Coefficients=  1.9882000000D-01
 S 1 1.00
     Exponent=  4.8743000000D-01 Coefficients=  1.0000000000D+00
 S 1 1.00
     Exponent=  1.6484000000D-01 Coefficients=  1.0000000000D+00
 P 4 1.00
     Exponent=  4.7934000000D+01 Coefficients=  6.1706000000D-03
     Exponent=  1.0999000000D+01 Coefficients=  4.4260000000D-02
     Exponent=  3.2472000000D+00 Coefficients=  1.6825000000D-01
     Exponent=  1.1114000000D+00 Coefficients=  3.6848000000D-01
 P 1 1.00
     Exponent=  3.7988000000D-01 Coefficients=  1.0000000000D+00
 P 1 1.00
     Exponent=  1.2068000000D-01 Coefficients=  1.0000000000D+00
 D 1 1.00
     Exponent=  1.8000000000D+00 Coefficients=  1.0000000000D+00
 D 1 1.00
     Exponent=  5.5000000000D-01 Coefficients=  1.0000000000D+00
 F 1 1.00
     Exponent=  1.0200000000D+00 Coefficients=  1.0000000000D+00
 ****
 Centers:       1
 S 7 1.00
     Exponent=  1.4782000000D+04 Coefficients=  5.3519000000D-04
     Exponent=  2.2173000000D+03 Coefficients=  4.1375000000D-03
     Exponent=  5.0474000000D+02 Coefficients=  2.1245000000D-02
     Exponent=  1.4287000000D+02 Coefficients=  8.2453000000D-02
     Exponent=  4.6300000000D+01 Coefficients=  2.3671000000D-01
     Exponent=  1.6337000000D+01 Coefficients=  4.4039000000D-01
     Exponent=  5.9828000000D+00 Coefficients=  3.6465000000D-01
 S 7 1.00
     Exponent=  2.2173000000D+03 Coefficients= -1.9275000000D-06
     Exponent=  5.0474000000D+02 Coefficients= -5.7964000000D-05
     Exponent=  1.4287000000D+02 Coefficients= -7.9494000000D-04
     Exponent=  4.6300000000D+01 Coefficients= -7.3125000000D-03
     Exponent=  1.6337000000D+01 Coefficients= -4.0574000000D-02
     Exponent=  5.9828000000D+00 Coefficients= -9.1594000000D-02
     Exponent=  1.6718000000D+00 Coefficients=  2.0940000000D-01
 S 1 1.00
     Exponent=  6.4662000000D-01 Coefficients=  1.0000000000D+00
 S 1 1.00
     Exponent=  2.1669000000D-01 Coefficients=  1.0000000000D+00
 P 4 1.00
     Exponent=  6.0424000000D+01 Coefficients=  6.8949000000D-03
     Exponent=  1.3935000000D+01 Coefficients=  4.9005000000D-02
     Exponent=  4.1531000000D+00 Coefficients=  1.8255000000D-01
     Exponent=  1.4158000000D+00 Coefficients=  3.7633000000D-01
 P 1 1.00
     Exponent=  4.7549000000D-01 Coefficients=  1.0000000000D+00
 P 1 1.00
     Exponent=  1.4529000000D-01 Coefficients=  1.0000000000D+00
 D 1 1.00
     Exponent=  2.2000000000D+00 Coefficients=  1.0000000000D+00
 D 1 1.00
     Exponent=  6.5000000000D-01 Coefficients=  1.0000000000D+00
 F 1 1.00
     Exponent=  1.1000000000D+00 Coefficients=  1.0000000000D+00
 ****
 Ernie: Thresh=  0.10000D-02 Tol=  0.10000D-05 Strict=F.
 Ernie:  7 primitive shells out of 220 were deleted.
 There are   223 symmetry adapted cartesian basis functions of A'  symmetry.
 There are    97 symmetry adapted cartesian basis functions of A"  symmetry.
 There are   190 symmetry adapted basis functions of A'  symmetry.
 There are    90 symmetry adapted basis functions of A"  symmetry.
   280 basis functions,   475 primitive gaussians,   320 cartesian basis functions
    25 alpha electrons       25 beta electrons
       nuclear repulsion energy       277.5236709615 Hartrees.
 IExCor=  402 DFT=T Ex+Corr=B3LYP ExCW=0 ScaHFX=  0.200000
 ScaDFX=  0.800000  0.720000  1.000000  0.810000 ScalE2=  1.000000  1.000000
 IRadAn=      0 IRanWt=     -1 IRanGd=            0 ICorTp=0 IEmpDi=  4
 NAtoms=   12 NActive=   12 NUniq=   12 SFac= 1.00D+00 NAtFMM=   60 NAOKFM=F Big=F
 Integral buffers will be    131072 words long.
 Raffenetti 2 integral format.
 Two-electron integral symmetry is turned on.
 Leave Link  301 at Fri Aug 27 00:06:30 2021, MaxMem= 17179869184 cpu:         1.4
 (Enter /public3/home/sc51754/softwares/g09e01/l302.exe)
 NPDir=0 NMtPBC=     1 NCelOv=     1 NCel=       1 NClECP=     1 NCelD=      1
         NCelK=      1 NCelE2=     1 NClLst=     1 CellRange=     0.0.
 One-electron integrals computed using PRISM.
 NBasis=   280 RedAO= T EigKep=  2.16D-04  NBF=   190    90
 NBsUse=   280 1.00D-06 EigRej= -1.00D+00 NBFU=   190    90
 Precomputing XC quadrature grid using
 IXCGrd= 4 IRadAn=           0 IRanWt=          -1 IRanGd=           0 AccXCQ= 0.00D+00.
 Generated NRdTot=       0 NPtTot=           0 NUsed=           0 NTot=          32
 NSgBfM=   320   320   320   320   320 MxSgAt=    12 MxSgA2=    12.
 Leave Link  302 at Fri Aug 27 00:06:31 2021, MaxMem= 17179869184 cpu:        39.8
 (Enter /public3/home/sc51754/softwares/g09e01/l303.exe)
 DipDrv:  MaxL=1.
 Leave Link  303 at Fri Aug 27 00:06:31 2021, MaxMem= 17179869184 cpu:        11.7
 (Enter /public3/home/sc51754/softwares/g09e01/l401.exe)
 ExpMin= 7.41D-02 ExpMax= 1.48D+04 ExpMxC= 5.05D+02 IAcc=2 IRadAn=         4 AccDes= 0.00D+00
 Harris functional with IExCor=  402 and IRadAn=       4 diagonalized for initial guess.
 HarFok:  IExCor=  402 AccDes= 0.00D+00 IRadAn=         4 IDoV= 1 UseB2=F ITyADJ=14
 ICtDFT=  3500011 ScaDFX=  1.000000  1.000000  1.000000  1.000000
 FoFCou: FMM=F IPFlag=           0 FMFlag=      100000 FMFlg1=           0
         NFxFlg=           0 DoJE=T BraDBF=F KetDBF=T FulRan=T
         wScrn=  0.000000 ICntrl=     500 IOpCl=  0 I1Cent=   200000004 NGrid=           0
         NMat0=    1 NMatS0=      1 NMatT0=    0 NMatD0=    1 NMtDS0=    0 NMtDT0=    0
 Petite list used in FoFCou.
 Harris En= -323.683677238981    
 JPrj=0 DoOrth=F DoCkMO=F.
 Initial guess orbital symmetries:
       Occupied  (A') (A') (A') (A') (A') (A') (A') (A') (A') (A')
                 (A') (A') (A') (A') (A') (A') (A') (A') (A") (A')
                 (A') (A") (A") (A') (A")
       Virtual   (A") (A") (A') (A') (A') (A") (A') (A') (A') (A')
                 (A') (A') (A") (A') (A") (A") (A') (A') (A') (A')
                 (A') (A') (A") (A") (A') (A') (A') (A') (A') (A')
                 (A') (A") (A') (A") (A') (A') (A') (A') (A') (A')
                 (A') (A') (A') (A") (A') (A') (A') (A") (A") (A')
                 (A") (A") (A') (A') (A") (A') (A') (A") (A') (A')
                 (A') (A") (A') (A') (A") (A') (A") (A') (A') (A")
                 (A') (A") (A") (A') (A") (A') (A') (A") (A') (A')
                 (A") (A') (A') (A') (A") (A') (A") (A') (A") (A')
                 (A") (A') (A') (A') (A') (A") (A') (A') (A') (A")
                 (A') (A') (A") (A') (A') (A') (A') (A") (A') (A')
                 (A') (A") (A') (A') (A') (A') (A") (A') (A') (A')
                 (A") (A') (A") (A') (A") (A') (A") (A") (A') (A")
                 (A") (A') (A') (A') (A") (A') (A') (A') (A") (A')
                 (A') (A') (A') (A") (A") (A') (A") (A') (A') (A')
                 (A") (A') (A') (A") (A") (A') (A") (A') (A") (A')
                 (A") (A') (A') (A') (A") (A") (A') (A") (A') (A')
                 (A") (A') (A') (A") (A') (A') (A") (A") (A') (A")
                 (A") (A") (A') (A') (A") (A') (A") (A") (A') (A")
                 (A") (A') (A') (A") (A') (A') (A") (A') (A") (A")
                 (A') (A') (A") (A') (A') (A') (A") (A') (A') (A')
                 (A") (A') (A') (A") (A') (A") (A') (A') (A") (A")
                 (A') (A') (A") (A') (A') (A") (A') (A') (A') (A')
                 (A") (A') (A') (A') (A') (A") (A") (A') (A') (A')
                 (A') (A") (A') (A') (A') (A') (A') (A') (A') (A')
                 (A') (A') (A') (A') (A')
 The electronic state of the initial guess is 1-A'.
 Leave Link  401 at Fri Aug 27 00:06:32 2021, MaxMem= 17179869184 cpu:        55.1
 (Enter /public3/home/sc51754/softwares/g09e01/l502.exe)
 Closed shell SCF:
 Using DIIS extrapolation, IDIIS=  1040.
 Integral symmetry usage will be decided dynamically.
 Keep R1 ints in memory in symmetry-blocked form, NReq=1167802198.
 IVT=      348658 IEndB=      348658 NGot= 17179869184 MDV= 16785904737
 LenX= 16785904737 LenY= 16785801896
 Requested convergence on RMS density matrix=1.00D-08 within 128 cycles.
 Requested convergence on MAX density matrix=1.00D-06.
 Requested convergence on             energy=1.00D-06.
 No special actions if energy rises.
 FoFCou: FMM=F IPFlag=           0 FMFlag=           0 FMFlg1=           0
         NFxFlg=           0 DoJE=F BraDBF=F KetDBF=F FulRan=T
         wScrn=  0.000000 ICntrl=     600 IOpCl=  0 I1Cent=           0 NGrid=           0
         NMat0=    1 NMatS0=  39340 NMatT0=    0 NMatD0=    1 NMtDS0=    0 NMtDT0=    0
 Petite list used in FoFCou.
 Integral accuracy reduced to 1.0D-05 until final iterations.

 Cycle   1  Pass 0  IDiag  1:
 E= -323.481408656235    
 DIIS: error= 3.08D-02 at cycle   1 NSaved=   1.
 NSaved= 1 IEnMin= 1 EnMin= -323.481408656235     IErMin= 1 ErrMin= 3.08D-02
 ErrMax= 3.08D-02  0.00D+00 EMaxC= 1.00D-01 BMatC= 2.00D-01 BMatP= 2.00D-01
 IDIUse=3 WtCom= 6.92D-01 WtEn= 3.08D-01
 Coeff-Com:  0.100D+01
 Coeff-En:   0.100D+01
 Coeff:      0.100D+01
 Gap=     0.199 Goal=   None    Shift=    0.000
 GapD=    0.199 DampG=1.000 DampE=0.500 DampFc=0.5000 IDamp=-1.
 Damping current iteration by 5.00D-01
 RMSDP=2.74D-03 MaxDP=1.29D-01              OVMax= 2.10D-01

 Cycle   2  Pass 0  IDiag  1:
 E= -323.556825739410     Delta-E=       -0.075417083175 Rises=F Damp=T
 DIIS: error= 4.90D-03 at cycle   2 NSaved=   2.
 NSaved= 2 IEnMin= 2 EnMin= -323.556825739410     IErMin= 2 ErrMin= 4.90D-03
 ErrMax= 4.90D-03  0.00D+00 EMaxC= 1.00D-01 BMatC= 1.06D-02 BMatP= 2.00D-01
 IDIUse=3 WtCom= 9.51D-01 WtEn= 4.90D-02
 Coeff-Com:  0.714D-01 0.929D+00
 Coeff-En:   0.150D+00 0.850D+00
 Coeff:      0.752D-01 0.925D+00
 Gap=     0.215 Goal=   None    Shift=    0.000
 RMSDP=5.72D-04 MaxDP=3.71D-02 DE=-7.54D-02 OVMax= 1.43D-01

 Cycle   3  Pass 0  IDiag  1:
 E= -323.654625964269     Delta-E=       -0.097800224859 Rises=F Damp=F
 DIIS: error= 3.99D-03 at cycle   3 NSaved=   3.
 NSaved= 3 IEnMin= 3 EnMin= -323.654625964269     IErMin= 3 ErrMin= 3.99D-03
 ErrMax= 3.99D-03  0.00D+00 EMaxC= 1.00D-01 BMatC= 4.70D-03 BMatP= 1.06D-02
 IDIUse=3 WtCom= 9.60D-01 WtEn= 3.99D-02
 Coeff-Com: -0.219D-01 0.374D+00 0.648D+00
 Coeff-En:   0.000D+00 0.000D+00 0.100D+01
 Coeff:     -0.210D-01 0.359D+00 0.662D+00
 Gap=     0.212 Goal=   None    Shift=    0.000
 RMSDP=2.82D-04 MaxDP=1.80D-02 DE=-9.78D-02 OVMax= 4.03D-02

 Cycle   4  Pass 0  IDiag  1:
 E= -323.657176887466     Delta-E=       -0.002550923197 Rises=F Damp=F
 DIIS: error= 3.90D-03 at cycle   4 NSaved=   4.
 NSaved= 4 IEnMin= 4 EnMin= -323.657176887466     IErMin= 4 ErrMin= 3.90D-03
 ErrMax= 3.90D-03  0.00D+00 EMaxC= 1.00D-01 BMatC= 1.81D-03 BMatP= 4.70D-03
 IDIUse=3 WtCom= 9.61D-01 WtEn= 3.90D-02
 Coeff-Com: -0.218D-01 0.134D+00 0.420D+00 0.468D+00
 Coeff-En:   0.000D+00 0.000D+00 0.315D+00 0.685D+00
 Coeff:     -0.209D-01 0.128D+00 0.416D+00 0.477D+00
 Gap=     0.211 Goal=   None    Shift=    0.000
 RMSDP=1.37D-04 MaxDP=4.14D-03 DE=-2.55D-03 OVMax= 2.16D-02

 Cycle   5  Pass 0  IDiag  1:
 E= -323.659011746865     Delta-E=       -0.001834859398 Rises=F Damp=F
 DIIS: error= 8.05D-04 at cycle   5 NSaved=   5.
 NSaved= 5 IEnMin= 5 EnMin= -323.659011746865     IErMin= 5 ErrMin= 8.05D-04
 ErrMax= 8.05D-04  0.00D+00 EMaxC= 1.00D-01 BMatC= 1.04D-04 BMatP= 1.81D-03
 IDIUse=3 WtCom= 9.92D-01 WtEn= 8.05D-03
 Coeff-Com: -0.821D-02 0.245D-01 0.139D+00 0.249D+00 0.596D+00
 Coeff-En:   0.000D+00 0.000D+00 0.000D+00 0.000D+00 0.100D+01
 Coeff:     -0.814D-02 0.243D-01 0.138D+00 0.247D+00 0.599D+00
 Gap=     0.211 Goal=   None    Shift=    0.000
 RMSDP=3.29D-05 MaxDP=1.44D-03 DE=-1.83D-03 OVMax= 5.15D-03

 Cycle   6  Pass 0  IDiag  1:
 E= -323.659098447583     Delta-E=       -0.000086700718 Rises=F Damp=F
 DIIS: error= 2.60D-04 at cycle   6 NSaved=   6.
 NSaved= 6 IEnMin= 6 EnMin= -323.659098447583     IErMin= 6 ErrMin= 2.60D-04
 ErrMax= 2.60D-04  0.00D+00 EMaxC= 1.00D-01 BMatC= 1.71D-05 BMatP= 1.04D-04
 IDIUse=3 WtCom= 9.97D-01 WtEn= 2.60D-03
 Coeff-Com: -0.323D-02 0.410D-02 0.494D-01 0.111D+00 0.366D+00 0.474D+00
 Coeff-En:   0.000D+00 0.000D+00 0.000D+00 0.000D+00 0.850D-01 0.915D+00
 Coeff:     -0.322D-02 0.409D-02 0.493D-01 0.110D+00 0.365D+00 0.475D+00
 Gap=     0.211 Goal=   None    Shift=    0.000
 RMSDP=1.04D-05 MaxDP=5.03D-04 DE=-8.67D-05 OVMax= 1.09D-03

 Cycle   7  Pass 0  IDiag  1:
 E= -323.659112743230     Delta-E=       -0.000014295647 Rises=F Damp=F
 DIIS: error= 3.75D-05 at cycle   7 NSaved=   7.
 NSaved= 7 IEnMin= 7 EnMin= -323.659112743230     IErMin= 7 ErrMin= 3.75D-05
 ErrMax= 3.75D-05  0.00D+00 EMaxC= 1.00D-01 BMatC= 3.19D-07 BMatP= 1.71D-05
 IDIUse=1 WtCom= 1.00D+00 WtEn= 0.00D+00
 Coeff-Com: -0.865D-03 0.431D-03 0.148D-01 0.354D-01 0.127D+00 0.195D+00
 Coeff-Com:  0.628D+00
 Coeff:     -0.865D-03 0.431D-03 0.148D-01 0.354D-01 0.127D+00 0.195D+00
 Coeff:      0.628D+00
 Gap=     0.211 Goal=   None    Shift=    0.000
 RMSDP=2.64D-06 MaxDP=9.97D-05 DE=-1.43D-05 OVMax= 4.06D-04

 Initial convergence to 1.0D-05 achieved.  Increase integral accuracy.
 Cycle   8  Pass 1  IDiag  1:
 E= -323.659051598059     Delta-E=        0.000061145170 Rises=F Damp=F
 DIIS: error= 3.73D-05 at cycle   1 NSaved=   1.
 NSaved= 1 IEnMin= 1 EnMin= -323.659051598059     IErMin= 1 ErrMin= 3.73D-05
 ErrMax= 3.73D-05  0.00D+00 EMaxC= 1.00D-01 BMatC= 3.02D-07 BMatP= 3.02D-07
 IDIUse=1 WtCom= 1.00D+00 WtEn= 0.00D+00
 Coeff-Com:  0.100D+01
 Coeff:      0.100D+01
 Gap=     0.211 Goal=   None    Shift=    0.000
 RMSDP=2.64D-06 MaxDP=9.97D-05 DE= 6.11D-05 OVMax= 5.53D-04

 Cycle   9  Pass 1  IDiag  1:
 E= -323.659051314024     Delta-E=        0.000000284036 Rises=F Damp=F
 DIIS: error= 5.35D-05 at cycle   2 NSaved=   2.
 NSaved= 2 IEnMin= 1 EnMin= -323.659051598059     IErMin= 1 ErrMin= 3.73D-05
 ErrMax= 5.35D-05  0.00D+00 EMaxC= 1.00D-01 BMatC= 6.15D-07 BMatP= 3.02D-07
 IDIUse=1 WtCom= 1.00D+00 WtEn= 0.00D+00
 Coeff-Com:  0.603D+00 0.397D+00
 Coeff:      0.603D+00 0.397D+00
 Gap=     0.211 Goal=   None    Shift=    0.000
 RMSDP=2.57D-06 MaxDP=8.76D-05 DE= 2.84D-07 OVMax= 4.35D-04

 Cycle  10  Pass 1  IDiag  1:
 E= -323.659051908012     Delta-E=       -0.000000593988 Rises=F Damp=F
 DIIS: error= 1.10D-05 at cycle   3 NSaved=   3.
 NSaved= 3 IEnMin= 3 EnMin= -323.659051908012     IErMin= 3 ErrMin= 1.10D-05
 ErrMax= 1.10D-05  0.00D+00 EMaxC= 1.00D-01 BMatC= 3.25D-08 BMatP= 3.02D-07
 IDIUse=1 WtCom= 1.00D+00 WtEn= 0.00D+00
 Coeff-Com:  0.179D-01 0.184D+00 0.798D+00
 Coeff:      0.179D-01 0.184D+00 0.798D+00
 Gap=     0.211 Goal=   None    Shift=    0.000
 RMSDP=6.18D-07 MaxDP=2.49D-05 DE=-5.94D-07 OVMax= 8.05D-05

 Cycle  11  Pass 1  IDiag  1:
 E= -323.659051935584     Delta-E=       -0.000000027572 Rises=F Damp=F
 DIIS: error= 3.43D-06 at cycle   4 NSaved=   4.
 NSaved= 4 IEnMin= 4 EnMin= -323.659051935584     IErMin= 4 ErrMin= 3.43D-06
 ErrMax= 3.43D-06  0.00D+00 EMaxC= 1.00D-01 BMatC= 5.29D-09 BMatP= 3.25D-08
 IDIUse=1 WtCom= 1.00D+00 WtEn= 0.00D+00
 Coeff-Com: -0.177D-01 0.948D-01 0.484D+00 0.438D+00
 Coeff:     -0.177D-01 0.948D-01 0.484D+00 0.438D+00
 Gap=     0.211 Goal=   None    Shift=    0.000
 RMSDP=1.84D-07 MaxDP=8.80D-06 DE=-2.76D-08 OVMax= 2.77D-05

 Cycle  12  Pass 1  IDiag  1:
 E= -323.659051940014     Delta-E=       -0.000000004430 Rises=F Damp=F
 DIIS: error= 9.23D-07 at cycle   5 NSaved=   5.
 NSaved= 5 IEnMin= 5 EnMin= -323.659051940014     IErMin= 5 ErrMin= 9.23D-07
 ErrMax= 9.23D-07  0.00D+00 EMaxC= 1.00D-01 BMatC= 1.04D-10 BMatP= 5.29D-09
 IDIUse=1 WtCom= 1.00D+00 WtEn= 0.00D+00
 Coeff-Com: -0.885D-02 0.420D-01 0.217D+00 0.217D+00 0.533D+00
 Coeff:     -0.885D-02 0.420D-01 0.217D+00 0.217D+00 0.533D+00
 Gap=     0.211 Goal=   None    Shift=    0.000
 RMSDP=3.87D-08 MaxDP=1.37D-06 DE=-4.43D-09 OVMax= 5.96D-06

 Cycle  13  Pass 1  IDiag  1:
 E= -323.659051940086     Delta-E=       -0.000000000072 Rises=F Damp=F
 DIIS: error= 3.41D-07 at cycle   6 NSaved=   6.
 NSaved= 6 IEnMin= 6 EnMin= -323.659051940086     IErMin= 6 ErrMin= 3.41D-07
 ErrMax= 3.41D-07  0.00D+00 EMaxC= 1.00D-01 BMatC= 2.36D-11 BMatP= 1.04D-10
 IDIUse=1 WtCom= 1.00D+00 WtEn= 0.00D+00
 Coeff-Com: -0.271D-02 0.110D-01 0.572D-01 0.598D-01 0.330D+00 0.544D+00
 Coeff:     -0.271D-02 0.110D-01 0.572D-01 0.598D-01 0.330D+00 0.544D+00
 Gap=     0.211 Goal=   None    Shift=    0.000
 RMSDP=1.58D-08 MaxDP=8.72D-07 DE=-7.19D-11 OVMax= 2.47D-06

 Cycle  14  Pass 1  IDiag  1:
 E= -323.659051940121     Delta-E=       -0.000000000035 Rises=F Damp=F
 DIIS: error= 5.23D-08 at cycle   7 NSaved=   7.
 NSaved= 7 IEnMin= 7 EnMin= -323.659051940121     IErMin= 7 ErrMin= 5.23D-08
 ErrMax= 5.23D-08  0.00D+00 EMaxC= 1.00D-01 BMatC= 1.10D-12 BMatP= 2.36D-11
 IDIUse=1 WtCom= 1.00D+00 WtEn= 0.00D+00
 Coeff-Com: -0.230D-03 0.242D-03 0.136D-02 0.608D-03 0.870D-01 0.239D+00
 Coeff-Com:  0.672D+00
 Coeff:     -0.230D-03 0.242D-03 0.136D-02 0.608D-03 0.870D-01 0.239D+00
 Coeff:      0.672D+00
 Gap=     0.211 Goal=   None    Shift=    0.000
 RMSDP=3.35D-09 MaxDP=1.87D-07 DE=-3.54D-11 OVMax= 4.43D-07

 SCF Done:  E(RB3LYP) =  -323.659051940     A.U. after   14 cycles
            NFock= 14  Conv=0.34D-08     -V/T= 2.0035
 KE= 3.225380368281D+02 PE=-1.310281618220D+03 EE= 3.865608584903D+02
 Leave Link  502 at Fri Aug 27 00:06:39 2021, MaxMem= 17179869184 cpu:       225.6
 (Enter /public3/home/sc51754/softwares/g09e01/l601.exe)
 Copying SCF densities to generalized density rwf, IOpCl= 0 IROHF=0.

 **********************************************************************

            Population analysis using the SCF density.

 **********************************************************************

 Orbital symmetries:
       Occupied  (A') (A') (A') (A') (A') (A') (A') (A') (A') (A')
                 (A') (A') (A') (A') (A') (A') (A') (A") (A') (A')
                 (A') (A") (A") (A') (A")
       Virtual   (A") (A") (A') (A') (A') (A') (A') (A") (A') (A')
                 (A") (A') (A') (A') (A") (A") (A') (A') (A') (A")
                 (A') (A") (A') (A') (A') (A') (A') (A') (A') (A')
                 (A') (A") (A') (A') (A") (A') (A') (A') (A') (A')
                 (A') (A') (A') (A") (A') (A') (A') (A") (A") (A")
                 (A') (A") (A') (A') (A") (A') (A') (A") (A') (A')
                 (A') (A') (A") (A') (A') (A") (A') (A") (A') (A')
                 (A") (A") (A") (A') (A") (A') (A') (A") (A') (A')
                 (A") (A') (A') (A') (A') (A") (A") (A') (A") (A')
                 (A") (A') (A') (A') (A') (A") (A') (A') (A") (A')
                 (A') (A') (A") (A') (A') (A') (A') (A") (A') (A')
                 (A') (A") (A') (A') (A') (A') (A") (A') (A') (A')
                 (A") (A') (A") (A') (A") (A') (A") (A") (A') (A")
                 (A") (A') (A') (A') (A") (A') (A') (A") (A') (A')
                 (A') (A') (A") (A') (A") (A') (A") (A') (A') (A')
                 (A") (A') (A') (A") (A") (A') (A") (A') (A") (A')
                 (A") (A') (A') (A') (A") (A") (A') (A") (A') (A')
                 (A') (A") (A') (A") (A') (A') (A") (A') (A") (A")
                 (A") (A") (A') (A') (A") (A') (A") (A") (A') (A")
                 (A') (A") (A') (A") (A') (A') (A") (A') (A") (A")
                 (A') (A') (A") (A') (A') (A') (A") (A') (A') (A')
                 (A") (A') (A") (A') (A') (A") (A') (A') (A") (A")
                 (A') (A') (A") (A') (A') (A") (A') (A') (A') (A')
                 (A") (A') (A') (A') (A') (A") (A") (A') (A') (A')
                 (A') (A') (A") (A') (A') (A') (A') (A') (A') (A')
                 (A') (A') (A') (A') (A')
 The electronic state is 1-A'.
 Alpha  occ. eigenvalues --  -19.16220 -14.31593 -10.27185 -10.21595 -10.19855
 Alpha  occ. eigenvalues --  -10.18515 -10.18072  -1.08977  -0.95088  -0.81760
 Alpha  occ. eigenvalues --   -0.76607  -0.65751  -0.63851  -0.56444  -0.52587
 Alpha  occ. eigenvalues --   -0.49168  -0.45452  -0.44884  -0.42327  -0.40729
 Alpha  occ. eigenvalues --   -0.37965  -0.36564  -0.30072  -0.28226  -0.24941
 Alpha virt. eigenvalues --   -0.03800  -0.01110   0.01842   0.02771   0.04206
 Alpha virt. eigenvalues --    0.06278   0.08025   0.13025   0.13411   0.15363
 Alpha virt. eigenvalues --    0.15451   0.16413   0.18357   0.19039   0.19738
 Alpha virt. eigenvalues --    0.20213   0.22067   0.25263   0.25888   0.26815
 Alpha virt. eigenvalues --    0.27612   0.29146   0.29463   0.29984   0.32008
 Alpha virt. eigenvalues --    0.33510   0.35033   0.36542   0.37107   0.37973
 Alpha virt. eigenvalues --    0.39087   0.41259   0.43959   0.44888   0.44907
 Alpha virt. eigenvalues --    0.49098   0.51858   0.52162   0.54592   0.57585
 Alpha virt. eigenvalues --    0.60879   0.62734   0.63625   0.64474   0.66162
 Alpha virt. eigenvalues --    0.67486   0.71896   0.76176   0.77366   0.81128
 Alpha virt. eigenvalues --    0.82467   0.86425   0.87763   0.90841   0.92550
 Alpha virt. eigenvalues --    0.94906   0.96786   0.96952   0.98454   1.00485
 Alpha virt. eigenvalues --    1.02988   1.08955   1.09749   1.10869   1.14282
 Alpha virt. eigenvalues --    1.14731   1.15392   1.17304   1.18725   1.19678
 Alpha virt. eigenvalues --    1.21945   1.25823   1.27607   1.29646   1.29671
 Alpha virt. eigenvalues --    1.31432   1.36391   1.41114   1.42234   1.44391
 Alpha virt. eigenvalues --    1.49435   1.50100   1.51452   1.54170   1.54659
 Alpha virt. eigenvalues --    1.55739   1.58148   1.61202   1.62521   1.66283
 Alpha virt. eigenvalues --    1.66634   1.67294   1.70655   1.73308   1.74287
 Alpha virt. eigenvalues --    1.78669   1.80477   1.82802   1.86071   1.86171
 Alpha virt. eigenvalues --    1.88960   1.95364   1.95681   1.97031   2.01091
 Alpha virt. eigenvalues --    2.05363   2.10666   2.11713   2.14463   2.18293
 Alpha virt. eigenvalues --    2.22022   2.22928   2.25867   2.27358   2.30094
 Alpha virt. eigenvalues --    2.34412   2.38606   2.58836   2.67973   2.73548
 Alpha virt. eigenvalues --    2.86709   2.94050   2.95803   3.00470   3.15114
 Alpha virt. eigenvalues --    3.16976   3.20782   3.23561   3.26160   3.27007
 Alpha virt. eigenvalues --    3.31277   3.33175   3.35320   3.39194   3.40039
 Alpha virt. eigenvalues --    3.43201   3.47727   3.48056   3.50243   3.57610
 Alpha virt. eigenvalues --    3.58322   3.60422   3.61577   3.62142   3.68339
 Alpha virt. eigenvalues --    3.71147   3.72772   3.78349   3.81137   3.82539
 Alpha virt. eigenvalues --    3.84574   3.87525   3.90504   3.92726   3.96951
 Alpha virt. eigenvalues --    3.97278   4.00935   4.04517   4.05763   4.06853
 Alpha virt. eigenvalues --    4.07338   4.10027   4.12518   4.16489   4.17604
 Alpha virt. eigenvalues --    4.18209   4.20056   4.21871   4.22218   4.24271
 Alpha virt. eigenvalues --    4.27198   4.27719   4.29811   4.31901   4.32382
 Alpha virt. eigenvalues --    4.33029   4.33899   4.37894   4.39493   4.40940
 Alpha virt. eigenvalues --    4.43914   4.44749   4.45297   4.46231   4.47753
 Alpha virt. eigenvalues --    4.49861   4.50452   4.51552   4.55199   4.57625
 Alpha virt. eigenvalues --    4.59649   4.59747   4.64630   4.65819   4.67910
 Alpha virt. eigenvalues --    4.74506   4.76827   4.80085   4.84557   4.87954
 Alpha virt. eigenvalues --    4.89765   4.90402   4.98258   4.99216   5.04803
 Alpha virt. eigenvalues --    5.09050   5.09603   5.12056   5.18847   5.20207
 Alpha virt. eigenvalues --    5.23316   5.24288   5.28628   5.31876   5.34319
 Alpha virt. eigenvalues --    5.36634   5.36837   5.38821   5.40635   5.42222
 Alpha virt. eigenvalues --    5.44130   5.46775   5.54403   5.56954   5.62135
 Alpha virt. eigenvalues --    5.64388   5.65710   5.68243   5.77844   5.79944
 Alpha virt. eigenvalues --    5.82910   5.99444   6.03967   6.07961   6.08363
 Alpha virt. eigenvalues --    6.09473   6.24839   6.25208   6.26951   6.28645
 Alpha virt. eigenvalues --    6.46021   6.47441   6.47813   6.62896   6.68988
 Alpha virt. eigenvalues --    6.92370   7.14621   7.31453   9.21899  12.01143
 Alpha virt. eigenvalues --   12.64218  15.43018  17.32729  18.55901  22.12776
          Condensed to atoms (all electrons):
               1          2          3          4          5          6
     1  O    7.864785  -0.102907   0.328585  -0.067840   0.003867   0.008248
     2  N   -0.102907   6.616068   0.485668  -0.019974   0.528826  -0.033680
     3  C    0.328585   0.485668   4.445435   0.494247  -0.079917  -0.059941
     4  C   -0.067840  -0.019974   0.494247   4.890524  -0.043908   0.522757
     5  C    0.003867   0.528826  -0.079917  -0.043908   4.608402  -0.073730
     6  C    0.008248  -0.033680  -0.059941   0.522757  -0.073730   4.728469
     7  C   -0.000896  -0.046802  -0.053865  -0.045413   0.501693   0.491616
     8  H    0.345550   0.015126  -0.036932   0.013865   0.001356  -0.002297
     9  H    0.004528   0.007349  -0.031607   0.428323  -0.002263  -0.036549
    10  H   -0.000498  -0.041867   0.005691  -0.004588   0.450265   0.009260
    11  H   -0.000226  -0.002175   0.008341  -0.040504   0.008118   0.438360
    12  H    0.000045   0.008004  -0.001067   0.007966  -0.029402  -0.038558
               7          8          9         10         11         12
     1  O   -0.000896   0.345550   0.004528  -0.000498  -0.000226   0.000045
     2  N   -0.046802   0.015126   0.007349  -0.041867  -0.002175   0.008004
     3  C   -0.053865  -0.036932  -0.031607   0.005691   0.008341  -0.001067
     4  C   -0.045413   0.013865   0.428323  -0.004588  -0.040504   0.007966
     5  C    0.501693   0.001356  -0.002263   0.450265   0.008118  -0.029402
     6  C    0.491616  -0.002297  -0.036549   0.009260   0.438360  -0.038558
     7  C    4.971512   0.001545   0.008650  -0.078540  -0.042450   0.426846
     8  H    0.001545   0.456440  -0.001103  -0.000713   0.000106  -0.000056
     9  H    0.008650  -0.001103   0.583633   0.000208  -0.007987  -0.000000
    10  H   -0.078540  -0.000713   0.000208   0.610677  -0.000192  -0.003706
    11  H   -0.042450   0.000106  -0.007987  -0.000192   0.595178  -0.007499
    12  H    0.426846  -0.000056  -0.000000  -0.003706  -0.007499   0.598170
 Mulliken charges:
               1
     1  O   -0.383242
     2  N   -0.413635
     3  C    0.495363
     4  C   -0.135455
     5  C    0.126693
     6  C    0.046043
     7  C   -0.133895
     8  H    0.207116
     9  H    0.046820
    10  H    0.054004
    11  H    0.050930
    12  H    0.039258
 Sum of Mulliken charges =  -0.00000
 Mulliken charges with hydrogens summed into heavy atoms:
               1
     1  O   -0.176126
     2  N   -0.413635
     3  C    0.495363
     4  C   -0.088635
     5  C    0.180697
     6  C    0.096974
     7  C   -0.094637
 Electronic spatial extent (au):  <R**2>=            624.2327
 Charge=             -0.0000 electrons
 Dipole moment (field-independent basis, Debye):
    X=              0.4977    Y=             -1.1990    Z=             -0.0000  Tot=              1.2982
 Quadrupole moment (field-independent basis, Debye-Ang):
   XX=            -38.2066   YY=            -37.0881   ZZ=            -43.1175
   XY=             -2.0139   XZ=              0.0000   YZ=              0.0000
 Traceless Quadrupole moment (field-independent basis, Debye-Ang):
   XX=              1.2642   YY=              2.3827   ZZ=             -3.6468
   XY=             -2.0139   XZ=              0.0000   YZ=              0.0000
 Octapole moment (field-independent basis, Debye-Ang**2):
  XXX=              6.2614  YYY=              4.5558  ZZZ=              0.0000  XYY=            -10.7597
  XXY=              0.5567  XXZ=              0.0000  XZZ=             -1.3922  YZZ=              5.4931
  YYZ=             -0.0000  XYZ=              0.0000
 Hexadecapole moment (field-independent basis, Debye-Ang**3):
 XXXX=           -269.3901 YYYY=           -460.9067 ZZZZ=            -47.6787 XXXY=              8.8157
 XXXZ=              0.0000 YYYX=            -29.4782 YYYZ=              0.0000 ZZZX=              0.0000
 ZZZY=              0.0000 XXYY=           -110.7382 XXZZ=            -59.9587 YYZZ=            -97.4373
 XXYZ=              0.0000 YYXZ=              0.0000 ZZXY=              0.7320
 N-N= 2.775236709615D+02 E-N=-1.310281623921D+03  KE= 3.225380368281D+02
 Symmetry A'   KE= 3.107900626139D+02
 Symmetry A"   KE= 1.174797421421D+01
 No NMR shielding tensors so no spin-rotation constants.
 Leave Link  601 at Fri Aug 27 00:06:40 2021, MaxMem= 17179869184 cpu:        61.4
 (Enter /public3/home/sc51754/softwares/g09e01/l701.exe)
 Compute integral first derivatives.
 ... and contract with generalized density number  0.
 Leave Link  701 at Fri Aug 27 00:06:41 2021, MaxMem= 17179869184 cpu:        77.4
 (Enter /public3/home/sc51754/softwares/g09e01/l702.exe)
 L702 exits ... SP integral derivatives will be done elsewhere.
 Leave Link  702 at Fri Aug 27 00:06:41 2021, MaxMem= 17179869184 cpu:         0.3
 (Enter /public3/home/sc51754/softwares/g09e01/l703.exe)
 Compute integral first derivatives, UseDBF=F ICtDFT=           0.
 Integral derivatives from FoFJK, PRISM(SPDF).
 Calling FoFJK, ICntrl=      2127 FMM=F ISym2X=1 I1Cent= 0 IOpClX= 0 NMat=1 NMatS=1 NMatT=0.
 FoFJK:  IHMeth= 1 ICntrl=    2127 DoSepK=F KAlg= 0 I1Cent=   0 FoldK=F
 IRaf=         0 NMat=   1 IRICut=       1 DoRegI=T DoRafI=F ISym2E= 1.
 FoFCou: FMM=F IPFlag=           0 FMFlag=      100000 FMFlg1=         800
         NFxFlg=           0 DoJE=F BraDBF=F KetDBF=F FulRan=T
         wScrn=  0.000000 ICntrl=    2127 IOpCl=  0 I1Cent=           0 NGrid=           0
         NMat0=    1 NMatS0=      1 NMatT0=    0 NMatD0=    1 NMtDS0=    0 NMtDT0=    0
 Petite list used in FoFCou.
 Leave Link  703 at Fri Aug 27 00:06:44 2021, MaxMem= 17179869184 cpu:       138.4
 (Enter /public3/home/sc51754/softwares/g09e01/l716.exe)
 Dipole        = 1.95817726D-01-4.71708467D-01-1.89760795D-32
 ***** Axes restored to original set *****
 -------------------------------------------------------------------
 Center     Atomic                   Forces (Hartrees/Bohr)
 Number     Number              X              Y              Z
 -------------------------------------------------------------------
      1        8           0.001672806    0.007752213   -0.000000000
      2        7          -0.004801102    0.002102927   -0.000000000
      3        6           0.002610646   -0.002265351    0.000000000
      4        6           0.004304043    0.003140870    0.000000000
      5        6          -0.006658523   -0.004141910   -0.000000000
      6        6           0.005104989   -0.004361183    0.000000000
      7        6           0.000404602   -0.004938078    0.000000000
      8        1          -0.002964882    0.002321281   -0.000000000
      9        1          -0.000153713   -0.000361562    0.000000000
     10        1           0.000552778    0.000580709   -0.000000000
     11        1          -0.000067168    0.000161837   -0.000000000
     12        1          -0.000004475    0.000008247   -0.000000000
 -------------------------------------------------------------------
 Cartesian Forces:  Max     0.007752213 RMS     0.002773047
 Leave Link  716 at Fri Aug 27 00:06:44 2021, MaxMem= 17179869184 cpu:         0.4
 (Enter /public3/home/sc51754/softwares/g09e01/l103.exe)

 GradGradGradGradGradGradGradGradGradGradGradGradGradGradGradGradGradGrad
 Berny optimization.
 FormGI is forming the generalized inverse of G from B-inverse, IUseBI=4.
 Internal  Forces:  Max     0.010063198 RMS     0.002614999
 Search for a local minimum.
 Step number   1 out of a maximum of   61
 All quantities printed in internal units (Hartrees-Bohrs-Radians)
 RMS Force = .26150D-02 SwitMx=.10000D-02 MixMth= 1
 Mixed Optimization -- RFO/linear search
 Second derivative matrix not updated -- first step.
 ITU=  0
     Eigenvalues ---    0.02265   0.02291   0.02312   0.02345   0.02366
     Eigenvalues ---    0.02409   0.02454   0.02466   0.02614   0.16000
     Eigenvalues ---    0.16000   0.16000   0.16000   0.16000   0.22000
     Eigenvalues ---    0.22422   0.24442   0.25000   0.35406   0.35728
     Eigenvalues ---    0.35970   0.35990   0.43621   0.45785   0.48169
     Eigenvalues ---    0.49389   0.54882   0.56881   0.57480   0.60970
 RFO step:  Lambda=-6.86722682D-04 EMin= 2.26525640D-02
 Linear search not attempted -- first point.
 Iteration  1 RMS(Cart)=  0.01027424 RMS(Int)=  0.00002292
 Iteration  2 RMS(Cart)=  0.00001769 RMS(Int)=  0.00000060
 Iteration  3 RMS(Cart)=  0.00000000 RMS(Int)=  0.00000060
 ITry= 1 IFail=0 DXMaxC= 5.07D-02 DCOld= 1.00D+10 DXMaxT= 3.00D-01 DXLimC= 3.00D+00 Rises=F
 ClnCor:  largest displacement from symmetrization is 5.39D-13 for atom    11.
 Variable       Old X    -DE/DX   Delta X   Delta X   Delta X     New X
                                 (Linear)    (Quad)   (Total)
    R1        2.53498   0.01006   0.00000   0.01767   0.01767   2.55265
    R2        1.81937   0.00351   0.00000   0.00639   0.00639   1.82576
    R3        2.48913   0.00687   0.00000   0.01113   0.01113   2.50026
    R4        2.51605   0.00617   0.00000   0.01058   0.01058   2.52663
    R5        2.63173   0.00560   0.00000   0.01196   0.01196   2.64369
    R6        2.59740   0.00652   0.00000   0.01280   0.01280   2.61020
    R7        2.04128  -0.00032   0.00000  -0.00088  -0.00088   2.04040
    R8        2.60360   0.00582   0.00000   0.01173   0.01173   2.61532
    R9        2.05020  -0.00075   0.00000  -0.00211  -0.00211   2.04809
   R10        2.62604   0.00538   0.00000   0.01113   0.01113   2.63716
   R11        2.04509  -0.00014   0.00000  -0.00040  -0.00040   2.04469
   R12        2.04097  -0.00001   0.00000  -0.00002  -0.00002   2.04094
    A1        1.85547   0.00249   0.00000   0.01551   0.01551   1.87098
    A2        2.05525   0.00107   0.00000   0.00542   0.00542   2.06067
    A3        2.05194   0.00018   0.00000   0.00051   0.00051   2.05245
    A4        2.06888   0.00115   0.00000   0.00437   0.00437   2.07325
    A5        2.16236  -0.00132   0.00000  -0.00488  -0.00488   2.15748
    A6        2.04920   0.00058   0.00000   0.00218   0.00218   2.05138
    A7        2.09344  -0.00006   0.00000   0.00034   0.00034   2.09378
    A8        2.14055  -0.00052   0.00000  -0.00252  -0.00252   2.13803
    A9        2.15386  -0.00078   0.00000  -0.00319  -0.00319   2.15067
   A10        2.02490   0.00010   0.00000  -0.00020  -0.00020   2.02469
   A11        2.10443   0.00068   0.00000   0.00339   0.00339   2.10782
   A12        2.08852   0.00005   0.00000  -0.00074  -0.00075   2.08778
   A13        2.09426  -0.00014   0.00000  -0.00031  -0.00031   2.09395
   A14        2.10040   0.00008   0.00000   0.00106   0.00106   2.10145
   A15        2.05718   0.00039   0.00000   0.00121   0.00121   2.05839
   A16        2.10510  -0.00020   0.00000  -0.00061  -0.00061   2.10450
   A17        2.12091  -0.00020   0.00000  -0.00060  -0.00060   2.12030
    D1        0.00000   0.00000   0.00000   0.00000   0.00000   0.00000
    D2        3.14159   0.00000   0.00000   0.00000   0.00000   3.14159
    D3        3.14159  -0.00000   0.00000  -0.00000   0.00000   3.14159
    D4        0.00000   0.00000   0.00000   0.00000   0.00000   0.00000
    D5       -0.00000  -0.00000   0.00000  -0.00000   0.00000   0.00000
    D6        3.14159  -0.00000   0.00000  -0.00000   0.00000   3.14159
    D7        3.14159   0.00000   0.00000   0.00000   0.00000   3.14159
    D8        0.00000   0.00000   0.00000   0.00000   0.00000   0.00000
    D9       -0.00000  -0.00000   0.00000  -0.00000   0.00000   0.00000
   D10        3.14159  -0.00000   0.00000  -0.00000   0.00000   3.14159
   D11        0.00000   0.00000   0.00000   0.00000   0.00000   0.00000
   D12        3.14159  -0.00000   0.00000  -0.00000   0.00000   3.14159
   D13        3.14159   0.00000   0.00000   0.00000   0.00000   3.14159
   D14       -0.00000   0.00000   0.00000  -0.00000   0.00000   0.00000
   D15       -0.00000  -0.00000   0.00000  -0.00000   0.00000   0.00000
   D16        3.14159  -0.00000   0.00000  -0.00000   0.00000   3.14159
   D17        3.14159   0.00000   0.00000   0.00000   0.00000   3.14159
   D18       -0.00000   0.00000   0.00000  -0.00000   0.00000   0.00000
   D19        0.00000  -0.00000   0.00000   0.00000   0.00000   0.00000
   D20        3.14159   0.00000   0.00000   0.00000   0.00000   3.14159
   D21        3.14159   0.00000   0.00000   0.00000   0.00000   3.14159
   D22       -0.00000   0.00000   0.00000   0.00000   0.00000   0.00000
         Item               Value     Threshold  Converged?
 Maximum Force            0.010063     0.000450     NO 
 RMS     Force            0.002615     0.000300     NO 
 Maximum Displacement     0.050666     0.001800     NO 
 RMS     Displacement     0.010277     0.001200     NO 
 Predicted change in Energy=-3.438799D-04
 Lowest energy point so far.  Saving SCF results.
 GradGradGradGradGradGradGradGradGradGradGradGradGradGradGradGradGradGrad

 Leave Link  103 at Fri Aug 27 00:06:45 2021, MaxMem= 17179869184 cpu:        40.8
 (Enter /public3/home/sc51754/softwares/g09e01/l202.exe)
                          Input orientation:                          
 ---------------------------------------------------------------------
 Center     Atomic      Atomic             Coordinates (Angstroms)
 Number     Number       Type             X           Y           Z
 ---------------------------------------------------------------------
      1          8           0        0.004137    2.254083   -0.000000
      2          7           0       -1.174633    0.294096   -0.000000
      3          6           0       -0.000145    0.903286   -0.000000
      4          6           0        1.223786    0.225684    0.000000
      5          6           0       -1.189865   -1.042851   -0.000000
      6          6           0        1.189198   -1.155140    0.000000
      7          6           0       -0.040846   -1.814296    0.000000
      8          1           0       -0.917898    2.542694   -0.000000
      9          1           0        2.148663    0.782839    0.000000
     10          1           0       -2.169279   -1.506938   -0.000000
     11          1           0        2.112651   -1.719029    0.000000
     12          1           0       -0.102988   -2.892528    0.000000
 ---------------------------------------------------------------------
                    Distance matrix (angstroms):
                    1          2          3          4          5
     1  O    0.000000
     2  N    2.287149   0.000000
     3  C    1.350804   1.323078   0.000000
     4  C    2.366843   2.399395   1.398982   0.000000
     5  C    3.506482   1.337034   2.280983   2.726700   0.000000
     6  C    3.609318   2.772722   2.377321   1.381257   2.381712
     7  C    4.068628   2.393907   2.717887   2.400170   1.383970
     8  H    0.966149   2.263207   1.878811   3.155209   3.595845
     9  H    2.600683   3.359043   2.152181   1.079731   3.805117
    10  H    4.343849   2.057436   3.242580   3.809839   1.083803
    11  H    4.497939   3.854726   3.367558   2.138222   3.371028
    12  H    5.147726   3.361993   3.797207   3.388743   2.145369
                    6          7          8          9         10
     6  C    0.000000
     7  C    1.395528   0.000000
     8  H    4.256035   4.444388   0.000000
     9  H    2.162484   3.396920   3.535659   0.000000
    10  H    3.376853   2.150511   4.238570   4.887505   0.000000
    11  H    1.082006   2.155604   5.229389   2.502127   4.287180
    12  H    2.165240   1.080021   5.495973   4.310250   2.487855
                   11         12
    11  H    0.000000
    12  H    2.507221   0.000000
 Stoichiometry    C5H5NO
 Framework group  CS[SG(C5H5NO)]
 Deg. of freedom    21
 Full point group                 CS      NOp   2
 RotChk:  IX=0 Diff= 5.70D-04
 Largest Abelian subgroup         CS      NOp   2
 Largest concise Abelian subgroup C1      NOp   1
                         Standard orientation:                         
 ---------------------------------------------------------------------
 Center     Atomic      Atomic             Coordinates (Angstroms)
 Number     Number       Type             X           Y           Z
 ---------------------------------------------------------------------
      1          8           0        0.003738    2.254116    0.000000
      2          7           0       -1.174243    0.293654    0.000000
      3          6           0       -0.000000    0.903317    0.000000
      4          6           0        1.224203    0.226207   -0.000000
      5          6           0       -1.188937   -1.043299    0.000000
      6          6           0        1.190172   -1.154631   -0.000000
      7          6           0       -0.039608   -1.814282   -0.000000
      8          1           0       -0.918413    2.542355    0.000000
      9          1           0        2.148856    0.783735   -0.000000
     10          1           0       -2.168164   -1.507780    0.000000
     11          1           0        2.113851   -1.718148   -0.000000
     12          1           0       -0.101315   -2.892539   -0.000000
 ---------------------------------------------------------------------
 Rotational constants (GHZ):      5.8810565      2.7725903      1.8842646
 Leave Link  202 at Fri Aug 27 00:06:45 2021, MaxMem= 17179869184 cpu:         4.9
 (Enter /public3/home/sc51754/softwares/g09e01/l301.exe)
 Basis read from rwf:  (5D, 7F)
 No pseudopotential information found on rwf file.
 There are   223 symmetry adapted cartesian basis functions of A'  symmetry.
 There are    97 symmetry adapted cartesian basis functions of A"  symmetry.
 There are   190 symmetry adapted basis functions of A'  symmetry.
 There are    90 symmetry adapted basis functions of A"  symmetry.
   280 basis functions,   475 primitive gaussians,   320 cartesian basis functions
    25 alpha electrons       25 beta electrons
       nuclear repulsion energy       276.2231346339 Hartrees.
 IExCor=  402 DFT=T Ex+Corr=B3LYP ExCW=0 ScaHFX=  0.200000
 ScaDFX=  0.800000  0.720000  1.000000  0.810000 ScalE2=  1.000000  1.000000
 IRadAn=      0 IRanWt=     -1 IRanGd=            0 ICorTp=0 IEmpDi=  4
 NAtoms=   12 NActive=   12 NUniq=   12 SFac= 1.00D+00 NAtFMM=   60 NAOKFM=F Big=F
 Integral buffers will be    131072 words long.
 Raffenetti 2 integral format.
 Two-electron integral symmetry is turned on.
 No density basis found on file   724.
 Leave Link  301 at Fri Aug 27 00:06:45 2021, MaxMem= 17179869184 cpu:         1.7
 (Enter /public3/home/sc51754/softwares/g09e01/l302.exe)
 NPDir=0 NMtPBC=     1 NCelOv=     1 NCel=       1 NClECP=     1 NCelD=      1
         NCelK=      1 NCelE2=     1 NClLst=     1 CellRange=     0.0.
 One-electron integrals computed using PRISM.
 NBasis=   280 RedAO= T EigKep=  2.22D-04  NBF=   190    90
 NBsUse=   280 1.00D-06 EigRej= -1.00D+00 NBFU=   190    90
 Precomputing XC quadrature grid using
 IXCGrd= 4 IRadAn=           0 IRanWt=          -1 IRanGd=           0 AccXCQ= 0.00D+00.
 Generated NRdTot=       0 NPtTot=           0 NUsed=           0 NTot=          32
 NSgBfM=   320   320   320   320   320 MxSgAt=    12 MxSgA2=    12.
 Leave Link  302 at Fri Aug 27 00:06:46 2021, MaxMem= 17179869184 cpu:        40.2
 (Enter /public3/home/sc51754/softwares/g09e01/l303.exe)
 DipDrv:  MaxL=1.
 Leave Link  303 at Fri Aug 27 00:06:46 2021, MaxMem= 17179869184 cpu:        13.2
 (Enter /public3/home/sc51754/softwares/g09e01/l401.exe)
 Initial guess from the checkpoint file:  "HY_B3LYP_PC2_OPT_FREQ.chk"
 B after Tr=     0.000000    0.000000    0.000000
         Rot=    1.000000    0.000000   -0.000000   -0.000528 Ang=  -0.06 deg.
 Guess basis will be translated and rotated to current coordinates.
 JPrj=2 DoOrth=T DoCkMO=T.
 Initial guess orbital symmetries:
       Occupied  (A') (A') (A') (A') (A') (A') (A') (A') (A') (A')
                 (A') (A') (A') (A') (A') (A') (A') (A") (A') (A')
                 (A') (A") (A") (A') (A")
       Virtual   (A') (A') (A') (A') (A') (A') (A') (A') (A') (A')
                 (A') (A') (A') (A') (A') (A') (A') (A') (A') (A')
                 (A') (A') (A') (A') (A') (A') (A') (A') (A') (A')
                 (A') (A') (A') (A') (A') (A') (A') (A') (A') (A')
                 (A') (A') (A') (A') (A') (A') (A') (A') (A') (A')
                 (A') (A') (A') (A') (A') (A') (A') (A') (A') (A')
                 (A') (A') (A') (A') (A') (A') (A') (A') (A') (A')
                 (A') (A') (A') (A') (A') (A') (A') (A') (A') (A')
                 (A') (A') (A') (A') (A') (A') (A') (A') (A') (A')
                 (A') (A') (A') (A') (A') (A') (A') (A') (A') (A')
                 (A') (A') (A') (A') (A') (A') (A') (A') (A') (A')
                 (A') (A') (A') (A') (A') (A') (A') (A') (A') (A')
                 (A') (A') (A') (A') (A') (A') (A') (A') (A') (A')
                 (A') (A') (A') (A') (A') (A') (A') (A') (A') (A')
                 (A') (A') (A') (A') (A') (A') (A') (A') (A') (A')
                 (A') (A') (A') (A') (A') (A') (A') (A') (A') (A')
                 (A') (A') (A') (A') (A') (A') (A') (A') (A') (A")
                 (A") (A") (A") (A") (A") (A") (A") (A") (A") (A")
                 (A") (A") (A") (A") (A") (A") (A") (A") (A") (A")
                 (A") (A") (A") (A") (A") (A") (A") (A") (A") (A")
                 (A") (A") (A") (A") (A") (A") (A") (A") (A") (A")
                 (A") (A") (A") (A") (A") (A") (A") (A") (A") (A")
                 (A") (A") (A") (A") (A") (A") (A") (A") (A") (A")
                 (A") (A") (A") (A") (A") (A") (A") (A") (A") (A")
                 (A") (A") (A") (A") (A") (A") (A") (A") (A") (A")
                 (A") (A") (A") (A") (A")
 The electronic state of the initial guess is 1-A'.
 Generating alternative initial guess.
 ExpMin= 7.41D-02 ExpMax= 1.48D+04 ExpMxC= 5.05D+02 IAcc=2 IRadAn=         4 AccDes= 0.00D+00
 Harris functional with IExCor=  402 and IRadAn=       4 diagonalized for initial guess.
 HarFok:  IExCor=  402 AccDes= 0.00D+00 IRadAn=         4 IDoV= 1 UseB2=F ITyADJ=14
 ICtDFT=  3500011 ScaDFX=  1.000000  1.000000  1.000000  1.000000
 FoFCou: FMM=F IPFlag=           0 FMFlag=      100000 FMFlg1=           0
         NFxFlg=           0 DoJE=T BraDBF=F KetDBF=T FulRan=T
         wScrn=  0.000000 ICntrl=     500 IOpCl=  0 I1Cent=   200000004 NGrid=           0
         NMat0=    1 NMatS0=      1 NMatT0=    0 NMatD0=    1 NMtDS0=    0 NMtDT0=    0
 Petite list used in FoFCou.
 Harris En= -323.681253345577    
 Leave Link  401 at Fri Aug 27 00:06:48 2021, MaxMem= 17179869184 cpu:        68.7
 (Enter /public3/home/sc51754/softwares/g09e01/l502.exe)
 Closed shell SCF:
 Using DIIS extrapolation, IDIIS=  1040.
 Integral symmetry usage will be decided dynamically.
 Keep R1 ints in memory in symmetry-blocked form, NReq=1167802198.
 IVT=      348658 IEndB=      348658 NGot= 17179869184 MDV= 16785904737
 LenX= 16785904737 LenY= 16785801896
 Requested convergence on RMS density matrix=1.00D-08 within 128 cycles.
 Requested convergence on MAX density matrix=1.00D-06.
 Requested convergence on             energy=1.00D-06.
 No special actions if energy rises.
 FoFCou: FMM=F IPFlag=           0 FMFlag=           0 FMFlg1=           0
         NFxFlg=           0 DoJE=F BraDBF=F KetDBF=F FulRan=T
         wScrn=  0.000000 ICntrl=     600 IOpCl=  0 I1Cent=           0 NGrid=           0
         NMat0=    1 NMatS0=  39340 NMatT0=    0 NMatD0=    1 NMtDS0=    0 NMtDT0=    0
 Petite list used in FoFCou.
 Integral accuracy reduced to 1.0D-05 until final iterations.

 Cycle   1  Pass 0  IDiag  1:
 E= -323.659310281088    
 DIIS: error= 5.09D-04 at cycle   1 NSaved=   1.
 NSaved= 1 IEnMin= 1 EnMin= -323.659310281088     IErMin= 1 ErrMin= 5.09D-04
 ErrMax= 5.09D-04  0.00D+00 EMaxC= 1.00D-01 BMatC= 1.23D-04 BMatP= 1.23D-04
 IDIUse=3 WtCom= 9.95D-01 WtEn= 5.09D-03
 Coeff-Com:  0.100D+01
 Coeff-En:   0.100D+01
 Coeff:      0.100D+01
 Gap=     0.585 Goal=   None    Shift=    0.000
 RMSDP=4.55D-05 MaxDP=1.04D-03              OVMax= 2.56D-03

 Cycle   2  Pass 0  IDiag  1:
 E= -323.659402468332     Delta-E=       -0.000092187243 Rises=F Damp=F
 DIIS: error= 2.82D-04 at cycle   2 NSaved=   2.
 NSaved= 2 IEnMin= 2 EnMin= -323.659402468332     IErMin= 2 ErrMin= 2.82D-04
 ErrMax= 2.82D-04  0.00D+00 EMaxC= 1.00D-01 BMatC= 2.06D-05 BMatP= 1.23D-04
 IDIUse=3 WtCom= 9.97D-01 WtEn= 2.82D-03
 Coeff-Com:  0.217D+00 0.783D+00
 Coeff-En:   0.000D+00 0.100D+01
 Coeff:      0.216D+00 0.784D+00
 Gap=     0.210 Goal=   None    Shift=    0.000
 RMSDP=2.42D-05 MaxDP=1.35D-03 DE=-9.22D-05 OVMax= 1.97D-03

 Cycle   3  Pass 0  IDiag  1:
 E= -323.659407140724     Delta-E=       -0.000004672393 Rises=F Damp=F
 DIIS: error= 2.53D-04 at cycle   3 NSaved=   3.
 NSaved= 3 IEnMin= 3 EnMin= -323.659407140724     IErMin= 3 ErrMin= 2.53D-04
 ErrMax= 2.53D-04  0.00D+00 EMaxC= 1.00D-01 BMatC= 1.46D-05 BMatP= 2.06D-05
 IDIUse=3 WtCom= 9.97D-01 WtEn= 2.53D-03
 Coeff-Com:  0.152D-01 0.456D+00 0.529D+00
 Coeff-En:   0.000D+00 0.434D+00 0.566D+00
 Coeff:      0.151D-01 0.456D+00 0.529D+00
 Gap=     0.210 Goal=   None    Shift=    0.000
 RMSDP=1.28D-05 MaxDP=7.02D-04 DE=-4.67D-06 OVMax= 1.65D-03

 Cycle   4  Pass 0  IDiag  1:
 E= -323.659419381327     Delta-E=       -0.000012240602 Rises=F Damp=F
 DIIS: error= 8.91D-05 at cycle   4 NSaved=   4.
 NSaved= 4 IEnMin= 4 EnMin= -323.659419381327     IErMin= 4 ErrMin= 8.91D-05
 ErrMax= 8.91D-05  0.00D+00 EMaxC= 1.00D-01 BMatC= 1.74D-06 BMatP= 1.46D-05
 IDIUse=1 WtCom= 1.00D+00 WtEn= 0.00D+00
 Coeff-Com: -0.443D-02 0.239D+00 0.346D+00 0.419D+00
 Coeff:     -0.443D-02 0.239D+00 0.346D+00 0.419D+00
 Gap=     0.210 Goal=   None    Shift=    0.000
 RMSDP=3.59D-06 MaxDP=1.57D-04 DE=-1.22D-05 OVMax= 5.19D-04

 Initial convergence to 1.0D-05 achieved.  Increase integral accuracy.
 Cycle   5  Pass 1  IDiag  1:
 E= -323.659356775755     Delta-E=        0.000062605572 Rises=F Damp=F
 DIIS: error= 3.71D-05 at cycle   1 NSaved=   1.
 NSaved= 1 IEnMin= 1 EnMin= -323.659356775755     IErMin= 1 ErrMin= 3.71D-05
 ErrMax= 3.71D-05  0.00D+00 EMaxC= 1.00D-01 BMatC= 1.80D-07 BMatP= 1.80D-07
 IDIUse=1 WtCom= 1.00D+00 WtEn= 0.00D+00
 Coeff-Com:  0.100D+01
 Coeff:      0.100D+01
 Gap=     0.210 Goal=   None    Shift=    0.000
 RMSDP=3.59D-06 MaxDP=1.57D-04 DE= 6.26D-05 OVMax= 2.62D-04

 Cycle   6  Pass 1  IDiag  1:
 E= -323.659356899643     Delta-E=       -0.000000123888 Rises=F Damp=F
 DIIS: error= 2.19D-05 at cycle   2 NSaved=   2.
 NSaved= 2 IEnMin= 2 EnMin= -323.659356899643     IErMin= 2 ErrMin= 2.19D-05
 ErrMax= 2.19D-05  0.00D+00 EMaxC= 1.00D-01 BMatC= 9.57D-08 BMatP= 1.80D-07
 IDIUse=1 WtCom= 1.00D+00 WtEn= 0.00D+00
 Coeff-Com:  0.389D+00 0.611D+00
 Coeff:      0.389D+00 0.611D+00
 Gap=     0.210 Goal=   None    Shift=    0.000
 RMSDP=1.41D-06 MaxDP=5.99D-05 DE=-1.24D-07 OVMax= 2.02D-04

 Cycle   7  Pass 1  IDiag  1:
 E= -323.659356941018     Delta-E=       -0.000000041375 Rises=F Damp=F
 DIIS: error= 1.79D-05 at cycle   3 NSaved=   3.
 NSaved= 3 IEnMin= 3 EnMin= -323.659356941018     IErMin= 3 ErrMin= 1.79D-05
 ErrMax= 1.79D-05  0.00D+00 EMaxC= 1.00D-01 BMatC= 5.41D-08 BMatP= 9.57D-08
 IDIUse=1 WtCom= 1.00D+00 WtEn= 0.00D+00
 Coeff-Com:  0.132D-01 0.425D+00 0.562D+00
 Coeff:      0.132D-01 0.425D+00 0.562D+00
 Gap=     0.210 Goal=   None    Shift=    0.000
 RMSDP=7.57D-07 MaxDP=2.82D-05 DE=-4.14D-08 OVMax= 1.06D-04

 Cycle   8  Pass 1  IDiag  1:
 E= -323.659356992559     Delta-E=       -0.000000051541 Rises=F Damp=F
 DIIS: error= 4.48D-06 at cycle   4 NSaved=   4.
 NSaved= 4 IEnMin= 4 EnMin= -323.659356992559     IErMin= 4 ErrMin= 4.48D-06
 ErrMax= 4.48D-06  0.00D+00 EMaxC= 1.00D-01 BMatC= 4.93D-09 BMatP= 5.41D-08
 IDIUse=1 WtCom= 1.00D+00 WtEn= 0.00D+00
 Coeff-Com: -0.167D-01 0.229D+00 0.355D+00 0.433D+00
 Coeff:     -0.167D-01 0.229D+00 0.355D+00 0.433D+00
 Gap=     0.210 Goal=   None    Shift=    0.000
 RMSDP=2.03D-07 MaxDP=1.16D-05 DE=-5.15D-08 OVMax= 2.24D-05

 Cycle   9  Pass 1  IDiag  1:
 E= -323.659356997114     Delta-E=       -0.000000004555 Rises=F Damp=F
 DIIS: error= 4.98D-07 at cycle   5 NSaved=   5.
 NSaved= 5 IEnMin= 5 EnMin= -323.659356997114     IErMin= 5 ErrMin= 4.98D-07
 ErrMax= 4.98D-07  0.00D+00 EMaxC= 1.00D-01 BMatC= 7.17D-11 BMatP= 4.93D-09
 IDIUse=1 WtCom= 1.00D+00 WtEn= 0.00D+00
 Coeff-Com: -0.803D-02 0.925D-01 0.148D+00 0.203D+00 0.564D+00
 Coeff:     -0.803D-02 0.925D-01 0.148D+00 0.203D+00 0.564D+00
 Gap=     0.210 Goal=   None    Shift=    0.000
 RMSDP=2.71D-08 MaxDP=1.80D-06 DE=-4.56D-09 OVMax= 2.66D-06

 Cycle  10  Pass 1  IDiag  1:
 E= -323.659356997166     Delta-E=       -0.000000000052 Rises=F Damp=F
 DIIS: error= 1.71D-07 at cycle   6 NSaved=   6.
 NSaved= 6 IEnMin= 6 EnMin= -323.659356997166     IErMin= 6 ErrMin= 1.71D-07
 ErrMax= 1.71D-07  0.00D+00 EMaxC= 1.00D-01 BMatC= 8.97D-12 BMatP= 7.17D-11
 IDIUse=1 WtCom= 1.00D+00 WtEn= 0.00D+00
 Coeff-Com: -0.131D-02 0.110D-01 0.199D-01 0.360D-01 0.286D+00 0.649D+00
 Coeff:     -0.131D-02 0.110D-01 0.199D-01 0.360D-01 0.286D+00 0.649D+00
 Gap=     0.210 Goal=   None    Shift=    0.000
 RMSDP=8.88D-09 MaxDP=4.09D-07 DE=-5.16D-11 OVMax= 8.21D-07

 SCF Done:  E(RB3LYP) =  -323.659356997     A.U. after   10 cycles
            NFock= 10  Conv=0.89D-08     -V/T= 2.0039
 KE= 3.224048490226D+02 PE=-1.307586483516D+03 EE= 3.852991428620D+02
 Leave Link  502 at Fri Aug 27 00:06:53 2021, MaxMem= 17179869184 cpu:       205.7
 (Enter /public3/home/sc51754/softwares/g09e01/l701.exe)
 Compute integral first derivatives.
 ... and contract with generalized density number  0.
 Leave Link  701 at Fri Aug 27 00:06:54 2021, MaxMem= 17179869184 cpu:        60.4
 (Enter /public3/home/sc51754/softwares/g09e01/l702.exe)
 L702 exits ... SP integral derivatives will be done elsewhere.
 Leave Link  702 at Fri Aug 27 00:06:54 2021, MaxMem= 17179869184 cpu:         0.3
 (Enter /public3/home/sc51754/softwares/g09e01/l703.exe)
 Compute integral first derivatives, UseDBF=F ICtDFT=           0.
 Integral derivatives from FoFJK, PRISM(SPDF).
 Calling FoFJK, ICntrl=      2127 FMM=F ISym2X=1 I1Cent= 0 IOpClX= 0 NMat=1 NMatS=1 NMatT=0.
 FoFJK:  IHMeth= 1 ICntrl=    2127 DoSepK=F KAlg= 0 I1Cent=   0 FoldK=F
 IRaf=         0 NMat=   1 IRICut=       1 DoRegI=T DoRafI=F ISym2E= 1.
 FoFCou: FMM=F IPFlag=           0 FMFlag=      100000 FMFlg1=         800
         NFxFlg=           0 DoJE=F BraDBF=F KetDBF=F FulRan=T
         wScrn=  0.000000 ICntrl=    2127 IOpCl=  0 I1Cent=           0 NGrid=           0
         NMat0=    1 NMatS0=      1 NMatT0=    0 NMatD0=    1 NMtDS0=    0 NMtDT0=    0
 Petite list used in FoFCou.
 Leave Link  703 at Fri Aug 27 00:06:57 2021, MaxMem= 17179869184 cpu:       170.0
 (Enter /public3/home/sc51754/softwares/g09e01/l716.exe)
 Dipole        = 1.94648135D-01-4.78475704D-01 6.31884229D-32
 ***** Axes restored to original set *****
 -------------------------------------------------------------------
 Center     Atomic                   Forces (Hartrees/Bohr)
 Number     Number              X              Y              Z
 -------------------------------------------------------------------
[...]
     29  0.000000D+00 -0.369014D-04  0.303263D-03  0.000000D+00 -0.185282D-03
     30  0.707509D-02  0.000000D+00  0.000000D+00 -0.269961D-03  0.000000D+00
     31  0.000000D+00  0.679283D-04 -0.964507D-04  0.000000D+00  0.738912D-03
     32  0.000000D+00  0.290565D-04 -0.462287D-03  0.000000D+00 -0.451633D-03
     33  0.494524D-02  0.000000D+00  0.000000D+00 -0.390596D-03  0.000000D+00
     34  0.000000D+00 -0.115660D-03 -0.255349D-03  0.000000D+00  0.155651D-03
     35  0.000000D+00  0.123590D-03  0.185528D-03  0.000000D+00  0.281417D-03
     36 -0.326273D-01  0.000000D+00  0.000000D+00 -0.134697D-04  0.000000D+00
               26            27            28            29            30 
     26  0.135419D+00
     27  0.000000D+00  0.238341D-01
     28 -0.471275D-04  0.000000D+00  0.301592D+00
     29  0.134163D-03  0.000000D+00  0.110608D+00  0.116866D+00
     30  0.000000D+00 -0.169993D-02  0.000000D+00  0.000000D+00  0.266361D-01
     31  0.364727D-03  0.000000D+00 -0.964479D-03  0.911824D-03  0.000000D+00
     32  0.124195D-02  0.000000D+00 -0.760727D-03  0.449184D-03  0.000000D+00
     33  0.000000D+00 -0.460644D-02  0.000000D+00  0.000000D+00 -0.437162D-03
     34 -0.135750D-02  0.000000D+00  0.659626D-03 -0.676140D-03  0.000000D+00
     35 -0.410134D-03  0.000000D+00  0.384349D-03  0.533967D-03  0.000000D+00
     36  0.000000D+00  0.542236D-03  0.000000D+00  0.000000D+00 -0.340332D-02
               31            32            33            34            35 
     31  0.276267D+00
     32 -0.133171D+00  0.139604D+00
     33  0.000000D+00  0.000000D+00  0.268577D-01
     34  0.110963D-02  0.703182D-03  0.000000D+00  0.574587D-01
     35 -0.282615D-03  0.709793D-03  0.000000D+00  0.172031D-01  0.360346D+00
     36  0.000000D+00  0.000000D+00 -0.361108D-02  0.000000D+00  0.000000D+00
               36 
     36  0.246705D-01
 FormGI is forming the generalized inverse of G from B-inverse, IUseBI=4.
 Leave Link  716 at Fri Aug 27 00:08:00 2021, MaxMem= 17179869184 cpu:        15.7
 (Enter /public3/home/sc51754/softwares/g09e01/l103.exe)

 GradGradGradGradGradGradGradGradGradGradGradGradGradGradGradGradGradGrad
 Berny optimization.
 Red2BG is reusing G-inverse.
 Internal  Forces:  Max     0.000172506 RMS     0.000028462
 Search for a local minimum.
 Step number   1 out of a maximum of    2
 All quantities printed in internal units (Hartrees-Bohrs-Radians)
 Second derivative matrix not updated -- analytic derivatives used.
 ITU=  0
     Eigenvalues ---    0.01327   0.01612   0.01749   0.02199   0.02339
     Eigenvalues ---    0.02746   0.03061   0.03664   0.04400   0.10472
     Eigenvalues ---    0.11108   0.12122   0.13072   0.15707   0.19172
     Eigenvalues ---    0.19998   0.21654   0.23555   0.31215   0.35119
     Eigenvalues ---    0.35747   0.36140   0.36325   0.37760   0.43344
     Eigenvalues ---    0.44872   0.47513   0.51542   0.51739   0.57298
 Angle between quadratic step and forces=  20.14 degrees.
 Linear search not attempted -- first point.
 Iteration  1 RMS(Cart)=  0.00008576 RMS(Int)=  0.00000000
 Iteration  2 RMS(Cart)=  0.00000000 RMS(Int)=  0.00000000
 ITry= 1 IFail=0 DXMaxC= 3.68D-04 DCOld= 1.00D+10 DXMaxT= 3.00D-01 DXLimC= 3.00D+00 Rises=F
 ClnCor:  largest displacement from symmetrization is 7.92D-12 for atom    10.
 Variable       Old X    -DE/DX   Delta X   Delta X   Delta X     New X
                                 (Linear)    (Quad)   (Total)
    R1        2.55500   0.00017   0.00000   0.00046   0.00046   2.55546
    R2        1.82547  -0.00003   0.00000  -0.00005  -0.00005   1.82541
    R3        2.49943   0.00000   0.00000  -0.00007  -0.00007   2.49936
    R4        2.52700   0.00004   0.00000   0.00006   0.00006   2.52706
    R5        2.64080  -0.00004   0.00000  -0.00014  -0.00014   2.64066
    R6        2.60994   0.00005   0.00000   0.00012   0.00012   2.61006
    R7        2.04019  -0.00000   0.00000  -0.00000  -0.00000   2.04019
    R8        2.61502  -0.00002   0.00000  -0.00002  -0.00002   2.61500
    R9        2.04713   0.00002   0.00000   0.00006   0.00006   2.04719
   R10        2.63558  -0.00000   0.00000  -0.00004  -0.00004   2.63554
   R11        2.04413   0.00002   0.00000   0.00004   0.00004   2.04417
   R12        2.04086   0.00001   0.00000   0.00003   0.00003   2.04089
    A1        1.86243  -0.00000   0.00000  -0.00009  -0.00009   1.86234
    A2        2.05676   0.00003   0.00000   0.00009   0.00009   2.05685
    A3        2.05050   0.00003   0.00000   0.00006   0.00006   2.05056
    A4        2.07084  -0.00001   0.00000  -0.00008  -0.00008   2.07076
    A5        2.16185  -0.00002   0.00000   0.00002   0.00002   2.16186
    A6        2.04978   0.00000   0.00000  -0.00002  -0.00002   2.04976
    A7        2.09596  -0.00000   0.00000   0.00005   0.00005   2.09601
    A8        2.13745  -0.00000   0.00000  -0.00003  -0.00003   2.13742
    A9        2.15160  -0.00003   0.00000  -0.00013  -0.00013   2.15147
   A10        2.02259   0.00002   0.00000   0.00008   0.00008   2.02267
   A11        2.10900   0.00001   0.00000   0.00005   0.00005   2.10905
   A12        2.08750  -0.00000   0.00000  -0.00003  -0.00003   2.08747
   A13        2.09336   0.00000   0.00000   0.00002   0.00002   2.09338
   A14        2.10233  -0.00000   0.00000   0.00002   0.00002   2.10234
   A15        2.05890   0.00001   0.00000   0.00008   0.00008   2.05897
   A16        2.10445  -0.00001   0.00000  -0.00011  -0.00011   2.10434
   A17        2.11984   0.00000   0.00000   0.00003   0.00003   2.11987
    D1       -0.00000  -0.00000   0.00000  -0.00000   0.00000   0.00000
    D2        3.14159  -0.00000   0.00000  -0.00000   0.00000   3.14159
    D3        3.14159  -0.00000   0.00000  -0.00000   0.00000   3.14159
    D4       -0.00000  -0.00000   0.00000  -0.00000   0.00000   0.00000
    D5        0.00000  -0.00000   0.00000  -0.00000  -0.00000   0.00000
    D6        3.14159  -0.00000   0.00000  -0.00000   0.00000   3.14159
    D7        3.14159   0.00000   0.00000   0.00000   0.00000   3.14159
    D8        0.00000   0.00000   0.00000   0.00000   0.00000   0.00000
    D9        0.00000  -0.00000   0.00000   0.00000   0.00000   0.00000
   D10        3.14159   0.00000   0.00000   0.00000   0.00000   3.14159
   D11        0.00000  -0.00000   0.00000  -0.00000  -0.00000   0.00000
   D12        3.14159  -0.00000   0.00000   0.00000   0.00000   3.14159
   D13        3.14159   0.00000   0.00000  -0.00000   0.00000   3.14159
   D14       -0.00000   0.00000   0.00000   0.00000   0.00000   0.00000
   D15       -0.00000   0.00000   0.00000   0.00000   0.00000   0.00000
   D16        3.14159   0.00000   0.00000   0.00000   0.00000   3.14159
   D17        3.14159   0.00000   0.00000   0.00000   0.00000   3.14159
   D18       -0.00000   0.00000   0.00000   0.00000   0.00000   0.00000
   D19       -0.00000   0.00000   0.00000  -0.00000   0.00000   0.00000
   D20        3.14159   0.00000   0.00000  -0.00000   0.00000   3.14159
   D21        3.14159   0.00000   0.00000  -0.00000   0.00000   3.14159
   D22        0.00000   0.00000   0.00000  -0.00000  -0.00000   0.00000
         Item               Value     Threshold  Converged?
 Maximum Force            0.000173     0.000450     YES
 RMS     Force            0.000028     0.000300     YES
 Maximum Displacement     0.000368     0.001800     YES
 RMS     Displacement     0.000086     0.001200     YES
 Predicted change in Energy=-5.545841D-08
 Optimization completed.
    -- Stationary point found.
                           ----------------------------
                           !   Optimized Parameters   !
                           ! (Angstroms and Degrees)  !
 --------------------------                            --------------------------
 ! Name  Definition              Value          Derivative Info.                !
 --------------------------------------------------------------------------------
 ! R1    R(1,3)                  1.352          -DE/DX =    0.0002              !
 ! R2    R(1,8)                  0.966          -DE/DX =    0.0                 !
 ! R3    R(2,3)                  1.3226         -DE/DX =    0.0                 !
 ! R4    R(2,5)                  1.3372         -DE/DX =    0.0                 !
 ! R5    R(3,4)                  1.3974         -DE/DX =    0.0                 !
 ! R6    R(4,6)                  1.3811         -DE/DX =    0.0001              !
 ! R7    R(4,9)                  1.0796         -DE/DX =    0.0                 !
 ! R8    R(5,7)                  1.3838         -DE/DX =    0.0                 !
 ! R9    R(5,10)                 1.0833         -DE/DX =    0.0                 !
 ! R10   R(6,7)                  1.3947         -DE/DX =    0.0                 !
 ! R11   R(6,11)                 1.0817         -DE/DX =    0.0                 !
 ! R12   R(7,12)                 1.08           -DE/DX =    0.0                 !
 ! A1    A(3,1,8)              106.7093         -DE/DX =    0.0                 !
 ! A2    A(3,2,5)              117.8436         -DE/DX =    0.0                 !
 ! A3    A(1,3,2)              117.485          -DE/DX =    0.0                 !
 ! A4    A(1,3,4)              118.6504         -DE/DX =    0.0                 !
 ! A5    A(2,3,4)              123.8646         -DE/DX =    0.0                 !
 ! A6    A(3,4,6)              117.4435         -DE/DX =    0.0                 !
 ! A7    A(3,4,9)              120.0895         -DE/DX =    0.0                 !
 ! A8    A(6,4,9)              122.467          -DE/DX =    0.0                 !
 ! A9    A(2,5,7)              123.2776         -DE/DX =    0.0                 !
 ! A10   A(2,5,10)             115.8857         -DE/DX =    0.0                 !
 ! A11   A(7,5,10)             120.8367         -DE/DX =    0.0                 !
 ! A12   A(4,6,7)              119.6047         -DE/DX =    0.0                 !
 ! A13   A(4,6,11)             119.9409         -DE/DX =    0.0                 !
 ! A14   A(7,6,11)             120.4544         -DE/DX =    0.0                 !
 ! A15   A(5,7,6)              117.966          -DE/DX =    0.0                 !
 ! A16   A(5,7,12)             120.5762         -DE/DX =    0.0                 !
 ! A17   A(6,7,12)             121.4578         -DE/DX =    0.0                 !
 ! D1    D(8,1,3,2)              0.0            -DE/DX =    0.0                 !
 ! D2    D(8,1,3,4)            180.0            -DE/DX =    0.0                 !
 ! D3    D(5,2,3,1)            180.0            -DE/DX =    0.0                 !
 ! D4    D(5,2,3,4)              0.0            -DE/DX =    0.0                 !
 ! D5    D(3,2,5,7)              0.0            -DE/DX =    0.0                 !
 ! D6    D(3,2,5,10)           180.0            -DE/DX =    0.0                 !
 ! D7    D(1,3,4,6)            180.0            -DE/DX =    0.0                 !
 ! D8    D(1,3,4,9)              0.0            -DE/DX =    0.0                 !
 ! D9    D(2,3,4,6)              0.0            -DE/DX =    0.0                 !
 ! D10   D(2,3,4,9)            180.0            -DE/DX =    0.0                 !
 ! D11   D(3,4,6,7)              0.0            -DE/DX =    0.0                 !
 ! D12   D(3,4,6,11)           180.0            -DE/DX =    0.0                 !
 ! D13   D(9,4,6,7)            180.0            -DE/DX =    0.0                 !
 ! D14   D(9,4,6,11)             0.0            -DE/DX =    0.0                 !
 ! D15   D(2,5,7,6)              0.0            -DE/DX =    0.0                 !
 ! D16   D(2,5,7,12)           180.0            -DE/DX =    0.0                 !
 ! D17   D(10,5,7,6)           180.0            -DE/DX =    0.0                 !
 ! D18   D(10,5,7,12)            0.0            -DE/DX =    0.0                 !
 ! D19   D(4,6,7,5)              0.0            -DE/DX =    0.0                 !
 ! D20   D(4,6,7,12)           180.0            -DE/DX =    0.0                 !
 ! D21   D(11,6,7,5)           180.0            -DE/DX =    0.0                 !
 ! D22   D(11,6,7,12)            0.0            -DE/DX =    0.0                 !
 --------------------------------------------------------------------------------
 GradGradGradGradGradGradGradGradGradGradGradGradGradGradGradGradGradGrad

 Leave Link  103 at Fri Aug 27 00:08:01 2021, MaxMem= 17179869184 cpu:        33.5
 (Enter /public3/home/sc51754/softwares/g09e01/l9999.exe)
 1\1\GINC-R2613\Freq\RB3LYP\Gen\C5H5N1O1\SC51754\27-Aug-2021\0\\#P Geom
 =AllCheck Guess=TCheck SCRF=Check GenChk RB3LYP/ChkBas Freq\\HY_B3LYP_
 PC2_OPT_FREQ\\0,1\O,0.0056040729,2.2532741302,0.\N,-1.1758033224,0.295
 6429687,0.\C,0.0000504494,0.9012378879,0.\C,1.2236357623,0.2261792396,
 0.\C,-1.189664978,-1.0415168473,0.\C,1.1888737401,-1.1545025103,0.\C,-
 0.0407021073,-1.8127589602,0.\H,-0.918454367,2.5348120745,0.\H,2.14881
 25321,0.7826245628,0.\H,-2.1691199743,-1.5043304383,0.\H,2.1123312263,
 -1.7178100141,0.\H,-0.1027820341,-2.8909520935,0.\\Version=EM64L-G09Re
 vE.01\State=1-A'\HF=-323.6593733\RMSD=3.700e-09\RMSF=4.632e-05\ZeroPoi
 nt=0.0933922\Thermal=0.0985926\Dipole=0.1960869,-0.4899019,0.\DipoleDe
 riv=-0.2130778,0.116418,0.,0.0958588,-1.5960332,0.,0.,0.,-0.3711379,-0
 .4721757,-0.2696608,0.,0.1850959,-0.7913281,0.,0.,0.,-0.2776499,0.2775
 161,-0.2075199,0.,-0.0597213,1.7846364,0.,0.,0.,0.2042384,-0.0265886,0
 .400604,0.,-0.0517092,-0.4599089,0.,0.,0.,-0.14619,0.4437052,0.1368319
 ,0.,-0.2272429,0.3768833,0.,0.,0.,-0.0102864,0.2733544,0.0688016,0.,0.
 1185201,0.3434611,0.,0.,0.,-0.0928888,-0.4480461,-0.1265723,0.,0.07888
 34,-0.0636,0.,0.,0.,-0.1547903,0.201978,-0.0312327,0.,-0.0787359,0.391
 9754,0.,0.,0.,0.3166168,-0.013521,-0.0562011,0.,-0.0530707,0.0440438,0
 .,0.,0.,0.1502217,-0.0561641,-0.0918811,0.,-0.0616977,0.012457,0.,0.,0
 .,0.1056711,-0.0347664,0.0716611,0.,0.0694384,0.0396963,0.,0.,0.,0.124
 6,0.067786,-0.0112485,0.,-0.0156189,-0.0822829,0.,0.,0.,0.1515952\Pola
 r=74.1998997,0.1689265,85.5371139,0.,0.,38.2270214\PG=CS [SG(C5H5N1O1)
 ]\NImag=0\\0.58157942,-0.10599851,0.46336214,0.,0.,0.03496831,-0.00742
 555,-0.03373826,0.,0.47088030,-0.06617351,-0.05389412,0.,0.12094987,0.
 62219023,0.,0.,0.00698535,0.,0.,0.09022018,-0.10908164,-0.01371969,0.,
 -0.29891153,-0.04967917,0.,0.70237645,0.03279291,-0.29054025,0.,-0.083
 61996,-0.17104673,0.,-0.02219135,0.71130150,0.,0.,-0.05061222,0.,0.,-0
 .07168060,0.,0.,0.18411717,0.00038245,0.01478791,0.,-0.06499585,-0.033
 61362,0.,-0.26162190,0.09813566,0.,0.71048483,0.05089250,-0.04363518,0
 .,0.01838400,0.06395225,0.,0.02731753,-0.15159383,0.,0.05577137,0.7188
 2813,0.,0.,0.00881468,0.,0.,0.01957393,0.,0.,-0.07588235,0.,0.,0.12345
 095,-0.00512440,0.00217203,0.,-0.12012476,-0.01277023,0.,0.01896521,-0
 .04905194,0.,-0.01740223,0.02591167,0.,0.75088265,0.00890828,0.0010321
 6,0.,0.01118807,-0.33640405,0.,-0.10527316,-0.04687162,0.,0.03599906,-
 0.05343418,0.,0.03742785,0.66624147,0.,0.,0.01036586,0.,0.,-0.06400555
 ,0.,0.,-0.00332233,0.,0.,-0.00506734,0.,0.,0.15851486,-0.01103012,0.00
 401944,0.,-0.01997356,-0.03894009,0.,0.04782778,0.03110325,0.,-0.13319
 218,0.02385986,0.,-0.06204051,0.03205050,0.,0.71497687,-0.00635155,0.0
 0782044,0.,-0.03387056,-0.05414437,0.,0.08510145,-0.03228866,0.,-0.035
 57723,-0.35929856,0.,-0.01897202,0.07009676,0.,-0.04311709,0.69624922,
 0.,0.,0.00449275,0.,0.,-0.00759428,0.,0.,0.00273784,0.,0.,-0.05868405,
 0.,0.,0.00814460,0.,0.,0.14408003,0.00848279,-0.00509601,0.,0.04430851
 ,0.08318270,0.,-0.08194254,0.00040906,0.,0.03335768,-0.07388515,0.,-0.
 27917890,0.05376834,0.,-0.27953853,-0.04752221,0.,0.64861127,-0.002068
 66,-0.00652277,0.,0.02238858,-0.05138906,0.,0.01357371,0.00473362,0.,-
 0.03436353,-0.02472278,0.,0.12102784,-0.18671197,0.,-0.11039988,-0.172
 41441,0.,0.00159446,0.75752182,0.,0.,-0.00159460,0.,0.,0.02254334,0.,0
 .,-0.00871172,0.,0.,0.00739058,0.,0.,-0.06868628,0.,0.,-0.06372129,0.,
 0.,0.12423323,-0.46008092,0.13794671,0.,-0.00065188,-0.00415097,0.,-0.
 00256865,0.01107232,0.,0.00280633,-0.00235109,0.,-0.00097451,-0.001392
 29,0.,0.00012830,0.00106520,0.,-0.00079910,-0.00050739,0.,0.46205690,0
 .08805284,-0.07669597,0.,0.00187910,0.00764198,0.,0.05376271,-0.027180
 23,0.,-0.00235375,-0.00694166,0.,-0.00083571,-0.00186993,0.,0.00241036
 ,0.00057114,0.,-0.00117597,0.00106913,0.,-0.14151462,0.10322365,0.,0.,
 -0.01044838,0.,0.,-0.00338928,0.,0.,0.00093568,0.,0.,0.00327389,0.,0.,
 -0.00067885,0.,0.,0.00146563,0.,0.,0.00052284,0.,0.,0.00964650,0.00166
 323,-0.00036946,0.,-0.00532755,0.00316232,0.,-0.01731211,-0.01895745,0
 .,-0.27011406,-0.12301911,0.,0.00044253,0.00220773,0.,0.00502968,0.001
 48229,0.,0.00227048,0.00077824,0.,0.00006158,-0.00003641,0.,0.28245065
 ,-0.00042317,0.00091373,0.,0.00516494,-0.00027214,0.,0.01262506,0.0116
 5668,0.,-0.12471205,-0.13207019,0.,0.00033602,-0.00146395,0.,-0.028304
 25,-0.01024029,0.,0.00152961,-0.00506429,0.,-0.00028362,0.00015539,0.,
 0.13510735,0.13541908,0.,0.,-0.00183114,0.,0.,0.00581711,0.,0.,0.00200
 988,0.,0.,-0.03379864,0.,0.,-0.00027592,0.,0.,0.00203192,0.,0.,0.00863
 089,0.,0.,-0.00065402,0.,0.,0.02383406,-0.00014101,-0.00022313,0.,0.00
 560275,-0.00566233,0.,0.00312456,0.00183542,0.,0.00040095,0.00073744,0
 .,-0.28944735,-0.09786444,0.,-0.00315741,0.00410889,0.,-0.01767989,-0.
 01327920,0.,0.00006967,0.00016324,0.,-0.00005900,-0.00004713,0.,0.3015
 9159,-0.00114157,-0.00105918,0.,-0.03148428,-0.02524141,0.,-0.00055973
 ,-0.00413571,0.,0.00003562,-0.00065417,0.,-0.09656050,-0.09719005,0.,0
 .00318470,-0.00162290,0.,0.01590463,0.01161700,0.,-0.00003690,0.000303
 26,0.,-0.00018528,0.00013416,0.,0.11060762,0.11686585,0.,0.,0.00051313
 ,0.,0.,-0.00348392,0.,0.,0.01028052,0.,0.,-0.00069688,0.,0.,-0.0420115
 4,0.,0.,0.00749783,0.,0.,0.00707509,0.,0.,-0.00026996,0.,0.,-0.0016999
 3,0.,0.,0.02663614,0.00000725,0.00013842,0.,0.00046243,-0.00062347,0.,
 0.00193709,-0.00127636,0.,0.00452662,-0.00177635,0.,-0.00392536,-0.004
 16641,0.,-0.26232024,0.12306429,0.,-0.01790643,0.01691299,0.,0.0000679
 3,-0.00009645,0.,0.00073891,0.00036473,0.,-0.00096448,0.00091182,0.,0.
 27626666,0.00175052,-0.00077625,0.,-0.00049727,-0.00061764,0.,-0.00156
 230,-0.00502355,0.,0.02842867,-0.01138917,0.,-0.00340803,-0.00074612,0
 .,0.12247045,-0.13539903,0.,-0.01353132,0.01240960,0.,0.00002906,-0.00
 046229,0.,-0.00045163,0.00124195,0.,-0.00076073,0.00044918,0.,-0.13317
 060,0.13960351,0.,0.,-0.00026890,0.,0.,-0.00308530,0.,0.,0.00964133,0.
 ,0.,0.00512857,0.,0.,0.00742861,0.,0.,-0.04160196,0.,0.,0.00494524,0.,
 0.,-0.00039060,0.,0.,-0.00460644,0.,0.,-0.00043716,0.,0.,0.02685769,0.
 00076848,0.00008055,0.,-0.00384331,0.00431849,0.,-0.00279272,-0.000251
 56,0.,-0.00463264,-0.00184268,0.,0.00792765,0.02714648,0.,0.00328990,-
 0.02941147,0.,-0.05998534,-0.01565716,0.,-0.00011566,-0.00025535,0.,0.
 00015565,-0.00135750,0.,0.00065963,-0.00067614,0.,0.00110963,0.0007031
 8,0.,0.05745873,-0.00024010,-0.00000475,0.,0.00325577,-0.00077494,0.,0
 .00060493,0.00098878,0.,-0.00253812,0.00095934,0.,-0.00527699,-0.01267
 852,0.,0.00166275,-0.00932934,0.,-0.01517814,-0.34052588,0.,0.00012359
 ,0.00018553,0.,0.00028142,-0.00041013,0.,0.00038435,0.00053397,0.,-0.0
 0028262,0.00070979,0.,0.01720315,0.36034615,0.,0.,-0.00138484,0.,0.,0.
 00809902,0.,0.,0.00048679,0.,0.,0.00649665,0.,0.,-0.00040613,0.,0.,0.0
 0115098,0.,0.,-0.03262731,0.,0.,-0.00001347,0.,0.,0.00054224,0.,0.,-0.
 00340332,0.,0.,-0.00361108,0.,0.,0.02467046\\0.00000436,-0.00018104,0.
 ,-0.00004613,-0.00001078,0.,-0.00001396,0.00016321,0.,0.00004169,-0.00
 006835,0.,0.00001204,0.00004879,0.,0.00001588,0.00004781,0.,-0.0000077
 3,-0.00004204,0.,-0.00002951,0.00000666,0.,-0.00000219,0.00000484,0.,0
 .00002158,0.00001096,0.,-0.00001039,0.00001273,0.,0.00001437,0.0000072
 1,0.\\\@


 AN OPTIMIST IS A GUY
 THAT HAS NEVER HAD
 MUCH EXPERIENCE
   (CERTAIN MAXIMS OF ARCHY  -- DON MARQUIS)
 Job cpu time:       0 days  0 hours 36 minutes 42.6 seconds.
 File lengths (MBytes):  RWF=     80 Int=      0 D2E=      0 Chk=      7 Scr=      1
 Normal termination of Gaussian 09 at Fri Aug 27 00:08:01 2021.
