 Entering Gaussian System, Link 0=g09
 AtFile(1): pc-2.gbs
            -H     0
            S    4   1.00
                  0.754230D+02           0.240650D-02
                  0.113500D+02           0.184870D-01
                  0.259930D+01           0.897420D-01
                  0.735130D+00           0.281110D+00
            S    1   1.00
                  0.231670D+00           0.100000D+01
            S    1   1.00
                  0.741470D-01           0.100000D+01
            P    1   1.00
                  0.160000D+01           0.100000D+01
            P    1   1.00
                  0.450000D+00           0.100000D+01
            D    1   1.00
                  0.125000D+01           0.100000D+01
            ****
            -C     0
            S    7   1.00
                  0.785710D+04           0.568250D-03
                  0.117870D+04           0.439150D-02
                  0.268320D+03           0.225040D-01
                  0.759480D+02           0.866530D-01
                  0.245590D+02           0.244050D+00
                  0.862120D+01           0.441480D+00
                  0.312780D+01           0.353320D+00
            S    7   1.00
                  0.117870D+04          -0.594920D-06
                  0.268320D+03          -0.627480D-04
                  0.759480D+02          -0.757730D-03
                  0.245590D+02          -0.733080D-02
                  0.862120D+01          -0.389320D-01
                  0.312780D+01          -0.889080D-01
                  0.822020D+00           0.216890D+00
            S    1   1.00
                  0.330170D+00           0.100000D+01
            S    1   1.00
                  0.114630D+00           0.100000D+01
            P    4   1.00
                  0.337750D+02           0.602940D-02
                  0.767660D+01           0.432280D-01
                  0.223570D+01           0.163010D+00
                  0.764470D+00           0.365040D+00
            P    1   1.00
                  0.262320D+00           0.100000D+01
            P    1   1.00
                  0.846380D-01           0.100000D+01
            D    1   1.00
                  0.140000D+01           0.100000D+01
            D    1   1.00
                  0.450000D+00           0.100000D+01
            F    1   1.00
                  0.950000D+00           0.100000D+01
            ****
            -N     0
            S    7   1.00
                  0.111010D+05           0.545700D-03
                  0.166530D+04           0.421810D-02
                  0.379080D+03           0.216450D-01
                  0.107300D+03           0.837760D-01
                  0.347470D+02           0.238810D+00
                  0.122490D+02           0.439940D+00
                  0.447430D+01           0.363640D+00
            S    7   1.00
                  0.166530D+04          -0.150060D-05
                  0.379080D+03          -0.587530D-04
                  0.107300D+03          -0.774530D-03
                  0.347470D+02          -0.721610D-02
                  0.122490D+02          -0.393380D-01
                  0.447430D+01          -0.906110D-01
                  0.124040D+01           0.198820D+00
            S    1   1.00
                  0.487430D+00           0.100000D+01
            S    1   1.00
                  0.164840D+00           0.100000D+01
            P    4   1.00
                  0.479340D+02           0.617060D-02
                  0.109990D+02           0.442600D-01
                  0.324720D+01           0.168250D+00
                  0.111140D+01           0.368480D+00
            P    1   1.00
                  0.379880D+00           0.100000D+01
            P    1   1.00
                  0.120680D+00           0.100000D+01
            D    1   1.00
                  0.180000D+01           0.100000D+01
            D    1   1.00
                  0.550000D+00           0.100000D+01
            F    1   1.00
                  0.102000D+01           0.100000D+01
            ****
            -O     0
            S    7   1.00
                  0.147820D+05           0.535190D-03
                  0.221730D+04           0.413750D-02
                  0.504740D+03           0.212450D-01
                  0.142870D+03           0.824530D-01
                  0.463000D+02           0.236710D+00
                  0.163370D+02           0.440390D+00
                  0.598280D+01           0.364650D+00
            S    7   1.00
                  0.221730D+04          -0.192750D-05
                  0.504740D+03          -0.579640D-04
                  0.142870D+03          -0.794940D-03
                  0.463000D+02          -0.731250D-02
                  0.163370D+02          -0.405740D-01
                  0.598280D+01          -0.915940D-01
                  0.167180D+01           0.209400D+00
            S    1   1.00
                  0.646620D+00           0.100000D+01
            S    1   1.00
                  0.216690D+00           0.100000D+01
            P    4   1.00
                  0.604240D+02           0.689490D-02
                  0.139350D+02           0.490050D-01
                  0.415310D+01           0.182550D+00
                  0.141580D+01           0.376330D+00
            P    1   1.00
                  0.475490D+00           0.100000D+01
            P    1   1.00
                  0.145290D+00           0.100000D+01
            D    1   1.00
                  0.220000D+01           0.100000D+01
            D    1   1.00
                  0.650000D+00           0.100000D+01
            F    1   1.00
                  0.110000D+01           0.100000D+01
            ****
 Initial command:
 /public3/home/sc51754/softwares/g09e01/l1.exe "./Gau-53566.inp" -scrdir="./"
 Entering Link 1 = /public3/home/sc51754/softwares/g09e01/l1.exe PID=     53567.
  
 Copyright (c) 1988,1990,1992,1993,1995,1998,2003,2009,2015,
            Gaussian, Inc.  All Rights Reserved.
  
 This is part of the Gaussian(R) 09 program.  It is based on
 the Gaussian(R) 03 system (copyright 2003, Gaussian, Inc.),
 the Gaussian(R) 98 system (copyright 1998, Gaussian, Inc.),
 the Gaussian(R) 94 system (copyright 1995, Gaussian, Inc.),
 the Gaussian 92(TM) system (copyright 1992, Gaussian, Inc.),
 the Gaussian 90(TM) system (copyright 1990, Gaussian, Inc.),
 the Gaussian 88(TM) system (copyright 1988, Gaussian, Inc.),
 the Gaussian 86(TM) system (copyright 1986, Carnegie Mellon
 University), and the Gaussian 82(TM) system (copyright 1983,
 Carnegie Mellon University). Gaussian is a federally registered
 trademark of Gaussian, Inc.
  
 This software contains proprietary and confidential information,
 including trade secrets, belonging to Gaussian, Inc.
  
 This software is provided under written license and may be
 used, copied, transmitted, or stored only in accord with that
 written license.
  
 The following legend is applicable only to US Government
 contracts under FAR:
  
                    RESTRICTED RIGHTS LEGEND
  
 Use, reproduction and disclosure by the US Government is
 subject to restrictions as set forth in subparagraphs (a)
 and (c) of the Commercial Computer Software - Restricted
 Rights clause in FAR 52.227-19.
  
 Gaussian, Inc.
 340 Quinnipiac St., Bldg. 40, Wallingford CT 06492
  
  
 ---------------------------------------------------------------
 Warning -- This program may not be used in any manner that
 competes with the business of Gaussian, Inc. or will provide
 assistance to any competitor of Gaussian, Inc.  The licensee
 of this program is prohibited from giving any competitor of
 Gaussian, Inc. access to this program.  By using this program,
 the user acknowledges that Gaussian, Inc. is engaged in the
 business of creating and licensing software in the field of
 computational chemistry and represents and warrants to the
 licensee that it is not a competitor of Gaussian, Inc. and that
 it will not use this program in any manner prohibited above.
 ---------------------------------------------------------------
  

 Cite this work as:
 Gaussian 09, Revision E.01,
 M. J. Frisch, G. W. Trucks, H. B. Schlegel, G. E. Scuseria, 
 M. A. Robb, J. R. Cheeseman, G. Scalmani, V. Barone, B. Mennucci, 
 G. A. Petersson, H. Nakatsuji, M. Caricato, X. Li, H. P. Hratchian, 
 A. F. Izmaylov, J. Bloino, G. Zheng, J. L. Sonnenberg, M. Hada, 
 M. Ehara, K. Toyota, R. Fukuda, J. Hasegawa, M. Ishida, T. Nakajima, 
 Y. Honda, O. Kitao, H. Nakai, T. Vreven, J. A. Montgomery, Jr., 
 J. E. Peralta, F. Ogliaro, M. Bearpark, J. J. Heyd, E. Brothers, 
 K. N. Kudin, V. N. Staroverov, T. Keith, R. Kobayashi, J. Normand, 
 K. Raghavachari, A. Rendell, J. C. Burant, S. S. Iyengar, J. Tomasi, 
 M. Cossi, N. Rega, J. M. Millam, M. Klene, J. E. Knox, J. B. Cross, 
 V. Bakken, C. Adamo, J. Jaramillo, R. Gomperts, R. E. Stratmann, 
 O. Yazyev, A. J. Austin, R. Cammi, C. Pomelli, J. W. Ochterski, 
 R. L. Martin, K. Morokuma, V. G. Zakrzewski, G. A. Voth, 
 P. Salvador, J. J. Dannenberg, S. Dapprich, A. D. Daniels, 
 O. Farkas, J. B. Foresman, J. V. Ortiz, J. Cioslowski, 
 and D. J. Fox, Gaussian, Inc., Wallingford CT, 2013.
 
 ******************************************
 Gaussian 09:  EM64L-G09RevE.01 30-Nov-2015
                27-Aug-2021 
 ******************************************
 %nprocshared=64
 Will use up to   64 processors via shared memory.
 %mem=128GB
 %chk=HY_BP86_PC2_OPT_FREQ.chk
 --------------------
 #p opt freq BP86/gen
 --------------------
 1/14=-1,18=20,19=15,26=3,38=1/1,3;
 2/9=110,12=2,17=6,18=5,40=1/2;
 3/5=7,11=2,16=1,25=1,30=1,71=1,74=404/1,2,3;
 4//1;
 5/5=2,38=5/2;
 6/7=2,8=2,9=2,10=2,28=1/1;
 7//1,2,3,16;
 1/14=-1,18=20,19=15,26=3/3(2);
 2/9=110/2;
 99//99;
 2/9=110/2;
 3/5=7,6=1,11=2,16=1,25=1,30=1,71=1,74=404,82=7/1,2,3;
 4/5=5,16=3,69=1/1;
 5/5=2,38=5/2;
 7//1,2,3,16;
 1/14=-1,18=20,19=15,26=3/3(-5);
 2/9=110/2;
 6/7=2,8=2,9=2,10=2,19=2,28=1/1;
 99/9=1/99;
 Leave Link    1 at Fri Aug 27 00:00:08 2021, MaxMem= 17179869184 cpu:         6.3
 (Enter /public3/home/sc51754/softwares/g09e01/l101.exe)
 --------------------
 HY_BP86_PC2_OPT_FREQ
 --------------------
 Symbolic Z-matrix:
 Charge =  0 Multiplicity = 1
 O                     0.00837   2.23974   0. 
 N                    -1.17143   0.29602   0. 
 C                     0.        0.89831   0. 
 C                     1.21926   0.22535   0. 
 C                    -1.18415  -1.03535   0. 
 C                     1.18363  -1.14867   0. 
 C                    -0.04131  -1.80488   0. 
 H                    -0.91394   2.51588   0. 
 H                     2.14363   0.78426   0. 
 H                    -2.16362  -1.50192   0. 
 H                     2.10659  -1.71377   0. 
 H                    -0.10426  -2.88308   0. 
 
 NAtoms=     12 NQM=       12 NQMF=       0 NMMI=      0 NMMIF=      0
                NMic=       0 NMicF=      0.
                    Isotopes and Nuclear Properties:
 (Nuclear quadrupole moments (NQMom) in fm**2, nuclear magnetic moments (NMagM)
  in nuclear magnetons)

  Atom         1           2           3           4           5           6           7           8           9          10
 IAtWgt=          16          14          12          12          12          12          12           1           1           1
 AtmWgt=  15.9949146  14.0030740  12.0000000  12.0000000  12.0000000  12.0000000  12.0000000   1.0078250   1.0078250   1.0078250
 NucSpn=           0           2           0           0           0           0           0           1           1           1
 AtZEff=   0.0000000   0.0000000   0.0000000   0.0000000   0.0000000   0.0000000   0.0000000   0.0000000   0.0000000   0.0000000
 NQMom=    0.0000000   2.0440000   0.0000000   0.0000000   0.0000000   0.0000000   0.0000000   0.0000000   0.0000000   0.0000000
 NMagM=    0.0000000   0.4037610   0.0000000   0.0000000   0.0000000   0.0000000   0.0000000   2.7928460   2.7928460   2.7928460
 AtZNuc=   8.0000000   7.0000000   6.0000000   6.0000000   6.0000000   6.0000000   6.0000000   1.0000000   1.0000000   1.0000000

  Atom        11          12
 IAtWgt=           1           1
 AtmWgt=   1.0078250   1.0078250
 NucSpn=           1           1
 AtZEff=   0.0000000   0.0000000
 NQMom=    0.0000000   0.0000000
 NMagM=    2.7928460   2.7928460
 AtZNuc=   1.0000000   1.0000000
 Leave Link  101 at Fri Aug 27 00:00:09 2021, MaxMem= 17179869184 cpu:         8.8
 (Enter /public3/home/sc51754/softwares/g09e01/l103.exe)

 GradGradGradGradGradGradGradGradGradGradGradGradGradGradGradGradGradGrad
 Berny optimization.
 Initialization pass.
                           ----------------------------
                           !    Initial Parameters    !
                           ! (Angstroms and Degrees)  !
 --------------------------                            --------------------------
 ! Name  Definition              Value          Derivative Info.                !
 --------------------------------------------------------------------------------
 ! R1    R(1,3)                  1.3415         estimate D2E/DX2                !
 ! R2    R(1,8)                  0.9628         estimate D2E/DX2                !
 ! R3    R(2,3)                  1.3172         estimate D2E/DX2                !
 ! R4    R(2,5)                  1.3314         estimate D2E/DX2                !
 ! R5    R(3,4)                  1.3927         estimate D2E/DX2                !
 ! R6    R(4,6)                  1.3745         estimate D2E/DX2                !
 ! R7    R(4,9)                  1.0802         estimate D2E/DX2                !
 ! R8    R(5,7)                  1.3778         estimate D2E/DX2                !
 ! R9    R(5,10)                 1.0849         estimate D2E/DX2                !
 ! R10   R(6,7)                  1.3896         estimate D2E/DX2                !
 ! R11   R(6,11)                 1.0822         estimate D2E/DX2                !
 ! R12   R(7,12)                 1.08           estimate D2E/DX2                !
 ! A1    A(3,1,8)              106.3104         estimate D2E/DX2                !
 ! A2    A(3,2,5)              117.7571         estimate D2E/DX2                !
 ! A3    A(1,3,2)              117.5674         estimate D2E/DX2                !
 ! A4    A(1,3,4)              118.5383         estimate D2E/DX2                !
 ! A5    A(2,3,4)              123.8942         estimate D2E/DX2                !
 ! A6    A(3,4,6)              117.4104         estimate D2E/DX2                !
 ! A7    A(3,4,9)              119.945          estimate D2E/DX2                !
 ! A8    A(6,4,9)              122.6446         estimate D2E/DX2                !
 ! A9    A(2,5,7)              123.4071         estimate D2E/DX2                !
 ! A10   A(2,5,10)             116.018          estimate D2E/DX2                !
 ! A11   A(7,5,10)             120.5749         estimate D2E/DX2                !
 ! A12   A(4,6,7)              119.6636         estimate D2E/DX2                !
 ! A13   A(4,6,11)             119.9925         estimate D2E/DX2                !
 ! A14   A(7,6,11)             120.3439         estimate D2E/DX2                !
 ! A15   A(5,7,6)              117.8675         estimate D2E/DX2                !
 ! A16   A(5,7,12)             120.6134         estimate D2E/DX2                !
 ! A17   A(6,7,12)             121.519          estimate D2E/DX2                !
 ! D1    D(8,1,3,2)              0.0            estimate D2E/DX2                !
 ! D2    D(8,1,3,4)            180.0            estimate D2E/DX2                !
 ! D3    D(5,2,3,1)            180.0            estimate D2E/DX2                !
 ! D4    D(5,2,3,4)              0.0            estimate D2E/DX2                !
 ! D5    D(3,2,5,7)              0.0            estimate D2E/DX2                !
 ! D6    D(3,2,5,10)           180.0            estimate D2E/DX2                !
 ! D7    D(1,3,4,6)            180.0            estimate D2E/DX2                !
 ! D8    D(1,3,4,9)              0.0            estimate D2E/DX2                !
 ! D9    D(2,3,4,6)              0.0            estimate D2E/DX2                !
 ! D10   D(2,3,4,9)            180.0            estimate D2E/DX2                !
 ! D11   D(3,4,6,7)              0.0            estimate D2E/DX2                !
 ! D12   D(3,4,6,11)           180.0            estimate D2E/DX2                !
 ! D13   D(9,4,6,7)            180.0            estimate D2E/DX2                !
 ! D14   D(9,4,6,11)             0.0            estimate D2E/DX2                !
 ! D15   D(2,5,7,6)              0.0            estimate D2E/DX2                !
 ! D16   D(2,5,7,12)           180.0            estimate D2E/DX2                !
 ! D17   D(10,5,7,6)           180.0            estimate D2E/DX2                !
 ! D18   D(10,5,7,12)            0.0            estimate D2E/DX2                !
 ! D19   D(4,6,7,5)              0.0            estimate D2E/DX2                !
 ! D20   D(4,6,7,12)           180.0            estimate D2E/DX2                !
 ! D21   D(11,6,7,5)           180.0            estimate D2E/DX2                !
 ! D22   D(11,6,7,12)            0.0            estimate D2E/DX2                !
 --------------------------------------------------------------------------------
 Trust Radius=3.00D-01 FncErr=1.00D-07 GrdErr=1.00D-06
 Number of steps in this run=     61 maximum allowed number of steps=    100.
 GradGradGradGradGradGradGradGradGradGradGradGradGradGradGradGradGradGrad

 Leave Link  103 at Fri Aug 27 00:00:09 2021, MaxMem= 17179869184 cpu:         0.1
 (Enter /public3/home/sc51754/softwares/g09e01/l202.exe)
                          Input orientation:                          
 ---------------------------------------------------------------------
 Center     Atomic      Atomic             Coordinates (Angstroms)
 Number     Number       Type             X           Y           Z
 ---------------------------------------------------------------------
      1          8           0        0.008372    2.239736    0.000000
      2          7           0       -1.171427    0.296023    0.000000
      3          6           0        0.000000    0.898309    0.000000
      4          6           0        1.219264    0.225352    0.000000
      5          6           0       -1.184145   -1.035351    0.000000
      6          6           0        1.183632   -1.148671    0.000000
      7          6           0       -0.041314   -1.804878    0.000000
      8          1           0       -0.913944    2.515883    0.000000
      9          1           0        2.143627    0.784264    0.000000
     10          1           0       -2.163617   -1.501920    0.000000
     11          1           0        2.106589   -1.713772    0.000000
     12          1           0       -0.104256   -2.883075    0.000000
 ---------------------------------------------------------------------
                    Distance matrix (angstroms):
                    1          2          3          4          5
     1  O    0.000000
     2  N    2.273752   0.000000
     3  C    1.341453   1.317190   0.000000
     4  C    2.350320   2.391735   1.392651   0.000000
     5  C    3.485440   1.331435   2.267430   2.713991   0.000000
     6  C    3.586438   2.762869   2.364553   1.374485   2.370487
     7  C    4.044919   2.385569   2.703503   2.389747   1.377764
     8  H    0.962769   2.234743   1.857913   3.130033   3.561498
     9  H    2.584127   3.350815   2.146659   1.080199   3.792765
    10  H    4.326376   2.053543   3.231461   3.798335   1.084920
    11  H    4.475795   3.845083   3.355694   2.132498   3.359938
    12  H    5.124049   3.353434   3.782821   3.378465   2.140151
                    6          7          8          9         10
     6  C    0.000000
     7  C    1.389640   0.000000
     8  H    4.222414   4.407999   0.000000
     9  H    2.158200   3.387864   3.513865   0.000000
    10  H    3.365837   2.143818   4.207662   4.876370   0.000000
    11  H    1.082215   2.149834   5.197461   2.498311   4.275458
    12  H    2.160281   1.080033   5.459335   4.301436   2.479628
                   11         12
    11  H    0.000000
    12  H    2.501021   0.000000
 Stoichiometry    C5H5NO
 Framework group  CS[SG(C5H5NO)]
 Deg. of freedom    21
 Full point group                 CS      NOp   2
 Largest Abelian subgroup         CS      NOp   2
 Largest concise Abelian subgroup C1      NOp   1
                         Standard orientation:                         
 ---------------------------------------------------------------------
 Center     Atomic      Atomic             Coordinates (Angstroms)
 Number     Number       Type             X           Y           Z
 ---------------------------------------------------------------------
      1          8           0        0.008372    2.239736    0.000000
      2          7           0       -1.171427    0.296023    0.000000
      3          6           0       -0.000000    0.898309    0.000000
      4          6           0        1.219264    0.225352    0.000000
      5          6           0       -1.184145   -1.035351    0.000000
      6          6           0        1.183632   -1.148671    0.000000
      7          6           0       -0.041314   -1.804878    0.000000
      8          1           0       -0.913944    2.515883    0.000000
      9          1           0        2.143627    0.784264    0.000000
     10          1           0       -2.163617   -1.501920    0.000000
     11          1           0        2.106589   -1.713772    0.000000
     12          1           0       -0.104257   -2.883075    0.000000
 ---------------------------------------------------------------------
 Rotational constants (GHZ):      5.9244098      2.8053779      1.9038502
 Leave Link  202 at Fri Aug 27 00:00:09 2021, MaxMem= 17179869184 cpu:         2.4
 (Enter /public3/home/sc51754/softwares/g09e01/l301.exe)
 General basis read from cards:  (5D, 7F)
 Centers:       8      9     10     11     12
 S 4 1.00
     Exponent=  7.5423000000D+01 Coefficients=  2.4065000000D-03
     Exponent=  1.1350000000D+01 Coefficients=  1.8487000000D-02
     Exponent=  2.5993000000D+00 Coefficients=  8.9742000000D-02
     Exponent=  7.3513000000D-01 Coefficients=  2.8111000000D-01
 S 1 1.00
     Exponent=  2.3167000000D-01 Coefficients=  1.0000000000D+00
 S 1 1.00
     Exponent=  7.4147000000D-02 Coefficients=  1.0000000000D+00
 P 1 1.00
     Exponent=  1.6000000000D+00 Coefficients=  1.0000000000D+00
 P 1 1.00
     Exponent=  4.5000000000D-01 Coefficients=  1.0000000000D+00
 D 1 1.00
     Exponent=  1.2500000000D+00 Coefficients=  1.0000000000D+00
 ****
 Centers:       3      4      5      6      7
 S 7 1.00
     Exponent=  7.8571000000D+03 Coefficients=  5.6825000000D-04
     Exponent=  1.1787000000D+03 Coefficients=  4.3915000000D-03
     Exponent=  2.6832000000D+02 Coefficients=  2.2504000000D-02
     Exponent=  7.5948000000D+01 Coefficients=  8.6653000000D-02
     Exponent=  2.4559000000D+01 Coefficients=  2.4405000000D-01
     Exponent=  8.6212000000D+00 Coefficients=  4.4148000000D-01
     Exponent=  3.1278000000D+00 Coefficients=  3.5332000000D-01
 S 7 1.00
     Exponent=  1.1787000000D+03 Coefficients= -5.9492000000D-07
     Exponent=  2.6832000000D+02 Coefficients= -6.2748000000D-05
     Exponent=  7.5948000000D+01 Coefficients= -7.5773000000D-04
     Exponent=  2.4559000000D+01 Coefficients= -7.3308000000D-03
     Exponent=  8.6212000000D+00 Coefficients= -3.8932000000D-02
     Exponent=  3.1278000000D+00 Coefficients= -8.8908000000D-02
     Exponent=  8.2202000000D-01 Coefficients=  2.1689000000D-01
 S 1 1.00
     Exponent=  3.3017000000D-01 Coefficients=  1.0000000000D+00
 S 1 1.00
     Exponent=  1.1463000000D-01 Coefficients=  1.0000000000D+00
 P 4 1.00
     Exponent=  3.3775000000D+01 Coefficients=  6.0294000000D-03
     Exponent=  7.6766000000D+00 Coefficients=  4.3228000000D-02
     Exponent=  2.2357000000D+00 Coefficients=  1.6301000000D-01
     Exponent=  7.6447000000D-01 Coefficients=  3.6504000000D-01
 P 1 1.00
     Exponent=  2.6232000000D-01 Coefficients=  1.0000000000D+00
 P 1 1.00
     Exponent=  8.4638000000D-02 Coefficients=  1.0000000000D+00
 D 1 1.00
     Exponent=  1.4000000000D+00 Coefficients=  1.0000000000D+00
 D 1 1.00
     Exponent=  4.5000000000D-01 Coefficients=  1.0000000000D+00
 F 1 1.00
     Exponent=  9.5000000000D-01 Coefficients=  1.0000000000D+00
 ****
 Centers:       2
 S 7 1.00
     Exponent=  1.1101000000D+04 Coefficients=  5.4570000000D-04
     Exponent=  1.6653000000D+03 Coefficients=  4.2181000000D-03
     Exponent=  3.7908000000D+02 Coefficients=  2.1645000000D-02
     Exponent=  1.0730000000D+02 Coefficients=  8.3776000000D-02
     Exponent=  3.4747000000D+01 Coefficients=  2.3881000000D-01
     Exponent=  1.2249000000D+01 Coefficients=  4.3994000000D-01
     Exponent=  4.4743000000D+00 Coefficients=  3.6364000000D-01
 S 7 1.00
     Exponent=  1.6653000000D+03 Coefficients= -1.5006000000D-06
     Exponent=  3.7908000000D+02 Coefficients= -5.8753000000D-05
     Exponent=  1.0730000000D+02 Coefficients= -7.7453000000D-04
     Exponent=  3.4747000000D+01 Coefficients= -7.2161000000D-03
     Exponent=  1.2249000000D+01 Coefficients= -3.9338000000D-02
     Exponent=  4.4743000000D+00 Coefficients= -9.0611000000D-02
     Exponent=  1.2404000000D+00 Coefficients=  1.9882000000D-01
 S 1 1.00
     Exponent=  4.8743000000D-01 Coefficients=  1.0000000000D+00
 S 1 1.00
     Exponent=  1.6484000000D-01 Coefficients=  1.0000000000D+00
 P 4 1.00
     Exponent=  4.7934000000D+01 Coefficients=  6.1706000000D-03
     Exponent=  1.0999000000D+01 Coefficients=  4.4260000000D-02
     Exponent=  3.2472000000D+00 Coefficients=  1.6825000000D-01
     Exponent=  1.1114000000D+00 Coefficients=  3.6848000000D-01
 P 1 1.00
     Exponent=  3.7988000000D-01 Coefficients=  1.0000000000D+00
 P 1 1.00
     Exponent=  1.2068000000D-01 Coefficients=  1.0000000000D+00
 D 1 1.00
     Exponent=  1.8000000000D+00 Coefficients=  1.0000000000D+00
 D 1 1.00
     Exponent=  5.5000000000D-01 Coefficients=  1.0000000000D+00
 F 1 1.00
     Exponent=  1.0200000000D+00 Coefficients=  1.0000000000D+00
 ****
 Centers:       1
 S 7 1.00
     Exponent=  1.4782000000D+04 Coefficients=  5.3519000000D-04
     Exponent=  2.2173000000D+03 Coefficients=  4.1375000000D-03
     Exponent=  5.0474000000D+02 Coefficients=  2.1245000000D-02
     Exponent=  1.4287000000D+02 Coefficients=  8.2453000000D-02
     Exponent=  4.6300000000D+01 Coefficients=  2.3671000000D-01
     Exponent=  1.6337000000D+01 Coefficients=  4.4039000000D-01
     Exponent=  5.9828000000D+00 Coefficients=  3.6465000000D-01
 S 7 1.00
     Exponent=  2.2173000000D+03 Coefficients= -1.9275000000D-06
     Exponent=  5.0474000000D+02 Coefficients= -5.7964000000D-05
     Exponent=  1.4287000000D+02 Coefficients= -7.9494000000D-04
     Exponent=  4.6300000000D+01 Coefficients= -7.3125000000D-03
     Exponent=  1.6337000000D+01 Coefficients= -4.0574000000D-02
     Exponent=  5.9828000000D+00 Coefficients= -9.1594000000D-02
     Exponent=  1.6718000000D+00 Coefficients=  2.0940000000D-01
 S 1 1.00
     Exponent=  6.4662000000D-01 Coefficients=  1.0000000000D+00
 S 1 1.00
     Exponent=  2.1669000000D-01 Coefficients=  1.0000000000D+00
 P 4 1.00
     Exponent=  6.0424000000D+01 Coefficients=  6.8949000000D-03
     Exponent=  1.3935000000D+01 Coefficients=  4.9005000000D-02
     Exponent=  4.1531000000D+00 Coefficients=  1.8255000000D-01
     Exponent=  1.4158000000D+00 Coefficients=  3.7633000000D-01
 P 1 1.00
     Exponent=  4.7549000000D-01 Coefficients=  1.0000000000D+00
 P 1 1.00
     Exponent=  1.4529000000D-01 Coefficients=  1.0000000000D+00
 D 1 1.00
     Exponent=  2.2000000000D+00 Coefficients=  1.0000000000D+00
 D 1 1.00
     Exponent=  6.5000000000D-01 Coefficients=  1.0000000000D+00
 F 1 1.00
     Exponent=  1.1000000000D+00 Coefficients=  1.0000000000D+00
 ****
 Ernie: Thresh=  0.10000D-02 Tol=  0.10000D-05 Strict=F.
 Ernie:  7 primitive shells out of 220 were deleted.
 There are   223 symmetry adapted cartesian basis functions of A'  symmetry.
 There are    97 symmetry adapted cartesian basis functions of A"  symmetry.
 There are   190 symmetry adapted basis functions of A'  symmetry.
 There are    90 symmetry adapted basis functions of A"  symmetry.
   280 basis functions,   475 primitive gaussians,   320 cartesian basis functions
    25 alpha electrons       25 beta electrons
       nuclear repulsion energy       277.5236709615 Hartrees.
 IExCor=  404 DFT=T Ex=B Corr=P86 ExCW=0 ScaHFX=  0.000000
 ScaDFX=  1.000000  1.000000  1.000000  1.000000 ScalE2=  1.000000  1.000000
 IRadAn=      0 IRanWt=     -1 IRanGd=            0 ICorTp=0 IEmpDi=  4
 NAtoms=   12 NActive=   12 NUniq=   12 SFac= 1.00D+00 NAtFMM=   60 NAOKFM=F Big=F
 Integral buffers will be    131072 words long.
 Raffenetti 2 integral format.
 Two-electron integral symmetry is turned on.
 Leave Link  301 at Fri Aug 27 00:00:09 2021, MaxMem= 17179869184 cpu:         2.7
 (Enter /public3/home/sc51754/softwares/g09e01/l302.exe)
 NPDir=0 NMtPBC=     1 NCelOv=     1 NCel=       1 NClECP=     1 NCelD=      1
         NCelK=      1 NCelE2=     1 NClLst=     1 CellRange=     0.0.
 One-electron integrals computed using PRISM.
 NBasis=   280 RedAO= T EigKep=  2.16D-04  NBF=   190    90
 NBsUse=   280 1.00D-06 EigRej= -1.00D+00 NBFU=   190    90
 Precomputing XC quadrature grid using
 IXCGrd= 4 IRadAn=           0 IRanWt=          -1 IRanGd=           0 AccXCQ= 0.00D+00.
 Generated NRdTot=       0 NPtTot=           0 NUsed=           0 NTot=          32
 NSgBfM=   320   320   320   320   320 MxSgAt=    12 MxSgA2=    12.
 Leave Link  302 at Fri Aug 27 00:00:10 2021, MaxMem= 17179869184 cpu:        40.5
 (Enter /public3/home/sc51754/softwares/g09e01/l303.exe)
 DipDrv:  MaxL=1.
 Leave Link  303 at Fri Aug 27 00:00:10 2021, MaxMem= 17179869184 cpu:         8.2
 (Enter /public3/home/sc51754/softwares/g09e01/l401.exe)
 ExpMin= 7.41D-02 ExpMax= 1.48D+04 ExpMxC= 5.05D+02 IAcc=2 IRadAn=         4 AccDes= 0.00D+00
 Harris functional with IExCor=  404 and IRadAn=       4 diagonalized for initial guess.
 HarFok:  IExCor=  404 AccDes= 0.00D+00 IRadAn=         4 IDoV= 1 UseB2=F ITyADJ=14
 ICtDFT=  3500011 ScaDFX=  1.000000  1.000000  1.000000  1.000000
 FoFCou: FMM=F IPFlag=           0 FMFlag=      100000 FMFlg1=           0
         NFxFlg=           0 DoJE=T BraDBF=F KetDBF=T FulRan=T
         wScrn=  0.000000 ICntrl=     500 IOpCl=  0 I1Cent=   200000004 NGrid=           0
         NMat0=    1 NMatS0=      1 NMatT0=    0 NMatD0=    1 NMtDS0=    0 NMtDT0=    0
 Petite list used in FoFCou.
 Harris En= -323.763399098743    
 JPrj=0 DoOrth=F DoCkMO=F.
 Initial guess orbital symmetries:
       Occupied  (A') (A') (A') (A') (A') (A') (A') (A') (A') (A')
                 (A') (A') (A') (A') (A') (A') (A') (A') (A") (A')
                 (A') (A") (A") (A') (A")
       Virtual   (A") (A") (A') (A') (A") (A') (A') (A') (A') (A')
                 (A') (A') (A") (A') (A") (A') (A") (A') (A') (A')
                 (A') (A') (A") (A") (A') (A') (A') (A') (A') (A')
                 (A') (A") (A') (A") (A') (A') (A') (A') (A') (A')
                 (A') (A') (A") (A') (A') (A') (A') (A") (A") (A')
                 (A") (A") (A') (A') (A") (A') (A') (A") (A') (A')
                 (A') (A") (A') (A') (A") (A') (A") (A') (A') (A")
                 (A') (A") (A") (A') (A") (A') (A') (A") (A') (A')
                 (A") (A') (A') (A") (A') (A') (A") (A') (A") (A")
                 (A') (A') (A') (A') (A') (A") (A') (A') (A") (A')
                 (A') (A') (A") (A') (A') (A') (A') (A") (A') (A')
                 (A') (A") (A') (A') (A') (A') (A") (A') (A') (A')
                 (A") (A') (A") (A') (A") (A') (A") (A") (A') (A")
                 (A") (A') (A') (A') (A") (A') (A') (A") (A') (A')
                 (A') (A') (A') (A") (A") (A') (A") (A') (A') (A')
                 (A") (A') (A') (A") (A") (A') (A") (A') (A") (A')
                 (A") (A') (A') (A') (A") (A") (A') (A") (A') (A')
                 (A") (A') (A') (A") (A') (A') (A") (A") (A') (A")
                 (A") (A") (A') (A') (A") (A') (A") (A") (A') (A")
                 (A") (A') (A') (A") (A') (A') (A") (A') (A") (A")
                 (A') (A') (A") (A') (A') (A') (A") (A') (A') (A')
                 (A") (A') (A') (A") (A') (A") (A') (A') (A") (A")
                 (A') (A') (A") (A') (A') (A") (A') (A') (A') (A')
                 (A") (A') (A') (A') (A') (A") (A") (A') (A') (A')
                 (A') (A") (A') (A') (A') (A') (A') (A') (A') (A')
                 (A') (A') (A') (A') (A')
 The electronic state of the initial guess is 1-A'.
 Leave Link  401 at Fri Aug 27 00:00:11 2021, MaxMem= 17179869184 cpu:        43.1
 (Enter /public3/home/sc51754/softwares/g09e01/l502.exe)
 Closed shell SCF:
 Using DIIS extrapolation, IDIIS=  1040.
 Integral symmetry usage will be decided dynamically.
 Keep J ints in memory in symmetry-blocked form, NReq=1167802198.
 IVT=      348658 IEndB=      348658 NGot= 17179869184 MDV= 16785904737
 LenX= 16785904737 LenY= 16785801896
 Requested convergence on RMS density matrix=1.00D-08 within 128 cycles.
 Requested convergence on MAX density matrix=1.00D-06.
 Requested convergence on             energy=1.00D-06.
 No special actions if energy rises.
 FoFCou: FMM=F IPFlag=           0 FMFlag=           0 FMFlg1=           0
         NFxFlg=           0 DoJE=F BraDBF=F KetDBF=F FulRan=T
         wScrn=  0.000000 ICntrl=     600 IOpCl=  0 I1Cent=           0 NGrid=           0
         NMat0=    1 NMatS0=  39340 NMatT0=    0 NMatD0=    1 NMtDS0=    0 NMtDT0=    0
 Petite list used in FoFCou.
 Integral accuracy reduced to 1.0D-05 until final iterations.

 Cycle   1  Pass 0  IDiag  1:
 E= -323.504821110700    
 DIIS: error= 2.57D-02 at cycle   1 NSaved=   1.
 NSaved= 1 IEnMin= 1 EnMin= -323.504821110700     IErMin= 1 ErrMin= 2.57D-02
 ErrMax= 2.57D-02  0.00D+00 EMaxC= 1.00D-01 BMatC= 1.62D-01 BMatP= 1.62D-01
 IDIUse=3 WtCom= 7.43D-01 WtEn= 2.57D-01
 Coeff-Com:  0.100D+01
 Coeff-En:   0.100D+01
 Coeff:      0.100D+01
 Gap=     0.152 Goal=   None    Shift=    0.000
 GapD=    0.152 DampG=1.000 DampE=0.500 DampFc=0.5000 IDamp=-1.
 Damping current iteration by 5.00D-01
 RMSDP=2.93D-03 MaxDP=1.17D-01              OVMax= 2.36D-01

 Cycle   2  Pass 0  IDiag  1:
 E= -323.549073927791     Delta-E=       -0.044252817091 Rises=F Damp=T
 DIIS: error= 5.53D-03 at cycle   2 NSaved=   2.
 NSaved= 2 IEnMin= 2 EnMin= -323.549073927791     IErMin= 2 ErrMin= 5.53D-03
 ErrMax= 5.53D-03  0.00D+00 EMaxC= 1.00D-01 BMatC= 1.68D-02 BMatP= 1.62D-01
 IDIUse=3 WtCom= 9.45D-01 WtEn= 5.53D-02
 Coeff-Com:  0.200D+00 0.800D+00
 Coeff-En:   0.339D+00 0.661D+00
 Coeff:      0.207D+00 0.793D+00
 Gap=     0.153 Goal=   None    Shift=    0.000
 RMSDP=7.27D-04 MaxDP=3.53D-02 DE=-4.43D-02 OVMax= 2.03D-01

 Cycle   3  Pass 0  IDiag  1:
 E= -323.648072871707     Delta-E=       -0.098998943915 Rises=F Damp=F
 DIIS: error= 7.31D-03 at cycle   3 NSaved=   3.
 NSaved= 3 IEnMin= 3 EnMin= -323.648072871707     IErMin= 2 ErrMin= 5.53D-03
 ErrMax= 7.31D-03  0.00D+00 EMaxC= 1.00D-01 BMatC= 8.32D-03 BMatP= 1.68D-02
 IDIUse=3 WtCom= 9.27D-01 WtEn= 7.31D-02
 Coeff-Com:  0.719D-01 0.435D+00 0.493D+00
 Coeff-En:   0.000D+00 0.000D+00 0.100D+01
 Coeff:      0.667D-01 0.403D+00 0.530D+00
 Gap=     0.156 Goal=   None    Shift=    0.000
 RMSDP=4.61D-04 MaxDP=2.11D-02 DE=-9.90D-02 OVMax= 7.93D-02

 Cycle   4  Pass 0  IDiag  1:
 E= -323.652039548421     Delta-E=       -0.003966676715 Rises=F Damp=F
 DIIS: error= 6.77D-03 at cycle   4 NSaved=   4.
 NSaved= 4 IEnMin= 4 EnMin= -323.652039548421     IErMin= 2 ErrMin= 5.53D-03
 ErrMax= 6.77D-03  0.00D+00 EMaxC= 1.00D-01 BMatC= 4.74D-03 BMatP= 8.32D-03
 IDIUse=3 WtCom= 9.32D-01 WtEn= 6.77D-02
 Coeff-Com:  0.181D-01 0.180D+00 0.409D+00 0.393D+00
 Coeff-En:   0.000D+00 0.000D+00 0.396D+00 0.604D+00
 Coeff:      0.169D-01 0.168D+00 0.408D+00 0.407D+00
 Gap=     0.155 Goal=   None    Shift=    0.000
 RMSDP=2.15D-04 MaxDP=6.88D-03 DE=-3.97D-03 OVMax= 3.64D-02

 Cycle   5  Pass 0  IDiag  1:
 E= -323.657163727215     Delta-E=       -0.005124178793 Rises=F Damp=F
 DIIS: error= 8.34D-04 at cycle   5 NSaved=   5.
 NSaved= 5 IEnMin= 5 EnMin= -323.657163727215     IErMin= 5 ErrMin= 8.34D-04
 ErrMax= 8.34D-04  0.00D+00 EMaxC= 1.00D-01 BMatC= 2.13D-04 BMatP= 4.74D-03
 IDIUse=3 WtCom= 9.92D-01 WtEn= 8.34D-03
 Coeff-Com:  0.363D-02 0.599D-01 0.196D+00 0.246D+00 0.494D+00
 Coeff-En:   0.000D+00 0.000D+00 0.000D+00 0.000D+00 0.100D+01
 Coeff:      0.360D-02 0.594D-01 0.195D+00 0.244D+00 0.498D+00
 Gap=     0.155 Goal=   None    Shift=    0.000
 RMSDP=4.65D-05 MaxDP=2.43D-03 DE=-5.12D-03 OVMax= 7.36D-03

 Cycle   6  Pass 0  IDiag  1:
 E= -323.657329916072     Delta-E=       -0.000166188857 Rises=F Damp=F
 DIIS: error= 3.49D-04 at cycle   6 NSaved=   6.
 NSaved= 6 IEnMin= 6 EnMin= -323.657329916072     IErMin= 6 ErrMin= 3.49D-04
 ErrMax= 3.49D-04  0.00D+00 EMaxC= 1.00D-01 BMatC= 3.64D-05 BMatP= 2.13D-04
 IDIUse=3 WtCom= 9.97D-01 WtEn= 3.49D-03
 Coeff-Com: -0.671D-03 0.111D-01 0.620D-01 0.951D-01 0.330D+00 0.502D+00
 Coeff-En:   0.000D+00 0.000D+00 0.000D+00 0.000D+00 0.143D+00 0.857D+00
 Coeff:     -0.668D-03 0.110D-01 0.617D-01 0.947D-01 0.330D+00 0.503D+00
 Gap=     0.155 Goal=   None    Shift=    0.000
 RMSDP=1.72D-05 MaxDP=8.73D-04 DE=-1.66D-04 OVMax= 2.00D-03

 Cycle   7  Pass 0  IDiag  1:
 E= -323.657357812869     Delta-E=       -0.000027896797 Rises=F Damp=F
 DIIS: error= 1.14D-04 at cycle   7 NSaved=   7.
 NSaved= 7 IEnMin= 7 EnMin= -323.657357812869     IErMin= 7 ErrMin= 1.14D-04
 ErrMax= 1.14D-04  0.00D+00 EMaxC= 1.00D-01 BMatC= 3.08D-06 BMatP= 3.64D-05
 IDIUse=3 WtCom= 9.99D-01 WtEn= 1.14D-03
 Coeff-Com: -0.475D-03 0.563D-02 0.344D-01 0.534D-01 0.200D+00 0.334D+00
 Coeff-Com:  0.373D+00
 Coeff-En:   0.000D+00 0.000D+00 0.000D+00 0.000D+00 0.000D+00 0.000D+00
 Coeff-En:   0.100D+01
 Coeff:     -0.474D-03 0.562D-02 0.343D-01 0.533D-01 0.199D+00 0.334D+00
 Coeff:      0.374D+00
 Gap=     0.155 Goal=   None    Shift=    0.000
 RMSDP=6.31D-06 MaxDP=1.90D-04 DE=-2.79D-05 OVMax= 1.12D-03

 Initial convergence to 1.0D-05 achieved.  Increase integral accuracy.
 Cycle   8  Pass 1  IDiag  1:
 E= -323.657275841997     Delta-E=        0.000081970873 Rises=F Damp=F
 DIIS: error= 4.32D-05 at cycle   1 NSaved=   1.
 NSaved= 1 IEnMin= 1 EnMin= -323.657275841997     IErMin= 1 ErrMin= 4.32D-05
 ErrMax= 4.32D-05  0.00D+00 EMaxC= 1.00D-01 BMatC= 5.54D-07 BMatP= 5.54D-07
 IDIUse=1 WtCom= 1.00D+00 WtEn= 0.00D+00
 Coeff-Com:  0.100D+01
 Coeff:      0.100D+01
 Gap=     0.155 Goal=   None    Shift=    0.000
 RMSDP=6.31D-06 MaxDP=1.90D-04 DE= 8.20D-05 OVMax= 1.03D-03

 Cycle   9  Pass 1  IDiag  1:
 E= -323.657274145173     Delta-E=        0.000001696823 Rises=F Damp=F
 DIIS: error= 9.77D-05 at cycle   2 NSaved=   2.
 NSaved= 2 IEnMin= 1 EnMin= -323.657275841997     IErMin= 1 ErrMin= 4.32D-05
 ErrMax= 9.77D-05  0.00D+00 EMaxC= 1.00D-01 BMatC= 2.37D-06 BMatP= 5.54D-07
 IDIUse=1 WtCom= 1.00D+00 WtEn= 0.00D+00
 Coeff-Com:  0.693D+00 0.307D+00
 Coeff:      0.693D+00 0.307D+00
 Gap=     0.155 Goal=   None    Shift=    0.000
 RMSDP=4.87D-06 MaxDP=1.48D-04 DE= 1.70D-06 OVMax= 9.00D-04

 Cycle  10  Pass 1  IDiag  1:
 E= -323.657276363677     Delta-E=       -0.000002218503 Rises=F Damp=F
 DIIS: error= 1.79D-05 at cycle   3 NSaved=   3.
 NSaved= 3 IEnMin= 3 EnMin= -323.657276363677     IErMin= 3 ErrMin= 1.79D-05
 ErrMax= 1.79D-05  0.00D+00 EMaxC= 1.00D-01 BMatC= 8.34D-08 BMatP= 5.54D-07
 IDIUse=1 WtCom= 1.00D+00 WtEn= 0.00D+00
 Coeff-Com:  0.129D+00 0.166D+00 0.705D+00
 Coeff:      0.129D+00 0.166D+00 0.705D+00
 Gap=     0.155 Goal=   None    Shift=    0.000
 RMSDP=1.05D-06 MaxDP=4.84D-05 DE=-2.22D-06 OVMax= 1.66D-04

 Cycle  11  Pass 1  IDiag  1:
 E= -323.657276428099     Delta-E=       -0.000000064423 Rises=F Damp=F
 DIIS: error= 7.67D-06 at cycle   4 NSaved=   4.
 NSaved= 4 IEnMin= 4 EnMin= -323.657276428099     IErMin= 4 ErrMin= 7.67D-06
 ErrMax= 7.67D-06  0.00D+00 EMaxC= 1.00D-01 BMatC= 2.45D-08 BMatP= 8.34D-08
 IDIUse=1 WtCom= 1.00D+00 WtEn= 0.00D+00
 Coeff-Com:  0.101D-01 0.783D-01 0.471D+00 0.441D+00
 Coeff:      0.101D-01 0.783D-01 0.471D+00 0.441D+00
 Gap=     0.155 Goal=   None    Shift=    0.000
 RMSDP=4.16D-07 MaxDP=2.00D-05 DE=-6.44D-08 OVMax= 5.23D-05

 Cycle  12  Pass 1  IDiag  1:
 E= -323.657276447051     Delta-E=       -0.000000018952 Rises=F Damp=F
 DIIS: error= 2.66D-06 at cycle   5 NSaved=   5.
 NSaved= 5 IEnMin= 5 EnMin= -323.657276447051     IErMin= 5 ErrMin= 2.66D-06
 ErrMax= 2.66D-06  0.00D+00 EMaxC= 1.00D-01 BMatC= 1.54D-09 BMatP= 2.45D-08
 IDIUse=1 WtCom= 1.00D+00 WtEn= 0.00D+00
 Coeff-Com: -0.273D-02 0.334D-01 0.224D+00 0.270D+00 0.476D+00
 Coeff:     -0.273D-02 0.334D-01 0.224D+00 0.270D+00 0.476D+00
 Gap=     0.155 Goal=   None    Shift=    0.000
 RMSDP=1.29D-07 MaxDP=4.39D-06 DE=-1.90D-08 OVMax= 1.95D-05

 Cycle  13  Pass 1  IDiag  1:
 E= -323.657276448208     Delta-E=       -0.000000001157 Rises=F Damp=F
 DIIS: error= 1.31D-06 at cycle   6 NSaved=   6.
 NSaved= 6 IEnMin= 6 EnMin= -323.657276448208     IErMin= 6 ErrMin= 1.31D-06
 ErrMax= 1.31D-06  0.00D+00 EMaxC= 1.00D-01 BMatC= 2.27D-10 BMatP= 1.54D-09
 IDIUse=1 WtCom= 1.00D+00 WtEn= 0.00D+00
 Coeff-Com: -0.289D-02 0.183D-01 0.128D+00 0.160D+00 0.330D+00 0.367D+00
 Coeff:     -0.289D-02 0.183D-01 0.128D+00 0.160D+00 0.330D+00 0.367D+00
 Gap=     0.155 Goal=   None    Shift=    0.000
 RMSDP=5.12D-08 MaxDP=2.31D-06 DE=-1.16D-09 OVMax= 8.80D-06

 Cycle  14  Pass 1  IDiag  1:
 E= -323.657276448455     Delta-E=       -0.000000000246 Rises=F Damp=F
 DIIS: error= 2.28D-07 at cycle   7 NSaved=   7.
 NSaved= 7 IEnMin= 7 EnMin= -323.657276448455     IErMin= 7 ErrMin= 2.28D-07
 ErrMax= 2.28D-07  0.00D+00 EMaxC= 1.00D-01 BMatC= 1.08D-11 BMatP= 2.27D-10
 IDIUse=1 WtCom= 1.00D+00 WtEn= 0.00D+00
 Coeff-Com: -0.121D-02 0.661D-02 0.472D-01 0.609D-01 0.132D+00 0.220D+00
 Coeff-Com:  0.535D+00
 Coeff:     -0.121D-02 0.661D-02 0.472D-01 0.609D-01 0.132D+00 0.220D+00
 Coeff:      0.535D+00
 Gap=     0.155 Goal=   None    Shift=    0.000
 RMSDP=1.13D-08 MaxDP=4.99D-07 DE=-2.46D-10 OVMax= 1.61D-06

 Cycle  15  Pass 1  IDiag  1:
 E= -323.657276448456     Delta-E=       -0.000000000002 Rises=F Damp=F
 DIIS: error= 7.23D-08 at cycle   8 NSaved=   8.
 NSaved= 8 IEnMin= 8 EnMin= -323.657276448456     IErMin= 8 ErrMin= 7.23D-08
 ErrMax= 7.23D-08  0.00D+00 EMaxC= 1.00D-01 BMatC= 1.26D-12 BMatP= 1.08D-11
 IDIUse=1 WtCom= 1.00D+00 WtEn= 0.00D+00
 Coeff-Com: -0.215D-03 0.861D-03 0.630D-02 0.859D-02 0.211D-01 0.681D-01
 Coeff-Com:  0.313D+00 0.582D+00
 Coeff:     -0.215D-03 0.861D-03 0.630D-02 0.859D-02 0.211D-01 0.681D-01
 Coeff:      0.313D+00 0.582D+00
 Gap=     0.155 Goal=   None    Shift=    0.000
 RMSDP=3.64D-09 MaxDP=1.60D-07 DE=-1.59D-12 OVMax= 4.19D-07

 SCF Done:  E(RB-P86) =  -323.657276448     A.U. after   15 cycles
            NFock= 15  Conv=0.36D-08     -V/T= 2.0031
 KE= 3.226691963873D+02 PE=-1.310432456628D+03 EE= 3.865823128308D+02
 Leave Link  502 at Fri Aug 27 00:00:17 2021, MaxMem= 17179869184 cpu:       257.2
 (Enter /public3/home/sc51754/softwares/g09e01/l601.exe)
 Copying SCF densities to generalized density rwf, IOpCl= 0 IROHF=0.

 **********************************************************************

            Population analysis using the SCF density.

 **********************************************************************

 Orbital symmetries:
       Occupied  (A') (A') (A') (A') (A') (A') (A') (A') (A') (A')
                 (A') (A') (A') (A') (A') (A') (A') (A") (A') (A')
                 (A') (A") (A") (A') (A")
       Virtual   (A") (A") (A') (A') (A') (A') (A') (A") (A') (A')
                 (A") (A') (A') (A') (A") (A") (A') (A') (A') (A')
                 (A") (A') (A') (A") (A') (A') (A') (A') (A') (A')
                 (A') (A") (A') (A") (A') (A') (A') (A') (A') (A')
                 (A') (A') (A") (A') (A') (A') (A') (A") (A") (A")
                 (A') (A") (A') (A') (A") (A') (A") (A') (A') (A')
                 (A') (A") (A') (A') (A") (A') (A') (A") (A') (A')
                 (A") (A") (A") (A") (A') (A') (A') (A") (A') (A')
                 (A") (A') (A') (A') (A') (A") (A") (A') (A") (A")
                 (A') (A') (A') (A') (A') (A") (A') (A') (A") (A')
                 (A') (A") (A') (A') (A') (A') (A') (A") (A') (A')
                 (A') (A") (A') (A') (A') (A') (A") (A') (A') (A')
                 (A") (A') (A") (A') (A") (A') (A") (A") (A') (A")
                 (A") (A') (A') (A') (A") (A') (A') (A") (A') (A')
                 (A') (A') (A") (A') (A") (A') (A") (A') (A') (A')
                 (A") (A') (A') (A") (A') (A") (A") (A') (A") (A')
                 (A") (A') (A') (A') (A") (A") (A') (A") (A') (A')
                 (A') (A") (A') (A") (A') (A') (A") (A') (A") (A")
                 (A") (A") (A') (A') (A") (A') (A") (A") (A') (A")
                 (A') (A") (A') (A") (A') (A') (A") (A') (A") (A")
                 (A') (A') (A") (A') (A') (A") (A') (A') (A') (A')
                 (A") (A') (A") (A') (A') (A") (A') (A') (A") (A")
                 (A') (A') (A") (A') (A') (A") (A') (A') (A') (A')
                 (A") (A') (A') (A') (A') (A") (A") (A') (A') (A')
                 (A') (A") (A') (A') (A') (A') (A') (A') (A') (A')
                 (A') (A') (A') (A') (A')
 The electronic state is 1-A'.
 Alpha  occ. eigenvalues --  -18.80634 -13.99998  -9.99151  -9.93774  -9.92148
 Alpha  occ. eigenvalues --   -9.91008  -9.90543  -1.00290  -0.87065  -0.74391
 Alpha  occ. eigenvalues --   -0.69607  -0.59659  -0.57880  -0.51139  -0.47335
 Alpha  occ. eigenvalues --   -0.44062  -0.40505  -0.40293  -0.37348  -0.35908
 Alpha  occ. eigenvalues --   -0.33238  -0.32352  -0.27151  -0.23837  -0.22163
 Alpha virt. eigenvalues --   -0.06680  -0.04098   0.01047   0.01742   0.03741
 Alpha virt. eigenvalues --    0.05739   0.07420   0.09136   0.11316   0.13788
 Alpha virt. eigenvalues --    0.14294   0.15016   0.16130   0.17837   0.18394
 Alpha virt. eigenvalues --    0.19086   0.20167   0.23055   0.23238   0.24817
 Alpha virt. eigenvalues --    0.25410   0.26851   0.27251   0.27336   0.28926
 Alpha virt. eigenvalues --    0.31333   0.31553   0.33172   0.33709   0.34741
 Alpha virt. eigenvalues --    0.36535   0.38825   0.41107   0.42400   0.42794
 Alpha virt. eigenvalues --    0.46208   0.49624   0.49776   0.51581   0.54909
 Alpha virt. eigenvalues --    0.56707   0.58532   0.59995   0.60242   0.61917
 Alpha virt. eigenvalues --    0.64419   0.68632   0.71288   0.72565   0.76261
 Alpha virt. eigenvalues --    0.77607   0.81462   0.83792   0.86534   0.87594
 Alpha virt. eigenvalues --    0.90228   0.91607   0.91964   0.94032   0.95869
 Alpha virt. eigenvalues --    0.98306   1.03950   1.04663   1.06289   1.08987
 Alpha virt. eigenvalues --    1.09786   1.11041   1.11335   1.14120   1.14916
 Alpha virt. eigenvalues --    1.16471   1.20003   1.21663   1.23970   1.24080
 Alpha virt. eigenvalues --    1.25948   1.30550   1.35426   1.36679   1.38934
 Alpha virt. eigenvalues --    1.43613   1.44885   1.45914   1.48719   1.49065
 Alpha virt. eigenvalues --    1.49203   1.51888   1.55293   1.56037   1.59993
 Alpha virt. eigenvalues --    1.60147   1.61499   1.64806   1.67501   1.68720
 Alpha virt. eigenvalues --    1.71841   1.74040   1.76719   1.79208   1.80141
 Alpha virt. eigenvalues --    1.82859   1.88282   1.88576   1.89940   1.94075
 Alpha virt. eigenvalues --    1.97926   2.03202   2.04342   2.07371   2.11267
 Alpha virt. eigenvalues --    2.14878   2.15254   2.18874   2.20356   2.22753
 Alpha virt. eigenvalues --    2.26939   2.29917   2.50993   2.60097   2.65236
 Alpha virt. eigenvalues --    2.78412   2.85856   2.87409   2.91784   3.06723
 Alpha virt. eigenvalues --    3.08507   3.12370   3.15210   3.17628   3.18637
 Alpha virt. eigenvalues --    3.22709   3.24201   3.26978   3.30573   3.31308
 Alpha virt. eigenvalues --    3.34640   3.39142   3.39351   3.41689   3.49159
 Alpha virt. eigenvalues --    3.49809   3.51931   3.52805   3.53842   3.59579
 Alpha virt. eigenvalues --    3.62432   3.63938   3.69955   3.72361   3.73802
 Alpha virt. eigenvalues --    3.75927   3.78958   3.81705   3.84141   3.88468
 Alpha virt. eigenvalues --    3.88513   3.92664   3.96356   3.97458   3.97878
 Alpha virt. eigenvalues --    3.99032   4.01705   4.03793   4.07921   4.09276
 Alpha virt. eigenvalues --    4.09412   4.11320   4.13358   4.13700   4.15643
 Alpha virt. eigenvalues --    4.18410   4.19062   4.21160   4.23186   4.23946
 Alpha virt. eigenvalues --    4.24303   4.25730   4.28956   4.31015   4.32388
 Alpha virt. eigenvalues --    4.35360   4.36199   4.36932   4.37701   4.38868
 Alpha virt. eigenvalues --    4.41288   4.42167   4.43288   4.46701   4.49277
 Alpha virt. eigenvalues --    4.51105   4.51228   4.56239   4.57150   4.59186
 Alpha virt. eigenvalues --    4.65974   4.67947   4.71419   4.75515   4.78696
 Alpha virt. eigenvalues --    4.81019   4.81503   4.89047   4.90222   4.96033
 Alpha virt. eigenvalues --    5.00028   5.00417   5.03075   5.09635   5.11061
 Alpha virt. eigenvalues --    5.13871   5.15298   5.19633   5.22426   5.25516
 Alpha virt. eigenvalues --    5.26517   5.27860   5.29253   5.31332   5.32274
 Alpha virt. eigenvalues --    5.35197   5.37557   5.45310   5.47629   5.53263
 Alpha virt. eigenvalues --    5.54444   5.56464   5.59089   5.68320   5.70422
 Alpha virt. eigenvalues --    5.73756   5.89811   5.94309   5.98260   5.98496
 Alpha virt. eigenvalues --    5.99753   6.12283   6.15141   6.17087   6.18614
 Alpha virt. eigenvalues --    6.35339   6.35446   6.37240   6.52379   6.57311
 Alpha virt. eigenvalues --    6.80512   7.04182   7.19218   9.10939  11.88142
 Alpha virt. eigenvalues --   12.50823  15.27715  17.15461  18.37319  21.90686
          Condensed to atoms (all electrons):
               1          2          3          4          5          6
     1  O    7.837218  -0.103818   0.333743  -0.065260   0.004027   0.007974
     2  N   -0.103818   6.621611   0.464565  -0.015464   0.527184  -0.035659
     3  C    0.333743   0.464565   4.488130   0.482900  -0.075751  -0.058139
     4  C   -0.065260  -0.015464   0.482900   4.914890  -0.044869   0.516493
     5  C    0.004027   0.527184  -0.075751  -0.044869   4.635679  -0.068836
     6  C    0.007974  -0.035659  -0.058139   0.516493  -0.068836   4.753275
     7  C   -0.000599  -0.046814  -0.055568  -0.042354   0.493533   0.486907
     8  H    0.339471   0.022010  -0.040012   0.014344   0.002357  -0.002269
     9  H    0.004923   0.008091  -0.034792   0.428690  -0.002676  -0.039701
    10  H   -0.000500  -0.040165   0.005979  -0.004185   0.445845   0.008973
    11  H   -0.000235  -0.002236   0.008997  -0.043309   0.008533   0.438988
    12  H    0.000059   0.009072  -0.001020   0.008247  -0.031233  -0.042059
               7          8          9         10         11         12
     1  O   -0.000599   0.339471   0.004923  -0.000500  -0.000235   0.000059
     2  N   -0.046814   0.022010   0.008091  -0.040165  -0.002236   0.009072
     3  C   -0.055568  -0.040012  -0.034792   0.005979   0.008997  -0.001020
     4  C   -0.042354   0.014344   0.428690  -0.004185  -0.043309   0.008247
     5  C    0.493533   0.002357  -0.002676   0.445845   0.008533  -0.031233
     6  C    0.486907  -0.002269  -0.039701   0.008973   0.438988  -0.042059
     7  C    4.997015   0.001628   0.009550  -0.080857  -0.043990   0.426499
     8  H    0.001628   0.458944  -0.001264  -0.000815   0.000130  -0.000074
     9  H    0.009550  -0.001264   0.579432   0.000239  -0.009681  -0.000032
    10  H   -0.080857  -0.000815   0.000239   0.605032  -0.000377  -0.004364
    11  H   -0.043990   0.000130  -0.009681  -0.000377   0.590523  -0.008688
    12  H    0.426499  -0.000074  -0.000032  -0.004364  -0.008688   0.593676
 Mulliken charges:
               1
     1  O   -0.357003
     2  N   -0.408377
     3  C    0.480967
     4  C   -0.150123
     5  C    0.106207
     6  C    0.034052
     7  C   -0.144950
     8  H    0.205550
     9  H    0.057220
    10  H    0.065194
    11  H    0.061345
    12  H    0.049917
 Sum of Mulliken charges =  -0.00000
 Mulliken charges with hydrogens summed into heavy atoms:
               1
     1  O   -0.151452
     2  N   -0.408377
     3  C    0.480967
     4  C   -0.092902
     5  C    0.171401
     6  C    0.095397
     7  C   -0.095033
 Electronic spatial extent (au):  <R**2>=            623.8253
 Charge=             -0.0000 electrons
 Dipole moment (field-independent basis, Debye):
    X=              0.4878    Y=             -1.0455    Z=             -0.0000  Tot=              1.1537
 Quadrupole moment (field-independent basis, Debye-Ang):
   XX=            -38.1960   YY=            -36.7379   ZZ=            -42.9304
   XY=             -1.9455   XZ=              0.0000   YZ=              0.0000
 Traceless Quadrupole moment (field-independent basis, Debye-Ang):
   XX=              1.0921   YY=              2.5502   ZZ=             -3.6423
   XY=             -1.9455   XZ=              0.0000   YZ=              0.0000
 Octapole moment (field-independent basis, Debye-Ang**2):
  XXX=              6.2582  YYY=              5.3757  ZZZ=              0.0000  XYY=            -10.5027
  XXY=              0.6374  XXZ=              0.0000  XZZ=             -1.3581  YZZ=              5.4110
  YYZ=             -0.0000  XYZ=              0.0000
 Hexadecapole moment (field-independent basis, Debye-Ang**3):
 XXXX=           -269.0465 YYYY=           -457.3920 ZZZZ=            -46.6015 XXXY=              8.8829
 XXXZ=              0.0000 YYYX=            -28.7042 YYYZ=              0.0000 ZZZX=              0.0000
 ZZZY=              0.0000 XXYY=           -110.9652 XXZZ=            -59.5476 YYZZ=            -96.7853
 XXYZ=              0.0000 YYXZ=              0.0000 ZZXY=              0.7906
 N-N= 2.775236709615D+02 E-N=-1.310432441344D+03  KE= 3.226691963873D+02
 Symmetry A'   KE= 3.108748943136D+02
 Symmetry A"   KE= 1.179430207378D+01
 No NMR shielding tensors so no spin-rotation constants.
 Leave Link  601 at Fri Aug 27 00:00:20 2021, MaxMem= 17179869184 cpu:       114.2
 (Enter /public3/home/sc51754/softwares/g09e01/l701.exe)
 Compute integral first derivatives.
 ... and contract with generalized density number  0.
 Leave Link  701 at Fri Aug 27 00:00:20 2021, MaxMem= 17179869184 cpu:        43.7
 (Enter /public3/home/sc51754/softwares/g09e01/l702.exe)
 L702 exits ... SP integral derivatives will be done elsewhere.
 Leave Link  702 at Fri Aug 27 00:00:21 2021, MaxMem= 17179869184 cpu:         0.3
 (Enter /public3/home/sc51754/softwares/g09e01/l703.exe)
 Compute integral first derivatives, UseDBF=F ICtDFT=           0.
 Integral derivatives from FoFJK, PRISM(SPDF).
 Calling FoFJK, ICntrl=      2527 FMM=F ISym2X=1 I1Cent= 0 IOpClX= 0 NMat=1 NMatS=1 NMatT=0.
 FoFJK:  IHMeth= 1 ICntrl=    2527 DoSepK=F KAlg= 0 I1Cent=   0 FoldK=F
 IRaf=         0 NMat=   1 IRICut=       1 DoRegI=T DoRafI=F ISym2E= 1.
 FoFCou: FMM=F IPFlag=           0 FMFlag=      100000 FMFlg1=         800
         NFxFlg=           0 DoJE=F BraDBF=F KetDBF=F FulRan=T
         wScrn=  0.000000 ICntrl=    2527 IOpCl=  0 I1Cent=           0 NGrid=           0
         NMat0=    1 NMatS0=      1 NMatT0=    0 NMatD0=    1 NMtDS0=    0 NMtDT0=    0
 Petite list used in FoFCou.
 Leave Link  703 at Fri Aug 27 00:00:23 2021, MaxMem= 17179869184 cpu:       121.2
 (Enter /public3/home/sc51754/softwares/g09e01/l716.exe)
 Dipole        = 1.91908917D-01-4.11340321D-01-1.82979285D-32
 ***** Axes restored to original set *****
 -------------------------------------------------------------------
 Center     Atomic                   Forces (Hartrees/Bohr)
 Number     Number              X              Y              Z
 -------------------------------------------------------------------
      1        8           0.012588945    0.013008341    0.000000000
      2        7          -0.015013195    0.005756273   -0.000000000
      3        6           0.005031347   -0.000271109    0.000000000
      4        6           0.005956216    0.004396613    0.000000000
      5        6          -0.007837207   -0.005384035   -0.000000000
      6        6           0.005819722   -0.005918433    0.000000000
      7        6           0.001486366   -0.006744509    0.000000000
      8        1          -0.012984726    0.003903674   -0.000000000
      9        1           0.005429498    0.002808222    0.000000000
     10        1          -0.005423485   -0.002195984   -0.000000000
     11        1           0.005265186   -0.003053354    0.000000000
     12        1          -0.000318665   -0.006305699    0.000000000
 -------------------------------------------------------------------
 Cartesian Forces:  Max     0.015013195 RMS     0.005787392
 Leave Link  716 at Fri Aug 27 00:00:23 2021, MaxMem= 17179869184 cpu:         0.4
 (Enter /public3/home/sc51754/softwares/g09e01/l103.exe)

 GradGradGradGradGradGradGradGradGradGradGradGradGradGradGradGradGradGrad
 Berny optimization.
 FormGI is forming the generalized inverse of G from B-inverse, IUseBI=4.
 Internal  Forces:  Max     0.018091895 RMS     0.006173520
 Search for a local minimum.
 Step number   1 out of a maximum of   61
 All quantities printed in internal units (Hartrees-Bohrs-Radians)
 RMS Force = .61735D-02 SwitMx=.10000D-02 MixMth= 1
 Mixed Optimization -- RFO/linear search
 Second derivative matrix not updated -- first step.
 ITU=  0
     Eigenvalues ---    0.02265   0.02291   0.02312   0.02345   0.02366
     Eigenvalues ---    0.02409   0.02454   0.02466   0.02614   0.16000
     Eigenvalues ---    0.16000   0.16000   0.16000   0.16000   0.22000
     Eigenvalues ---    0.22422   0.24442   0.25000   0.35406   0.35728
     Eigenvalues ---    0.35970   0.35990   0.43621   0.45785   0.48169
     Eigenvalues ---    0.49389   0.54882   0.56881   0.57480   0.60970
 RFO step:  Lambda=-3.73242441D-03 EMin= 2.26525640D-02
 Linear search not attempted -- first point.
 Iteration  1 RMS(Cart)=  0.02039206 RMS(Int)=  0.00001593
 Iteration  2 RMS(Cart)=  0.00002150 RMS(Int)=  0.00000192
 Iteration  3 RMS(Cart)=  0.00000000 RMS(Int)=  0.00000192
 ITry= 1 IFail=0 DXMaxC= 5.84D-02 DCOld= 1.00D+10 DXMaxT= 3.00D-01 DXLimC= 3.00D+00 Rises=F
 ClnCor:  largest displacement from symmetrization is 1.82D-13 for atom     1.
 Variable       Old X    -DE/DX   Delta X   Delta X   Delta X     New X
                                 (Linear)    (Quad)   (Total)
    R1        2.53498   0.01691   0.00000   0.02953   0.02953   2.56451
    R2        1.81937   0.01357   0.00000   0.02455   0.02455   1.84392
    R3        2.48913   0.01809   0.00000   0.02922   0.02922   2.51835
    R4        2.51605   0.01477   0.00000   0.02524   0.02524   2.54128
    R5        2.63173   0.01340   0.00000   0.02853   0.02853   2.66026
    R6        2.59740   0.01485   0.00000   0.02888   0.02888   2.62628
    R7        2.04128   0.00610   0.00000   0.01678   0.01678   2.05806
    R8        2.60360   0.01442   0.00000   0.02882   0.02882   2.63241
    R9        2.05020   0.00584   0.00000   0.01632   0.01632   2.06652
   R10        2.62604   0.01280   0.00000   0.02614   0.02614   2.65218
   R11        2.04509   0.00609   0.00000   0.01686   0.01686   2.06195
   R12        2.04097   0.00631   0.00000   0.01736   0.01736   2.05833
    A1        1.85547   0.00002   0.00000   0.00010   0.00010   1.85557
    A2        2.05525   0.00042   0.00000   0.00485   0.00485   2.06010
    A3        2.05194   0.00011   0.00000  -0.00021  -0.00021   2.05173
    A4        2.06888   0.00142   0.00000   0.00493   0.00493   2.07381
    A5        2.16236  -0.00153   0.00000  -0.00472  -0.00471   2.15765
    A6        2.04920   0.00061   0.00000   0.00161   0.00161   2.05081
    A7        2.09344   0.00010   0.00000   0.00168   0.00167   2.09511
    A8        2.14055  -0.00071   0.00000  -0.00328  -0.00329   2.13727
    A9        2.15386  -0.00088   0.00000  -0.00320  -0.00320   2.15066
   A10        2.02490   0.00009   0.00000  -0.00053  -0.00053   2.02437
   A11        2.10443   0.00079   0.00000   0.00373   0.00373   2.10816
   A12        2.08852   0.00060   0.00000  -0.00014  -0.00014   2.08838
   A13        2.09426  -0.00046   0.00000  -0.00089  -0.00089   2.09337
   A14        2.10040  -0.00014   0.00000   0.00103   0.00104   2.10143
   A15        2.05718   0.00078   0.00000   0.00160   0.00159   2.05877
   A16        2.10510  -0.00033   0.00000  -0.00043  -0.00043   2.10467
   A17        2.12091  -0.00045   0.00000  -0.00117  -0.00116   2.11974
    D1        0.00000   0.00000   0.00000   0.00000   0.00000   0.00000
    D2        3.14159   0.00000   0.00000   0.00000   0.00000   3.14159
    D3        3.14159  -0.00000   0.00000  -0.00000   0.00000   3.14159
    D4        0.00000   0.00000   0.00000   0.00000   0.00000   0.00000
    D5       -0.00000  -0.00000   0.00000  -0.00000   0.00000   0.00000
    D6        3.14159  -0.00000   0.00000  -0.00000   0.00000   3.14159
    D7        3.14159   0.00000   0.00000   0.00000   0.00000   3.14159
    D8        0.00000   0.00000   0.00000   0.00000  -0.00000   0.00000
    D9       -0.00000   0.00000   0.00000  -0.00000   0.00000   0.00000
   D10        3.14159  -0.00000   0.00000  -0.00000   0.00000   3.14159
   D11        0.00000  -0.00000   0.00000   0.00000  -0.00000   0.00000
   D12        3.14159  -0.00000   0.00000  -0.00000   0.00000   3.14159
   D13        3.14159   0.00000   0.00000   0.00000   0.00000   3.14159
   D14       -0.00000   0.00000   0.00000  -0.00000   0.00000   0.00000
   D15       -0.00000  -0.00000   0.00000  -0.00000   0.00000   0.00000
   D16        3.14159  -0.00000   0.00000  -0.00000   0.00000   3.14159
   D17        3.14159   0.00000   0.00000   0.00000   0.00000   3.14159
   D18       -0.00000   0.00000   0.00000   0.00000   0.00000   0.00000
   D19        0.00000   0.00000   0.00000   0.00000   0.00000   0.00000
   D20        3.14159   0.00000   0.00000   0.00000   0.00000   3.14159
   D21        3.14159   0.00000   0.00000   0.00000   0.00000   3.14159
   D22       -0.00000   0.00000   0.00000   0.00000   0.00000   0.00000
         Item               Value     Threshold  Converged?
 Maximum Force            0.018092     0.000450     NO 
 RMS     Force            0.006174     0.000300     NO 
 Maximum Displacement     0.058430     0.001800     NO 
 RMS     Displacement     0.020395     0.001200     NO 
 Predicted change in Energy=-1.879967D-03
 Lowest energy point so far.  Saving SCF results.
 GradGradGradGradGradGradGradGradGradGradGradGradGradGradGradGradGradGrad

 Leave Link  103 at Fri Aug 27 00:00:25 2021, MaxMem= 17179869184 cpu:       100.7
 (Enter /public3/home/sc51754/softwares/g09e01/l202.exe)
                          Input orientation:                          
 ---------------------------------------------------------------------
 Center     Atomic      Atomic             Coordinates (Angstroms)
 Number     Number       Type             X           Y           Z
 ---------------------------------------------------------------------
      1          8           0        0.005633    2.269533   -0.000000
      2          7           0       -1.182471    0.299943   -0.000000
      3          6           0        0.001076    0.912462   -0.000000
      4          6           0        1.232167    0.229693    0.000000
      5          6           0       -1.198252   -1.044753   -0.000000
      6          6           0        1.195541   -1.159591    0.000000
      7          6           0       -0.041980   -1.821620    0.000000
      8          1           0       -0.929906    2.546803   -0.000000
      9          1           0        2.166218    0.789733    0.000000
     10          1           0       -2.186795   -1.512356   -0.000000
     11          1           0        2.126368   -1.728921    0.000000
     12          1           0       -0.104817   -2.909026    0.000000
 ---------------------------------------------------------------------
                    Distance matrix (angstroms):
                    1          2          3          4          5
     1  O    0.000000
     2  N    2.300190   0.000000
     3  C    1.357078   1.332652   0.000000
     4  C    2.380195   2.415659   1.407749   0.000000
     5  C    3.526164   1.344789   2.295448   2.744294   0.000000
     6  C    3.629707   2.790193   2.391684   1.389767   2.396546
     7  C    4.091429   2.408682   2.734421   2.414816   1.393013
     8  H    0.975762   2.261011   1.880903   3.169157   3.601567
     9  H    2.618765   3.384318   2.168617   1.089080   3.832101
    10  H    4.371433   2.071978   3.265964   3.837191   1.093558
    11  H    4.526052   3.881327   3.390246   2.153083   3.394287
    12  H    5.179737   3.385088   3.822956   3.411610   2.161276
                    6          7          8          9         10
     6  C    0.000000
     7  C    1.403474   0.000000
     8  H    4.272573   4.457749   0.000000
     9  H    2.177632   3.419840   3.559954   0.000000
    10  H    3.400681   2.166996   4.249299   4.924260   0.000000
    11  H    1.091135   2.170329   5.255723   2.518969   4.318596
    12  H    2.179783   1.089221   5.517866   4.340325   2.507054
                   11         12
    11  H    0.000000
    12  H    2.524051   0.000000
 Stoichiometry    C5H5NO
 Framework group  CS[SG(C5H5NO)]
 Deg. of freedom    21
 Full point group                 CS      NOp   2
 RotChk:  IX=0 Diff= 2.60D-03
 Largest Abelian subgroup         CS      NOp   2
 Largest concise Abelian subgroup C1      NOp   1
                         Standard orientation:                         
 ---------------------------------------------------------------------
 Center     Atomic      Atomic             Coordinates (Angstroms)
 Number     Number       Type             X           Y           Z
 ---------------------------------------------------------------------
      1          8           0        0.002062    2.266755   -0.000000
      2          7           0       -1.182418    0.294984   -0.000000
      3          6           0       -0.000000    0.909679   -0.000000
      4          6           0        1.232344    0.229175    0.000000
      5          6           0       -1.195726   -1.049739   -0.000000
      6          6           0        1.198273   -1.160175    0.000000
      7          6           0       -0.038028   -1.824478    0.000000
      8          1           0       -0.933985    2.542305   -0.000000
      9          1           0        2.165364    0.790932    0.000000
     10          1           0       -2.183408   -1.519159   -0.000000
     11          1           0        2.130146   -1.727791    0.000000
     12          1           0       -0.098865   -2.911998    0.000000
 ---------------------------------------------------------------------
 Rotational constants (GHZ):      5.8023510      2.7419394      1.8620265
 Leave Link  202 at Fri Aug 27 00:00:25 2021, MaxMem= 17179869184 cpu:         3.6
 (Enter /public3/home/sc51754/softwares/g09e01/l301.exe)
 Basis read from rwf:  (5D, 7F)
 No pseudopotential information found on rwf file.
 There are   223 symmetry adapted cartesian basis functions of A'  symmetry.
 There are    97 symmetry adapted cartesian basis functions of A"  symmetry.
 There are   190 symmetry adapted basis functions of A'  symmetry.
 There are    90 symmetry adapted basis functions of A"  symmetry.
   280 basis functions,   475 primitive gaussians,   320 cartesian basis functions
    25 alpha electrons       25 beta electrons
       nuclear repulsion energy       274.5227485701 Hartrees.
 IExCor=  404 DFT=T Ex=B Corr=P86 ExCW=0 ScaHFX=  0.000000
 ScaDFX=  1.000000  1.000000  1.000000  1.000000 ScalE2=  1.000000  1.000000
 IRadAn=      0 IRanWt=     -1 IRanGd=            0 ICorTp=0 IEmpDi=  4
 NAtoms=   12 NActive=   12 NUniq=   12 SFac= 1.00D+00 NAtFMM=   60 NAOKFM=F Big=F
 Integral buffers will be    131072 words long.
 Raffenetti 2 integral format.
 Two-electron integral symmetry is turned on.
 No density basis found on file   724.
 Leave Link  301 at Fri Aug 27 00:00:25 2021, MaxMem= 17179869184 cpu:         1.1
 (Enter /public3/home/sc51754/softwares/g09e01/l302.exe)
 NPDir=0 NMtPBC=     1 NCelOv=     1 NCel=       1 NClECP=     1 NCelD=      1
         NCelK=      1 NCelE2=     1 NClLst=     1 CellRange=     0.0.
 One-electron integrals computed using PRISM.
 NBasis=   280 RedAO= T EigKep=  2.32D-04  NBF=   190    90
 NBsUse=   280 1.00D-06 EigRej= -1.00D+00 NBFU=   190    90
 Precomputing XC quadrature grid using
 IXCGrd= 4 IRadAn=           0 IRanWt=          -1 IRanGd=           0 AccXCQ= 0.00D+00.
 Generated NRdTot=       0 NPtTot=           0 NUsed=           0 NTot=          32
 NSgBfM=   320   320   320   320   320 MxSgAt=    12 MxSgA2=    12.
 Leave Link  302 at Fri Aug 27 00:00:26 2021, MaxMem= 17179869184 cpu:        48.3
 (Enter /public3/home/sc51754/softwares/g09e01/l303.exe)
 DipDrv:  MaxL=1.
 Leave Link  303 at Fri Aug 27 00:00:26 2021, MaxMem= 17179869184 cpu:         5.9
 (Enter /public3/home/sc51754/softwares/g09e01/l401.exe)
 Initial guess from the checkpoint file:  "HY_BP86_PC2_OPT_FREQ.chk"
 B after Tr=    -0.000000    0.000000    0.000000
         Rot=    0.999999   -0.000000   -0.000000   -0.001011 Ang=  -0.12 deg.
 Guess basis will be translated and rotated to current coordinates.
 JPrj=2 DoOrth=T DoCkMO=T.
 Initial guess orbital symmetries:
       Occupied  (A') (A') (A') (A') (A') (A') (A') (A') (A') (A')
                 (A') (A') (A') (A') (A') (A') (A') (A") (A') (A')
                 (A') (A") (A") (A') (A")
       Virtual   (A') (A') (A') (A') (A') (A') (A') (A') (A') (A')
                 (A') (A') (A') (A') (A') (A') (A') (A') (A') (A')
                 (A') (A') (A') (A') (A') (A') (A') (A') (A') (A')
                 (A') (A') (A') (A') (A') (A') (A') (A') (A') (A')
                 (A') (A') (A') (A') (A') (A') (A') (A') (A') (A')
                 (A') (A') (A') (A') (A') (A') (A') (A') (A') (A')
                 (A') (A') (A') (A') (A') (A') (A') (A') (A') (A')
                 (A') (A') (A') (A') (A') (A') (A') (A') (A') (A')
                 (A') (A') (A') (A') (A') (A') (A') (A') (A') (A')
                 (A') (A') (A') (A') (A') (A') (A') (A') (A') (A')
                 (A') (A') (A') (A') (A') (A') (A') (A') (A') (A')
                 (A') (A') (A') (A') (A') (A') (A') (A') (A') (A')
                 (A') (A') (A') (A') (A') (A') (A') (A') (A') (A')
                 (A') (A') (A') (A') (A') (A') (A') (A') (A') (A')
                 (A') (A') (A') (A') (A') (A') (A') (A') (A') (A')
                 (A') (A') (A') (A') (A') (A') (A') (A') (A') (A')
                 (A') (A') (A') (A') (A') (A') (A') (A') (A') (A")
                 (A") (A") (A") (A") (A") (A") (A") (A") (A") (A")
                 (A") (A") (A") (A") (A") (A") (A") (A") (A") (A")
                 (A") (A") (A") (A") (A") (A") (A") (A") (A") (A")
                 (A") (A") (A") (A") (A") (A") (A") (A") (A") (A")
                 (A") (A") (A") (A") (A") (A") (A") (A") (A") (A")
                 (A") (A") (A") (A") (A") (A") (A") (A") (A") (A")
                 (A") (A") (A") (A") (A") (A") (A") (A") (A") (A")
                 (A") (A") (A") (A") (A") (A") (A") (A") (A") (A")
                 (A") (A") (A") (A") (A")
 The electronic state of the initial guess is 1-A'.
 Generating alternative initial guess.
 ExpMin= 7.41D-02 ExpMax= 1.48D+04 ExpMxC= 5.05D+02 IAcc=2 IRadAn=         4 AccDes= 0.00D+00
 Harris functional with IExCor=  404 and IRadAn=       4 diagonalized for initial guess.
 HarFok:  IExCor=  404 AccDes= 0.00D+00 IRadAn=         4 IDoV= 1 UseB2=F ITyADJ=14
 ICtDFT=  3500011 ScaDFX=  1.000000  1.000000  1.000000  1.000000
 FoFCou: FMM=F IPFlag=           0 FMFlag=      100000 FMFlg1=           0
         NFxFlg=           0 DoJE=T BraDBF=F KetDBF=T FulRan=T
         wScrn=  0.000000 ICntrl=     500 IOpCl=  0 I1Cent=   200000004 NGrid=           0
         NMat0=    1 NMatS0=      1 NMatT0=    0 NMatD0=    1 NMtDS0=    0 NMtDT0=    0
 Petite list used in FoFCou.
 Harris En= -323.753854787151    
 Leave Link  401 at Fri Aug 27 00:00:28 2021, MaxMem= 17179869184 cpu:        99.0
 (Enter /public3/home/sc51754/softwares/g09e01/l502.exe)
 Closed shell SCF:
 Using DIIS extrapolation, IDIIS=  1040.
 Integral symmetry usage will be decided dynamically.
 Keep J ints in memory in symmetry-blocked form, NReq=1167802198.
 IVT=      348658 IEndB=      348658 NGot= 17179869184 MDV= 16785904737
 LenX= 16785904737 LenY= 16785801896
 Requested convergence on RMS density matrix=1.00D-08 within 128 cycles.
 Requested convergence on MAX density matrix=1.00D-06.
 Requested convergence on             energy=1.00D-06.
 No special actions if energy rises.
 FoFCou: FMM=F IPFlag=           0 FMFlag=           0 FMFlg1=           0
         NFxFlg=           0 DoJE=F BraDBF=F KetDBF=F FulRan=T
         wScrn=  0.000000 ICntrl=     600 IOpCl=  0 I1Cent=           0 NGrid=           0
         NMat0=    1 NMatS0=  39340 NMatT0=    0 NMatD0=    1 NMtDS0=    0 NMtDT0=    0
 Petite list used in FoFCou.
 Integral accuracy reduced to 1.0D-05 until final iterations.

 Cycle   1  Pass 0  IDiag  1:
 E= -323.658725888587    
 DIIS: error= 1.13D-03 at cycle   1 NSaved=   1.
 NSaved= 1 IEnMin= 1 EnMin= -323.658725888587     IErMin= 1 ErrMin= 1.13D-03
 ErrMax= 1.13D-03  0.00D+00 EMaxC= 1.00D-01 BMatC= 5.32D-04 BMatP= 5.32D-04
 IDIUse=3 WtCom= 9.89D-01 WtEn= 1.13D-02
 Coeff-Com:  0.100D+01
 Coeff-En:   0.100D+01
 Coeff:      0.100D+01
 Gap=     0.524 Goal=   None    Shift=    0.000
 GapD=    0.524 DampG=2.000 DampE=1.000 DampFc=2.0000 IDamp=-1.
 RMSDP=9.30D-05 MaxDP=2.39D-03              OVMax= 5.71D-03

 Cycle   2  Pass 0  IDiag  1:
 E= -323.659080601365     Delta-E=       -0.000354712777 Rises=F Damp=F
 DIIS: error= 7.56D-04 at cycle   2 NSaved=   2.
 NSaved= 2 IEnMin= 2 EnMin= -323.659080601365     IErMin= 2 ErrMin= 7.56D-04
 ErrMax= 7.56D-04  0.00D+00 EMaxC= 1.00D-01 BMatC= 1.28D-04 BMatP= 5.32D-04
 IDIUse=3 WtCom= 9.92D-01 WtEn= 7.56D-03
 Coeff-Com:  0.281D+00 0.719D+00
 Coeff-En:   0.000D+00 0.100D+01
 Coeff:      0.279D+00 0.721D+00
 Gap=     0.151 Goal=   None    Shift=    0.000
 RMSDP=6.01D-05 MaxDP=2.80D-03 DE=-3.55D-04 OVMax= 4.51D-03

 Cycle   3  Pass 0  IDiag  1:
 E= -323.659114513920     Delta-E=       -0.000033912555 Rises=F Damp=F
 DIIS: error= 5.59D-04 at cycle   3 NSaved=   3.
 NSaved= 3 IEnMin= 3 EnMin= -323.659114513920     IErMin= 3 ErrMin= 5.59D-04
 ErrMax= 5.59D-04  0.00D+00 EMaxC= 1.00D-01 BMatC= 8.40D-05 BMatP= 1.28D-04
 IDIUse=3 WtCom= 9.94D-01 WtEn= 5.59D-03
 Coeff-Com:  0.564D-01 0.447D+00 0.497D+00
 Coeff-En:   0.000D+00 0.427D+00 0.573D+00
 Coeff:      0.561D-01 0.447D+00 0.497D+00
 Gap=     0.152 Goal=   None    Shift=    0.000
 RMSDP=3.33D-05 MaxDP=1.72D-03 DE=-3.39D-05 OVMax= 3.84D-03

 Cycle   4  Pass 0  IDiag  1:
 E= -323.659184216927     Delta-E=       -0.000069703007 Rises=F Damp=F
 DIIS: error= 2.54D-04 at cycle   4 NSaved=   4.
 NSaved= 4 IEnMin= 4 EnMin= -323.659184216927     IErMin= 4 ErrMin= 2.54D-04
 ErrMax= 2.54D-04  0.00D+00 EMaxC= 1.00D-01 BMatC= 1.66D-05 BMatP= 8.40D-05
 IDIUse=3 WtCom= 9.97D-01 WtEn= 2.54D-03
 Coeff-Com:  0.206D-01 0.271D+00 0.365D+00 0.343D+00
 Coeff-En:   0.000D+00 0.000D+00 0.114D+00 0.886D+00
 Coeff:      0.205D-01 0.270D+00 0.364D+00 0.345D+00
 Gap=     0.152 Goal=   None    Shift=    0.000
 RMSDP=1.15D-05 MaxDP=5.99D-04 DE=-6.97D-05 OVMax= 1.73D-03

 Cycle   5  Pass 0  IDiag  1:
 E= -323.659197284593     Delta-E=       -0.000013067666 Rises=F Damp=F
 DIIS: error= 6.39D-05 at cycle   5 NSaved=   5.
 NSaved= 5 IEnMin= 5 EnMin= -323.659197284593     IErMin= 5 ErrMin= 6.39D-05
 ErrMax= 6.39D-05  0.00D+00 EMaxC= 1.00D-01 BMatC= 7.24D-07 BMatP= 1.66D-05
 IDIUse=1 WtCom= 1.00D+00 WtEn= 0.00D+00
 Coeff-Com:  0.224D-02 0.822D-01 0.139D+00 0.203D+00 0.574D+00
 Coeff:      0.224D-02 0.822D-01 0.139D+00 0.203D+00 0.574D+00
 Gap=     0.152 Goal=   None    Shift=    0.000
 RMSDP=2.90D-06 MaxDP=1.16D-04 DE=-1.31D-05 OVMax= 5.13D-04

 Initial convergence to 1.0D-05 achieved.  Increase integral accuracy.
 Cycle   6  Pass 1  IDiag  1:
 E= -323.659103783230     Delta-E=        0.000093501363 Rises=F Damp=F
 DIIS: error= 4.21D-05 at cycle   1 NSaved=   1.
 NSaved= 1 IEnMin= 1 EnMin= -323.659103783230     IErMin= 1 ErrMin= 4.21D-05
 ErrMax= 4.21D-05  0.00D+00 EMaxC= 1.00D-01 BMatC= 3.25D-07 BMatP= 3.25D-07
 IDIUse=1 WtCom= 1.00D+00 WtEn= 0.00D+00
 Coeff-Com:  0.100D+01
 Coeff:      0.100D+01
 Gap=     0.152 Goal=   None    Shift=    0.000
 RMSDP=2.90D-06 MaxDP=1.16D-04 DE= 9.35D-05 OVMax= 7.34D-04

 Cycle   7  Pass 1  IDiag  1:
 E= -323.659103129956     Delta-E=        0.000000653274 Rises=F Damp=F
 DIIS: error= 6.72D-05 at cycle   2 NSaved=   2.
 NSaved= 2 IEnMin= 1 EnMin= -323.659103783230     IErMin= 1 ErrMin= 4.21D-05
 ErrMax= 6.72D-05  0.00D+00 EMaxC= 1.00D-01 BMatC= 8.47D-07 BMatP= 3.25D-07
 IDIUse=1 WtCom= 1.00D+00 WtEn= 0.00D+00
 Coeff-Com:  0.643D+00 0.357D+00
 Coeff:      0.643D+00 0.357D+00
 Gap=     0.152 Goal=   None    Shift=    0.000
 RMSDP=3.42D-06 MaxDP=1.63D-04 DE= 6.53D-07 OVMax= 6.81D-04

 Cycle   8  Pass 1  IDiag  1:
 E= -323.659104096272     Delta-E=       -0.000000966316 Rises=F Damp=F
 DIIS: error= 2.21D-05 at cycle   3 NSaved=   3.
 NSaved= 3 IEnMin= 3 EnMin= -323.659104096272     IErMin= 3 ErrMin= 2.21D-05
 ErrMax= 2.21D-05  0.00D+00 EMaxC= 1.00D-01 BMatC= 8.89D-08 BMatP= 3.25D-07
 IDIUse=1 WtCom= 1.00D+00 WtEn= 0.00D+00
 Coeff-Com:  0.978D-01 0.238D+00 0.664D+00
 Coeff:      0.978D-01 0.238D+00 0.664D+00
 Gap=     0.152 Goal=   None    Shift=    0.000
 RMSDP=1.21D-06 MaxDP=5.27D-05 DE=-9.66D-07 OVMax= 2.09D-04

 Cycle   9  Pass 1  IDiag  1:
 E= -323.659104161925     Delta-E=       -0.000000065653 Rises=F Damp=F
 DIIS: error= 1.22D-05 at cycle   4 NSaved=   4.
 NSaved= 4 IEnMin= 4 EnMin= -323.659104161925     IErMin= 4 ErrMin= 1.22D-05
 ErrMax= 1.22D-05  0.00D+00 EMaxC= 1.00D-01 BMatC= 4.36D-08 BMatP= 8.89D-08
 IDIUse=1 WtCom= 1.00D+00 WtEn= 0.00D+00
 Coeff-Com: -0.318D-02 0.142D+00 0.512D+00 0.349D+00
 Coeff:     -0.318D-02 0.142D+00 0.512D+00 0.349D+00
 Gap=     0.152 Goal=   None    Shift=    0.000
 RMSDP=5.13D-07 MaxDP=3.05D-05 DE=-6.57D-08 OVMax= 6.54D-05

 Cycle  10  Pass 1  IDiag  1:
 E= -323.659104109405     Delta-E=        0.000000052520 Rises=F Damp=F
 DIIS: error= 1.35D-06 at cycle   5 NSaved=   5.
 NSaved= 5 IEnMin= 4 EnMin= -323.659104161925     IErMin= 5 ErrMin= 1.35D-06
 ErrMax= 1.35D-06  0.00D+00 EMaxC= 1.00D-01 BMatC= 5.63D-10 BMatP= 4.36D-08
 IDIUse=1 WtCom= 1.00D+00 WtEn= 0.00D+00
 Coeff-Com: -0.479D-02 0.680D-01 0.258D+00 0.195D+00 0.483D+00
 Coeff:     -0.479D-02 0.680D-01 0.258D+00 0.195D+00 0.483D+00
 Gap=     0.152 Goal=   None    Shift=    0.000
 RMSDP=8.55D-08 MaxDP=4.28D-06 DE= 5.25D-08 OVMax= 8.92D-06

 Cycle  11  Pass 1  IDiag  1:
 E= -323.659104109862     Delta-E=       -0.000000000457 Rises=F Damp=F
 DIIS: error= 5.42D-07 at cycle   6 NSaved=   6.
 NSaved= 6 IEnMin= 4 EnMin= -323.659104161925     IErMin= 6 ErrMin= 5.42D-07
 ErrMax= 5.42D-07  0.00D+00 EMaxC= 1.00D-01 BMatC= 9.83D-11 BMatP= 5.63D-10
 IDIUse=1 WtCom= 1.00D+00 WtEn= 0.00D+00
 Coeff-Com: -0.264D-02 0.299D-01 0.117D+00 0.930D-01 0.321D+00 0.441D+00
 Coeff:     -0.264D-02 0.299D-01 0.117D+00 0.930D-01 0.321D+00 0.441D+00
 Gap=     0.152 Goal=   None    Shift=    0.000
 RMSDP=2.38D-08 MaxDP=1.16D-06 DE=-4.57D-10 OVMax= 2.66D-06

 Cycle  12  Pass 1  IDiag  1:
 E= -323.659104109950     Delta-E=       -0.000000000088 Rises=F Damp=F
 DIIS: error= 1.37D-07 at cycle   7 NSaved=   7.
 NSaved= 7 IEnMin= 4 EnMin= -323.659104161925     IErMin= 7 ErrMin= 1.37D-07
 ErrMax= 1.37D-07  0.00D+00 EMaxC= 1.00D-01 BMatC= 3.98D-12 BMatP= 9.83D-11
 IDIUse=1 WtCom= 1.00D+00 WtEn= 0.00D+00
 Coeff-Com: -0.767D-03 0.795D-02 0.321D-01 0.268D-01 0.115D+00 0.220D+00
 Coeff-Com:  0.599D+00
 Coeff:     -0.767D-03 0.795D-02 0.321D-01 0.268D-01 0.115D+00 0.220D+00
 Coeff:      0.599D+00
[...]
     29  0.000000D+00  0.000000D+00  0.313368D-03  0.000000D+00 -0.203706D-03
     30  0.604477D-02  0.000000D+00  0.000000D+00 -0.284497D-03  0.000000D+00
     31  0.000000D+00  0.605095D-04 -0.872154D-04  0.000000D+00  0.753544D-03
     32  0.000000D+00  0.686129D-04 -0.501108D-03  0.000000D+00 -0.363545D-03
     33  0.408251D-02  0.000000D+00  0.000000D+00 -0.414557D-03  0.000000D+00
     34  0.000000D+00 -0.157956D-03 -0.281412D-03  0.000000D+00  0.134231D-03
     35  0.000000D+00  0.180403D-03  0.211322D-03  0.000000D+00  0.305481D-03
     36 -0.293918D-01  0.000000D+00  0.000000D+00 -0.136485D-04  0.000000D+00
               26            27            28            29            30 
     26  0.127006D+00
     27  0.000000D+00  0.217879D-01
     28 -0.558066D-04  0.000000D+00  0.285946D+00
     29  0.139798D-03  0.000000D+00  0.104931D+00  0.109526D+00
     30  0.000000D+00 -0.173091D-02  0.000000D+00  0.000000D+00  0.242677D-01
     31  0.282906D-03  0.000000D+00 -0.978591D-03  0.906330D-03  0.000000D+00
     32  0.114607D-02  0.000000D+00 -0.750485D-03  0.432330D-03  0.000000D+00
     33  0.000000D+00 -0.423965D-02  0.000000D+00  0.000000D+00 -0.347482D-03
     34 -0.134912D-02  0.000000D+00  0.568865D-03 -0.597629D-03  0.000000D+00
     35 -0.398521D-03  0.000000D+00  0.338260D-03  0.463296D-03  0.000000D+00
     36  0.000000D+00  0.595481D-03  0.000000D+00  0.000000D+00 -0.300403D-02
               31            32            33            34            35 
     31  0.262268D+00
     32 -0.127477D+00  0.132327D+00
     33  0.000000D+00  0.000000D+00  0.245309D-01
     34  0.102689D-02  0.570392D-03  0.000000D+00  0.533353D-01
     35 -0.239007D-03  0.686985D-03  0.000000D+00  0.168524D-01  0.342783D+00
     36  0.000000D+00  0.000000D+00 -0.331313D-02  0.000000D+00  0.000000D+00
               36 
     36  0.226126D-01
 FormGI is forming the generalized inverse of G from B-inverse, IUseBI=4.
 Leave Link  716 at Fri Aug 27 00:01:40 2021, MaxMem= 17179869184 cpu:        23.8
 (Enter /public3/home/sc51754/softwares/g09e01/l103.exe)

 GradGradGradGradGradGradGradGradGradGradGradGradGradGradGradGradGradGrad
 Berny optimization.
 Red2BG is reusing G-inverse.
 Internal  Forces:  Max     0.000230574 RMS     0.000053013
 Search for a local minimum.
 Step number   1 out of a maximum of    2
 All quantities printed in internal units (Hartrees-Bohrs-Radians)
 Second derivative matrix not updated -- analytic derivatives used.
 ITU=  0
     Eigenvalues ---    0.01267   0.01605   0.01648   0.02026   0.02159
     Eigenvalues ---    0.02590   0.02830   0.03380   0.04104   0.09879
     Eigenvalues ---    0.10441   0.11419   0.12383   0.14793   0.18063
     Eigenvalues ---    0.18785   0.20393   0.22696   0.30463   0.33267
     Eigenvalues ---    0.34019   0.34375   0.34551   0.35793   0.41088
     Eigenvalues ---    0.42552   0.44932   0.48068   0.48700   0.53989
 Angle between quadratic step and forces=  22.08 degrees.
 Linear search not attempted -- first point.
 Iteration  1 RMS(Cart)=  0.00012703 RMS(Int)=  0.00000001
 Iteration  2 RMS(Cart)=  0.00000001 RMS(Int)=  0.00000000
 ITry= 1 IFail=0 DXMaxC= 4.94D-04 DCOld= 1.00D+10 DXMaxT= 3.00D-01 DXLimC= 3.00D+00 Rises=F
 ClnCor:  largest displacement from symmetrization is 1.24D-11 for atom     1.
 Variable       Old X    -DE/DX   Delta X   Delta X   Delta X     New X
                                 (Linear)    (Quad)   (Total)
    R1        2.57025   0.00023   0.00000   0.00064   0.00064   2.57089
    R2        1.84755  -0.00017   0.00000  -0.00037  -0.00037   1.84717
    R3        2.52091   0.00007   0.00000   0.00017   0.00017   2.52108
    R4        2.54307  -0.00002   0.00000  -0.00015  -0.00015   2.54292
    R5        2.65549  -0.00019   0.00000  -0.00062  -0.00062   2.65487
    R6        2.62606   0.00010   0.00000   0.00034   0.00034   2.62641
    R7        2.05787  -0.00003   0.00000  -0.00007  -0.00007   2.05781
    R8        2.63189  -0.00001   0.00000   0.00011   0.00011   2.63200
    R9        2.06539   0.00000   0.00000  -0.00000  -0.00000   2.06539
   R10        2.64927  -0.00006   0.00000  -0.00028  -0.00028   2.64900
   R11        2.06155  -0.00001   0.00000  -0.00005  -0.00005   2.06151
   R12        2.05843  -0.00002   0.00000  -0.00004  -0.00004   2.05839
    A1        1.83956   0.00001   0.00000  -0.00006  -0.00006   1.83950
    A2        2.05086   0.00004   0.00000   0.00010   0.00010   2.05096
    A3        2.04412   0.00001   0.00000  -0.00010  -0.00010   2.04402
    A4        2.07344   0.00001   0.00000   0.00012   0.00012   2.07356
    A5        2.16562  -0.00002   0.00000  -0.00002  -0.00002   2.16561
    A6        2.04836   0.00002   0.00000   0.00009   0.00009   2.04844
    A7        2.09803  -0.00001   0.00000   0.00009   0.00009   2.09812
    A8        2.13680  -0.00001   0.00000  -0.00018  -0.00018   2.13662
    A9        2.15394  -0.00004   0.00000  -0.00018  -0.00018   2.15376
   A10        2.01969   0.00002   0.00000   0.00012   0.00012   2.01980
   A11        2.10956   0.00002   0.00000   0.00006   0.00006   2.10962
   A12        2.08796  -0.00002   0.00000  -0.00013  -0.00013   2.08784
   A13        2.09252   0.00000   0.00000  -0.00005  -0.00005   2.09247
   A14        2.10270   0.00001   0.00000   0.00018   0.00018   2.10288
   A15        2.05963   0.00002   0.00000   0.00013   0.00013   2.05976
   A16        2.10430  -0.00003   0.00000  -0.00027  -0.00027   2.10403
   A17        2.11926   0.00001   0.00000   0.00014   0.00014   2.11940
    D1        0.00000  -0.00000   0.00000   0.00000   0.00000   0.00000
    D2        3.14159  -0.00000   0.00000  -0.00000   0.00000   3.14159
    D3        3.14159  -0.00000   0.00000  -0.00000   0.00000   3.14159
    D4       -0.00000  -0.00000   0.00000  -0.00000   0.00000   0.00000
    D5        0.00000  -0.00000   0.00000  -0.00000   0.00000   0.00000
    D6        3.14159   0.00000   0.00000  -0.00000   0.00000   3.14159
    D7        3.14159   0.00000   0.00000   0.00000   0.00000   3.14159
    D8        0.00000   0.00000   0.00000  -0.00000  -0.00000   0.00000
    D9        0.00000   0.00000   0.00000   0.00000   0.00000   0.00000
   D10        3.14159  -0.00000   0.00000  -0.00000   0.00000   3.14159
   D11        0.00000  -0.00000   0.00000  -0.00000   0.00000   0.00000
   D12        3.14159  -0.00000   0.00000  -0.00000   0.00000   3.14159
   D13        3.14159   0.00000   0.00000   0.00000   0.00000   3.14159
   D14       -0.00000   0.00000   0.00000   0.00000   0.00000   0.00000
   D15       -0.00000   0.00000   0.00000  -0.00000   0.00000   0.00000
   D16        3.14159   0.00000   0.00000   0.00000   0.00000   3.14159
   D17        3.14159  -0.00000   0.00000   0.00000   0.00000   3.14159
   D18       -0.00000  -0.00000   0.00000   0.00000   0.00000   0.00000
   D19       -0.00000   0.00000   0.00000   0.00000   0.00000   0.00000
   D20        3.14159   0.00000   0.00000  -0.00000   0.00000   3.14159
   D21        3.14159   0.00000   0.00000   0.00000   0.00000   3.14159
   D22        0.00000   0.00000   0.00000  -0.00000   0.00000   0.00000
         Item               Value     Threshold  Converged?
 Maximum Force            0.000231     0.000450     YES
 RMS     Force            0.000053     0.000300     YES
 Maximum Displacement     0.000494     0.001800     YES
 RMS     Displacement     0.000127     0.001200     YES
 Predicted change in Energy=-2.145729D-07
 Optimization completed.
    -- Stationary point found.
                           ----------------------------
                           !   Optimized Parameters   !
                           ! (Angstroms and Degrees)  !
 --------------------------                            --------------------------
 ! Name  Definition              Value          Derivative Info.                !
 --------------------------------------------------------------------------------
 ! R1    R(1,3)                  1.3601         -DE/DX =    0.0002              !
 ! R2    R(1,8)                  0.9777         -DE/DX =   -0.0002              !
 ! R3    R(2,3)                  1.334          -DE/DX =    0.0001              !
 ! R4    R(2,5)                  1.3457         -DE/DX =    0.0                 !
 ! R5    R(3,4)                  1.4052         -DE/DX =   -0.0002              !
 ! R6    R(4,6)                  1.3897         -DE/DX =    0.0001              !
 ! R7    R(4,9)                  1.089          -DE/DX =    0.0                 !
 ! R8    R(5,7)                  1.3927         -DE/DX =    0.0                 !
 ! R9    R(5,10)                 1.093          -DE/DX =    0.0                 !
 ! R10   R(6,7)                  1.4019         -DE/DX =   -0.0001              !
 ! R11   R(6,11)                 1.0909         -DE/DX =    0.0                 !
 ! R12   R(7,12)                 1.0893         -DE/DX =    0.0                 !
 ! A1    A(3,1,8)              105.3991         -DE/DX =    0.0                 !
 ! A2    A(3,2,5)              117.5055         -DE/DX =    0.0                 !
 ! A3    A(1,3,2)              117.1195         -DE/DX =    0.0                 !
 ! A4    A(1,3,4)              118.7994         -DE/DX =    0.0                 !
 ! A5    A(2,3,4)              124.0811         -DE/DX =    0.0                 !
 ! A6    A(3,4,6)              117.3622         -DE/DX =    0.0                 !
 ! A7    A(3,4,9)              120.2081         -DE/DX =    0.0                 !
 ! A8    A(6,4,9)              122.4298         -DE/DX =    0.0                 !
 ! A9    A(2,5,7)              123.4118         -DE/DX =    0.0                 !
 ! A10   A(2,5,10)             115.7195         -DE/DX =    0.0                 !
 ! A11   A(7,5,10)             120.8688         -DE/DX =    0.0                 !
 ! A12   A(4,6,7)              119.6315         -DE/DX =    0.0                 !
 ! A13   A(4,6,11)             119.8924         -DE/DX =    0.0                 !
 ! A14   A(7,6,11)             120.4761         -DE/DX =    0.0                 !
 ! A15   A(5,7,6)              118.008          -DE/DX =    0.0                 !
 ! A16   A(5,7,12)             120.5672         -DE/DX =    0.0                 !
 ! A17   A(6,7,12)             121.4248         -DE/DX =    0.0                 !
 ! D1    D(8,1,3,2)              0.0            -DE/DX =    0.0                 !
 ! D2    D(8,1,3,4)            180.0            -DE/DX =    0.0                 !
 ! D3    D(5,2,3,1)            180.0            -DE/DX =    0.0                 !
 ! D4    D(5,2,3,4)              0.0            -DE/DX =    0.0                 !
 ! D5    D(3,2,5,7)              0.0            -DE/DX =    0.0                 !
 ! D6    D(3,2,5,10)           180.0            -DE/DX =    0.0                 !
 ! D7    D(1,3,4,6)            180.0            -DE/DX =    0.0                 !
 ! D8    D(1,3,4,9)              0.0            -DE/DX =    0.0                 !
 ! D9    D(2,3,4,6)              0.0            -DE/DX =    0.0                 !
 ! D10   D(2,3,4,9)            180.0            -DE/DX =    0.0                 !
 ! D11   D(3,4,6,7)              0.0            -DE/DX =    0.0                 !
 ! D12   D(3,4,6,11)           180.0            -DE/DX =    0.0                 !
 ! D13   D(9,4,6,7)            180.0            -DE/DX =    0.0                 !
 ! D14   D(9,4,6,11)             0.0            -DE/DX =    0.0                 !
 ! D15   D(2,5,7,6)              0.0            -DE/DX =    0.0                 !
 ! D16   D(2,5,7,12)           180.0            -DE/DX =    0.0                 !
 ! D17   D(10,5,7,6)           180.0            -DE/DX =    0.0                 !
 ! D18   D(10,5,7,12)            0.0            -DE/DX =    0.0                 !
 ! D19   D(4,6,7,5)              0.0            -DE/DX =    0.0                 !
 ! D20   D(4,6,7,12)           180.0            -DE/DX =    0.0                 !
 ! D21   D(11,6,7,5)           180.0            -DE/DX =    0.0                 !
 ! D22   D(11,6,7,12)            0.0            -DE/DX =    0.0                 !
 --------------------------------------------------------------------------------
 GradGradGradGradGradGradGradGradGradGradGradGradGradGradGradGradGradGrad

 Leave Link  103 at Fri Aug 27 00:01:41 2021, MaxMem= 17179869184 cpu:        19.2
 (Enter /public3/home/sc51754/softwares/g09e01/l9999.exe)
 1\1\GINC-R2613\Freq\RBP86\Gen\C5H5N1O1\SC51754\27-Aug-2021\0\\#P Geom=
 AllCheck Guess=TCheck SCRF=Check GenChk RBP86/ChkBas Freq\\HY_BP86_PC2
 _OPT_FREQ\\0,1\O,0.0066760228,2.2697145162,0.\N,-1.1851107064,0.304180
 4059,0.\C,0.0036022997,0.9095998083,0.\C,1.2334858562,0.2298596301,0.\
 C,-1.1972176109,-1.0414998799,0.\C,1.1954925483,-1.1592738608,0.\C,-0.
 0415970638,-1.8188420434,0.\H,-0.9353160477,2.5314585623,0.\H,2.168261
 1043,0.7884936559,0.\H,-2.1861242347,-1.5069281259,0.\H,2.1260676451,-
 1.7286175737,0.\H,-0.1054388127,-2.9062450949,0.\\Version=EM64L-G09Rev
 E.01\State=1-A'\HF=-323.659161\RMSD=8.641e-09\RMSF=9.801e-05\ZeroPoint
 =0.0905048\Thermal=0.0958655\Dipole=0.1946105,-0.4526401,0.\DipoleDeri
 v=-0.1747949,0.0862173,0.,0.0889988,-1.5119848,0.,0.,0.,-0.3382267,-0.
 4490782,-0.290201,0.,0.1691297,-0.7643802,0.,0.,0.,-0.2598046,0.262289
 4,-0.1763685,0.,-0.0505246,1.692544,0.,0.,0.,0.1748754,-0.0223328,0.38
 67671,0.,-0.0449445,-0.4189747,0.,0.,0.,-0.1354483,0.416868,0.1355072,
 0.,-0.1996293,0.3775741,0.,0.,0.,-0.0224857,0.2448016,0.0615405,0.,0.1
 020475,0.3162538,0.,0.,0.,-0.1007424,-0.3990953,-0.111418,0.,0.07567,-
 0.0654727,0.,0.,0.,-0.1434396,0.1770399,-0.0035622,0.,-0.076322,0.3757
 338,0.,0.,0.,0.3022117,-0.0220437,-0.0566916,0.,-0.0558163,0.0407119,0
 .,0.,0.,0.1459182,-0.0627602,-0.0951062,0.,-0.0639922,0.0092795,0.,0.,
 0.,0.105292,-0.0376919,0.0729675,0.,0.0705624,0.037764,0.,0.,0.,0.1240
 037,0.0667981,-0.0096521,0.,-0.0151793,-0.0890488,0.,0.,0.,0.1478463\P
 olar=76.9810013,-0.0312225,89.9137796,0.,0.,38.9955554\PG=CS [SG(C5H5N
 1O1)]\NImag=0\\0.54047354,-0.08792212,0.43036692,0.,0.,0.03355684,-0.0
 0766476,-0.03212524,0.,0.43733826,-0.06203434,-0.05133515,0.,0.1179564
 0,0.58886328,0.,0.,0.00690566,0.,0.,0.08218692,-0.10102415,-0.01161796
 ,0.,-0.28010714,-0.05437006,0.,0.66678402,0.03016589,-0.27450990,0.,-0
 .07689235,-0.15627863,0.,-0.02799949,0.66785573,0.,0.,-0.04690132,0.,0
 .,-0.06510021,0.,0.,0.16882318,0.00017356,0.01320124,0.,-0.05868234,-0
 .02804419,0.,-0.25125331,0.09600105,0.,0.67118844,0.04743273,-0.039880
 51,0.,0.01393494,0.05346621,0.,0.03491446,-0.14164992,0.,0.04928791,0.
 68221611,0.,0.,0.00765798,0.,0.,0.01734754,0.,0.,-0.06880992,0.,0.,0.1
 1195414,-0.00413130,0.00113352,0.,-0.10772303,-0.00862533,0.,0.0122825
 8,-0.04579796,0.,-0.01405318,0.02209566,0.,0.70792247,0.00782518,0.000
 90576,0.,0.00453673,-0.32258368,0.,-0.08903853,-0.04532085,0.,0.029804
 71,-0.04358997,0.,0.03167168,0.63109672,0.,0.,0.00976662,0.,0.,-0.0579
 1916,0.,0.,-0.00378756,0.,0.,-0.00451330,0.,0.,0.14402778,-0.01030691,
 0.00354947,0.,-0.01596483,-0.03316049,0.,0.03966293,0.02905671,0.,-0.1
 1960339,0.01911737,0.,-0.05782144,0.02710327,0.,0.67792879,-0.00569000
 ,0.00637251,0.,-0.02837973,-0.04448184,0.,0.07338315,-0.03040820,0.,-0
 .03114335,-0.34508640,0.,-0.01565992,0.05881435,0.,-0.03685494,0.66184
 709,0.,0.,0.00417803,0.,0.,-0.00713152,0.,0.,0.00202256,0.,0.,-0.05237
 125,0.,0.,0.00728556,0.,0.,0.13048517,0.00742031,-0.00398857,0.,0.0364
 7219,0.07115925,0.,-0.06788838,-0.00005987,0.,0.02622463,-0.06417008,0
 .,-0.26492785,0.05891442,0.,-0.26932511,-0.05282058,0.,0.61917619,-0.0
 0213197,-0.00552896,0.,0.02097680,-0.04911794,0.,0.01245476,0.00395547
 ,0.,-0.03240117,-0.02452269,0.,0.11614253,-0.17319624,0.,-0.10699937,-
 0.15988655,0.,0.00333640,0.71392620,0.,0.,-0.00174282,0.,0.,0.02095374
 ,0.,0.,-0.00830685,0.,0.,0.00637933,0.,0.,-0.06199083,0.,0.,-0.0574253
 5,0.,0.,0.11253593,-0.42708883,0.11813684,0.,-0.00034718,-0.00388249,0
 .,-0.00423860,0.01308236,0.,0.00281851,-0.00209504,0.,-0.00164090,-0.0
 0152007,0.,0.00000790,0.00098834,0.,-0.00060247,-0.00038410,0.,0.43105
 491,0.07248557,-0.06553398,0.,0.00183549,0.00723276,0.,0.05209429,-0.0
 2639766,0.,-0.00222185,-0.00694472,0.,-0.00101292,-0.00172048,0.,0.002
 40537,0.00054261,0.,-0.00104645,0.00108706,0.,-0.12426953,0.09160495,0
 .,0.,-0.01096947,0.,0.,-0.00359752,0.,0.,0.00108645,0.,0.,0.00341263,0
 .,0.,-0.00073432,0.,0.,0.00143564,0.,0.,0.00056463,0.,0.,0.01015970,0.
 00148395,-0.00039377,0.,-0.00507465,0.00315549,0.,-0.01632755,-0.01795
 532,0.,-0.25652819,-0.11753070,0.,0.00040278,0.00227256,0.,0.00404509,
 0.00142894,0.,0.00237917,0.00068807,0.,0.00001239,-0.00007752,0.,0.268
 79568,-0.00037227,0.00089509,0.,0.00486089,-0.00023735,0.,0.01184347,0
 .01053608,0.,-0.11877593,-0.12310345,0.,0.00030281,-0.00142194,0.,-0.0
 2667740,-0.00982284,0.,0.00157109,-0.00484510,0.,-0.00030465,0.0001058
 7,0.,0.12867401,0.12700629,0.,0.,-0.00153472,0.,0.,0.00553279,0.,0.,0.
 00153489,0.,0.,-0.03065396,0.,0.,-0.00033867,0.,0.,0.00139513,0.,0.,0.
 00829677,0.,0.,-0.00064504,0.,0.,0.02178789,-0.00015773,-0.00013132,0.
 ,0.00488178,-0.00568998,0.,0.00294748,0.00177635,0.,0.00040821,0.00064
 413,0.,-0.27375666,-0.09271463,0.,-0.00294962,0.00411161,0.,-0.0169546
 1,-0.01263512,0.,0.00012171,0.00017617,0.,-0.00007645,-0.00005581,0.,0
 .28594561,-0.00116274,-0.00101065,0.,-0.02944365,-0.02423338,0.,-0.000
 63561,-0.00400730,0.,0.00003389,-0.00069149,0.,-0.09169844,-0.08997073
 ,0.,0.00300447,-0.00152291,0.,0.01486695,0.01056189,0.,-0.00000069,0.0
 0031337,0.,-0.00020371,0.00013980,0.,0.10493082,0.10952577,0.,0.,0.000
 62595,0.,0.,-0.00375016,0.,0.,0.00980398,0.,0.,-0.00076721,0.,0.,-0.03
 789624,0.,0.,0.00703810,0.,0.,0.00604477,0.,0.,-0.00028450,0.,0.,-0.00
 173091,0.,0.,0.02426773,-0.00000472,0.00006967,0.,0.00047766,-0.000605
 64,0.,0.00194365,-0.00114338,0.,0.00370421,-0.00190596,0.,-0.00375862,
 -0.00414032,0.,-0.24833844,0.11819732,0.,-0.01715415,0.01614212,0.,0.0
 0006051,-0.00008722,0.,0.00075354,0.00028291,0.,-0.00097859,0.00090633
 ,0.,0.26226806,0.00172395,-0.00073881,0.,-0.00042620,-0.00052861,0.,-0
 .00171487,-0.00474487,0.,0.02672767,-0.01117610,0.,-0.00316008,-0.0007
 2603,0.,0.11759708,-0.12725671,0.,-0.01279570,0.01108031,0.,0.00006861
 ,-0.00050111,0.,-0.00036355,0.00114607,0.,-0.00075049,0.00043233,0.,-0
 .12747683,0.13232654,0.,0.,-0.00015494,0.,0.,-0.00308032,0.,0.,0.00914
 718,0.,0.,0.00420854,0.,0.,0.00705459,0.,0.,-0.03747361,0.,0.,0.004082
 51,0.,0.,-0.00041456,0.,0.,-0.00423965,0.,0.,-0.00034748,0.,0.,0.02453
 087,0.00082704,0.00008825,0.,-0.00360596,0.00414136,0.,-0.00278153,-0.
 00023400,0.,-0.00439715,-0.00172543,0.,0.00720516,0.02528499,0.,0.0026
 6504,-0.02756084,0.,-0.05481993,-0.01518895,0.,-0.00015796,-0.00028141
 ,0.,0.00013423,-0.00134912,0.,0.00056887,-0.00059763,0.,0.00102689,0.0
 0057039,0.,0.05333531,-0.00031989,-0.00000232,0.,0.00316591,-0.0007656
 6,0.,0.00068638,0.00097006,0.,-0.00246998,0.00096295,0.,-0.00539154,-0
 .01228690,0.,0.00185846,-0.00911112,0.,-0.01496687,-0.32351345,0.,0.00
 018040,0.00021132,0.,0.00030548,-0.00039852,0.,0.00033826,0.00046330,0
 .,-0.00023901,0.00068698,0.,0.01685239,0.34278336,0.,0.,-0.00138782,0.
 ,0.,0.00765224,0.,0.,0.00048761,0.,0.,0.00615547,0.,0.,-0.00095448,0.,
 0.,0.00056154,0.,0.,-0.02939182,0.,0.,-0.00001365,0.,0.,0.00059548,0.,
 0.,-0.00300403,0.,0.,-0.00331313,0.,0.,0.02261259\\0.00015508,-0.00027
 300,0.,0.00000467,0.00007529,0.,-0.00022753,0.00024007,0.,0.00016978,-
 0.00017688,0.,0.00006004,0.00001325,0.,0.00002633,0.00015487,0.,-0.000
 07573,-0.00006420,0.,-0.00017339,0.00003834,0.,0.00001640,0.00002307,0
 .,0.00000506,-0.00000713,0.,0.00001187,-0.00000299,0.,0.00002743,-0.00
 002069,0.\\\@


 ERROR IS A HARDY PLANT... IT FLOURISHETH IN EVERY SOIL.
            MARTIN FARQUHAR TUPPER
 Job cpu time:       0 days  0 hours 34 minutes 52.6 seconds.
 File lengths (MBytes):  RWF=     80 Int=      0 D2E=      0 Chk=      7 Scr=      1
 Normal termination of Gaussian 09 at Fri Aug 27 00:01:41 2021.
