 Entering Gaussian System, Link 0=g09
 AtFile(1): pc-2.gbs
            -H     0
            S    4   1.00
                  0.754230D+02           0.240650D-02
                  0.113500D+02           0.184870D-01
                  0.259930D+01           0.897420D-01
                  0.735130D+00           0.281110D+00
            S    1   1.00
                  0.231670D+00           0.100000D+01
            S    1   1.00
                  0.741470D-01           0.100000D+01
            P    1   1.00
                  0.160000D+01           0.100000D+01
            P    1   1.00
                  0.450000D+00           0.100000D+01
            D    1   1.00
                  0.125000D+01           0.100000D+01
            ****
            -C     0
            S    7   1.00
                  0.785710D+04           0.568250D-03
                  0.117870D+04           0.439150D-02
                  0.268320D+03           0.225040D-01
                  0.759480D+02           0.866530D-01
                  0.245590D+02           0.244050D+00
                  0.862120D+01           0.441480D+00
                  0.312780D+01           0.353320D+00
            S    7   1.00
                  0.117870D+04          -0.594920D-06
                  0.268320D+03          -0.627480D-04
                  0.759480D+02          -0.757730D-03
                  0.245590D+02          -0.733080D-02
                  0.862120D+01          -0.389320D-01
                  0.312780D+01          -0.889080D-01
                  0.822020D+00           0.216890D+00
            S    1   1.00
                  0.330170D+00           0.100000D+01
            S    1   1.00
                  0.114630D+00           0.100000D+01
            P    4   1.00
                  0.337750D+02           0.602940D-02
                  0.767660D+01           0.432280D-01
                  0.223570D+01           0.163010D+00
                  0.764470D+00           0.365040D+00
            P    1   1.00
                  0.262320D+00           0.100000D+01
            P    1   1.00
                  0.846380D-01           0.100000D+01
            D    1   1.00
                  0.140000D+01           0.100000D+01
            D    1   1.00
                  0.450000D+00           0.100000D+01
            F    1   1.00
                  0.950000D+00           0.100000D+01
            ****
            -N     0
            S    7   1.00
                  0.111010D+05           0.545700D-03
                  0.166530D+04           0.421810D-02
                  0.379080D+03           0.216450D-01
                  0.107300D+03           0.837760D-01
                  0.347470D+02           0.238810D+00
                  0.122490D+02           0.439940D+00
                  0.447430D+01           0.363640D+00
            S    7   1.00
                  0.166530D+04          -0.150060D-05
                  0.379080D+03          -0.587530D-04
                  0.107300D+03          -0.774530D-03
                  0.347470D+02          -0.721610D-02
                  0.122490D+02          -0.393380D-01
                  0.447430D+01          -0.906110D-01
                  0.124040D+01           0.198820D+00
            S    1   1.00
                  0.487430D+00           0.100000D+01
            S    1   1.00
                  0.164840D+00           0.100000D+01
            P    4   1.00
                  0.479340D+02           0.617060D-02
                  0.109990D+02           0.442600D-01
                  0.324720D+01           0.168250D+00
                  0.111140D+01           0.368480D+00
            P    1   1.00
                  0.379880D+00           0.100000D+01
            P    1   1.00
                  0.120680D+00           0.100000D+01
            D    1   1.00
                  0.180000D+01           0.100000D+01
            D    1   1.00
                  0.550000D+00           0.100000D+01
            F    1   1.00
                  0.102000D+01           0.100000D+01
            ****
            -O     0
            S    7   1.00
                  0.147820D+05           0.535190D-03
                  0.221730D+04           0.413750D-02
                  0.504740D+03           0.212450D-01
                  0.142870D+03           0.824530D-01
                  0.463000D+02           0.236710D+00
                  0.163370D+02           0.440390D+00
                  0.598280D+01           0.364650D+00
            S    7   1.00
                  0.221730D+04          -0.192750D-05
                  0.504740D+03          -0.579640D-04
                  0.142870D+03          -0.794940D-03
                  0.463000D+02          -0.731250D-02
                  0.163370D+02          -0.405740D-01
                  0.598280D+01          -0.915940D-01
                  0.167180D+01           0.209400D+00
            S    1   1.00
                  0.646620D+00           0.100000D+01
            S    1   1.00
                  0.216690D+00           0.100000D+01
            P    4   1.00
                  0.604240D+02           0.689490D-02
                  0.139350D+02           0.490050D-01
                  0.415310D+01           0.182550D+00
                  0.141580D+01           0.376330D+00
            P    1   1.00
                  0.475490D+00           0.100000D+01
            P    1   1.00
                  0.145290D+00           0.100000D+01
            D    1   1.00
                  0.220000D+01           0.100000D+01
            D    1   1.00
                  0.650000D+00           0.100000D+01
            F    1   1.00
                  0.110000D+01           0.100000D+01
            ****
 Initial command:
 /public3/home/sc51754/softwares/g09e01/l1.exe "./Gau-19246.inp" -scrdir="./"
 Entering Link 1 = /public3/home/sc51754/softwares/g09e01/l1.exe PID=     19247.
  
 Copyright (c) 1988,1990,1992,1993,1995,1998,2003,2009,2015,
            Gaussian, Inc.  All Rights Reserved.
  
 This is part of the Gaussian(R) 09 program.  It is based on
 the Gaussian(R) 03 system (copyright 2003, Gaussian, Inc.),
 the Gaussian(R) 98 system (copyright 1998, Gaussian, Inc.),
 the Gaussian(R) 94 system (copyright 1995, Gaussian, Inc.),
 the Gaussian 92(TM) system (copyright 1992, Gaussian, Inc.),
 the Gaussian 90(TM) system (copyright 1990, Gaussian, Inc.),
 the Gaussian 88(TM) system (copyright 1988, Gaussian, Inc.),
 the Gaussian 86(TM) system (copyright 1986, Carnegie Mellon
 University), and the Gaussian 82(TM) system (copyright 1983,
 Carnegie Mellon University). Gaussian is a federally registered
 trademark of Gaussian, Inc.
  
 This software contains proprietary and confidential information,
 including trade secrets, belonging to Gaussian, Inc.
  
 This software is provided under written license and may be
 used, copied, transmitted, or stored only in accord with that
 written license.
  
 The following legend is applicable only to US Government
 contracts under FAR:
  
                    RESTRICTED RIGHTS LEGEND
  
 Use, reproduction and disclosure by the US Government is
 subject to restrictions as set forth in subparagraphs (a)
 and (c) of the Commercial Computer Software - Restricted
 Rights clause in FAR 52.227-19.
  
 Gaussian, Inc.
 340 Quinnipiac St., Bldg. 40, Wallingford CT 06492
  
  
 ---------------------------------------------------------------
 Warning -- This program may not be used in any manner that
 competes with the business of Gaussian, Inc. or will provide
 assistance to any competitor of Gaussian, Inc.  The licensee
 of this program is prohibited from giving any competitor of
 Gaussian, Inc. access to this program.  By using this program,
 the user acknowledges that Gaussian, Inc. is engaged in the
 business of creating and licensing software in the field of
 computational chemistry and represents and warrants to the
 licensee that it is not a competitor of Gaussian, Inc. and that
 it will not use this program in any manner prohibited above.
 ---------------------------------------------------------------
  

 Cite this work as:
 Gaussian 09, Revision E.01,
 M. J. Frisch, G. W. Trucks, H. B. Schlegel, G. E. Scuseria, 
 M. A. Robb, J. R. Cheeseman, G. Scalmani, V. Barone, B. Mennucci, 
 G. A. Petersson, H. Nakatsuji, M. Caricato, X. Li, H. P. Hratchian, 
 A. F. Izmaylov, J. Bloino, G. Zheng, J. L. Sonnenberg, M. Hada, 
 M. Ehara, K. Toyota, R. Fukuda, J. Hasegawa, M. Ishida, T. Nakajima, 
 Y. Honda, O. Kitao, H. Nakai, T. Vreven, J. A. Montgomery, Jr., 
 J. E. Peralta, F. Ogliaro, M. Bearpark, J. J. Heyd, E. Brothers, 
 K. N. Kudin, V. N. Staroverov, T. Keith, R. Kobayashi, J. Normand, 
 K. Raghavachari, A. Rendell, J. C. Burant, S. S. Iyengar, J. Tomasi, 
 M. Cossi, N. Rega, J. M. Millam, M. Klene, J. E. Knox, J. B. Cross, 
 V. Bakken, C. Adamo, J. Jaramillo, R. Gomperts, R. E. Stratmann, 
 O. Yazyev, A. J. Austin, R. Cammi, C. Pomelli, J. W. Ochterski, 
 R. L. Martin, K. Morokuma, V. G. Zakrzewski, G. A. Voth, 
 P. Salvador, J. J. Dannenberg, S. Dapprich, A. D. Daniels, 
 O. Farkas, J. B. Foresman, J. V. Ortiz, J. Cioslowski, 
 and D. J. Fox, Gaussian, Inc., Wallingford CT, 2013.
 
 ******************************************
 Gaussian 09:  EM64L-G09RevE.01 30-Nov-2015
                27-Aug-2021 
 ******************************************
 %nprocshared=64
 Will use up to   64 processors via shared memory.
 %mem=128GB
 %chk=HY_CAM-B3LYP_PC2_OPT_FREQ.chk
 -------------------------
 #p opt freq CAM-B3LYP/gen
 -------------------------
 1/14=-1,18=20,19=15,26=3,38=1/1,3;
 2/9=110,12=2,17=6,18=5,40=1/2;
 3/5=7,11=2,16=1,25=1,30=1,71=1,74=-40/1,2,3;
 4//1;
 5/5=2,38=5/2;
 6/7=2,8=2,9=2,10=2,28=1/1;
 7//1,2,3,16;
 1/14=-1,18=20,19=15,26=3/3(2);
 2/9=110/2;
 99//99;
 2/9=110/2;
 3/5=7,6=1,11=2,16=1,25=1,30=1,71=1,74=-40,82=7/1,2,3;
 4/5=5,16=3,69=1/1;
 5/5=2,38=5/2;
 7//1,2,3,16;
 1/14=-1,18=20,19=15,26=3/3(-5);
 2/9=110/2;
 6/7=2,8=2,9=2,10=2,19=2,28=1/1;
 99/9=1/99;
 Leave Link    1 at Fri Aug 27 00:09:37 2021, MaxMem= 17179869184 cpu:         4.7
 (Enter /public3/home/sc51754/softwares/g09e01/l101.exe)
 -------------------------
 HY_CAM-B3LYP_PC2_OPT_FREQ
 -------------------------
 Symbolic Z-matrix:
 Charge =  0 Multiplicity = 1
 O                     0.00837   2.23974   0. 
 N                    -1.17143   0.29602   0. 
 C                     0.        0.89831   0. 
 C                     1.21926   0.22535   0. 
 C                    -1.18415  -1.03535   0. 
 C                     1.18363  -1.14867   0. 
 C                    -0.04131  -1.80488   0. 
 H                    -0.91394   2.51588   0. 
 H                     2.14363   0.78426   0. 
 H                    -2.16362  -1.50192   0. 
 H                     2.10659  -1.71377   0. 
 H                    -0.10426  -2.88308   0. 
 
 NAtoms=     12 NQM=       12 NQMF=       0 NMMI=      0 NMMIF=      0
                NMic=       0 NMicF=      0.
                    Isotopes and Nuclear Properties:
 (Nuclear quadrupole moments (NQMom) in fm**2, nuclear magnetic moments (NMagM)
  in nuclear magnetons)

  Atom         1           2           3           4           5           6           7           8           9          10
 IAtWgt=          16          14          12          12          12          12          12           1           1           1
 AtmWgt=  15.9949146  14.0030740  12.0000000  12.0000000  12.0000000  12.0000000  12.0000000   1.0078250   1.0078250   1.0078250
 NucSpn=           0           2           0           0           0           0           0           1           1           1
 AtZEff=   0.0000000   0.0000000   0.0000000   0.0000000   0.0000000   0.0000000   0.0000000   0.0000000   0.0000000   0.0000000
 NQMom=    0.0000000   2.0440000   0.0000000   0.0000000   0.0000000   0.0000000   0.0000000   0.0000000   0.0000000   0.0000000
 NMagM=    0.0000000   0.4037610   0.0000000   0.0000000   0.0000000   0.0000000   0.0000000   2.7928460   2.7928460   2.7928460
 AtZNuc=   8.0000000   7.0000000   6.0000000   6.0000000   6.0000000   6.0000000   6.0000000   1.0000000   1.0000000   1.0000000

  Atom        11          12
 IAtWgt=           1           1
 AtmWgt=   1.0078250   1.0078250
 NucSpn=           1           1
 AtZEff=   0.0000000   0.0000000
 NQMom=    0.0000000   0.0000000
 NMagM=    2.7928460   2.7928460
 AtZNuc=   1.0000000   1.0000000
 Leave Link  101 at Fri Aug 27 00:09:37 2021, MaxMem= 17179869184 cpu:        11.0
 (Enter /public3/home/sc51754/softwares/g09e01/l103.exe)

 GradGradGradGradGradGradGradGradGradGradGradGradGradGradGradGradGradGrad
 Berny optimization.
 Initialization pass.
                           ----------------------------
                           !    Initial Parameters    !
                           ! (Angstroms and Degrees)  !
 --------------------------                            --------------------------
 ! Name  Definition              Value          Derivative Info.                !
 --------------------------------------------------------------------------------
 ! R1    R(1,3)                  1.3415         estimate D2E/DX2                !
 ! R2    R(1,8)                  0.9628         estimate D2E/DX2                !
 ! R3    R(2,3)                  1.3172         estimate D2E/DX2                !
 ! R4    R(2,5)                  1.3314         estimate D2E/DX2                !
 ! R5    R(3,4)                  1.3927         estimate D2E/DX2                !
 ! R6    R(4,6)                  1.3745         estimate D2E/DX2                !
 ! R7    R(4,9)                  1.0802         estimate D2E/DX2                !
 ! R8    R(5,7)                  1.3778         estimate D2E/DX2                !
 ! R9    R(5,10)                 1.0849         estimate D2E/DX2                !
 ! R10   R(6,7)                  1.3896         estimate D2E/DX2                !
 ! R11   R(6,11)                 1.0822         estimate D2E/DX2                !
 ! R12   R(7,12)                 1.08           estimate D2E/DX2                !
 ! A1    A(3,1,8)              106.3104         estimate D2E/DX2                !
 ! A2    A(3,2,5)              117.7571         estimate D2E/DX2                !
 ! A3    A(1,3,2)              117.5674         estimate D2E/DX2                !
 ! A4    A(1,3,4)              118.5383         estimate D2E/DX2                !
 ! A5    A(2,3,4)              123.8942         estimate D2E/DX2                !
 ! A6    A(3,4,6)              117.4104         estimate D2E/DX2                !
 ! A7    A(3,4,9)              119.945          estimate D2E/DX2                !
 ! A8    A(6,4,9)              122.6446         estimate D2E/DX2                !
 ! A9    A(2,5,7)              123.4071         estimate D2E/DX2                !
 ! A10   A(2,5,10)             116.018          estimate D2E/DX2                !
 ! A11   A(7,5,10)             120.5749         estimate D2E/DX2                !
 ! A12   A(4,6,7)              119.6636         estimate D2E/DX2                !
 ! A13   A(4,6,11)             119.9925         estimate D2E/DX2                !
 ! A14   A(7,6,11)             120.3439         estimate D2E/DX2                !
 ! A15   A(5,7,6)              117.8675         estimate D2E/DX2                !
 ! A16   A(5,7,12)             120.6134         estimate D2E/DX2                !
 ! A17   A(6,7,12)             121.519          estimate D2E/DX2                !
 ! D1    D(8,1,3,2)              0.0            estimate D2E/DX2                !
 ! D2    D(8,1,3,4)            180.0            estimate D2E/DX2                !
 ! D3    D(5,2,3,1)            180.0            estimate D2E/DX2                !
 ! D4    D(5,2,3,4)              0.0            estimate D2E/DX2                !
 ! D5    D(3,2,5,7)              0.0            estimate D2E/DX2                !
 ! D6    D(3,2,5,10)           180.0            estimate D2E/DX2                !
 ! D7    D(1,3,4,6)            180.0            estimate D2E/DX2                !
 ! D8    D(1,3,4,9)              0.0            estimate D2E/DX2                !
 ! D9    D(2,3,4,6)              0.0            estimate D2E/DX2                !
 ! D10   D(2,3,4,9)            180.0            estimate D2E/DX2                !
 ! D11   D(3,4,6,7)              0.0            estimate D2E/DX2                !
 ! D12   D(3,4,6,11)           180.0            estimate D2E/DX2                !
 ! D13   D(9,4,6,7)            180.0            estimate D2E/DX2                !
 ! D14   D(9,4,6,11)             0.0            estimate D2E/DX2                !
 ! D15   D(2,5,7,6)              0.0            estimate D2E/DX2                !
 ! D16   D(2,5,7,12)           180.0            estimate D2E/DX2                !
 ! D17   D(10,5,7,6)           180.0            estimate D2E/DX2                !
 ! D18   D(10,5,7,12)            0.0            estimate D2E/DX2                !
 ! D19   D(4,6,7,5)              0.0            estimate D2E/DX2                !
 ! D20   D(4,6,7,12)           180.0            estimate D2E/DX2                !
 ! D21   D(11,6,7,5)           180.0            estimate D2E/DX2                !
 ! D22   D(11,6,7,12)            0.0            estimate D2E/DX2                !
 --------------------------------------------------------------------------------
 Trust Radius=3.00D-01 FncErr=1.00D-07 GrdErr=1.00D-06
 Number of steps in this run=     61 maximum allowed number of steps=    100.
 GradGradGradGradGradGradGradGradGradGradGradGradGradGradGradGradGradGrad

 Leave Link  103 at Fri Aug 27 00:09:38 2021, MaxMem= 17179869184 cpu:         0.1
 (Enter /public3/home/sc51754/softwares/g09e01/l202.exe)
                          Input orientation:                          
 ---------------------------------------------------------------------
 Center     Atomic      Atomic             Coordinates (Angstroms)
 Number     Number       Type             X           Y           Z
 ---------------------------------------------------------------------
      1          8           0        0.008372    2.239736    0.000000
      2          7           0       -1.171427    0.296023    0.000000
      3          6           0        0.000000    0.898309    0.000000
      4          6           0        1.219264    0.225352    0.000000
      5          6           0       -1.184145   -1.035351    0.000000
      6          6           0        1.183632   -1.148671    0.000000
      7          6           0       -0.041314   -1.804878    0.000000
      8          1           0       -0.913944    2.515883    0.000000
      9          1           0        2.143627    0.784264    0.000000
     10          1           0       -2.163617   -1.501920    0.000000
     11          1           0        2.106589   -1.713772    0.000000
     12          1           0       -0.104256   -2.883075    0.000000
 ---------------------------------------------------------------------
                    Distance matrix (angstroms):
                    1          2          3          4          5
     1  O    0.000000
     2  N    2.273752   0.000000
     3  C    1.341453   1.317190   0.000000
     4  C    2.350320   2.391735   1.392651   0.000000
     5  C    3.485440   1.331435   2.267430   2.713991   0.000000
     6  C    3.586438   2.762869   2.364553   1.374485   2.370487
     7  C    4.044919   2.385569   2.703503   2.389747   1.377764
     8  H    0.962769   2.234743   1.857913   3.130033   3.561498
     9  H    2.584127   3.350815   2.146659   1.080199   3.792765
    10  H    4.326376   2.053543   3.231461   3.798335   1.084920
    11  H    4.475795   3.845083   3.355694   2.132498   3.359938
    12  H    5.124049   3.353434   3.782821   3.378465   2.140151
                    6          7          8          9         10
     6  C    0.000000
     7  C    1.389640   0.000000
     8  H    4.222414   4.407999   0.000000
     9  H    2.158200   3.387864   3.513865   0.000000
    10  H    3.365837   2.143818   4.207662   4.876370   0.000000
    11  H    1.082215   2.149834   5.197461   2.498311   4.275458
    12  H    2.160281   1.080033   5.459335   4.301436   2.479628
                   11         12
    11  H    0.000000
    12  H    2.501021   0.000000
 Stoichiometry    C5H5NO
 Framework group  CS[SG(C5H5NO)]
 Deg. of freedom    21
 Full point group                 CS      NOp   2
 Largest Abelian subgroup         CS      NOp   2
 Largest concise Abelian subgroup C1      NOp   1
                         Standard orientation:                         
 ---------------------------------------------------------------------
 Center     Atomic      Atomic             Coordinates (Angstroms)
 Number     Number       Type             X           Y           Z
 ---------------------------------------------------------------------
      1          8           0        0.008372    2.239736    0.000000
      2          7           0       -1.171427    0.296023    0.000000
      3          6           0       -0.000000    0.898309    0.000000
      4          6           0        1.219264    0.225352    0.000000
      5          6           0       -1.184145   -1.035351    0.000000
      6          6           0        1.183632   -1.148671    0.000000
      7          6           0       -0.041314   -1.804878    0.000000
      8          1           0       -0.913944    2.515883    0.000000
      9          1           0        2.143627    0.784264    0.000000
     10          1           0       -2.163617   -1.501920    0.000000
     11          1           0        2.106589   -1.713772    0.000000
     12          1           0       -0.104257   -2.883075    0.000000
 ---------------------------------------------------------------------
 Rotational constants (GHZ):      5.9244098      2.8053779      1.9038502
 Leave Link  202 at Fri Aug 27 00:09:38 2021, MaxMem= 17179869184 cpu:         5.5
 (Enter /public3/home/sc51754/softwares/g09e01/l301.exe)
 General basis read from cards:  (5D, 7F)
 Centers:       8      9     10     11     12
 S 4 1.00
     Exponent=  7.5423000000D+01 Coefficients=  2.4065000000D-03
     Exponent=  1.1350000000D+01 Coefficients=  1.8487000000D-02
     Exponent=  2.5993000000D+00 Coefficients=  8.9742000000D-02
     Exponent=  7.3513000000D-01 Coefficients=  2.8111000000D-01
 S 1 1.00
     Exponent=  2.3167000000D-01 Coefficients=  1.0000000000D+00
 S 1 1.00
     Exponent=  7.4147000000D-02 Coefficients=  1.0000000000D+00
 P 1 1.00
     Exponent=  1.6000000000D+00 Coefficients=  1.0000000000D+00
 P 1 1.00
     Exponent=  4.5000000000D-01 Coefficients=  1.0000000000D+00
 D 1 1.00
     Exponent=  1.2500000000D+00 Coefficients=  1.0000000000D+00
 ****
 Centers:       3      4      5      6      7
 S 7 1.00
     Exponent=  7.8571000000D+03 Coefficients=  5.6825000000D-04
     Exponent=  1.1787000000D+03 Coefficients=  4.3915000000D-03
     Exponent=  2.6832000000D+02 Coefficients=  2.2504000000D-02
     Exponent=  7.5948000000D+01 Coefficients=  8.6653000000D-02
     Exponent=  2.4559000000D+01 Coefficients=  2.4405000000D-01
     Exponent=  8.6212000000D+00 Coefficients=  4.4148000000D-01
     Exponent=  3.1278000000D+00 Coefficients=  3.5332000000D-01
 S 7 1.00
     Exponent=  1.1787000000D+03 Coefficients= -5.9492000000D-07
     Exponent=  2.6832000000D+02 Coefficients= -6.2748000000D-05
     Exponent=  7.5948000000D+01 Coefficients= -7.5773000000D-04
     Exponent=  2.4559000000D+01 Coefficients= -7.3308000000D-03
     Exponent=  8.6212000000D+00 Coefficients= -3.8932000000D-02
     Exponent=  3.1278000000D+00 Coefficients= -8.8908000000D-02
     Exponent=  8.2202000000D-01 Coefficients=  2.1689000000D-01
 S 1 1.00
     Exponent=  3.3017000000D-01 Coefficients=  1.0000000000D+00
 S 1 1.00
     Exponent=  1.1463000000D-01 Coefficients=  1.0000000000D+00
 P 4 1.00
     Exponent=  3.3775000000D+01 Coefficients=  6.0294000000D-03
     Exponent=  7.6766000000D+00 Coefficients=  4.3228000000D-02
     Exponent=  2.2357000000D+00 Coefficients=  1.6301000000D-01
     Exponent=  7.6447000000D-01 Coefficients=  3.6504000000D-01
 P 1 1.00
     Exponent=  2.6232000000D-01 Coefficients=  1.0000000000D+00
 P 1 1.00
     Exponent=  8.4638000000D-02 Coefficients=  1.0000000000D+00
 D 1 1.00
     Exponent=  1.4000000000D+00 Coefficients=  1.0000000000D+00
 D 1 1.00
     Exponent=  4.5000000000D-01 Coefficients=  1.0000000000D+00
 F 1 1.00
     Exponent=  9.5000000000D-01 Coefficients=  1.0000000000D+00
 ****
 Centers:       2
 S 7 1.00
     Exponent=  1.1101000000D+04 Coefficients=  5.4570000000D-04
     Exponent=  1.6653000000D+03 Coefficients=  4.2181000000D-03
     Exponent=  3.7908000000D+02 Coefficients=  2.1645000000D-02
     Exponent=  1.0730000000D+02 Coefficients=  8.3776000000D-02
     Exponent=  3.4747000000D+01 Coefficients=  2.3881000000D-01
     Exponent=  1.2249000000D+01 Coefficients=  4.3994000000D-01
     Exponent=  4.4743000000D+00 Coefficients=  3.6364000000D-01
 S 7 1.00
     Exponent=  1.6653000000D+03 Coefficients= -1.5006000000D-06
     Exponent=  3.7908000000D+02 Coefficients= -5.8753000000D-05
     Exponent=  1.0730000000D+02 Coefficients= -7.7453000000D-04
     Exponent=  3.4747000000D+01 Coefficients= -7.2161000000D-03
     Exponent=  1.2249000000D+01 Coefficients= -3.9338000000D-02
     Exponent=  4.4743000000D+00 Coefficients= -9.0611000000D-02
     Exponent=  1.2404000000D+00 Coefficients=  1.9882000000D-01
 S 1 1.00
     Exponent=  4.8743000000D-01 Coefficients=  1.0000000000D+00
 S 1 1.00
     Exponent=  1.6484000000D-01 Coefficients=  1.0000000000D+00
 P 4 1.00
     Exponent=  4.7934000000D+01 Coefficients=  6.1706000000D-03
     Exponent=  1.0999000000D+01 Coefficients=  4.4260000000D-02
     Exponent=  3.2472000000D+00 Coefficients=  1.6825000000D-01
     Exponent=  1.1114000000D+00 Coefficients=  3.6848000000D-01
 P 1 1.00
     Exponent=  3.7988000000D-01 Coefficients=  1.0000000000D+00
 P 1 1.00
     Exponent=  1.2068000000D-01 Coefficients=  1.0000000000D+00
 D 1 1.00
     Exponent=  1.8000000000D+00 Coefficients=  1.0000000000D+00
 D 1 1.00
     Exponent=  5.5000000000D-01 Coefficients=  1.0000000000D+00
 F 1 1.00
     Exponent=  1.0200000000D+00 Coefficients=  1.0000000000D+00
 ****
 Centers:       1
 S 7 1.00
     Exponent=  1.4782000000D+04 Coefficients=  5.3519000000D-04
     Exponent=  2.2173000000D+03 Coefficients=  4.1375000000D-03
     Exponent=  5.0474000000D+02 Coefficients=  2.1245000000D-02
     Exponent=  1.4287000000D+02 Coefficients=  8.2453000000D-02
     Exponent=  4.6300000000D+01 Coefficients=  2.3671000000D-01
     Exponent=  1.6337000000D+01 Coefficients=  4.4039000000D-01
     Exponent=  5.9828000000D+00 Coefficients=  3.6465000000D-01
 S 7 1.00
     Exponent=  2.2173000000D+03 Coefficients= -1.9275000000D-06
     Exponent=  5.0474000000D+02 Coefficients= -5.7964000000D-05
     Exponent=  1.4287000000D+02 Coefficients= -7.9494000000D-04
     Exponent=  4.6300000000D+01 Coefficients= -7.3125000000D-03
     Exponent=  1.6337000000D+01 Coefficients= -4.0574000000D-02
     Exponent=  5.9828000000D+00 Coefficients= -9.1594000000D-02
     Exponent=  1.6718000000D+00 Coefficients=  2.0940000000D-01
 S 1 1.00
     Exponent=  6.4662000000D-01 Coefficients=  1.0000000000D+00
 S 1 1.00
     Exponent=  2.1669000000D-01 Coefficients=  1.0000000000D+00
 P 4 1.00
     Exponent=  6.0424000000D+01 Coefficients=  6.8949000000D-03
     Exponent=  1.3935000000D+01 Coefficients=  4.9005000000D-02
     Exponent=  4.1531000000D+00 Coefficients=  1.8255000000D-01
     Exponent=  1.4158000000D+00 Coefficients=  3.7633000000D-01
 P 1 1.00
     Exponent=  4.7549000000D-01 Coefficients=  1.0000000000D+00
 P 1 1.00
     Exponent=  1.4529000000D-01 Coefficients=  1.0000000000D+00
 D 1 1.00
     Exponent=  2.2000000000D+00 Coefficients=  1.0000000000D+00
 D 1 1.00
     Exponent=  6.5000000000D-01 Coefficients=  1.0000000000D+00
 F 1 1.00
     Exponent=  1.1000000000D+00 Coefficients=  1.0000000000D+00
 ****
 Ernie: Thresh=  0.10000D-02 Tol=  0.10000D-05 Strict=F.
 Ernie:  7 primitive shells out of 220 were deleted.
 There are   223 symmetry adapted cartesian basis functions of A'  symmetry.
 There are    97 symmetry adapted cartesian basis functions of A"  symmetry.
 There are   190 symmetry adapted basis functions of A'  symmetry.
 There are    90 symmetry adapted basis functions of A"  symmetry.
   280 basis functions,   475 primitive gaussians,   320 cartesian basis functions
    25 alpha electrons       25 beta electrons
       nuclear repulsion energy       277.5236709615 Hartrees.
 IExCor=20419 DFT=T Ex+Corr=CAM-B3LYP ExCW=0 ScaHFX=  1.000000
 ScaDFX=  1.000000  1.000000  1.000000  0.810000 ScalE2=  1.000000  1.000000
 IRadAn=      0 IRanWt=     -1 IRanGd=            0 ICorTp=0 IEmpDi=  4
  HFx wShort=  0.000000 wLong=  0.330000 cFull=  0.190000 cShort=  0.000000 cLong=  0.460000
  DFx wShort=  0.000000 wLong=  0.330000 cFull=  0.190000 cShort=  0.000000 cLong=  0.460000
 NAtoms=   12 NActive=   12 NUniq=   12 SFac= 1.00D+00 NAtFMM=   60 NAOKFM=F Big=F
 Integral buffers will be    131072 words long.
 Raffenetti 2 integral format.
 Two-electron integral symmetry is turned on.
 Leave Link  301 at Fri Aug 27 00:09:38 2021, MaxMem= 17179869184 cpu:         1.8
 (Enter /public3/home/sc51754/softwares/g09e01/l302.exe)
 NPDir=0 NMtPBC=     1 NCelOv=     1 NCel=       1 NClECP=     1 NCelD=      1
         NCelK=      1 NCelE2=     1 NClLst=     1 CellRange=     0.0.
 One-electron integrals computed using PRISM.
 NBasis=   280 RedAO= T EigKep=  2.16D-04  NBF=   190    90
 NBsUse=   280 1.00D-06 EigRej= -1.00D+00 NBFU=   190    90
 Precomputing XC quadrature grid using
 IXCGrd= 4 IRadAn=           0 IRanWt=          -1 IRanGd=           0 AccXCQ= 0.00D+00.
 Generated NRdTot=       0 NPtTot=           0 NUsed=           0 NTot=          32
 NSgBfM=   320   320   320   320   320 MxSgAt=    12 MxSgA2=    12.
 Leave Link  302 at Fri Aug 27 00:09:39 2021, MaxMem= 17179869184 cpu:        43.0
 (Enter /public3/home/sc51754/softwares/g09e01/l303.exe)
 DipDrv:  MaxL=1.
 Leave Link  303 at Fri Aug 27 00:09:39 2021, MaxMem= 17179869184 cpu:        10.8
 (Enter /public3/home/sc51754/softwares/g09e01/l401.exe)
 ExpMin= 7.41D-02 ExpMax= 1.48D+04 ExpMxC= 5.05D+02 IAcc=2 IRadAn=         4 AccDes= 0.00D+00
 Harris functional with IExCor=20419 and IRadAn=       4 diagonalized for initial guess.
 HarFok:  IExCor=20419 AccDes= 0.00D+00 IRadAn=         4 IDoV= 1 UseB2=F ITyADJ=14
 ICtDFT=  3500011 ScaDFX=  1.000000  1.000000  1.000000  1.000000
 FoFCou: FMM=F IPFlag=           0 FMFlag=      100000 FMFlg1=           0
         NFxFlg=           0 DoJE=T BraDBF=F KetDBF=T FulRan=T
         wScrn=  0.000000 ICntrl=     500 IOpCl=  0 I1Cent=   200000004 NGrid=           0
         NMat0=    1 NMatS0=      1 NMatT0=    0 NMatD0=    1 NMtDS0=    0 NMtDT0=    0
 Petite list used in FoFCou.
 Harris En= -311.339954156789    
 JPrj=0 DoOrth=F DoCkMO=F.
 Initial guess orbital symmetries:
       Occupied  (A') (A') (A') (A') (A') (A') (A') (A') (A') (A')
                 (A') (A') (A') (A') (A') (A') (A') (A") (A') (A')
                 (A') (A") (A") (A') (A")
       Virtual   (A") (A") (A') (A') (A') (A') (A') (A") (A') (A")
                 (A') (A') (A') (A') (A") (A") (A') (A') (A") (A')
                 (A') (A") (A') (A') (A') (A') (A') (A') (A') (A')
                 (A') (A") (A') (A') (A") (A') (A') (A') (A') (A')
                 (A') (A') (A') (A') (A") (A') (A') (A") (A") (A')
                 (A") (A') (A") (A') (A") (A') (A') (A') (A") (A')
                 (A') (A') (A") (A') (A') (A") (A') (A") (A') (A')
                 (A") (A") (A") (A') (A") (A') (A') (A") (A') (A')
                 (A") (A') (A') (A') (A") (A') (A") (A') (A") (A')
                 (A") (A') (A') (A') (A') (A") (A') (A') (A') (A")
                 (A') (A') (A") (A') (A') (A') (A') (A") (A') (A')
                 (A') (A") (A') (A') (A') (A') (A") (A') (A') (A')
                 (A") (A') (A") (A') (A") (A') (A") (A") (A') (A")
                 (A") (A') (A') (A') (A") (A') (A') (A") (A') (A')
                 (A') (A') (A') (A") (A") (A') (A") (A') (A') (A')
                 (A") (A') (A') (A") (A") (A') (A") (A') (A") (A")
                 (A') (A') (A') (A') (A") (A") (A') (A') (A") (A')
                 (A") (A') (A') (A') (A") (A') (A") (A") (A') (A")
                 (A") (A") (A') (A') (A") (A') (A") (A") (A') (A")
                 (A") (A') (A') (A") (A') (A') (A") (A') (A") (A")
                 (A') (A') (A") (A') (A') (A') (A") (A') (A') (A')
                 (A') (A") (A") (A') (A') (A") (A') (A') (A") (A")
                 (A') (A') (A") (A') (A') (A") (A') (A') (A') (A')
                 (A") (A') (A') (A') (A') (A") (A') (A") (A') (A')
                 (A') (A') (A") (A') (A') (A') (A') (A') (A') (A')
                 (A') (A') (A') (A') (A')
 The electronic state of the initial guess is 1-A'.
 Leave Link  401 at Fri Aug 27 00:09:40 2021, MaxMem= 17179869184 cpu:        58.9
 (Enter /public3/home/sc51754/softwares/g09e01/l502.exe)
 Closed shell SCF:
 Using DIIS extrapolation, IDIIS=  1040.
 Integral symmetry usage will be decided dynamically.
 Keep R1 ints in memory in symmetry-blocked form, NReq=2335173138.
 IVT=      348658 IEndB=      348658 NGot= 17179869184 MDV= 16785904737
 LenX= 16785904737 LenY= 16785801896
 Requested convergence on RMS density matrix=1.00D-08 within 128 cycles.
 Requested convergence on MAX density matrix=1.00D-06.
 Requested convergence on             energy=1.00D-06.
 No special actions if energy rises.
 FoFCou: FMM=F IPFlag=           0 FMFlag=           0 FMFlg1=           0
         NFxFlg=           0 DoJE=F BraDBF=F KetDBF=F FulRan=T
         wScrn=  0.000000 ICntrl=     600 IOpCl=  0 I1Cent=           0 NGrid=           0
         NMat0=    1 NMatS0=  39340 NMatT0=    0 NMatD0=    1 NMtDS0=    0 NMtDT0=    0
 Petite list used in FoFCou.
 Integral accuracy reduced to 1.0D-05 until final iterations.

 Cycle   1  Pass 0  IDiag  1:
 E= -323.424744822273    
 DIIS: error= 6.76D-02 at cycle   1 NSaved=   1.
 NSaved= 1 IEnMin= 1 EnMin= -323.424744822273     IErMin= 1 ErrMin= 6.76D-02
 ErrMax= 6.76D-02  0.00D+00 EMaxC= 1.00D-01 BMatC= 2.21D-01 BMatP= 2.21D-01
 IDIUse=3 WtCom= 3.24D-01 WtEn= 6.76D-01
 Coeff-Com:  0.100D+01
 Coeff-En:   0.100D+01
 Coeff:      0.100D+01
 Gap=     0.351 Goal=   None    Shift=    0.000
 GapD=    0.351 DampG=1.000 DampE=0.500 DampFc=0.5000 IDamp=-1.
 Damping current iteration by 5.00D-01
 RMSDP=2.61D-03 MaxDP=1.42D-01              OVMax= 1.93D-01

 Cycle   2  Pass 0  IDiag  1:
 E= -323.456815755956     Delta-E=       -0.032070933682 Rises=F Damp=T
 DIIS: error= 3.35D-02 at cycle   2 NSaved=   2.
 NSaved= 2 IEnMin= 2 EnMin= -323.456815755956     IErMin= 2 ErrMin= 3.35D-02
 ErrMax= 3.35D-02  0.00D+00 EMaxC= 1.00D-01 BMatC= 4.37D-02 BMatP= 2.21D-01
 IDIUse=3 WtCom= 6.65D-01 WtEn= 3.35D-01
 Coeff-Com: -0.288D+00 0.129D+01
 Coeff-En:   0.500D-01 0.950D+00
 Coeff:     -0.175D+00 0.117D+01
 Gap=     0.339 Goal=   None    Shift=    0.000
 RMSDP=1.21D-03 MaxDP=6.15D-02 DE=-3.21D-02 OVMax= 1.46D-01

 Cycle   3  Pass 0  IDiag  1:
 E= -323.487216280340     Delta-E=       -0.030400524384 Rises=F Damp=F
 DIIS: error= 7.91D-03 at cycle   3 NSaved=   3.
 NSaved= 3 IEnMin= 3 EnMin= -323.487216280340     IErMin= 3 ErrMin= 7.91D-03
 ErrMax= 7.91D-03  0.00D+00 EMaxC= 1.00D-01 BMatC= 1.41D-02 BMatP= 4.37D-02
 IDIUse=3 WtCom= 9.21D-01 WtEn= 7.91D-02
 Coeff-Com: -0.267D+00 0.567D+00 0.701D+00
 Coeff-En:   0.000D+00 0.000D+00 0.100D+01
 Coeff:     -0.246D+00 0.522D+00 0.724D+00
 Gap=     0.315 Goal=   None    Shift=    0.000
 RMSDP=3.62D-04 MaxDP=1.27D-02 DE=-3.04D-02 OVMax= 4.73D-02

 Cycle   4  Pass 0  IDiag  1:
 E= -323.499696443146     Delta-E=       -0.012480162806 Rises=F Damp=F
 DIIS: error= 1.92D-03 at cycle   4 NSaved=   4.
 NSaved= 4 IEnMin= 4 EnMin= -323.499696443146     IErMin= 4 ErrMin= 1.92D-03
 ErrMax= 1.92D-03  0.00D+00 EMaxC= 1.00D-01 BMatC= 6.91D-04 BMatP= 1.41D-02
 IDIUse=3 WtCom= 9.81D-01 WtEn= 1.92D-02
 Coeff-Com: -0.120D+00 0.250D+00 0.381D+00 0.490D+00
 Coeff-En:   0.000D+00 0.000D+00 0.000D+00 0.100D+01
 Coeff:     -0.118D+00 0.245D+00 0.374D+00 0.500D+00
 Gap=     0.311 Goal=   None    Shift=    0.000
 RMSDP=6.53D-05 MaxDP=4.08D-03 DE=-1.25D-02 OVMax= 1.03D-02

 Cycle   5  Pass 0  IDiag  1:
 E= -323.500294564223     Delta-E=       -0.000598121078 Rises=F Damp=F
 DIIS: error= 1.71D-04 at cycle   5 NSaved=   5.
 NSaved= 5 IEnMin= 5 EnMin= -323.500294564223     IErMin= 5 ErrMin= 1.71D-04
 ErrMax= 1.71D-04  0.00D+00 EMaxC= 1.00D-01 BMatC= 1.27D-05 BMatP= 6.91D-04
 IDIUse=3 WtCom= 9.98D-01 WtEn= 1.71D-03
 Coeff-Com: -0.324D-02 0.554D-02 0.293D-01 0.126D+00 0.843D+00
 Coeff-En:   0.000D+00 0.000D+00 0.000D+00 0.000D+00 0.100D+01
 Coeff:     -0.323D-02 0.553D-02 0.293D-01 0.125D+00 0.843D+00
 Gap=     0.311 Goal=   None    Shift=    0.000
 RMSDP=1.83D-05 MaxDP=6.66D-04 DE=-5.98D-04 OVMax= 1.82D-03

 Cycle   6  Pass 0  IDiag  1:
 E= -323.500306143780     Delta-E=       -0.000011579556 Rises=F Damp=F
 DIIS: error= 1.27D-04 at cycle   6 NSaved=   6.
 NSaved= 6 IEnMin= 6 EnMin= -323.500306143780     IErMin= 6 ErrMin= 1.27D-04
 ErrMax= 1.27D-04  0.00D+00 EMaxC= 1.00D-01 BMatC= 5.35D-06 BMatP= 1.27D-05
 IDIUse=3 WtCom= 9.99D-01 WtEn= 1.27D-03
 Coeff-Com:  0.134D-01-0.284D-01-0.310D-01 0.447D-02 0.454D+00 0.587D+00
 Coeff-En:   0.000D+00 0.000D+00 0.000D+00 0.000D+00 0.000D+00 0.100D+01
 Coeff:      0.134D-01-0.283D-01-0.309D-01 0.447D-02 0.454D+00 0.587D+00
 Gap=     0.311 Goal=   None    Shift=    0.000
 RMSDP=6.76D-06 MaxDP=3.05D-04 DE=-1.16D-05 OVMax= 8.89D-04

 Initial convergence to 1.0D-05 achieved.  Increase integral accuracy.
 Cycle   7  Pass 1  IDiag  1:
 E= -323.500263618312     Delta-E=        0.000042525468 Rises=F Damp=F
 DIIS: error= 3.43D-05 at cycle   1 NSaved=   1.
 NSaved= 1 IEnMin= 1 EnMin= -323.500263618312     IErMin= 1 ErrMin= 3.43D-05
 ErrMax= 3.43D-05  0.00D+00 EMaxC= 1.00D-01 BMatC= 2.59D-07 BMatP= 2.59D-07
 IDIUse=1 WtCom= 1.00D+00 WtEn= 0.00D+00
 Coeff-Com:  0.100D+01
 Coeff:      0.100D+01
 Gap=     0.311 Goal=   None    Shift=    0.000
 RMSDP=6.76D-06 MaxDP=3.05D-04 DE= 4.25D-05 OVMax= 5.37D-04

 Cycle   8  Pass 1  IDiag  1:
 E= -323.500263881946     Delta-E=       -0.000000263634 Rises=F Damp=F
 DIIS: error= 2.97D-05 at cycle   2 NSaved=   2.
 NSaved= 2 IEnMin= 2 EnMin= -323.500263881946     IErMin= 2 ErrMin= 2.97D-05
 ErrMax= 2.97D-05  0.00D+00 EMaxC= 1.00D-01 BMatC= 2.80D-07 BMatP= 2.59D-07
 IDIUse=1 WtCom= 1.00D+00 WtEn= 0.00D+00
 Coeff-Com:  0.512D+00 0.488D+00
 Coeff:      0.512D+00 0.488D+00
 Gap=     0.311 Goal=   None    Shift=    0.000
 RMSDP=1.38D-06 MaxDP=6.19D-05 DE=-2.64D-07 OVMax= 1.96D-04

 Cycle   9  Pass 1  IDiag  1:
 E= -323.500264121551     Delta-E=       -0.000000239605 Rises=F Damp=F
 DIIS: error= 1.04D-05 at cycle   3 NSaved=   3.
 NSaved= 3 IEnMin= 3 EnMin= -323.500264121551     IErMin= 3 ErrMin= 1.04D-05
 ErrMax= 1.04D-05  0.00D+00 EMaxC= 1.00D-01 BMatC= 1.60D-08 BMatP= 2.59D-07
 IDIUse=1 WtCom= 1.00D+00 WtEn= 0.00D+00
 Coeff-Com: -0.586D-01 0.127D+00 0.931D+00
 Coeff:     -0.586D-01 0.127D+00 0.931D+00
 Gap=     0.311 Goal=   None    Shift=    0.000
 RMSDP=8.39D-07 MaxDP=1.95D-05 DE=-2.40D-07 OVMax= 1.45D-04

 Cycle  10  Pass 1  IDiag  1:
 E= -323.500264160135     Delta-E=       -0.000000038583 Rises=F Damp=F
 DIIS: error= 5.98D-06 at cycle   4 NSaved=   4.
 NSaved= 4 IEnMin= 4 EnMin= -323.500264160135     IErMin= 4 ErrMin= 5.98D-06
 ErrMax= 5.98D-06  0.00D+00 EMaxC= 1.00D-01 BMatC= 2.89D-09 BMatP= 1.60D-08
 IDIUse=1 WtCom= 1.00D+00 WtEn= 0.00D+00
 Coeff-Com: -0.820D-01-0.219D-01 0.324D+00 0.780D+00
 Coeff:     -0.820D-01-0.219D-01 0.324D+00 0.780D+00
 Gap=     0.311 Goal=   None    Shift=    0.000
 RMSDP=3.22D-07 MaxDP=8.61D-06 DE=-3.86D-08 OVMax= 5.52D-05

 Cycle  11  Pass 1  IDiag  1:
 E= -323.500264167017     Delta-E=       -0.000000006882 Rises=F Damp=F
 DIIS: error= 1.67D-06 at cycle   5 NSaved=   5.
 NSaved= 5 IEnMin= 5 EnMin= -323.500264167017     IErMin= 5 ErrMin= 1.67D-06
 ErrMax= 1.67D-06  0.00D+00 EMaxC= 1.00D-01 BMatC= 6.33D-10 BMatP= 2.89D-09
 IDIUse=1 WtCom= 1.00D+00 WtEn= 0.00D+00
 Coeff-Com: -0.220D-01-0.371D-01-0.448D-01 0.319D+00 0.785D+00
 Coeff:     -0.220D-01-0.371D-01-0.448D-01 0.319D+00 0.785D+00
 Gap=     0.311 Goal=   None    Shift=    0.000
 RMSDP=1.50D-07 MaxDP=4.03D-06 DE=-6.88D-09 OVMax= 2.78D-05

 Cycle  12  Pass 1  IDiag  1:
 E= -323.500264168430     Delta-E=       -0.000000001413 Rises=F Damp=F
 DIIS: error= 1.07D-06 at cycle   6 NSaved=   6.
 NSaved= 6 IEnMin= 6 EnMin= -323.500264168430     IErMin= 6 ErrMin= 1.07D-06
 ErrMax= 1.07D-06  0.00D+00 EMaxC= 1.00D-01 BMatC= 7.19D-11 BMatP= 6.33D-10
 IDIUse=1 WtCom= 1.00D+00 WtEn= 0.00D+00
 Coeff-Com:  0.475D-02-0.119D-01-0.651D-01-0.105D-01 0.267D+00 0.816D+00
 Coeff:      0.475D-02-0.119D-01-0.651D-01-0.105D-01 0.267D+00 0.816D+00
 Gap=     0.311 Goal=   None    Shift=    0.000
 RMSDP=5.91D-08 MaxDP=1.45D-06 DE=-1.41D-09 OVMax= 1.11D-05

 Cycle  13  Pass 1  IDiag  1:
 E= -323.500264168585     Delta-E=       -0.000000000155 Rises=F Damp=F
 DIIS: error= 2.16D-07 at cycle   7 NSaved=   7.
 NSaved= 7 IEnMin= 7 EnMin= -323.500264168585     IErMin= 7 ErrMin= 2.16D-07
 ErrMax= 2.16D-07  0.00D+00 EMaxC= 1.00D-01 BMatC= 1.81D-11 BMatP= 7.19D-11
 IDIUse=1 WtCom= 1.00D+00 WtEn= 0.00D+00
 Coeff-Com:  0.474D-02-0.191D-02-0.240D-01-0.402D-01 0.421D-01 0.416D+00
 Coeff-Com:  0.603D+00
 Coeff:      0.474D-02-0.191D-02-0.240D-01-0.402D-01 0.421D-01 0.416D+00
 Coeff:      0.603D+00
 Gap=     0.311 Goal=   None    Shift=    0.000
 RMSDP=1.52D-08 MaxDP=6.46D-07 DE=-1.55D-10 OVMax= 2.32D-06

 Cycle  14  Pass 1  IDiag  1:
 E= -323.500264168613     Delta-E=       -0.000000000028 Rises=F Damp=F
 DIIS: error= 7.12D-08 at cycle   8 NSaved=   8.
 NSaved= 8 IEnMin= 8 EnMin= -323.500264168613     IErMin= 8 ErrMin= 7.12D-08
 ErrMax= 7.12D-08  0.00D+00 EMaxC= 1.00D-01 BMatC= 6.19D-13 BMatP= 1.81D-11
 IDIUse=1 WtCom= 1.00D+00 WtEn= 0.00D+00
 Coeff-Com: -0.413D-03 0.101D-02 0.834D-02-0.394D-02-0.351D-01-0.828D-01
 Coeff-Com:  0.114D-01 0.110D+01
 Coeff:     -0.413D-03 0.101D-02 0.834D-02-0.394D-02-0.351D-01-0.828D-01
 Coeff:      0.114D-01 0.110D+01
 Gap=     0.311 Goal=   None    Shift=    0.000
 RMSDP=8.08D-09 MaxDP=2.09D-07 DE=-2.76D-11 OVMax= 1.48D-06

 SCF Done:  E(RCAM-B3LYP) =  -323.500264169     A.U. after   14 cycles
            NFock= 14  Conv=0.81D-08     -V/T= 2.0032
 KE= 3.224605247052D+02 PE=-1.310127772430D+03 EE= 3.866433125947D+02
 Leave Link  502 at Fri Aug 27 00:09:49 2021, MaxMem= 17179869184 cpu:       355.1
 (Enter /public3/home/sc51754/softwares/g09e01/l601.exe)
 Copying SCF densities to generalized density rwf, IOpCl= 0 IROHF=0.

 **********************************************************************

            Population analysis using the SCF density.

 **********************************************************************

 Orbital symmetries:
       Occupied  (A') (A') (A') (A') (A') (A') (A') (A') (A') (A')
                 (A') (A') (A') (A') (A') (A') (A') (A") (A') (A')
                 (A') (A") (A") (A') (A")
       Virtual   (A") (A") (A') (A') (A') (A') (A') (A') (A") (A')
                 (A") (A') (A') (A') (A") (A") (A') (A') (A') (A")
                 (A') (A") (A') (A') (A') (A') (A') (A') (A') (A')
                 (A') (A") (A') (A') (A") (A') (A') (A') (A') (A')
                 (A') (A') (A') (A") (A') (A') (A') (A") (A") (A")
                 (A') (A") (A') (A') (A") (A') (A') (A") (A') (A')
                 (A') (A') (A") (A') (A') (A") (A') (A") (A') (A')
                 (A") (A") (A") (A') (A") (A') (A') (A") (A') (A')
                 (A") (A') (A') (A') (A') (A") (A") (A') (A") (A')
                 (A") (A') (A') (A') (A') (A") (A') (A') (A') (A")
                 (A') (A') (A") (A') (A') (A') (A') (A") (A') (A')
                 (A') (A") (A') (A') (A') (A') (A") (A') (A') (A')
                 (A") (A') (A") (A') (A") (A') (A") (A") (A') (A")
                 (A") (A') (A') (A') (A") (A') (A') (A") (A') (A')
                 (A') (A') (A") (A') (A") (A') (A") (A') (A') (A')
                 (A") (A') (A') (A") (A") (A') (A") (A') (A") (A')
                 (A") (A') (A') (A') (A") (A") (A') (A") (A') (A')
                 (A') (A") (A') (A") (A') (A') (A") (A') (A") (A")
                 (A") (A") (A') (A') (A") (A') (A") (A") (A') (A")
                 (A') (A") (A') (A") (A') (A') (A") (A') (A") (A")
                 (A') (A') (A") (A') (A') (A') (A") (A') (A') (A')
                 (A") (A') (A") (A') (A') (A") (A') (A') (A") (A")
                 (A') (A') (A") (A') (A') (A") (A') (A') (A') (A')
                 (A") (A') (A') (A') (A') (A") (A") (A') (A') (A')
                 (A') (A') (A") (A') (A') (A') (A') (A') (A') (A')
                 (A') (A') (A') (A') (A')
 The electronic state is 1-A'.
 Alpha  occ. eigenvalues --  -19.23353 -14.38870 -10.34693 -10.29015 -10.27280
 Alpha  occ. eigenvalues --  -10.25747 -10.25310  -1.16962  -1.03246  -0.89844
 Alpha  occ. eigenvalues --   -0.84523  -0.73241  -0.71215  -0.63477  -0.59656
 Alpha  occ. eigenvalues --   -0.55990  -0.52115  -0.52060  -0.48990  -0.47164
 Alpha  occ. eigenvalues --   -0.44302  -0.43254  -0.35713  -0.34502  -0.30211
 Alpha virt. eigenvalues --    0.00915   0.03679   0.05333   0.06431   0.07424
 Alpha virt. eigenvalues --    0.09501   0.11170   0.17747   0.18428   0.19522
 Alpha virt. eigenvalues --    0.19738   0.20486   0.22565   0.23081   0.24031
 Alpha virt. eigenvalues --    0.24313   0.26354   0.29660   0.30726   0.31131
 Alpha virt. eigenvalues --    0.32482   0.33863   0.34044   0.34486   0.37209
 Alpha virt. eigenvalues --    0.38103   0.40580   0.41866   0.42438   0.43409
 Alpha virt. eigenvalues --    0.44123   0.46420   0.49243   0.49535   0.49845
 Alpha virt. eigenvalues --    0.54252   0.56568   0.57071   0.59729   0.62536
 Alpha virt. eigenvalues --    0.66557   0.68376   0.69551   0.70464   0.71788
 Alpha virt. eigenvalues --    0.73058   0.77288   0.82473   0.83690   0.87531
 Alpha virt. eigenvalues --    0.88480   0.92839   0.93561   0.96857   0.98973
 Alpha virt. eigenvalues --    1.01098   1.03122   1.03440   1.04462   1.06743
 Alpha virt. eigenvalues --    1.09179   1.14950   1.16466   1.16946   1.20473
 Alpha virt. eigenvalues --    1.21365   1.21518   1.24008   1.24861   1.25920
 Alpha virt. eigenvalues --    1.28415   1.32376   1.34180   1.36089   1.36253
 Alpha virt. eigenvalues --    1.37942   1.42984   1.47764   1.48742   1.50866
 Alpha virt. eigenvalues --    1.56073   1.56456   1.57953   1.60569   1.61164
 Alpha virt. eigenvalues --    1.62649   1.64993   1.67775   1.69502   1.72959
 Alpha virt. eigenvalues --    1.73640   1.73951   1.77382   1.79874   1.80782
 Alpha virt. eigenvalues --    1.85740   1.87277   1.89441   1.92822   1.93152
 Alpha virt. eigenvalues --    1.95574   2.02312   2.02836   2.04076   2.08093
 Alpha virt. eigenvalues --    2.12500   2.17869   2.18903   2.21620   2.25425
 Alpha virt. eigenvalues --    2.29140   2.30036   2.32842   2.34367   2.37350
 Alpha virt. eigenvalues --    2.41543   2.45918   2.66221   2.75333   2.80924
 Alpha virt. eigenvalues --    2.94219   3.01148   3.03302   3.07725   3.22631
 Alpha virt. eigenvalues --    3.24432   3.28269   3.31047   3.33586   3.34454
 Alpha virt. eigenvalues --    3.38761   3.40674   3.42747   3.46669   3.47550
 Alpha virt. eigenvalues --    3.50675   3.55198   3.55564   3.57708   3.64994
 Alpha virt. eigenvalues --    3.65715   3.67834   3.69137   3.69507   3.75880
 Alpha virt. eigenvalues --    3.78564   3.80336   3.85737   3.88584   3.89927
 Alpha virt. eigenvalues --    3.92081   3.94884   3.97986   4.00015   4.04386
 Alpha virt. eigenvalues --    4.04747   4.08338   4.11843   4.13146   4.14373
 Alpha virt. eigenvalues --    4.14717   4.17427   4.19985   4.23931   4.24870
 Alpha virt. eigenvalues --    4.25708   4.27487   4.29163   4.29659   4.31759
 Alpha virt. eigenvalues --    4.34598   4.35070   4.37214   4.39191   4.39831
 Alpha virt. eigenvalues --    4.40449   4.41462   4.45412   4.46931   4.48331
 Alpha virt. eigenvalues --    4.51369   4.52160   4.52798   4.53689   4.55192
 Alpha virt. eigenvalues --    4.57359   4.57984   4.59029   4.62657   4.64901
 Alpha virt. eigenvalues --    4.67102   4.67232   4.71845   4.73307   4.75349
 Alpha virt. eigenvalues --    4.81979   4.84149   4.87535   4.91937   4.95416
 Alpha virt. eigenvalues --    4.97230   4.97761   5.05724   5.06623   5.12163
 Alpha virt. eigenvalues --    5.16425   5.17118   5.19426   5.26250   5.27633
 Alpha virt. eigenvalues --    5.30876   5.31743   5.36153   5.39292   5.41750
 Alpha virt. eigenvalues --    5.44230   5.44302   5.46244   5.48164   5.49780
 Alpha virt. eigenvalues --    5.51581   5.54269   5.61939   5.64384   5.69559
 Alpha virt. eigenvalues --    5.71912   5.73216   5.75725   5.85350   5.87477
 Alpha virt. eigenvalues --    5.90450   6.06947   6.11438   6.15388   6.15978
 Alpha virt. eigenvalues --    6.17099   6.32748   6.32782   6.34618   6.36245
 Alpha virt. eigenvalues --    6.53522   6.55093   6.55630   6.70604   6.76702
 Alpha virt. eigenvalues --    7.00022   7.22263   7.39210   9.28560  12.07636
 Alpha virt. eigenvalues --   12.70670  15.49677  17.39019  18.62293  22.19019
          Condensed to atoms (all electrons):
               1          2          3          4          5          6
     1  O    7.858045  -0.103836   0.335939  -0.072060   0.003813   0.008095
     2  N   -0.103836   6.604004   0.500377  -0.025782   0.529136  -0.030534
     3  C    0.335939   0.500377   4.430565   0.499437  -0.081892  -0.059841
     4  C   -0.072060  -0.025782   0.499437   4.903246  -0.042557   0.523175
     5  C    0.003813   0.529136  -0.081892  -0.042557   4.607218  -0.075756
     6  C    0.008095  -0.030534  -0.059841   0.523175  -0.075756   4.730533
     7  C   -0.001080  -0.050778  -0.053022  -0.048405   0.507784   0.489479
     8  H    0.348466   0.012125  -0.034372   0.012932   0.000936  -0.002209
     9  H    0.003855   0.006498  -0.030183   0.433298  -0.002080  -0.035690
    10  H   -0.000467  -0.041223   0.005341  -0.004759   0.455109   0.009040
    11  H   -0.000189  -0.001919   0.007932  -0.039678   0.007784   0.441979
    12  H    0.000027   0.006947  -0.001308   0.007896  -0.029928  -0.037579
               7          8          9         10         11         12
     1  O   -0.001080   0.348466   0.003855  -0.000467  -0.000189   0.000027
     2  N   -0.050778   0.012125   0.006498  -0.041223  -0.001919   0.006947
     3  C   -0.053022  -0.034372  -0.030183   0.005341   0.007932  -0.001308
     4  C   -0.048405   0.012932   0.433298  -0.004759  -0.039678   0.007896
     5  C    0.507784   0.000936  -0.002080   0.455109   0.007784  -0.029928
     6  C    0.489479  -0.002209  -0.035690   0.009040   0.441979  -0.037579
     7  C    4.976816   0.001362   0.007822  -0.077203  -0.041978   0.433757
     8  H    0.001362   0.450517  -0.000818  -0.000573   0.000075  -0.000037
     9  H    0.007822  -0.000818   0.568144   0.000156  -0.007071   0.000095
    10  H   -0.077203  -0.000573   0.000156   0.597820  -0.000003  -0.003872
    11  H   -0.041978   0.000075  -0.007071  -0.000003   0.580525  -0.007033
    12  H    0.433757  -0.000037   0.000095  -0.003872  -0.007033   0.582663
 Mulliken charges:
               1
     1  O   -0.380608
     2  N   -0.405014
     3  C    0.481026
     4  C   -0.146744
     5  C    0.120433
     6  C    0.039308
     7  C   -0.144553
     8  H    0.211596
     9  H    0.055974
    10  H    0.060635
    11  H    0.059576
    12  H    0.048372
 Sum of Mulliken charges =  -0.00000
 Mulliken charges with hydrogens summed into heavy atoms:
               1
     1  O   -0.169012
     2  N   -0.405014
     3  C    0.481026
     4  C   -0.090770
     5  C    0.181067
     6  C    0.098884
     7  C   -0.096181
 Electronic spatial extent (au):  <R**2>=            624.3275
 Charge=             -0.0000 electrons
 Dipole moment (field-independent basis, Debye):
    X=              0.5099    Y=             -1.2867    Z=             -0.0000  Tot=              1.3840
 Quadrupole moment (field-independent basis, Debye-Ang):
   XX=            -38.1126   YY=            -37.1292   ZZ=            -43.2980
   XY=             -2.0480   XZ=              0.0000   YZ=              0.0000
 Traceless Quadrupole moment (field-independent basis, Debye-Ang):
   XX=              1.4007   YY=              2.3840   ZZ=             -3.7847
   XY=             -2.0480   XZ=              0.0000   YZ=              0.0000
 Octapole moment (field-independent basis, Debye-Ang**2):
  XXX=              6.4321  YYY=              3.9541  ZZZ=              0.0000  XYY=            -10.9195
  XXY=              0.2968  XXZ=              0.0000  XZZ=             -1.4041  YZZ=              5.5032
  YYZ=             -0.0000  XYZ=              0.0000
 Hexadecapole moment (field-independent basis, Debye-Ang**3):
 XXXX=           -268.9282 YYYY=           -461.7225 ZZZZ=            -48.1221 XXXY=              8.9816
 XXXZ=              0.0000 YYYX=            -30.1438 YYYZ=              0.0000 ZZZX=              0.0000
 ZZZY=              0.0000 XXYY=           -110.3400 XXZZ=            -60.2333 YYZZ=            -97.9613
 XXYZ=              0.0000 YYXZ=              0.0000 ZZXY=              0.7057
 N-N= 2.775236709615D+02 E-N=-1.310127774807D+03  KE= 3.224605247052D+02
 Symmetry A'   KE= 3.107276690054D+02
 Symmetry A"   KE= 1.173285569981D+01
 No NMR shielding tensors so no spin-rotation constants.
 Leave Link  601 at Fri Aug 27 00:09:50 2021, MaxMem= 17179869184 cpu:        64.5
 (Enter /public3/home/sc51754/softwares/g09e01/l701.exe)
 Compute integral first derivatives.
 ... and contract with generalized density number  0.
 Leave Link  701 at Fri Aug 27 00:09:52 2021, MaxMem= 17179869184 cpu:        70.0
 (Enter /public3/home/sc51754/softwares/g09e01/l702.exe)
 L702 exits ... SP integral derivatives will be done elsewhere.
 Leave Link  702 at Fri Aug 27 00:09:52 2021, MaxMem= 17179869184 cpu:         0.4
 (Enter /public3/home/sc51754/softwares/g09e01/l703.exe)
 Compute integral first derivatives, UseDBF=F ICtDFT=           0.
 Integral derivatives from FoFJK, PRISM(SPDF).
 Calling FoFJK, ICntrl=      2127 FMM=F ISym2X=1 I1Cent= 0 IOpClX= 0 NMat=1 NMatS=1 NMatT=0.
 FoFJK:  IHMeth= 1 ICntrl=    2127 DoSepK=T KAlg= 0 I1Cent=   0 FoldK=F
 IRaf=         1 NMat=   1 IRICut=       1 DoRegI=T DoRafI=F ISym2E= 1.
 FoFCou: FMM=F IPFlag=           0 FMFlag=      100000 FMFlg1=         800
         NFxFlg=           0 DoJE=F BraDBF=F KetDBF=F FulRan=T
         wScrn=  0.000000 ICntrl=    2527 IOpCl=  0 I1Cent=           0 NGrid=           0
         NMat0=    1 NMatS0=      1 NMatT0=    0 NMatD0=    1 NMtDS0=    0 NMtDT0=    0
 Petite list used in FoFCou.
 Leave Link  703 at Fri Aug 27 00:09:56 2021, MaxMem= 17179869184 cpu:       227.9
 (Enter /public3/home/sc51754/softwares/g09e01/l716.exe)
 Dipole        = 2.00595144D-01-5.06227740D-01-1.92907864D-32
 ***** Axes restored to original set *****
 -------------------------------------------------------------------
 Center     Atomic                   Forces (Hartrees/Bohr)
 Number     Number              X              Y              Z
 -------------------------------------------------------------------
      1        8          -0.000216509    0.002466983   -0.000000000
      2        7           0.001633615    0.000745615    0.000000000
      3        6           0.001082095   -0.004018566    0.000000000
      4        6           0.000125199    0.000115984    0.000000000
      5        6          -0.001669602   -0.002238954    0.000000000
      6        6           0.001108514   -0.000727757    0.000000000
      7        6          -0.000423290    0.000226959   -0.000000000
      8        1          -0.001439134    0.001875892   -0.000000000
      9        1          -0.000795904   -0.000479070   -0.000000000
     10        1           0.001168406    0.000933285    0.000000000
     11        1          -0.000518845    0.000449680   -0.000000000
     12        1          -0.000054545    0.000649952   -0.000000000
 -------------------------------------------------------------------
 Cartesian Forces:  Max     0.004018566 RMS     0.001131397
 Leave Link  716 at Fri Aug 27 00:09:56 2021, MaxMem= 17179869184 cpu:         0.4
 (Enter /public3/home/sc51754/softwares/g09e01/l103.exe)

 GradGradGradGradGradGradGradGradGradGradGradGradGradGradGradGradGradGrad
 Berny optimization.
 FormGI is forming the generalized inverse of G from B-inverse, IUseBI=4.
 Internal  Forces:  Max     0.004330781 RMS     0.000864108
 Search for a local minimum.
 Step number   1 out of a maximum of   61
 All quantities printed in internal units (Hartrees-Bohrs-Radians)
 RMS Force = .86411D-03 SwitMx=.10000D-02 MixMth= 2
 Mixed Optimization -- En-DIIS/RFO-DIIS
 Second derivative matrix not updated -- first step.
 ITU=  0
     Eigenvalues ---    0.02265   0.02291   0.02312   0.02345   0.02366
     Eigenvalues ---    0.02409   0.02454   0.02466   0.02614   0.16000
     Eigenvalues ---    0.16000   0.16000   0.16000   0.16000   0.22000
     Eigenvalues ---    0.22422   0.24442   0.25000   0.35406   0.35728
     Eigenvalues ---    0.35970   0.35990   0.43621   0.45785   0.48169
     Eigenvalues ---    0.49389   0.54882   0.56881   0.57480   0.60970
 RFO step:  Lambda=-1.08696905D-04 EMin= 2.26525640D-02
 Linear search not attempted -- first point.
 Iteration  1 RMS(Cart)=  0.00444354 RMS(Int)=  0.00001860
 Iteration  2 RMS(Cart)=  0.00001452 RMS(Int)=  0.00000023
 Iteration  3 RMS(Cart)=  0.00000000 RMS(Int)=  0.00000023
 ITry= 1 IFail=0 DXMaxC= 2.66D-02 DCOld= 1.00D+10 DXMaxT= 3.00D-01 DXLimC= 3.00D+00 Rises=F
 ClnCor:  largest displacement from symmetrization is 1.02D-12 for atom    11.
 Variable       Old X    -DE/DX   Delta X   Delta X   Delta X     New X
                                 (Linear)    (Quad)   (Total)
    R1        2.53498   0.00433   0.00000   0.00761   0.00761   2.54259
    R2        1.81937   0.00192   0.00000   0.00350   0.00350   1.82287
    R3        2.48913  -0.00105   0.00000  -0.00173  -0.00173   2.48740
    R4        2.51605   0.00051   0.00000   0.00085   0.00085   2.51690
    R5        2.63173  -0.00014   0.00000  -0.00036  -0.00036   2.63137
    R6        2.59740   0.00020   0.00000   0.00041   0.00041   2.59781
    R7        2.04128  -0.00093   0.00000  -0.00258  -0.00258   2.03870
    R8        2.60360  -0.00052   0.00000  -0.00099  -0.00099   2.60261
    R9        2.05020  -0.00146   0.00000  -0.00411  -0.00411   2.04609
   R10        2.62604   0.00031   0.00000   0.00073   0.00073   2.62677
   R11        2.04509  -0.00068   0.00000  -0.00189  -0.00189   2.04320
   R12        2.04097  -0.00065   0.00000  -0.00179  -0.00179   2.03917
    A1        1.85547   0.00251   0.00000   0.01570   0.01570   1.87117
    A2        2.05525   0.00087   0.00000   0.00331   0.00331   2.05856
    A3        2.05194  -0.00066   0.00000  -0.00254  -0.00254   2.04940
    A4        2.06888   0.00111   0.00000   0.00455   0.00455   2.07343
    A5        2.16236  -0.00045   0.00000  -0.00201  -0.00201   2.16035
    A6        2.04920   0.00023   0.00000   0.00094   0.00094   2.05014
    A7        2.09344  -0.00012   0.00000  -0.00051  -0.00051   2.09293
    A8        2.14055  -0.00011   0.00000  -0.00044  -0.00044   2.14011
    A9        2.15386  -0.00061   0.00000  -0.00264  -0.00264   2.15122
   A10        2.02490  -0.00004   0.00000  -0.00083  -0.00083   2.02406
   A11        2.10443   0.00065   0.00000   0.00347   0.00347   2.10790
   A12        2.08852  -0.00022   0.00000  -0.00078  -0.00078   2.08774
   A13        2.09426  -0.00001   0.00000  -0.00035  -0.00035   2.09391
   A14        2.10040   0.00023   0.00000   0.00113   0.00113   2.10153
   A15        2.05718   0.00018   0.00000   0.00118   0.00118   2.05835
   A16        2.10510  -0.00018   0.00000  -0.00115  -0.00115   2.10395
   A17        2.12091  -0.00000   0.00000  -0.00002  -0.00002   2.12088
    D1        0.00000   0.00000   0.00000   0.00000   0.00000   0.00000
    D2        3.14159   0.00000   0.00000   0.00000   0.00000   3.14159
    D3        3.14159   0.00000   0.00000   0.00000   0.00000   3.14159
    D4        0.00000  -0.00000   0.00000  -0.00000   0.00000   0.00000
    D5       -0.00000   0.00000   0.00000   0.00000   0.00000   0.00000
    D6        3.14159   0.00000   0.00000   0.00000   0.00000   3.14159
    D7        3.14159  -0.00000   0.00000  -0.00000   0.00000   3.14159
    D8        0.00000  -0.00000   0.00000  -0.00000  -0.00000   0.00000
    D9       -0.00000  -0.00000   0.00000  -0.00000   0.00000   0.00000
   D10        3.14159   0.00000   0.00000  -0.00000   0.00000   3.14159
   D11        0.00000   0.00000   0.00000   0.00000   0.00000   0.00000
   D12        3.14159   0.00000   0.00000   0.00000   0.00000   3.14159
   D13        3.14159   0.00000   0.00000   0.00000   0.00000   3.14159
   D14       -0.00000   0.00000   0.00000   0.00000   0.00000   0.00000
   D15       -0.00000   0.00000   0.00000  -0.00000   0.00000   0.00000
   D16        3.14159   0.00000   0.00000  -0.00000   0.00000   3.14159
   D17        3.14159   0.00000   0.00000  -0.00000   0.00000   3.14159
   D18       -0.00000   0.00000   0.00000  -0.00000   0.00000   0.00000
   D19        0.00000  -0.00000   0.00000   0.00000  -0.00000   0.00000
   D20        3.14159  -0.00000   0.00000   0.00000   0.00000   3.14159
   D21        3.14159  -0.00000   0.00000   0.00000   0.00000   3.14159
   D22       -0.00000  -0.00000   0.00000  -0.00000   0.00000   0.00000
         Item               Value     Threshold  Converged?
 Maximum Force            0.004331     0.000450     NO 
 RMS     Force            0.000864     0.000300     NO 
 Maximum Displacement     0.026587     0.001800     NO 
 RMS     Displacement     0.004440     0.001200     NO 
 Predicted change in Energy=-5.437128D-05
 Lowest energy point so far.  Saving SCF results.
 GradGradGradGradGradGradGradGradGradGradGradGradGradGradGradGradGradGrad

 Leave Link  103 at Fri Aug 27 00:09:57 2021, MaxMem= 17179869184 cpu:        62.4
 (Enter /public3/home/sc51754/softwares/g09e01/l202.exe)
                          Input orientation:                          
 ---------------------------------------------------------------------
 Center     Atomic      Atomic             Coordinates (Angstroms)
 Number     Number       Type             X           Y           Z
 ---------------------------------------------------------------------
      1          8           0        0.004100    2.242464   -0.000000
      2          7           0       -1.168684    0.293429   -0.000000
      3          6           0        0.001060    0.896986   -0.000000
      4          6           0        1.219776    0.223432    0.000000
      5          6           0       -1.183886   -1.038369   -0.000000
      6          6           0        1.184656   -1.150822    0.000000
      7          6           0       -0.040896   -1.806719    0.000000
      8          1           0       -0.916683    2.529952   -0.000000
      9          1           0        2.143004    0.781581    0.000000
     10          1           0       -2.162646   -1.501363   -0.000000
     11          1           0        2.107170   -1.714727    0.000000
     12          1           0       -0.104190   -2.883944    0.000000
 ---------------------------------------------------------------------
                    Distance matrix (angstroms):
                    1          2          3          4          5
     1  O    0.000000
     2  N    2.274678   0.000000
     3  C    1.345481   1.316276   0.000000
     4  C    2.356769   2.389485   1.392460   0.000000
     5  C    3.489294   1.331884   2.269294   2.714725   0.000000
     6  C    3.592785   2.761172   2.365253   1.374703   2.371211
     7  C    4.049433   2.383804   2.704030   2.389729   1.377240
     8  H    0.964620   2.250676   1.873187   3.143962   3.578311
     9  H    2.590191   3.347472   2.145051   1.078833   3.792152
    10  H    4.325625   2.051643   3.230124   3.796801   1.082744
    11  H    4.481324   3.842383   3.355107   2.131649   3.359838
    12  H    5.127552   3.350947   3.782395   3.377673   2.138199
                    6          7          8          9         10
     6  C    0.000000
     7  C    1.390028   0.000000
     8  H    4.238364   4.424219   0.000000
     9  H    2.156992   3.386549   3.523987   0.000000
    10  H    3.365607   2.143610   4.219470   4.873444   0.000000
    11  H    1.081212   2.150035   5.211621   2.496565   4.275144
    12  H    2.159823   1.079084   5.474525   4.299530   2.479672
                   11         12
    11  H    0.000000
    12  H    2.501436   0.000000
 Stoichiometry    C5H5NO
 Framework group  CS[SG(C5H5NO)]
 Deg. of freedom    21
 Full point group                 CS      NOp   2
 RotChk:  IX=0 Diff= 1.58D-03
 Largest Abelian subgroup         CS      NOp   2
 Largest concise Abelian subgroup C1      NOp   1
                         Standard orientation:                         
 ---------------------------------------------------------------------
 Center     Atomic      Atomic             Coordinates (Angstroms)
 Number     Number       Type             X           Y           Z
 ---------------------------------------------------------------------
      1          8           0        0.001540    2.243422    0.000000
      2          7           0       -1.169070    0.293080    0.000000
      3          6           0       -0.000000    0.897942    0.000000
      4          6           0        1.219466    0.225746   -0.000000
      5          6           0       -1.182787   -1.038733    0.000000
      6          6           0        1.185879   -1.148546   -0.000000
      7          6           0       -0.038941   -1.805808   -0.000000
      8          1           0       -0.919564    2.529883    0.000000
      9          1           0        2.142071    0.784925   -0.000000
     10          1           0       -2.161030   -1.502819    0.000000
     11          1           0        2.109021   -1.711422   -0.000000
     12          1           0       -0.101034   -2.883104   -0.000000
 ---------------------------------------------------------------------
 Rotational constants (GHZ):      5.9287476      2.7985686      1.9011580
 Leave Link  202 at Fri Aug 27 00:09:57 2021, MaxMem= 17179869184 cpu:         2.0
 (Enter /public3/home/sc51754/softwares/g09e01/l301.exe)
 Basis read from rwf:  (5D, 7F)
 No pseudopotential information found on rwf file.
 There are   223 symmetry adapted cartesian basis functions of A'  symmetry.
 There are    97 symmetry adapted cartesian basis functions of A"  symmetry.
 There are   190 symmetry adapted basis functions of A'  symmetry.
 There are    90 symmetry adapted basis functions of A"  symmetry.
   280 basis functions,   475 primitive gaussians,   320 cartesian basis functions
    25 alpha electrons       25 beta electrons
       nuclear repulsion energy       277.3878404088 Hartrees.
 IExCor=20419 DFT=T Ex+Corr=CAM-B3LYP ExCW=0 ScaHFX=  1.000000
 ScaDFX=  1.000000  1.000000  1.000000  0.810000 ScalE2=  1.000000  1.000000
 IRadAn=      0 IRanWt=     -1 IRanGd=            0 ICorTp=0 IEmpDi=  4
  HFx wShort=  0.000000 wLong=  0.330000 cFull=  0.190000 cShort=  0.000000 cLong=  0.460000
  DFx wShort=  0.000000 wLong=  0.330000 cFull=  0.190000 cShort=  0.000000 cLong=  0.460000
 NAtoms=   12 NActive=   12 NUniq=   12 SFac= 1.00D+00 NAtFMM=   60 NAOKFM=F Big=F
 Integral buffers will be    131072 words long.
 Raffenetti 2 integral format.
 Two-electron integral symmetry is turned on.
 No density basis found on file   724.
 Leave Link  301 at Fri Aug 27 00:09:57 2021, MaxMem= 17179869184 cpu:         1.2
 (Enter /public3/home/sc51754/softwares/g09e01/l302.exe)
 NPDir=0 NMtPBC=     1 NCelOv=     1 NCel=       1 NClECP=     1 NCelD=      1
         NCelK=      1 NCelE2=     1 NClLst=     1 CellRange=     0.0.
 One-electron integrals computed using PRISM.
 NBasis=   280 RedAO= T EigKep=  2.16D-04  NBF=   190    90
 NBsUse=   280 1.00D-06 EigRej= -1.00D+00 NBFU=   190    90
 Precomputing XC quadrature grid using
 IXCGrd= 4 IRadAn=           0 IRanWt=          -1 IRanGd=           0 AccXCQ= 0.00D+00.
 Generated NRdTot=       0 NPtTot=           0 NUsed=           0 NTot=          32
 NSgBfM=   320   320   320   320   320 MxSgAt=    12 MxSgA2=    12.
 Leave Link  302 at Fri Aug 27 00:09:58 2021, MaxMem= 17179869184 cpu:        44.9
 (Enter /public3/home/sc51754/softwares/g09e01/l303.exe)
 DipDrv:  MaxL=1.
 Leave Link  303 at Fri Aug 27 00:09:58 2021, MaxMem= 17179869184 cpu:        11.6
 (Enter /public3/home/sc51754/softwares/g09e01/l401.exe)
 Initial guess from the checkpoint file:  "HY_CAM-B3LYP_PC2_OPT_FREQ.chk"
 B after Tr=    -0.000000    0.000000    0.000000
         Rot=    1.000000    0.000000   -0.000000   -0.000824 Ang=  -0.09 deg.
 Guess basis will be translated and rotated to current coordinates.
 JPrj=2 DoOrth=T DoCkMO=T.
 Initial guess orbital symmetries:
       Occupied  (A') (A') (A') (A') (A') (A') (A') (A') (A') (A')
                 (A') (A') (A') (A') (A') (A') (A') (A") (A') (A')
                 (A') (A") (A") (A') (A")
       Virtual   (A') (A') (A') (A') (A') (A') (A') (A') (A') (A')
                 (A') (A') (A') (A') (A') (A') (A') (A') (A') (A')
                 (A') (A') (A') (A') (A') (A') (A') (A') (A') (A')
                 (A') (A') (A') (A') (A') (A') (A') (A') (A') (A')
                 (A') (A') (A') (A') (A') (A') (A') (A') (A') (A')
                 (A') (A') (A') (A') (A') (A') (A') (A') (A') (A')
                 (A') (A') (A') (A') (A') (A') (A') (A') (A') (A')
                 (A') (A') (A') (A') (A') (A') (A') (A') (A') (A')
                 (A') (A') (A') (A') (A') (A') (A') (A') (A') (A')
                 (A') (A') (A') (A') (A') (A') (A') (A') (A') (A')
                 (A') (A') (A') (A') (A') (A') (A') (A') (A') (A')
                 (A') (A') (A') (A') (A') (A') (A') (A') (A') (A')
                 (A') (A') (A') (A') (A') (A') (A') (A') (A') (A')
                 (A') (A') (A') (A') (A') (A') (A') (A') (A') (A')
                 (A') (A') (A') (A') (A') (A') (A') (A') (A') (A')
                 (A') (A') (A') (A') (A') (A') (A') (A') (A') (A')
                 (A') (A') (A') (A') (A') (A') (A') (A') (A') (A")
                 (A") (A") (A") (A") (A") (A") (A") (A") (A") (A")
                 (A") (A") (A") (A") (A") (A") (A") (A") (A") (A")
                 (A") (A") (A") (A") (A") (A") (A") (A") (A") (A")
                 (A") (A") (A") (A") (A") (A") (A") (A") (A") (A")
                 (A") (A") (A") (A") (A") (A") (A") (A") (A") (A")
                 (A") (A") (A") (A") (A") (A") (A") (A") (A") (A")
                 (A") (A") (A") (A") (A") (A") (A") (A") (A") (A")
                 (A") (A") (A") (A") (A") (A") (A") (A") (A") (A")
                 (A") (A") (A") (A") (A")
 The electronic state of the initial guess is 1-A'.
 Generating alternative initial guess.
 ExpMin= 7.41D-02 ExpMax= 1.48D+04 ExpMxC= 5.05D+02 IAcc=2 IRadAn=         4 AccDes= 0.00D+00
 Harris functional with IExCor=20419 and IRadAn=       4 diagonalized for initial guess.
 HarFok:  IExCor=20419 AccDes= 0.00D+00 IRadAn=         4 IDoV= 1 UseB2=F ITyADJ=14
 ICtDFT=  3500011 ScaDFX=  1.000000  1.000000  1.000000  1.000000
 FoFCou: FMM=F IPFlag=           0 FMFlag=      100000 FMFlg1=           0
         NFxFlg=           0 DoJE=T BraDBF=F KetDBF=T FulRan=T
         wScrn=  0.000000 ICntrl=     500 IOpCl=  0 I1Cent=   200000004 NGrid=           0
         NMat0=    1 NMatS0=      1 NMatT0=    0 NMatD0=    1 NMtDS0=    0 NMtDT0=    0
 Petite list used in FoFCou.
 Harris En= -311.340581563823    
 Leave Link  401 at Fri Aug 27 00:10:00 2021, MaxMem= 17179869184 cpu:        68.0
 (Enter /public3/home/sc51754/softwares/g09e01/l502.exe)
 Closed shell SCF:
 Using DIIS extrapolation, IDIIS=  1040.
 Integral symmetry usage will be decided dynamically.
 Keep R1 ints in memory in symmetry-blocked form, NReq=2335173138.
 IVT=      348658 IEndB=      348658 NGot= 17179869184 MDV= 16785904737
 LenX= 16785904737 LenY= 16785801896
 Requested convergence on RMS density matrix=1.00D-08 within 128 cycles.
 Requested convergence on MAX density matrix=1.00D-06.
 Requested convergence on             energy=1.00D-06.
 No special actions if energy rises.
 FoFCou: FMM=F IPFlag=           0 FMFlag=           0 FMFlg1=           0
         NFxFlg=           0 DoJE=F BraDBF=F KetDBF=F FulRan=T
         wScrn=  0.000000 ICntrl=     600 IOpCl=  0 I1Cent=           0 NGrid=           0
         NMat0=    1 NMatS0=  39340 NMatT0=    0 NMatD0=    1 NMtDS0=    0 NMtDT0=    0
 Petite list used in FoFCou.
 Integral accuracy reduced to 1.0D-05 until final iterations.

 Cycle   1  Pass 0  IDiag  1:
 E= -323.500326895335    
 DIIS: error= 2.90D-04 at cycle   1 NSaved=   1.
 NSaved= 1 IEnMin= 1 EnMin= -323.500326895335     IErMin= 1 ErrMin= 2.90D-04
 ErrMax= 2.90D-04  0.00D+00 EMaxC= 1.00D-01 BMatC= 3.14D-05 BMatP= 3.14D-05
 IDIUse=3 WtCom= 9.97D-01 WtEn= 2.90D-03
 Coeff-Com:  0.100D+01
 Coeff-En:   0.100D+01
 Coeff:      0.100D+01
 Gap=     0.690 Goal=   None    Shift=    0.000
 RMSDP=2.24D-05 MaxDP=7.65D-04              OVMax= 1.08D-03

 Cycle   2  Pass 0  IDiag  1:
 E= -323.500354088619     Delta-E=       -0.000027193284 Rises=F Damp=F
 DIIS: error= 9.96D-05 at cycle   2 NSaved=   2.
 NSaved= 2 IEnMin= 2 EnMin= -323.500354088619     IErMin= 2 ErrMin= 9.96D-05
 ErrMax= 9.96D-05  0.00D+00 EMaxC= 1.00D-01 BMatC= 1.71D-06 BMatP= 3.14D-05
 IDIUse=1 WtCom= 1.00D+00 WtEn= 0.00D+00
 Coeff-Com:  0.290D-01 0.971D+00
 Coeff:      0.290D-01 0.971D+00
 Gap=     0.312 Goal=   None    Shift=    0.000
 RMSDP=6.27D-06 MaxDP=3.45D-04 DE=-2.72D-05 OVMax= 7.93D-04

 Initial convergence to 1.0D-05 achieved.  Increase integral accuracy.
 Cycle   3  Pass 1  IDiag  1:
 E= -323.500306307433     Delta-E=        0.000047781186 Rises=F Damp=F
 DIIS: error= 8.61D-05 at cycle   1 NSaved=   1.
 NSaved= 1 IEnMin= 1 EnMin= -323.500306307433     IErMin= 1 ErrMin= 8.61D-05
 ErrMax= 8.61D-05  0.00D+00 EMaxC= 1.00D-01 BMatC= 1.97D-06 BMatP= 1.97D-06
 IDIUse=1 WtCom= 1.00D+00 WtEn= 0.00D+00
 Coeff-Com:  0.100D+01
 Coeff:      0.100D+01
 Gap=     0.311 Goal=   None    Shift=    0.000
 RMSDP=6.27D-06 MaxDP=3.45D-04 DE= 4.78D-05 OVMax= 6.46D-04

 Cycle   4  Pass 1  IDiag  1:
 E= -323.500305406449     Delta-E=        0.000000900985 Rises=F Damp=F
 DIIS: error= 1.20D-04 at cycle   2 NSaved=   2.
 NSaved= 2 IEnMin= 1 EnMin= -323.500306307433     IErMin= 1 ErrMin= 8.61D-05
 ErrMax= 1.20D-04  0.00D+00 EMaxC= 1.00D-01 BMatC= 3.25D-06 BMatP= 1.97D-06
 IDIUse=3 WtCom= 4.78D-01 WtEn= 5.22D-01
 Coeff-Com:  0.563D+00 0.437D+00
 Coeff-En:   0.608D+00 0.392D+00
 Coeff:      0.587D+00 0.413D+00
 Gap=     0.312 Goal=   None    Shift=    0.000
 RMSDP=3.52D-06 MaxDP=2.11D-04 DE= 9.01D-07 OVMax= 4.25D-04

 Cycle   5  Pass 1  IDiag  1:
 E= -323.500307790485     Delta-E=       -0.000002384036 Rises=F Damp=F
 DIIS: error= 6.67D-06 at cycle   3 NSaved=   3.
 NSaved= 3 IEnMin= 3 EnMin= -323.500307790485     IErMin= 3 ErrMin= 6.67D-06
 ErrMax= 6.67D-06  0.00D+00 EMaxC= 1.00D-01 BMatC= 9.22D-09 BMatP= 1.97D-06
 IDIUse=1 WtCom= 1.00D+00 WtEn= 0.00D+00
 Coeff-Com:  0.717D-01 0.215D-01 0.907D+00
 Coeff:      0.717D-01 0.215D-01 0.907D+00
 Gap=     0.312 Goal=   None    Shift=    0.000
 RMSDP=5.05D-07 MaxDP=1.70D-05 DE=-2.38D-06 OVMax= 4.80D-05

 Cycle   6  Pass 1  IDiag  1:
 E= -323.500307797643     Delta-E=       -0.000000007158 Rises=F Damp=F
 DIIS: error= 3.58D-06 at cycle   4 NSaved=   4.
 NSaved= 4 IEnMin= 4 EnMin= -323.500307797643     IErMin= 4 ErrMin= 3.58D-06
 ErrMax= 3.58D-06  0.00D+00 EMaxC= 1.00D-01 BMatC= 3.41D-09 BMatP= 9.22D-09
 IDIUse=1 WtCom= 1.00D+00 WtEn= 0.00D+00
 Coeff-Com: -0.438D-01-0.512D-01 0.472D+00 0.623D+00
 Coeff:     -0.438D-01-0.512D-01 0.472D+00 0.623D+00
 Gap=     0.312 Goal=   None    Shift=    0.000
 RMSDP=2.10D-07 MaxDP=1.08D-05 DE=-7.16D-09 OVMax= 2.63D-05

 Cycle   7  Pass 1  IDiag  1:
 E= -323.500307801277     Delta-E=       -0.000000003634 Rises=F Damp=F
 DIIS: error= 1.32D-06 at cycle   5 NSaved=   5.
 NSaved= 5 IEnMin= 5 EnMin= -323.500307801277     IErMin= 5 ErrMin= 1.32D-06
 ErrMax= 1.32D-06  0.00D+00 EMaxC= 1.00D-01 BMatC= 1.19D-10 BMatP= 3.41D-09
 IDIUse=1 WtCom= 1.00D+00 WtEn= 0.00D+00
 Coeff-Com: -0.170D-01-0.158D-01 0.851D-01 0.172D+00 0.775D+00
 Coeff:     -0.170D-01-0.158D-01 0.851D-01 0.172D+00 0.775D+00
 Gap=     0.312 Goal=   None    Shift=    0.000
 RMSDP=5.78D-08 MaxDP=2.34D-06 DE=-3.63D-09 OVMax= 9.49D-06

 Cycle   8  Pass 1  IDiag  1:
 E= -323.500307801470     Delta-E=       -0.000000000194 Rises=F Damp=F
 DIIS: error= 3.95D-07 at cycle   6 NSaved=   6.
 NSaved= 6 IEnMin= 6 EnMin= -323.500307801470     IErMin= 6 ErrMin= 3.95D-07
 ErrMax= 3.95D-07  0.00D+00 EMaxC= 1.00D-01 BMatC= 4.85D-11 BMatP= 1.19D-10
 IDIUse=1 WtCom= 1.00D+00 WtEn= 0.00D+00
 Coeff-Com:  0.186D-02 0.463D-02-0.721D-01-0.746D-01 0.386D+00 0.754D+00
 Coeff:      0.186D-02 0.463D-02-0.721D-01-0.746D-01 0.386D+00 0.754D+00
 Gap=     0.312 Goal=   None    Shift=    0.000
 RMSDP=3.47D-08 MaxDP=1.40D-06 DE=-1.94D-10 OVMax= 5.10D-06

 Cycle   9  Pass 1  IDiag  1:
 E= -323.500307801528     Delta-E=       -0.000000000058 Rises=F Damp=F
 DIIS: error= 1.26D-07 at cycle   7 NSaved=   7.
 NSaved= 7 IEnMin= 7 EnMin= -323.500307801528     IErMin= 7 ErrMin= 1.26D-07
 ErrMax= 1.26D-07  0.00D+00 EMaxC= 1.00D-01 BMatC= 4.24D-12 BMatP= 4.85D-11
 IDIUse=1 WtCom= 1.00D+00 WtEn= 0.00D+00
 Coeff-Com:  0.272D-02 0.369D-02-0.374D-01-0.503D-01 0.783D-01 0.305D+00
 Coeff-Com:  0.698D+00
 Coeff:      0.272D-02 0.369D-02-0.374D-01-0.503D-01 0.783D-01 0.305D+00
 Coeff:      0.698D+00
 Gap=     0.312 Goal=   None    Shift=    0.000
 RMSDP=8.80D-09 MaxDP=4.10D-07 DE=-5.79D-11 OVMax= 1.31D-06

 SCF Done:  E(RCAM-B3LYP) =  -323.500307802     A.U. after    9 cycles
            NFock=  9  Conv=0.88D-08     -V/T= 2.0032
 KE= 3.224527653867D+02 PE=-1.309861675519D+03 EE= 3.865207619220D+02
 Leave Link  502 at Fri Aug 27 00:10:07 2021, MaxMem= 17179869184 cpu:       315.3
 (Enter /public3/home/sc51754/softwares/g09e01/l701.exe)
 Compute integral first derivatives.
 ... and contract with generalized density number  0.
 Leave Link  701 at Fri Aug 27 00:10:08 2021, MaxMem= 17179869184 cpu:        59.2
 (Enter /public3/home/sc51754/softwares/g09e01/l702.exe)
 L702 exits ... SP integral derivatives will be done elsewhere.
 Leave Link  702 at Fri Aug 27 00:10:08 2021, MaxMem= 17179869184 cpu:         0.4
 (Enter /public3/home/sc51754/softwares/g09e01/l703.exe)
 Compute integral first derivatives, UseDBF=F ICtDFT=           0.
 Integral derivatives from FoFJK, PRISM(SPDF).
 Calling FoFJK, ICntrl=      2127 FMM=F ISym2X=1 I1Cent= 0 IOpClX= 0 NMat=1 NMatS=1 NMatT=0.
 FoFJK:  IHMeth= 1 ICntrl=    2127 DoSepK=T KAlg= 0 I1Cent=   0 FoldK=F
 IRaf=         1 NMat=   1 IRICut=       1 DoRegI=T DoRafI=F ISym2E= 1.
 FoFCou: FMM=F IPFlag=           0 FMFlag=      100000 FMFlg1=         800
         NFxFlg=           0 DoJE=F BraDBF=F KetDBF=F FulRan=T
         wScrn=  0.000000 ICntrl=    2527 IOpCl=  0 I1Cent=           0 NGrid=           0
         NMat0=    1 NMatS0=      1 NMatT0=    0 NMatD0=    1 NMtDS0=    0 NMtDT0=    0
 Petite list used in FoFCou.
 Leave Link  703 at Fri Aug 27 00:10:11 2021, MaxMem= 17179869184 cpu:       218.9
 (Enter /public3/home/sc51754/softwares/g09e01/l716.exe)
 Dipole        = 1.98627744D-01-5.08219474D-01-5.96262617D-32
 ***** Axes restored to original set *****
 -------------------------------------------------------------------
 Center     Atomic                   Forces (Hartrees/Bohr)
 Number     Number              X              Y              Z
 -------------------------------------------------------------------
      1        8           0.000511493    0.000849287   -0.000000000
[...]
     30  0.791261D-02  0.000000D+00  0.000000D+00 -0.266773D-03  0.000000D+00
     31  0.000000D+00  0.635859D-04 -0.858814D-04  0.000000D+00  0.689415D-03
     32  0.000000D+00  0.139175D-04 -0.421340D-03  0.000000D+00 -0.493711D-03
     33  0.559279D-02  0.000000D+00  0.000000D+00 -0.373056D-03  0.000000D+00
     34  0.000000D+00 -0.104990D-03 -0.243006D-03  0.000000D+00  0.161178D-03
     35  0.000000D+00  0.106815D-03  0.170466D-03  0.000000D+00  0.241677D-03
     36 -0.343180D-01  0.000000D+00  0.000000D+00 -0.492405D-05  0.000000D+00
               26            27            28            29            30 
     26  0.137568D+00
     27  0.000000D+00  0.246687D-01
     28 -0.393365D-04  0.000000D+00  0.306188D+00
     29  0.120129D-03  0.000000D+00  0.112447D+00  0.118397D+00
     30  0.000000D+00 -0.166282D-02  0.000000D+00  0.000000D+00  0.278062D-01
     31  0.392698D-03  0.000000D+00 -0.934989D-03  0.870851D-03  0.000000D+00
     32  0.122594D-02  0.000000D+00 -0.725831D-03  0.442982D-03  0.000000D+00
     33  0.000000D+00 -0.481533D-02  0.000000D+00  0.000000D+00 -0.520314D-03
     34 -0.130124D-02  0.000000D+00  0.663325D-03 -0.682943D-03  0.000000D+00
     35 -0.404319D-03  0.000000D+00  0.396161D-03  0.534583D-03  0.000000D+00
     36  0.000000D+00  0.472022D-03  0.000000D+00  0.000000D+00 -0.369116D-02
               31            32            33            34            35 
     31  0.279962D+00
     32 -0.135202D+00  0.141476D+00
     33  0.000000D+00  0.000000D+00  0.279705D-01
     34  0.109816D-02  0.746650D-03  0.000000D+00  0.581704D-01
     35 -0.302563D-03  0.677048D-03  0.000000D+00  0.176380D-01  0.365808D+00
     36  0.000000D+00  0.000000D+00 -0.375828D-02  0.000000D+00  0.000000D+00
               36 
     36  0.255398D-01
 FormGI is forming the generalized inverse of G from B-inverse, IUseBI=4.
 Leave Link  716 at Fri Aug 27 00:11:18 2021, MaxMem= 17179869184 cpu:        27.4
 (Enter /public3/home/sc51754/softwares/g09e01/l103.exe)

 GradGradGradGradGradGradGradGradGradGradGradGradGradGradGradGradGradGrad
 Berny optimization.
 Red2BG is reusing G-inverse.
 Internal  Forces:  Max     0.000323174 RMS     0.000068058
 Search for a local minimum.
 Step number   1 out of a maximum of    2
 All quantities printed in internal units (Hartrees-Bohrs-Radians)
 Second derivative matrix not updated -- analytic derivatives used.
 ITU=  0
     Eigenvalues ---    0.01354   0.01654   0.01814   0.02277   0.02408
     Eigenvalues ---    0.02810   0.03164   0.03816   0.04564   0.10585
     Eigenvalues ---    0.11219   0.12253   0.13217   0.15781   0.19390
     Eigenvalues ---    0.20396   0.21957   0.23772   0.31538   0.35746
     Eigenvalues ---    0.36293   0.36736   0.36890   0.39320   0.45176
     Eigenvalues ---    0.46638   0.49632   0.52961   0.53986   0.59891
 Angle between quadratic step and forces=  24.90 degrees.
 Linear search not attempted -- first point.
 Iteration  1 RMS(Cart)=  0.00017352 RMS(Int)=  0.00000005
 Iteration  2 RMS(Cart)=  0.00000008 RMS(Int)=  0.00000001
 ITry= 1 IFail=0 DXMaxC= 5.45D-04 DCOld= 1.00D+10 DXMaxT= 3.00D-01 DXLimC= 3.00D+00 Rises=F
 ClnCor:  largest displacement from symmetrization is 1.94D-11 for atom     1.
 Variable       Old X    -DE/DX   Delta X   Delta X   Delta X     New X
                                 (Linear)    (Quad)   (Total)
    R1        2.54318   0.00024   0.00000   0.00082   0.00082   2.54399
    R2        1.82220  -0.00004   0.00000  -0.00006  -0.00006   1.82213
    R3        2.48668  -0.00032   0.00000  -0.00088  -0.00088   2.48579
    R4        2.51716   0.00015   0.00000   0.00055   0.00055   2.51771
    R5        2.63068   0.00005   0.00000   0.00023   0.00023   2.63091
    R6        2.59778   0.00001   0.00000  -0.00009  -0.00009   2.59769
    R7        2.03873   0.00004   0.00000   0.00009   0.00009   2.03881
    R8        2.60254  -0.00003   0.00000  -0.00027  -0.00027   2.60227
    R9        2.04576   0.00005   0.00000   0.00010   0.00010   2.04586
   R10        2.62667  -0.00000   0.00000   0.00020   0.00020   2.62687
   R11        2.04299   0.00003   0.00000   0.00009   0.00009   2.04308
   R12        2.03924   0.00005   0.00000   0.00014   0.00014   2.03938
    A1        1.86644  -0.00010   0.00000  -0.00069  -0.00069   1.86575
    A2        2.05849  -0.00004   0.00000  -0.00022  -0.00022   2.05827
    A3        2.05081  -0.00004   0.00000  -0.00000  -0.00000   2.05080
    A4        2.07134  -0.00007   0.00000  -0.00055  -0.00055   2.07080
    A5        2.16104   0.00011   0.00000   0.00055   0.00055   2.16158
    A6        2.04973  -0.00004   0.00000  -0.00030  -0.00030   2.04943
    A7        2.09357   0.00005   0.00000   0.00031   0.00031   2.09388
    A8        2.13988  -0.00001   0.00000  -0.00001  -0.00001   2.13987
    A9        2.15078  -0.00000   0.00000  -0.00011  -0.00011   2.15067
   A10        2.02361  -0.00003   0.00000  -0.00024  -0.00024   2.02337
   A11        2.10880   0.00003   0.00000   0.00034   0.00034   2.10914
   A12        2.08780  -0.00003   0.00000  -0.00006  -0.00006   2.08773
   A13        2.09358   0.00002   0.00000   0.00015   0.00015   2.09373
   A14        2.10181   0.00001   0.00000  -0.00009  -0.00009   2.10172
   A15        2.05853  -0.00000   0.00000   0.00015   0.00015   2.05868
   A16        2.10405   0.00002   0.00000   0.00012   0.00012   2.10417
   A17        2.12060  -0.00002   0.00000  -0.00027  -0.00027   2.12034
    D1        0.00000   0.00000   0.00000  -0.00000  -0.00000   0.00000
    D2        3.14159  -0.00000   0.00000  -0.00000   0.00000   3.14159
    D3        3.14159  -0.00000   0.00000  -0.00000   0.00000   3.14159
    D4       -0.00000  -0.00000   0.00000   0.00000   0.00000   0.00000
    D5        0.00000  -0.00000   0.00000   0.00000   0.00000   0.00000
    D6        3.14159  -0.00000   0.00000  -0.00000   0.00000   3.14159
    D7        3.14159   0.00000   0.00000  -0.00000   0.00000   3.14159
    D8       -0.00000   0.00000   0.00000   0.00000   0.00000   0.00000
    D9        0.00000   0.00000   0.00000  -0.00000   0.00000   0.00000
   D10        3.14159   0.00000   0.00000   0.00000   0.00000   3.14159
   D11       -0.00000  -0.00000   0.00000   0.00000   0.00000   0.00000
   D12        3.14159  -0.00000   0.00000  -0.00000   0.00000   3.14159
   D13        3.14159   0.00000   0.00000  -0.00000   0.00000   3.14159
   D14        0.00000   0.00000   0.00000  -0.00000   0.00000   0.00000
   D15       -0.00000   0.00000   0.00000  -0.00000   0.00000   0.00000
   D16        3.14159   0.00000   0.00000  -0.00000   0.00000   3.14159
   D17        3.14159   0.00000   0.00000   0.00000   0.00000   3.14159
   D18       -0.00000   0.00000   0.00000   0.00000   0.00000   0.00000
   D19        0.00000  -0.00000   0.00000   0.00000   0.00000   0.00000
   D20        3.14159   0.00000   0.00000   0.00000   0.00000   3.14159
   D21        3.14159  -0.00000   0.00000   0.00000   0.00000   3.14159
   D22        0.00000   0.00000   0.00000   0.00000   0.00000   0.00000
         Item               Value     Threshold  Converged?
 Maximum Force            0.000323     0.000450     YES
 RMS     Force            0.000068     0.000300     YES
 Maximum Displacement     0.000545     0.001800     YES
 RMS     Displacement     0.000174     0.001200     YES
 Predicted change in Energy=-4.189211D-07
 Optimization completed.
    -- Stationary point found.
                           ----------------------------
                           !   Optimized Parameters   !
                           ! (Angstroms and Degrees)  !
 --------------------------                            --------------------------
 ! Name  Definition              Value          Derivative Info.                !
 --------------------------------------------------------------------------------
 ! R1    R(1,3)                  1.3458         -DE/DX =    0.0002              !
 ! R2    R(1,8)                  0.9643         -DE/DX =    0.0                 !
 ! R3    R(2,3)                  1.3159         -DE/DX =   -0.0003              !
 ! R4    R(2,5)                  1.332          -DE/DX =    0.0001              !
 ! R5    R(3,4)                  1.3921         -DE/DX =    0.0                 !
 ! R6    R(4,6)                  1.3747         -DE/DX =    0.0                 !
 ! R7    R(4,9)                  1.0788         -DE/DX =    0.0                 !
 ! R8    R(5,7)                  1.3772         -DE/DX =    0.0                 !
 ! R9    R(5,10)                 1.0826         -DE/DX =    0.0                 !
 ! R10   R(6,7)                  1.39           -DE/DX =    0.0                 !
 ! R11   R(6,11)                 1.0811         -DE/DX =    0.0                 !
 ! R12   R(7,12)                 1.0791         -DE/DX =    0.0                 !
 ! A1    A(3,1,8)              106.9394         -DE/DX =   -0.0001              !
 ! A2    A(3,2,5)              117.943          -DE/DX =    0.0                 !
 ! A3    A(1,3,2)              117.5025         -DE/DX =    0.0                 !
 ! A4    A(1,3,4)              118.6791         -DE/DX =   -0.0001              !
 ! A5    A(2,3,4)              123.8183         -DE/DX =    0.0001              !
 ! A6    A(3,4,6)              117.441          -DE/DX =    0.0                 !
 ! A7    A(3,4,9)              119.9528         -DE/DX =    0.0                 !
 ! A8    A(6,4,9)              122.6062         -DE/DX =    0.0                 !
 ! A9    A(2,5,7)              123.2304         -DE/DX =    0.0                 !
 ! A10   A(2,5,10)             115.9445         -DE/DX =    0.0                 !
 ! A11   A(7,5,10)             120.8251         -DE/DX =    0.0                 !
 ! A12   A(4,6,7)              119.622          -DE/DX =    0.0                 !
 ! A13   A(4,6,11)             119.9531         -DE/DX =    0.0                 !
 ! A14   A(7,6,11)             120.4249         -DE/DX =    0.0                 !
 ! A15   A(5,7,6)              117.9452         -DE/DX =    0.0                 !
 ! A16   A(5,7,12)             120.5532         -DE/DX =    0.0                 !
 ! A17   A(6,7,12)             121.5017         -DE/DX =    0.0                 !
 ! D1    D(8,1,3,2)              0.0            -DE/DX =    0.0                 !
 ! D2    D(8,1,3,4)            180.0            -DE/DX =    0.0                 !
 ! D3    D(5,2,3,1)            180.0            -DE/DX =    0.0                 !
 ! D4    D(5,2,3,4)              0.0            -DE/DX =    0.0                 !
 ! D5    D(3,2,5,7)              0.0            -DE/DX =    0.0                 !
 ! D6    D(3,2,5,10)           180.0            -DE/DX =    0.0                 !
 ! D7    D(1,3,4,6)            180.0            -DE/DX =    0.0                 !
 ! D8    D(1,3,4,9)              0.0            -DE/DX =    0.0                 !
 ! D9    D(2,3,4,6)              0.0            -DE/DX =    0.0                 !
 ! D10   D(2,3,4,9)            180.0            -DE/DX =    0.0                 !
 ! D11   D(3,4,6,7)              0.0            -DE/DX =    0.0                 !
 ! D12   D(3,4,6,11)           180.0            -DE/DX =    0.0                 !
 ! D13   D(9,4,6,7)            180.0            -DE/DX =    0.0                 !
 ! D14   D(9,4,6,11)             0.0            -DE/DX =    0.0                 !
 ! D15   D(2,5,7,6)              0.0            -DE/DX =    0.0                 !
 ! D16   D(2,5,7,12)           180.0            -DE/DX =    0.0                 !
 ! D17   D(10,5,7,6)           180.0            -DE/DX =    0.0                 !
 ! D18   D(10,5,7,12)            0.0            -DE/DX =    0.0                 !
 ! D19   D(4,6,7,5)              0.0            -DE/DX =    0.0                 !
 ! D20   D(4,6,7,12)           180.0            -DE/DX =    0.0                 !
 ! D21   D(11,6,7,5)           180.0            -DE/DX =    0.0                 !
 ! D22   D(11,6,7,12)            0.0            -DE/DX =    0.0                 !
 --------------------------------------------------------------------------------
 GradGradGradGradGradGradGradGradGradGradGradGradGradGradGradGradGradGrad

 Leave Link  103 at Fri Aug 27 00:11:19 2021, MaxMem= 17179869184 cpu:        73.0
 (Enter /public3/home/sc51754/softwares/g09e01/l9999.exe)
 1\1\GINC-R2613\Freq\RCAM-B3LYP\Gen\C5H5N1O1\SC51754\27-Aug-2021\0\\#P 
 Geom=AllCheck Guess=TCheck SCRF=Check GenChk RCAM-B3LYP/ChkBas Freq\\H
 Y_CAM-B3LYP_PC2_OPT_FREQ\\0,1\O,0.0056901796,2.2424415997,0.\N,-1.1689
 367758,0.2934545708,0.\C,0.0005563413,0.8966607065,0.\C,1.219312703,0.
 2239345544,0.\C,-1.1842581585,-1.0384814433,0.\C,1.1843664346,-1.15030
 82163,0.\C,-0.0410208676,-1.8064007606,0.\H,-0.9156605785,2.5269068499
 ,0.\H,2.1426129189,0.7819938706,0.\H,-2.1631059098,-1.500876137,0.\H,2
 .1070474751,-1.713732123,0.\H,-0.1038227623,-2.8836934718,0.\\Version=
 EM64L-G09RevE.01\State=1-A'\HF=-323.5003128\RMSD=1.961e-09\RMSF=1.478e
 -04\ZeroPoint=0.0945593\Thermal=0.0996969\Dipole=0.1982383,-0.5117193,
 0.\DipoleDeriv=-0.2362832,0.1358834,0.,0.1007759,-1.6397045,0.,0.,0.,-
 0.3875958,-0.4812135,-0.2626326,0.,0.200214,-0.8055446,0.,0.,0.,-0.289
 3903,0.2797844,-0.2379369,0.,-0.0603828,1.8345865,0.,0.,0.,0.2229774,-
 0.0388147,0.4176403,0.,-0.0693039,-0.5055445,0.,0.,0.,-0.1558556,0.457
 531,0.1383186,0.,-0.2585843,0.3697817,0.,0.,0.,-0.0039687,0.2942487,0.
 0852428,0.,0.1456056,0.3701853,0.,0.,0.,-0.0888925,-0.5015884,-0.14550
 83,0.,0.081461,-0.0796052,0.,0.,0.,-0.1646731,0.2210407,-0.0476381,0.,
 -0.0842889,0.4055531,0.,0.,0.,0.324219,0.0014575,-0.0521495,0.,-0.0481
 842,0.050507,0.,0.,0.,0.1541321,-0.043042,-0.0869913,0.,-0.0573103,0.0
 192913,0.,0.,0.,0.1070022,-0.0241857,0.0677,0.,0.0657225,0.0467654,0.,
 0.,0.,0.1266787,0.0710653,-0.0119284,0.,-0.0157246,-0.0662715,0.,0.,0.
 ,0.1553665\Polar=72.8029748,0.2737399,83.2832479,0.,0.,37.8958188\PG=C
 S [SG(C5H5N1O1)]\NImag=0\\0.59397135,-0.11024274,0.48774784,0.,0.,0.03
 638649,-0.00755909,-0.03490593,0.,0.49415253,-0.06879298,-0.05454118,0
 .,0.12578958,0.64738801,0.,0.,0.00743055,0.,0.,0.09399023,-0.11143593,
 -0.01419384,0.,-0.31587247,-0.04690556,0.,0.73021293,0.03348288,-0.309
 95391,0.,-0.09318015,-0.18092192,0.,-0.01833041,0.74565472,0.,0.,-0.05
 343173,0.,0.,-0.07528009,0.,0.,0.19324144,0.00038343,0.01568341,0.,-0.
 06810419,-0.03858864,0.,-0.27203061,0.10350166,0.,0.73153589,0.0526630
 4,-0.04535468,0.,0.02363774,0.07429805,0.,0.02283100,-0.15778687,0.,0.
 05638613,0.74441094,0.,0.,0.00964282,0.,0.,0.02118829,0.,0.,-0.0800729
 2,0.,0.,0.12909601,-0.00571318,0.00297298,0.,-0.12660968,-0.01821804,0
 .,0.02611107,-0.05038096,0.,-0.02065039,0.03006350,0.,0.77434275,0.009
 80054,0.00055079,0.,0.01755088,-0.35188618,0.,-0.11923600,-0.04590011,
 0.,0.04204111,-0.06387529,0.,0.03569721,0.69298190,0.,0.,0.01079516,0.
 ,0.,-0.06724753,0.,0.,-0.00293295,0.,0.,-0.00584146,0.,0.,0.16673159,-
 0.01173619,0.00451517,0.,-0.02427785,-0.04542452,0.,0.05683088,0.03162
 591,0.,-0.14060882,0.02831981,0.,-0.06433620,0.03783540,0.,0.73404301,
 -0.00713713,0.00896550,0.,-0.03956478,-0.06418461,0.,0.09611006,-0.032
 88790,0.,-0.04107576,-0.37567756,0.,-0.02250313,0.08119113,0.,-0.04329
 689,0.72047757,0.,0.,0.00466619,0.,0.,-0.00825850,0.,0.,0.00337588,0.,
 0.,-0.06216921,0.,0.,0.00901030,0.,0.,0.15158339,0.00965746,-0.0061044
 0,0.,0.05220838,0.09456818,0.,-0.09666782,0.00117856,0.,0.04059848,-0.
 08314929,0.,-0.29245604,0.05198286,0.,-0.28940425,-0.04472950,0.,0.670
 91466,-0.00204697,-0.00731501,0.,0.02253506,-0.05149988,0.,0.01441532,
 0.00529114,0.,-0.03480865,-0.02345604,0.,0.12995922,-0.19716968,0.,-0.
 11700937,-0.18015756,0.,-0.00068174,0.78022521,0.,0.,-0.00150191,0.,0.
 ,0.02384084,0.,0.,-0.00949996,0.,0.,0.00839446,0.,0.,-0.07292486,0.,0.
 ,-0.06749843,0.,0.,0.13068892,-0.46990444,0.14271441,0.,-0.00096950,-0
 .00398296,0.,-0.00231668,0.01109922,0.,0.00274146,-0.00251376,0.,-0.00
 070902,-0.00151139,0.,0.00027424,0.00126821,0.,-0.00103445,-0.00057614
 ,0.,0.47182104,0.09245016,-0.07924161,0.,0.00202559,0.00794261,0.,0.05
 398868,-0.02718674,0.,-0.00220735,-0.00692380,0.,-0.00078735,-0.002029
 96,0.,0.00239238,0.00065285,0.,-0.00135616,0.00107027,0.,-0.14630849,0
 .10553252,0.,0.,-0.01061017,0.,0.,-0.00347015,0.,0.,0.00118975,0.,0.,0
 .00327936,0.,0.,-0.00069547,0.,0.,0.00141992,0.,0.,0.00052294,0.,0.,0.
 00967308,0.00174503,-0.00043727,0.,-0.00546422,0.00299630,0.,-0.016998
 70,-0.01917877,0.,-0.27459667,-0.12512767,0.,0.00043504,0.00220918,0.,
 0.00556084,0.00167402,0.,0.00219796,0.00079187,0.,0.00007939,-0.000025
 15,0.,0.28624474,-0.00059339,0.00087947,0.,0.00522293,-0.00029786,0.,0
 .01282577,0.01214384,0.,-0.12705699,-0.13497456,0.,0.00038680,-0.00149
 405,0.,-0.02839867,-0.00979988,0.,0.00131290,-0.00511492,0.,-0.0002634
 2,0.00014818,0.,0.13751195,0.13756805,0.,0.,-0.00200834,0.,0.,0.005781
 26,0.,0.,0.00243930,0.,0.,-0.03526615,0.,0.,-0.00021012,0.,0.,0.002475
 38,0.,0.,0.00879064,0.,0.,-0.00066452,0.,0.,0.02466867,-0.00015146,-0.
 00024819,0.,0.00592145,-0.00518638,0.,0.00312109,0.00173311,0.,0.00037
 104,0.00086086,0.,-0.29462913,-0.09984423,0.,-0.00332674,0.00386220,0.
 ,-0.01722820,-0.01341238,0.,0.00005938,0.00015658,0.,-0.00005400,-0.00
 003934,0.,0.30618823,-0.00107343,-0.00102103,0.,-0.03173140,-0.0246956
 0,0.,-0.00084652,-0.00423479,0.,0.00009428,-0.00069512,0.,-0.09825607,
 -0.09947211,0.,0.00331715,-0.00155542,0.,0.01606952,0.01189294,0.,-0.0
 0004642,0.00028654,0.,-0.00016245,0.00012013,0.,0.11244743,0.11839690,
 0.,0.,0.00039853,0.,0.,-0.00313146,0.,0.,0.01050085,0.,0.,-0.00066991,
 0.,0.,-0.04439637,0.,0.,0.00772067,0.,0.,0.00791261,0.,0.,-0.00026677,
 0.,0.,-0.00166282,0.,0.,0.02780615,0.00000830,0.00017597,0.,0.00042731
 ,-0.00072114,0.,0.00190433,-0.00130653,0.,0.00497128,-0.00194273,0.,-0
 .00405703,-0.00390945,0.,-0.26673319,0.12497054,0.,-0.01739894,0.01706
 066,0.,0.00006359,-0.00008588,0.,0.00068942,0.00039270,0.,-0.00093499,
 0.00087085,0.,0.27996177,0.00169948,-0.00076651,0.,-0.00061099,-0.0007
 7463,0.,-0.00120097,-0.00513595,0.,0.02854274,-0.01083196,0.,-0.003544
 30,-0.00061227,0.,0.12433678,-0.13811601,0.,-0.01356135,0.01283627,0.,
 0.00001392,-0.00042134,0.,-0.00049371,0.00122594,0.,-0.00072583,0.0004
 4298,0.,-0.13520242,0.14147643,0.,0.,-0.00038078,0.,0.,-0.00307694,0.,
 0.,0.00993827,0.,0.,0.00580729,0.,0.,0.00755314,0.,0.,-0.04393730,0.,0
 .,0.00559279,0.,0.,-0.00037306,0.,0.,-0.00481533,0.,0.,-0.00052031,0.,
 0.,0.02797051,0.00073473,0.00007042,0.,-0.00385267,0.00446615,0.,-0.00
 285809,-0.00024451,0.,-0.00461090,-0.00202864,0.,0.00827181,0.02738389
 ,0.,0.00371429,-0.02957785,0.,-0.06138724,-0.01622687,0.,-0.00010499,-
 0.00024301,0.,0.00016118,-0.00130124,0.,0.00066333,-0.00068294,0.,0.00
 109816,0.00074665,0.,0.05817039,-0.00020945,0.00005034,0.,0.00323148,-
 0.00082681,0.,0.00054248,0.00091850,0.,-0.00251194,0.00086689,0.,-0.00
 538986,-0.01228416,0.,0.00178684,-0.00890810,0.,-0.01552959,-0.3466027
 3,0.,0.00010681,0.00017047,0.,0.00024168,-0.00040432,0.,0.00039616,0.0
 0053458,0.,-0.00030256,0.00067705,0.,0.01763795,0.36580829,0.,0.,-0.00
 138679,0.,0.,0.00823348,0.,0.,0.00053216,0.,0.,0.00661141,0.,0.,0.0001
 5856,0.,0.,0.00161171,0.,0.,-0.03431804,0.,0.,-0.00000492,0.,0.,0.0004
 7202,0.,0.,-0.00369116,0.,0.,-0.00375828,0.,0.,0.02553985\\-0.00003135
 ,-0.00030620,0.,-0.00022576,-0.00036966,0.,0.00039501,0.00052663,0.,-0
 .00003838,-0.00007412,0.,-0.00010117,0.00016999,0.,0.00001399,0.000005
 20,0.,0.00004672,-0.00008805,0.,-0.00002940,0.00006418,0.,-0.00005143,
 0.00000522,0.,0.00005697,-0.00000718,0.,-0.00002292,0.00002461,0.,-0.0
 0001228,0.00004938,0.\\\@


 TRUTH, IN SCIENCE, CAN BE DEFINED AS THE WORKING HYPOTHESIS 
 BEST FITTED TO OPEN THE WAY TO THE NEXT BETTER ONE.

                              -- KONRAD LORENZ
 Job cpu time:       0 days  0 hours 50 minutes 20.1 seconds.
 File lengths (MBytes):  RWF=     80 Int=      0 D2E=      0 Chk=      7 Scr=      1
 Normal termination of Gaussian 09 at Fri Aug 27 00:11:20 2021.
