 Entering Gaussian System, Link 0=g09
 AtFile(1): pc-2.gbs
            -H     0
            S    4   1.00
                  0.754230D+02           0.240650D-02
                  0.113500D+02           0.184870D-01
                  0.259930D+01           0.897420D-01
                  0.735130D+00           0.281110D+00
            S    1   1.00
                  0.231670D+00           0.100000D+01
            S    1   1.00
                  0.741470D-01           0.100000D+01
            P    1   1.00
                  0.160000D+01           0.100000D+01
            P    1   1.00
                  0.450000D+00           0.100000D+01
            D    1   1.00
                  0.125000D+01           0.100000D+01
            ****
            -C     0
            S    7   1.00
                  0.785710D+04           0.568250D-03
                  0.117870D+04           0.439150D-02
                  0.268320D+03           0.225040D-01
                  0.759480D+02           0.866530D-01
                  0.245590D+02           0.244050D+00
                  0.862120D+01           0.441480D+00
                  0.312780D+01           0.353320D+00
            S    7   1.00
                  0.117870D+04          -0.594920D-06
                  0.268320D+03          -0.627480D-04
                  0.759480D+02          -0.757730D-03
                  0.245590D+02          -0.733080D-02
                  0.862120D+01          -0.389320D-01
                  0.312780D+01          -0.889080D-01
                  0.822020D+00           0.216890D+00
            S    1   1.00
                  0.330170D+00           0.100000D+01
            S    1   1.00
                  0.114630D+00           0.100000D+01
            P    4   1.00
                  0.337750D+02           0.602940D-02
                  0.767660D+01           0.432280D-01
                  0.223570D+01           0.163010D+00
                  0.764470D+00           0.365040D+00
            P    1   1.00
                  0.262320D+00           0.100000D+01
            P    1   1.00
                  0.846380D-01           0.100000D+01
            D    1   1.00
                  0.140000D+01           0.100000D+01
            D    1   1.00
                  0.450000D+00           0.100000D+01
            F    1   1.00
                  0.950000D+00           0.100000D+01
            ****
            -N     0
            S    7   1.00
                  0.111010D+05           0.545700D-03
                  0.166530D+04           0.421810D-02
                  0.379080D+03           0.216450D-01
                  0.107300D+03           0.837760D-01
                  0.347470D+02           0.238810D+00
                  0.122490D+02           0.439940D+00
                  0.447430D+01           0.363640D+00
            S    7   1.00
                  0.166530D+04          -0.150060D-05
                  0.379080D+03          -0.587530D-04
                  0.107300D+03          -0.774530D-03
                  0.347470D+02          -0.721610D-02
                  0.122490D+02          -0.393380D-01
                  0.447430D+01          -0.906110D-01
                  0.124040D+01           0.198820D+00
            S    1   1.00
                  0.487430D+00           0.100000D+01
            S    1   1.00
                  0.164840D+00           0.100000D+01
            P    4   1.00
                  0.479340D+02           0.617060D-02
                  0.109990D+02           0.442600D-01
                  0.324720D+01           0.168250D+00
                  0.111140D+01           0.368480D+00
            P    1   1.00
                  0.379880D+00           0.100000D+01
            P    1   1.00
                  0.120680D+00           0.100000D+01
            D    1   1.00
                  0.180000D+01           0.100000D+01
            D    1   1.00
                  0.550000D+00           0.100000D+01
            F    1   1.00
                  0.102000D+01           0.100000D+01
            ****
            -O     0
            S    7   1.00
                  0.147820D+05           0.535190D-03
                  0.221730D+04           0.413750D-02
                  0.504740D+03           0.212450D-01
                  0.142870D+03           0.824530D-01
                  0.463000D+02           0.236710D+00
                  0.163370D+02           0.440390D+00
                  0.598280D+01           0.364650D+00
            S    7   1.00
                  0.221730D+04          -0.192750D-05
                  0.504740D+03          -0.579640D-04
                  0.142870D+03          -0.794940D-03
                  0.463000D+02          -0.731250D-02
                  0.163370D+02          -0.405740D-01
                  0.598280D+01          -0.915940D-01
                  0.167180D+01           0.209400D+00
            S    1   1.00
                  0.646620D+00           0.100000D+01
            S    1   1.00
                  0.216690D+00           0.100000D+01
            P    4   1.00
                  0.604240D+02           0.689490D-02
                  0.139350D+02           0.490050D-01
                  0.415310D+01           0.182550D+00
                  0.141580D+01           0.376330D+00
            P    1   1.00
                  0.475490D+00           0.100000D+01
            P    1   1.00
                  0.145290D+00           0.100000D+01
            D    1   1.00
                  0.220000D+01           0.100000D+01
            D    1   1.00
                  0.650000D+00           0.100000D+01
            F    1   1.00
                  0.110000D+01           0.100000D+01
            ****
 Initial command:
 /public3/home/sc51754/softwares/g09e01/l1.exe "./Gau-23494.inp" -scrdir="./"
 Entering Link 1 = /public3/home/sc51754/softwares/g09e01/l1.exe PID=     23495.
  
 Copyright (c) 1988,1990,1992,1993,1995,1998,2003,2009,2015,
            Gaussian, Inc.  All Rights Reserved.
  
 This is part of the Gaussian(R) 09 program.  It is based on
 the Gaussian(R) 03 system (copyright 2003, Gaussian, Inc.),
 the Gaussian(R) 98 system (copyright 1998, Gaussian, Inc.),
 the Gaussian(R) 94 system (copyright 1995, Gaussian, Inc.),
 the Gaussian 92(TM) system (copyright 1992, Gaussian, Inc.),
 the Gaussian 90(TM) system (copyright 1990, Gaussian, Inc.),
 the Gaussian 88(TM) system (copyright 1988, Gaussian, Inc.),
 the Gaussian 86(TM) system (copyright 1986, Carnegie Mellon
 University), and the Gaussian 82(TM) system (copyright 1983,
 Carnegie Mellon University). Gaussian is a federally registered
 trademark of Gaussian, Inc.
  
 This software contains proprietary and confidential information,
 including trade secrets, belonging to Gaussian, Inc.
  
 This software is provided under written license and may be
 used, copied, transmitted, or stored only in accord with that
 written license.
  
 The following legend is applicable only to US Government
 contracts under FAR:
  
                    RESTRICTED RIGHTS LEGEND
  
 Use, reproduction and disclosure by the US Government is
 subject to restrictions as set forth in subparagraphs (a)
 and (c) of the Commercial Computer Software - Restricted
 Rights clause in FAR 52.227-19.
  
 Gaussian, Inc.
 340 Quinnipiac St., Bldg. 40, Wallingford CT 06492
  
  
 ---------------------------------------------------------------
 Warning -- This program may not be used in any manner that
 competes with the business of Gaussian, Inc. or will provide
 assistance to any competitor of Gaussian, Inc.  The licensee
 of this program is prohibited from giving any competitor of
 Gaussian, Inc. access to this program.  By using this program,
 the user acknowledges that Gaussian, Inc. is engaged in the
 business of creating and licensing software in the field of
 computational chemistry and represents and warrants to the
 licensee that it is not a competitor of Gaussian, Inc. and that
 it will not use this program in any manner prohibited above.
 ---------------------------------------------------------------
  

 Cite this work as:
 Gaussian 09, Revision E.01,
 M. J. Frisch, G. W. Trucks, H. B. Schlegel, G. E. Scuseria, 
 M. A. Robb, J. R. Cheeseman, G. Scalmani, V. Barone, B. Mennucci, 
 G. A. Petersson, H. Nakatsuji, M. Caricato, X. Li, H. P. Hratchian, 
 A. F. Izmaylov, J. Bloino, G. Zheng, J. L. Sonnenberg, M. Hada, 
 M. Ehara, K. Toyota, R. Fukuda, J. Hasegawa, M. Ishida, T. Nakajima, 
 Y. Honda, O. Kitao, H. Nakai, T. Vreven, J. A. Montgomery, Jr., 
 J. E. Peralta, F. Ogliaro, M. Bearpark, J. J. Heyd, E. Brothers, 
 K. N. Kudin, V. N. Staroverov, T. Keith, R. Kobayashi, J. Normand, 
 K. Raghavachari, A. Rendell, J. C. Burant, S. S. Iyengar, J. Tomasi, 
 M. Cossi, N. Rega, J. M. Millam, M. Klene, J. E. Knox, J. B. Cross, 
 V. Bakken, C. Adamo, J. Jaramillo, R. Gomperts, R. E. Stratmann, 
 O. Yazyev, A. J. Austin, R. Cammi, C. Pomelli, J. W. Ochterski, 
 R. L. Martin, K. Morokuma, V. G. Zakrzewski, G. A. Voth, 
 P. Salvador, J. J. Dannenberg, S. Dapprich, A. D. Daniels, 
 O. Farkas, J. B. Foresman, J. V. Ortiz, J. Cioslowski, 
 and D. J. Fox, Gaussian, Inc., Wallingford CT, 2013.
 
 ******************************************
 Gaussian 09:  EM64L-G09RevE.01 30-Nov-2015
                27-Aug-2021 
 ******************************************
 %nprocshared=64
 Will use up to   64 processors via shared memory.
 %mem=128GB
 %chk=HY_LC-wPBE_PC2_OPT_FREQ.chk
 -----------------------
 #p opt freq LC-wPBE/gen
 -----------------------
 1/14=-1,18=20,19=15,26=3,38=1/1,3;
 2/9=110,12=2,17=6,18=5,40=1/2;
 3/5=7,11=2,16=1,25=1,30=1,71=1,74=-41/1,2,3;
 4//1;
 5/5=2,38=5/2;
 6/7=2,8=2,9=2,10=2,28=1/1;
 7//1,2,3,16;
 1/14=-1,18=20,19=15,26=3/3(2);
 2/9=110/2;
 99//99;
 2/9=110/2;
 3/5=7,6=1,11=2,16=1,25=1,30=1,71=1,74=-41,82=7/1,2,3;
 4/5=5,16=3,69=1/1;
 5/5=2,38=5/2;
 7//1,2,3,16;
 1/14=-1,18=20,19=15,26=3/3(-5);
 2/9=110/2;
 6/7=2,8=2,9=2,10=2,19=2,28=1/1;
 99/9=1/99;
 Leave Link    1 at Fri Aug 27 00:11:20 2021, MaxMem= 17179869184 cpu:         2.5
 (Enter /public3/home/sc51754/softwares/g09e01/l101.exe)
 -----------------------
 HY_LC-wPBE_PC2_OPT_FREQ
 -----------------------
 Symbolic Z-matrix:
 Charge =  0 Multiplicity = 1
 O                     0.00837   2.23974   0. 
 N                    -1.17143   0.29602   0. 
 C                     0.        0.89831   0. 
 C                     1.21926   0.22535   0. 
 C                    -1.18415  -1.03535   0. 
 C                     1.18363  -1.14867   0. 
 C                    -0.04131  -1.80488   0. 
 H                    -0.91394   2.51588   0. 
 H                     2.14363   0.78426   0. 
 H                    -2.16362  -1.50192   0. 
 H                     2.10659  -1.71377   0. 
 H                    -0.10426  -2.88308   0. 
 
 NAtoms=     12 NQM=       12 NQMF=       0 NMMI=      0 NMMIF=      0
                NMic=       0 NMicF=      0.
                    Isotopes and Nuclear Properties:
 (Nuclear quadrupole moments (NQMom) in fm**2, nuclear magnetic moments (NMagM)
  in nuclear magnetons)

  Atom         1           2           3           4           5           6           7           8           9          10
 IAtWgt=          16          14          12          12          12          12          12           1           1           1
 AtmWgt=  15.9949146  14.0030740  12.0000000  12.0000000  12.0000000  12.0000000  12.0000000   1.0078250   1.0078250   1.0078250
 NucSpn=           0           2           0           0           0           0           0           1           1           1
 AtZEff=   0.0000000   0.0000000   0.0000000   0.0000000   0.0000000   0.0000000   0.0000000   0.0000000   0.0000000   0.0000000
 NQMom=    0.0000000   2.0440000   0.0000000   0.0000000   0.0000000   0.0000000   0.0000000   0.0000000   0.0000000   0.0000000
 NMagM=    0.0000000   0.4037610   0.0000000   0.0000000   0.0000000   0.0000000   0.0000000   2.7928460   2.7928460   2.7928460
 AtZNuc=   8.0000000   7.0000000   6.0000000   6.0000000   6.0000000   6.0000000   6.0000000   1.0000000   1.0000000   1.0000000

  Atom        11          12
 IAtWgt=           1           1
 AtmWgt=   1.0078250   1.0078250
 NucSpn=           1           1
 AtZEff=   0.0000000   0.0000000
 NQMom=    0.0000000   0.0000000
 NMagM=    2.7928460   2.7928460
 AtZNuc=   1.0000000   1.0000000
 Leave Link  101 at Fri Aug 27 00:11:20 2021, MaxMem= 17179869184 cpu:         6.1
 (Enter /public3/home/sc51754/softwares/g09e01/l103.exe)

 GradGradGradGradGradGradGradGradGradGradGradGradGradGradGradGradGradGrad
 Berny optimization.
 Initialization pass.
                           ----------------------------
                           !    Initial Parameters    !
                           ! (Angstroms and Degrees)  !
 --------------------------                            --------------------------
 ! Name  Definition              Value          Derivative Info.                !
 --------------------------------------------------------------------------------
 ! R1    R(1,3)                  1.3415         estimate D2E/DX2                !
 ! R2    R(1,8)                  0.9628         estimate D2E/DX2                !
 ! R3    R(2,3)                  1.3172         estimate D2E/DX2                !
 ! R4    R(2,5)                  1.3314         estimate D2E/DX2                !
 ! R5    R(3,4)                  1.3927         estimate D2E/DX2                !
 ! R6    R(4,6)                  1.3745         estimate D2E/DX2                !
 ! R7    R(4,9)                  1.0802         estimate D2E/DX2                !
 ! R8    R(5,7)                  1.3778         estimate D2E/DX2                !
 ! R9    R(5,10)                 1.0849         estimate D2E/DX2                !
 ! R10   R(6,7)                  1.3896         estimate D2E/DX2                !
 ! R11   R(6,11)                 1.0822         estimate D2E/DX2                !
 ! R12   R(7,12)                 1.08           estimate D2E/DX2                !
 ! A1    A(3,1,8)              106.3104         estimate D2E/DX2                !
 ! A2    A(3,2,5)              117.7571         estimate D2E/DX2                !
 ! A3    A(1,3,2)              117.5674         estimate D2E/DX2                !
 ! A4    A(1,3,4)              118.5383         estimate D2E/DX2                !
 ! A5    A(2,3,4)              123.8942         estimate D2E/DX2                !
 ! A6    A(3,4,6)              117.4104         estimate D2E/DX2                !
 ! A7    A(3,4,9)              119.945          estimate D2E/DX2                !
 ! A8    A(6,4,9)              122.6446         estimate D2E/DX2                !
 ! A9    A(2,5,7)              123.4071         estimate D2E/DX2                !
 ! A10   A(2,5,10)             116.018          estimate D2E/DX2                !
 ! A11   A(7,5,10)             120.5749         estimate D2E/DX2                !
 ! A12   A(4,6,7)              119.6636         estimate D2E/DX2                !
 ! A13   A(4,6,11)             119.9925         estimate D2E/DX2                !
 ! A14   A(7,6,11)             120.3439         estimate D2E/DX2                !
 ! A15   A(5,7,6)              117.8675         estimate D2E/DX2                !
 ! A16   A(5,7,12)             120.6134         estimate D2E/DX2                !
 ! A17   A(6,7,12)             121.519          estimate D2E/DX2                !
 ! D1    D(8,1,3,2)              0.0            estimate D2E/DX2                !
 ! D2    D(8,1,3,4)            180.0            estimate D2E/DX2                !
 ! D3    D(5,2,3,1)            180.0            estimate D2E/DX2                !
 ! D4    D(5,2,3,4)              0.0            estimate D2E/DX2                !
 ! D5    D(3,2,5,7)              0.0            estimate D2E/DX2                !
 ! D6    D(3,2,5,10)           180.0            estimate D2E/DX2                !
 ! D7    D(1,3,4,6)            180.0            estimate D2E/DX2                !
 ! D8    D(1,3,4,9)              0.0            estimate D2E/DX2                !
 ! D9    D(2,3,4,6)              0.0            estimate D2E/DX2                !
 ! D10   D(2,3,4,9)            180.0            estimate D2E/DX2                !
 ! D11   D(3,4,6,7)              0.0            estimate D2E/DX2                !
 ! D12   D(3,4,6,11)           180.0            estimate D2E/DX2                !
 ! D13   D(9,4,6,7)            180.0            estimate D2E/DX2                !
 ! D14   D(9,4,6,11)             0.0            estimate D2E/DX2                !
 ! D15   D(2,5,7,6)              0.0            estimate D2E/DX2                !
 ! D16   D(2,5,7,12)           180.0            estimate D2E/DX2                !
 ! D17   D(10,5,7,6)           180.0            estimate D2E/DX2                !
 ! D18   D(10,5,7,12)            0.0            estimate D2E/DX2                !
 ! D19   D(4,6,7,5)              0.0            estimate D2E/DX2                !
 ! D20   D(4,6,7,12)           180.0            estimate D2E/DX2                !
 ! D21   D(11,6,7,5)           180.0            estimate D2E/DX2                !
 ! D22   D(11,6,7,12)            0.0            estimate D2E/DX2                !
 --------------------------------------------------------------------------------
 Trust Radius=3.00D-01 FncErr=1.00D-07 GrdErr=1.00D-06
 Number of steps in this run=     61 maximum allowed number of steps=    100.
 GradGradGradGradGradGradGradGradGradGradGradGradGradGradGradGradGradGrad

 Leave Link  103 at Fri Aug 27 00:11:20 2021, MaxMem= 17179869184 cpu:         0.2
 (Enter /public3/home/sc51754/softwares/g09e01/l202.exe)
                          Input orientation:                          
 ---------------------------------------------------------------------
 Center     Atomic      Atomic             Coordinates (Angstroms)
 Number     Number       Type             X           Y           Z
 ---------------------------------------------------------------------
      1          8           0        0.008372    2.239736    0.000000
      2          7           0       -1.171427    0.296023    0.000000
      3          6           0        0.000000    0.898309    0.000000
      4          6           0        1.219264    0.225352    0.000000
      5          6           0       -1.184145   -1.035351    0.000000
      6          6           0        1.183632   -1.148671    0.000000
      7          6           0       -0.041314   -1.804878    0.000000
      8          1           0       -0.913944    2.515883    0.000000
      9          1           0        2.143627    0.784264    0.000000
     10          1           0       -2.163617   -1.501920    0.000000
     11          1           0        2.106589   -1.713772    0.000000
     12          1           0       -0.104256   -2.883075    0.000000
 ---------------------------------------------------------------------
                    Distance matrix (angstroms):
                    1          2          3          4          5
     1  O    0.000000
     2  N    2.273752   0.000000
     3  C    1.341453   1.317190   0.000000
     4  C    2.350320   2.391735   1.392651   0.000000
     5  C    3.485440   1.331435   2.267430   2.713991   0.000000
     6  C    3.586438   2.762869   2.364553   1.374485   2.370487
     7  C    4.044919   2.385569   2.703503   2.389747   1.377764
     8  H    0.962769   2.234743   1.857913   3.130033   3.561498
     9  H    2.584127   3.350815   2.146659   1.080199   3.792765
    10  H    4.326376   2.053543   3.231461   3.798335   1.084920
    11  H    4.475795   3.845083   3.355694   2.132498   3.359938
    12  H    5.124049   3.353434   3.782821   3.378465   2.140151
                    6          7          8          9         10
     6  C    0.000000
     7  C    1.389640   0.000000
     8  H    4.222414   4.407999   0.000000
     9  H    2.158200   3.387864   3.513865   0.000000
    10  H    3.365837   2.143818   4.207662   4.876370   0.000000
    11  H    1.082215   2.149834   5.197461   2.498311   4.275458
    12  H    2.160281   1.080033   5.459335   4.301436   2.479628
                   11         12
    11  H    0.000000
    12  H    2.501021   0.000000
 Stoichiometry    C5H5NO
 Framework group  CS[SG(C5H5NO)]
 Deg. of freedom    21
 Full point group                 CS      NOp   2
 Largest Abelian subgroup         CS      NOp   2
 Largest concise Abelian subgroup C1      NOp   1
                         Standard orientation:                         
 ---------------------------------------------------------------------
 Center     Atomic      Atomic             Coordinates (Angstroms)
 Number     Number       Type             X           Y           Z
 ---------------------------------------------------------------------
      1          8           0        0.008372    2.239736    0.000000
      2          7           0       -1.171427    0.296023    0.000000
      3          6           0       -0.000000    0.898309    0.000000
      4          6           0        1.219264    0.225352    0.000000
      5          6           0       -1.184145   -1.035351    0.000000
      6          6           0        1.183632   -1.148671    0.000000
      7          6           0       -0.041314   -1.804878    0.000000
      8          1           0       -0.913944    2.515883    0.000000
      9          1           0        2.143627    0.784264    0.000000
     10          1           0       -2.163617   -1.501920    0.000000
     11          1           0        2.106589   -1.713772    0.000000
     12          1           0       -0.104257   -2.883075    0.000000
 ---------------------------------------------------------------------
 Rotational constants (GHZ):      5.9244098      2.8053779      1.9038502
 Leave Link  202 at Fri Aug 27 00:11:20 2021, MaxMem= 17179869184 cpu:         4.2
 (Enter /public3/home/sc51754/softwares/g09e01/l301.exe)
 General basis read from cards:  (5D, 7F)
 Centers:       8      9     10     11     12
 S 4 1.00
     Exponent=  7.5423000000D+01 Coefficients=  2.4065000000D-03
     Exponent=  1.1350000000D+01 Coefficients=  1.8487000000D-02
     Exponent=  2.5993000000D+00 Coefficients=  8.9742000000D-02
     Exponent=  7.3513000000D-01 Coefficients=  2.8111000000D-01
 S 1 1.00
     Exponent=  2.3167000000D-01 Coefficients=  1.0000000000D+00
 S 1 1.00
     Exponent=  7.4147000000D-02 Coefficients=  1.0000000000D+00
 P 1 1.00
     Exponent=  1.6000000000D+00 Coefficients=  1.0000000000D+00
 P 1 1.00
     Exponent=  4.5000000000D-01 Coefficients=  1.0000000000D+00
 D 1 1.00
     Exponent=  1.2500000000D+00 Coefficients=  1.0000000000D+00
 ****
 Centers:       3      4      5      6      7
 S 7 1.00
     Exponent=  7.8571000000D+03 Coefficients=  5.6825000000D-04
     Exponent=  1.1787000000D+03 Coefficients=  4.3915000000D-03
     Exponent=  2.6832000000D+02 Coefficients=  2.2504000000D-02
     Exponent=  7.5948000000D+01 Coefficients=  8.6653000000D-02
     Exponent=  2.4559000000D+01 Coefficients=  2.4405000000D-01
     Exponent=  8.6212000000D+00 Coefficients=  4.4148000000D-01
     Exponent=  3.1278000000D+00 Coefficients=  3.5332000000D-01
 S 7 1.00
     Exponent=  1.1787000000D+03 Coefficients= -5.9492000000D-07
     Exponent=  2.6832000000D+02 Coefficients= -6.2748000000D-05
     Exponent=  7.5948000000D+01 Coefficients= -7.5773000000D-04
     Exponent=  2.4559000000D+01 Coefficients= -7.3308000000D-03
     Exponent=  8.6212000000D+00 Coefficients= -3.8932000000D-02
     Exponent=  3.1278000000D+00 Coefficients= -8.8908000000D-02
     Exponent=  8.2202000000D-01 Coefficients=  2.1689000000D-01
 S 1 1.00
     Exponent=  3.3017000000D-01 Coefficients=  1.0000000000D+00
 S 1 1.00
     Exponent=  1.1463000000D-01 Coefficients=  1.0000000000D+00
 P 4 1.00
     Exponent=  3.3775000000D+01 Coefficients=  6.0294000000D-03
     Exponent=  7.6766000000D+00 Coefficients=  4.3228000000D-02
     Exponent=  2.2357000000D+00 Coefficients=  1.6301000000D-01
     Exponent=  7.6447000000D-01 Coefficients=  3.6504000000D-01
 P 1 1.00
     Exponent=  2.6232000000D-01 Coefficients=  1.0000000000D+00
 P 1 1.00
     Exponent=  8.4638000000D-02 Coefficients=  1.0000000000D+00
 D 1 1.00
     Exponent=  1.4000000000D+00 Coefficients=  1.0000000000D+00
 D 1 1.00
     Exponent=  4.5000000000D-01 Coefficients=  1.0000000000D+00
 F 1 1.00
     Exponent=  9.5000000000D-01 Coefficients=  1.0000000000D+00
 ****
 Centers:       2
 S 7 1.00
     Exponent=  1.1101000000D+04 Coefficients=  5.4570000000D-04
     Exponent=  1.6653000000D+03 Coefficients=  4.2181000000D-03
     Exponent=  3.7908000000D+02 Coefficients=  2.1645000000D-02
     Exponent=  1.0730000000D+02 Coefficients=  8.3776000000D-02
     Exponent=  3.4747000000D+01 Coefficients=  2.3881000000D-01
     Exponent=  1.2249000000D+01 Coefficients=  4.3994000000D-01
     Exponent=  4.4743000000D+00 Coefficients=  3.6364000000D-01
 S 7 1.00
     Exponent=  1.6653000000D+03 Coefficients= -1.5006000000D-06
     Exponent=  3.7908000000D+02 Coefficients= -5.8753000000D-05
     Exponent=  1.0730000000D+02 Coefficients= -7.7453000000D-04
     Exponent=  3.4747000000D+01 Coefficients= -7.2161000000D-03
     Exponent=  1.2249000000D+01 Coefficients= -3.9338000000D-02
     Exponent=  4.4743000000D+00 Coefficients= -9.0611000000D-02
     Exponent=  1.2404000000D+00 Coefficients=  1.9882000000D-01
 S 1 1.00
     Exponent=  4.8743000000D-01 Coefficients=  1.0000000000D+00
 S 1 1.00
     Exponent=  1.6484000000D-01 Coefficients=  1.0000000000D+00
 P 4 1.00
     Exponent=  4.7934000000D+01 Coefficients=  6.1706000000D-03
     Exponent=  1.0999000000D+01 Coefficients=  4.4260000000D-02
     Exponent=  3.2472000000D+00 Coefficients=  1.6825000000D-01
     Exponent=  1.1114000000D+00 Coefficients=  3.6848000000D-01
 P 1 1.00
     Exponent=  3.7988000000D-01 Coefficients=  1.0000000000D+00
 P 1 1.00
     Exponent=  1.2068000000D-01 Coefficients=  1.0000000000D+00
 D 1 1.00
     Exponent=  1.8000000000D+00 Coefficients=  1.0000000000D+00
 D 1 1.00
     Exponent=  5.5000000000D-01 Coefficients=  1.0000000000D+00
 F 1 1.00
     Exponent=  1.0200000000D+00 Coefficients=  1.0000000000D+00
 ****
 Centers:       1
 S 7 1.00
     Exponent=  1.4782000000D+04 Coefficients=  5.3519000000D-04
     Exponent=  2.2173000000D+03 Coefficients=  4.1375000000D-03
     Exponent=  5.0474000000D+02 Coefficients=  2.1245000000D-02
     Exponent=  1.4287000000D+02 Coefficients=  8.2453000000D-02
     Exponent=  4.6300000000D+01 Coefficients=  2.3671000000D-01
     Exponent=  1.6337000000D+01 Coefficients=  4.4039000000D-01
     Exponent=  5.9828000000D+00 Coefficients=  3.6465000000D-01
 S 7 1.00
     Exponent=  2.2173000000D+03 Coefficients= -1.9275000000D-06
     Exponent=  5.0474000000D+02 Coefficients= -5.7964000000D-05
     Exponent=  1.4287000000D+02 Coefficients= -7.9494000000D-04
     Exponent=  4.6300000000D+01 Coefficients= -7.3125000000D-03
     Exponent=  1.6337000000D+01 Coefficients= -4.0574000000D-02
     Exponent=  5.9828000000D+00 Coefficients= -9.1594000000D-02
     Exponent=  1.6718000000D+00 Coefficients=  2.0940000000D-01
 S 1 1.00
     Exponent=  6.4662000000D-01 Coefficients=  1.0000000000D+00
 S 1 1.00
     Exponent=  2.1669000000D-01 Coefficients=  1.0000000000D+00
 P 4 1.00
     Exponent=  6.0424000000D+01 Coefficients=  6.8949000000D-03
     Exponent=  1.3935000000D+01 Coefficients=  4.9005000000D-02
     Exponent=  4.1531000000D+00 Coefficients=  1.8255000000D-01
     Exponent=  1.4158000000D+00 Coefficients=  3.7633000000D-01
 P 1 1.00
     Exponent=  4.7549000000D-01 Coefficients=  1.0000000000D+00
 P 1 1.00
     Exponent=  1.4529000000D-01 Coefficients=  1.0000000000D+00
 D 1 1.00
     Exponent=  2.2000000000D+00 Coefficients=  1.0000000000D+00
 D 1 1.00
     Exponent=  6.5000000000D-01 Coefficients=  1.0000000000D+00
 F 1 1.00
     Exponent=  1.1000000000D+00 Coefficients=  1.0000000000D+00
 ****
 Ernie: Thresh=  0.10000D-02 Tol=  0.10000D-05 Strict=F.
 Ernie:  7 primitive shells out of 220 were deleted.
 There are   223 symmetry adapted cartesian basis functions of A'  symmetry.
 There are    97 symmetry adapted cartesian basis functions of A"  symmetry.
 There are   190 symmetry adapted basis functions of A'  symmetry.
 There are    90 symmetry adapted basis functions of A"  symmetry.
   280 basis functions,   475 primitive gaussians,   320 cartesian basis functions
    25 alpha electrons       25 beta electrons
       nuclear repulsion energy       277.5236709615 Hartrees.
 IExCor=32609 DFT=T Ex+Corr=LC-wPBE ExCW=0 ScaHFX=  1.000000
 ScaDFX=  1.000000  0.000000  1.000000  1.000000 ScalE2=  1.000000  1.000000
 IRadAn=      0 IRanWt=     -1 IRanGd=            0 ICorTp=0 IEmpDi=  4
  HFx wShort=  0.000000 wLong=  0.400000 cFull=  0.000000 cShort=  0.000000 cLong=  1.000000
  DFx wShort=  0.000000 wLong=  0.400000 cFull=  0.000000 cShort=  0.000000 cLong=  1.000000
 NAtoms=   12 NActive=   12 NUniq=   12 SFac= 1.00D+00 NAtFMM=   60 NAOKFM=F Big=F
 Integral buffers will be    131072 words long.
 Raffenetti 2 integral format.
 Two-electron integral symmetry is turned on.
 Leave Link  301 at Fri Aug 27 00:11:20 2021, MaxMem= 17179869184 cpu:         1.5
 (Enter /public3/home/sc51754/softwares/g09e01/l302.exe)
 NPDir=0 NMtPBC=     1 NCelOv=     1 NCel=       1 NClECP=     1 NCelD=      1
         NCelK=      1 NCelE2=     1 NClLst=     1 CellRange=     0.0.
 One-electron integrals computed using PRISM.
 NBasis=   280 RedAO= T EigKep=  2.16D-04  NBF=   190    90
 NBsUse=   280 1.00D-06 EigRej= -1.00D+00 NBFU=   190    90
 Precomputing XC quadrature grid using
 IXCGrd= 4 IRadAn=           0 IRanWt=          -1 IRanGd=           0 AccXCQ= 0.00D+00.
 Generated NRdTot=       0 NPtTot=           0 NUsed=           0 NTot=          32
 NSgBfM=   320   320   320   320   320 MxSgAt=    12 MxSgA2=    12.
 Leave Link  302 at Fri Aug 27 00:11:21 2021, MaxMem= 17179869184 cpu:        36.7
 (Enter /public3/home/sc51754/softwares/g09e01/l303.exe)
 DipDrv:  MaxL=1.
 Leave Link  303 at Fri Aug 27 00:11:22 2021, MaxMem= 17179869184 cpu:        12.6
 (Enter /public3/home/sc51754/softwares/g09e01/l401.exe)
 ExpMin= 7.41D-02 ExpMax= 1.48D+04 ExpMxC= 5.05D+02 IAcc=2 IRadAn=         4 AccDes= 0.00D+00
 Harris functional with IExCor=32609 and IRadAn=       4 diagonalized for initial guess.
 HarFok:  IExCor=32609 AccDes= 0.00D+00 IRadAn=         4 IDoV= 1 UseB2=F ITyADJ=14
 ICtDFT=  3500011 ScaDFX=  1.000000  1.000000  1.000000  1.000000
 FoFCou: FMM=F IPFlag=           0 FMFlag=      100000 FMFlg1=           0
         NFxFlg=           0 DoJE=T BraDBF=F KetDBF=T FulRan=T
         wScrn=  0.000000 ICntrl=     500 IOpCl=  0 I1Cent=   200000004 NGrid=           0
         NMat0=    1 NMatS0=      1 NMatT0=    0 NMatD0=    1 NMtDS0=    0 NMtDT0=    0
 Petite list used in FoFCou.
 Harris En= -323.419644627916    
 JPrj=0 DoOrth=F DoCkMO=F.
 Initial guess orbital symmetries:
       Occupied  (A') (A') (A') (A') (A') (A') (A') (A') (A') (A')
                 (A') (A') (A') (A') (A') (A') (A') (A') (A") (A')
                 (A') (A") (A") (A') (A")
       Virtual   (A") (A") (A') (A') (A') (A") (A') (A') (A') (A')
                 (A') (A') (A") (A') (A") (A") (A') (A') (A') (A')
                 (A') (A') (A") (A") (A') (A') (A') (A') (A') (A')
                 (A') (A") (A') (A") (A') (A') (A') (A') (A') (A')
                 (A') (A') (A") (A') (A') (A') (A') (A") (A") (A')
                 (A") (A") (A') (A') (A") (A') (A') (A") (A') (A')
                 (A') (A") (A') (A') (A") (A') (A") (A') (A") (A')
                 (A') (A") (A") (A') (A") (A') (A') (A") (A') (A')
                 (A") (A') (A') (A") (A') (A') (A") (A') (A") (A")
                 (A') (A') (A') (A') (A') (A") (A') (A') (A") (A')
                 (A') (A') (A") (A') (A') (A') (A') (A") (A') (A')
                 (A') (A") (A') (A') (A') (A') (A") (A') (A') (A')
                 (A") (A') (A") (A') (A") (A') (A") (A") (A') (A")
                 (A") (A') (A') (A') (A") (A') (A') (A") (A') (A')
                 (A') (A') (A') (A") (A") (A') (A") (A') (A') (A')
                 (A") (A') (A') (A") (A") (A') (A") (A') (A") (A')
                 (A") (A') (A') (A') (A") (A") (A') (A') (A") (A')
                 (A") (A') (A') (A") (A') (A') (A") (A') (A") (A")
                 (A") (A") (A') (A') (A") (A') (A") (A") (A') (A")
                 (A") (A') (A') (A") (A') (A') (A") (A') (A") (A")
                 (A') (A') (A") (A') (A') (A') (A") (A') (A') (A')
                 (A") (A') (A') (A") (A") (A') (A') (A') (A") (A")
                 (A') (A') (A") (A') (A') (A") (A') (A') (A') (A')
                 (A") (A') (A') (A') (A') (A") (A") (A') (A') (A')
                 (A') (A") (A') (A') (A') (A') (A') (A') (A') (A')
                 (A') (A') (A') (A') (A')
 The electronic state of the initial guess is 1-A'.
 Leave Link  401 at Fri Aug 27 00:11:23 2021, MaxMem= 17179869184 cpu:        68.4
 (Enter /public3/home/sc51754/softwares/g09e01/l502.exe)
 Closed shell SCF:
 Using DIIS extrapolation, IDIIS=  1040.
 Integral symmetry usage will be decided dynamically.
 Keep R1 ints in memory in symmetry-blocked form, NReq=2335173138.
 IVT=      348658 IEndB=      348658 NGot= 17179869184 MDV= 16785904737
 LenX= 16785904737 LenY= 16785801896
 Requested convergence on RMS density matrix=1.00D-08 within 128 cycles.
 Requested convergence on MAX density matrix=1.00D-06.
 Requested convergence on             energy=1.00D-06.
 No special actions if energy rises.
 FoFCou: FMM=F IPFlag=           0 FMFlag=           0 FMFlg1=           0
         NFxFlg=           0 DoJE=F BraDBF=F KetDBF=F FulRan=T
         wScrn=  0.000000 ICntrl=     600 IOpCl=  0 I1Cent=           0 NGrid=           0
         NMat0=    1 NMatS0=  39340 NMatT0=    0 NMatD0=    1 NMtDS0=    0 NMtDT0=    0
 Petite list used in FoFCou.
 Integral accuracy reduced to 1.0D-05 until final iterations.

 Cycle   1  Pass 0  IDiag  1:
 E= -323.278302101217    
 DIIS: error= 2.65D-02 at cycle   1 NSaved=   1.
 NSaved= 1 IEnMin= 1 EnMin= -323.278302101217     IErMin= 1 ErrMin= 2.65D-02
 ErrMax= 2.65D-02  0.00D+00 EMaxC= 1.00D-01 BMatC= 1.70D-01 BMatP= 1.70D-01
 IDIUse=3 WtCom= 7.35D-01 WtEn= 2.65D-01
 Coeff-Com:  0.100D+01
 Coeff-En:   0.100D+01
 Coeff:      0.100D+01
 Gap=     0.395 Goal=   None    Shift=    0.000
 GapD=    0.395 DampG=1.000 DampE=0.500 DampFc=0.5000 IDamp=-1.
 Damping current iteration by 5.00D-01
 RMSDP=1.83D-03 MaxDP=1.04D-01              OVMax= 1.30D-01

 Cycle   2  Pass 0  IDiag  1:
 E= -323.359093942643     Delta-E=       -0.080791841427 Rises=F Damp=T
 DIIS: error= 7.01D-03 at cycle   2 NSaved=   2.
 NSaved= 2 IEnMin= 2 EnMin= -323.359093942643     IErMin= 2 ErrMin= 7.01D-03
 ErrMax= 7.01D-03  0.00D+00 EMaxC= 1.00D-01 BMatC= 1.07D-02 BMatP= 1.70D-01
 IDIUse=3 WtCom= 9.30D-01 WtEn= 7.01D-02
 Coeff-Com: -0.190D+00 0.119D+01
 Coeff-En:   0.000D+00 0.100D+01
 Coeff:     -0.177D+00 0.118D+01
 Gap=     0.401 Goal=   None    Shift=    0.000
 RMSDP=5.03D-04 MaxDP=2.55D-02 DE=-8.08D-02 OVMax= 5.17D-02

 Cycle   3  Pass 0  IDiag  1:
 E= -323.428296170109     Delta-E=       -0.069202227466 Rises=F Damp=F
 DIIS: error= 2.04D-03 at cycle   3 NSaved=   3.
 NSaved= 3 IEnMin= 3 EnMin= -323.428296170109     IErMin= 3 ErrMin= 2.04D-03
 ErrMax= 2.04D-03  0.00D+00 EMaxC= 1.00D-01 BMatC= 1.40D-03 BMatP= 1.07D-02
 IDIUse=3 WtCom= 9.80D-01 WtEn= 2.04D-02
 Coeff-Com: -0.785D-01 0.333D+00 0.745D+00
 Coeff-En:   0.000D+00 0.000D+00 0.100D+01
 Coeff:     -0.769D-01 0.326D+00 0.751D+00
 Gap=     0.395 Goal=   None    Shift=    0.000
 RMSDP=1.18D-04 MaxDP=8.39D-03 DE=-6.92D-02 OVMax= 7.89D-03

 Cycle   4  Pass 0  IDiag  1:
 E= -323.429176976461     Delta-E=       -0.000880806352 Rises=F Damp=F
 DIIS: error= 8.72D-04 at cycle   4 NSaved=   4.
 NSaved= 4 IEnMin= 4 EnMin= -323.429176976461     IErMin= 4 ErrMin= 8.72D-04
 ErrMax= 8.72D-04  0.00D+00 EMaxC= 1.00D-01 BMatC= 2.35D-04 BMatP= 1.40D-03
 IDIUse=3 WtCom= 9.91D-01 WtEn= 8.72D-03
 Coeff-Com: -0.126D-01 0.380D-01 0.300D+00 0.675D+00
 Coeff-En:   0.000D+00 0.000D+00 0.148D-01 0.985D+00
 Coeff:     -0.125D-01 0.376D-01 0.297D+00 0.678D+00
 Gap=     0.396 Goal=   None    Shift=    0.000
 RMSDP=4.15D-05 MaxDP=1.90D-03 DE=-8.81D-04 OVMax= 3.65D-03

 Cycle   5  Pass 0  IDiag  1:
 E= -323.429361836801     Delta-E=       -0.000184860341 Rises=F Damp=F
 DIIS: error= 1.74D-04 at cycle   5 NSaved=   5.
 NSaved= 5 IEnMin= 5 EnMin= -323.429361836801     IErMin= 5 ErrMin= 1.74D-04
 ErrMax= 1.74D-04  0.00D+00 EMaxC= 1.00D-01 BMatC= 1.34D-05 BMatP= 2.35D-04
 IDIUse=3 WtCom= 9.98D-01 WtEn= 1.74D-03
 Coeff-Com:  0.237D-02-0.124D-01 0.337D-01 0.218D+00 0.759D+00
 Coeff-En:   0.000D+00 0.000D+00 0.000D+00 0.000D+00 0.100D+01
 Coeff:      0.237D-02-0.123D-01 0.336D-01 0.217D+00 0.759D+00
 Gap=     0.396 Goal=   None    Shift=    0.000
 RMSDP=1.32D-05 MaxDP=5.65D-04 DE=-1.85D-04 OVMax= 9.10D-04

 Cycle   6  Pass 0  IDiag  1:
 E= -323.429373331451     Delta-E=       -0.000011494649 Rises=F Damp=F
 DIIS: error= 8.60D-05 at cycle   6 NSaved=   6.
 NSaved= 6 IEnMin= 6 EnMin= -323.429373331451     IErMin= 6 ErrMin= 8.60D-05
 ErrMax= 8.60D-05  0.00D+00 EMaxC= 1.00D-01 BMatC= 1.58D-06 BMatP= 1.34D-05
 IDIUse=1 WtCom= 1.00D+00 WtEn= 0.00D+00
 Coeff-Com:  0.210D-02-0.820D-02-0.118D-01 0.323D-01 0.274D+00 0.712D+00
 Coeff:      0.210D-02-0.820D-02-0.118D-01 0.323D-01 0.274D+00 0.712D+00
 Gap=     0.396 Goal=   None    Shift=    0.000
 RMSDP=4.80D-06 MaxDP=2.01D-04 DE=-1.15D-05 OVMax= 5.35D-04

 Initial convergence to 1.0D-05 achieved.  Increase integral accuracy.
 Cycle   7  Pass 1  IDiag  1:
 E= -323.429310381830     Delta-E=        0.000062949620 Rises=F Damp=F
 DIIS: error= 2.64D-05 at cycle   1 NSaved=   1.
 NSaved= 1 IEnMin= 1 EnMin= -323.429310381830     IErMin= 1 ErrMin= 2.64D-05
 ErrMax= 2.64D-05  0.00D+00 EMaxC= 1.00D-01 BMatC= 2.62D-07 BMatP= 2.62D-07
 IDIUse=1 WtCom= 1.00D+00 WtEn= 0.00D+00
 Coeff-Com:  0.100D+01
 Coeff:      0.100D+01
 Gap=     0.396 Goal=   None    Shift=    0.000
 RMSDP=4.80D-06 MaxDP=2.01D-04 DE= 6.29D-05 OVMax= 3.64D-04

 Cycle   8  Pass 1  IDiag  1:
 E= -323.429310544626     Delta-E=       -0.000000162796 Rises=F Damp=F
 DIIS: error= 2.57D-05 at cycle   2 NSaved=   2.
 NSaved= 2 IEnMin= 2 EnMin= -323.429310544626     IErMin= 2 ErrMin= 2.57D-05
 ErrMax= 2.57D-05  0.00D+00 EMaxC= 1.00D-01 BMatC= 1.50D-07 BMatP= 2.62D-07
 IDIUse=1 WtCom= 1.00D+00 WtEn= 0.00D+00
 Coeff-Com:  0.406D+00 0.594D+00
 Coeff:      0.406D+00 0.594D+00
 Gap=     0.396 Goal=   None    Shift=    0.000
 RMSDP=1.19D-06 MaxDP=7.46D-05 DE=-1.63D-07 OVMax= 1.57D-04

 Cycle   9  Pass 1  IDiag  1:
 E= -323.429310694656     Delta-E=       -0.000000150030 Rises=F Damp=F
 DIIS: error= 1.08D-05 at cycle   3 NSaved=   3.
 NSaved= 3 IEnMin= 3 EnMin= -323.429310694656     IErMin= 3 ErrMin= 1.08D-05
 ErrMax= 1.08D-05  0.00D+00 EMaxC= 1.00D-01 BMatC= 2.02D-08 BMatP= 1.50D-07
 IDIUse=1 WtCom= 1.00D+00 WtEn= 0.00D+00
 Coeff-Com: -0.130D+00 0.159D+00 0.971D+00
 Coeff:     -0.130D+00 0.159D+00 0.971D+00
 Gap=     0.396 Goal=   None    Shift=    0.000
 RMSDP=8.29D-07 MaxDP=2.18D-05 DE=-1.50D-07 OVMax= 1.45D-04

 Cycle  10  Pass 1  IDiag  1:
 E= -323.429310745170     Delta-E=       -0.000000050514 Rises=F Damp=F
 DIIS: error= 6.56D-06 at cycle   4 NSaved=   4.
 NSaved= 4 IEnMin= 4 EnMin= -323.429310745170     IErMin= 4 ErrMin= 6.56D-06
 ErrMax= 6.56D-06  0.00D+00 EMaxC= 1.00D-01 BMatC= 2.09D-09 BMatP= 2.02D-08
 IDIUse=1 WtCom= 1.00D+00 WtEn= 0.00D+00
 Coeff-Com: -0.642D-01-0.613D-01 0.626D-01 0.106D+01
 Coeff:     -0.642D-01-0.613D-01 0.626D-01 0.106D+01
 Gap=     0.396 Goal=   None    Shift=    0.000
 RMSDP=4.18D-07 MaxDP=1.17D-05 DE=-5.05D-08 OVMax= 6.89D-05

 Cycle  11  Pass 1  IDiag  1:
 E= -323.429310754846     Delta-E=       -0.000000009676 Rises=F Damp=F
 DIIS: error= 2.09D-06 at cycle   5 NSaved=   5.
 NSaved= 5 IEnMin= 5 EnMin= -323.429310754846     IErMin= 5 ErrMin= 2.09D-06
 ErrMax= 2.09D-06  0.00D+00 EMaxC= 1.00D-01 BMatC= 7.40D-10 BMatP= 2.09D-09
 IDIUse=1 WtCom= 1.00D+00 WtEn= 0.00D+00
 Coeff-Com: -0.738D-03-0.577D-01-0.168D+00 0.455D+00 0.771D+00
 Coeff:     -0.738D-03-0.577D-01-0.168D+00 0.455D+00 0.771D+00
 Gap=     0.396 Goal=   None    Shift=    0.000
 RMSDP=1.64D-07 MaxDP=4.68D-06 DE=-9.68D-09 OVMax= 3.14D-05

 Cycle  12  Pass 1  IDiag  1:
 E= -323.429310756747     Delta-E=       -0.000000001901 Rises=F Damp=F
 DIIS: error= 1.15D-06 at cycle   6 NSaved=   6.
 NSaved= 6 IEnMin= 6 EnMin= -323.429310756747     IErMin= 6 ErrMin= 1.15D-06
 ErrMax= 1.15D-06  0.00D+00 EMaxC= 1.00D-01 BMatC= 6.24D-11 BMatP= 7.40D-10
 IDIUse=1 WtCom= 1.00D+00 WtEn= 0.00D+00
 Coeff-Com:  0.106D-01-0.142D-02-0.344D-01-0.919D-01 0.985D-01 0.102D+01
 Coeff:      0.106D-01-0.142D-02-0.344D-01-0.919D-01 0.985D-01 0.102D+01
 Gap=     0.396 Goal=   None    Shift=    0.000
 RMSDP=6.94D-08 MaxDP=1.78D-06 DE=-1.90D-09 OVMax= 1.49D-05

 Cycle  13  Pass 1  IDiag  1:
 E= -323.429310757066     Delta-E=       -0.000000000319 Rises=F Damp=F
 DIIS: error= 4.13D-07 at cycle   7 NSaved=   7.
 NSaved= 7 IEnMin= 7 EnMin= -323.429310757066     IErMin= 7 ErrMin= 4.13D-07
 ErrMax= 4.13D-07  0.00D+00 EMaxC= 1.00D-01 BMatC= 1.09D-11 BMatP= 6.24D-11
 IDIUse=1 WtCom= 1.00D+00 WtEn= 0.00D+00
 Coeff-Com: -0.346D-03 0.613D-02 0.283D-01-0.615D-01-0.135D+00-0.314D-01
 Coeff-Com:  0.119D+01
 Coeff:     -0.346D-03 0.613D-02 0.283D-01-0.615D-01-0.135D+00-0.314D-01
 Coeff:      0.119D+01
 Gap=     0.396 Goal=   None    Shift=    0.000
 RMSDP=3.49D-08 MaxDP=9.43D-07 DE=-3.19D-10 OVMax= 6.60D-06

 Cycle  14  Pass 1  IDiag  1:
 E= -323.429310757126     Delta-E=       -0.000000000060 Rises=F Damp=F
 DIIS: error= 1.15D-07 at cycle   8 NSaved=   8.
 NSaved= 8 IEnMin= 8 EnMin= -323.429310757126     IErMin= 8 ErrMin= 1.15D-07
 ErrMax= 1.15D-07  0.00D+00 EMaxC= 1.00D-01 BMatC= 2.75D-12 BMatP= 1.09D-11
 IDIUse=1 WtCom= 1.00D+00 WtEn= 0.00D+00
 Coeff-Com: -0.177D-02 0.237D-02 0.183D-01-0.978D-02-0.731D-01-0.163D+00
 Coeff-Com:  0.492D+00 0.735D+00
 Coeff:     -0.177D-02 0.237D-02 0.183D-01-0.978D-02-0.731D-01-0.163D+00
 Coeff:      0.492D+00 0.735D+00
 Gap=     0.396 Goal=   None    Shift=    0.000
 RMSDP=9.92D-09 MaxDP=2.70D-07 DE=-5.98D-11 OVMax= 2.15D-06

 SCF Done:  E(RLC-wPBE) =  -323.429310757     A.U. after   14 cycles
            NFock= 14  Conv=0.99D-08     -V/T= 2.0038
 KE= 3.222151162384D+02 PE=-1.310058642027D+03 EE= 3.868905440695D+02
 Leave Link  502 at Fri Aug 27 00:11:31 2021, MaxMem= 17179869184 cpu:       370.4
 (Enter /public3/home/sc51754/softwares/g09e01/l601.exe)
 Copying SCF densities to generalized density rwf, IOpCl= 0 IROHF=0.

 **********************************************************************

            Population analysis using the SCF density.

 **********************************************************************

 Orbital symmetries:
       Occupied  (A') (A') (A') (A') (A') (A') (A') (A') (A') (A')
                 (A') (A') (A') (A') (A') (A') (A") (A') (A') (A')
                 (A') (A") (A") (A') (A")
       Virtual   (A") (A") (A') (A') (A') (A') (A') (A') (A") (A')
                 (A") (A') (A') (A') (A") (A") (A') (A') (A') (A")
                 (A') (A') (A") (A') (A') (A') (A') (A') (A') (A')
                 (A') (A") (A') (A') (A") (A') (A') (A') (A') (A')
                 (A') (A') (A') (A") (A') (A') (A') (A") (A") (A")
                 (A') (A") (A') (A') (A") (A') (A") (A') (A') (A')
                 (A') (A') (A") (A') (A') (A") (A') (A") (A') (A')
                 (A") (A") (A") (A') (A") (A') (A') (A") (A') (A')
                 (A") (A') (A') (A') (A') (A") (A") (A') (A") (A')
                 (A") (A') (A') (A') (A') (A") (A') (A') (A") (A')
                 (A') (A') (A") (A') (A') (A') (A') (A") (A') (A')
                 (A') (A") (A') (A') (A') (A') (A") (A') (A') (A')
                 (A") (A') (A") (A') (A") (A') (A") (A") (A') (A")
                 (A") (A') (A') (A') (A") (A') (A') (A") (A') (A')
                 (A') (A') (A") (A') (A") (A') (A") (A') (A') (A')
                 (A") (A') (A') (A") (A") (A') (A") (A') (A") (A')
                 (A") (A') (A') (A') (A") (A") (A') (A") (A') (A')
                 (A') (A") (A') (A") (A') (A') (A") (A') (A") (A")
                 (A") (A") (A') (A') (A") (A') (A") (A") (A') (A")
                 (A') (A") (A') (A") (A') (A') (A") (A') (A") (A")
                 (A') (A') (A") (A') (A') (A") (A') (A') (A') (A')
                 (A") (A') (A") (A') (A') (A") (A') (A') (A") (A")
                 (A') (A') (A") (A') (A') (A") (A') (A') (A') (A')
                 (A") (A') (A') (A') (A') (A") (A") (A') (A') (A')
                 (A') (A") (A') (A') (A') (A') (A') (A') (A') (A')
                 (A') (A') (A') (A') (A')
 The electronic state is 1-A'.
 Alpha  occ. eigenvalues --  -18.99942 -14.20267 -10.20809 -10.15145 -10.13540
 Alpha  occ. eigenvalues --  -10.11798 -10.11364  -1.22056  -1.09107  -0.96058
 Alpha  occ. eigenvalues --   -0.90671  -0.79172  -0.77027  -0.69189  -0.65362
 Alpha  occ. eigenvalues --   -0.61448  -0.58279  -0.57428  -0.54239  -0.52209
 Alpha  occ. eigenvalues --   -0.49208  -0.48903  -0.40767  -0.39433  -0.34818
 Alpha virt. eigenvalues --    0.04762   0.07579   0.09512   0.10631   0.11236
 Alpha virt. eigenvalues --    0.13269   0.14730   0.22804   0.23384   0.24254
 Alpha virt. eigenvalues --    0.24793   0.25418   0.27337   0.27944   0.28959
 Alpha virt. eigenvalues --    0.29313   0.31151   0.34519   0.35289   0.36099
 Alpha virt. eigenvalues --    0.36977   0.38639   0.38917   0.39047   0.42136
 Alpha virt. eigenvalues --    0.43170   0.45681   0.46911   0.47544   0.48433
 Alpha virt. eigenvalues --    0.49396   0.52340   0.54327   0.54934   0.55252
 Alpha virt. eigenvalues --    0.59461   0.61514   0.62179   0.65056   0.67772
 Alpha virt. eigenvalues --    0.71860   0.73490   0.74824   0.75035   0.77022
 Alpha virt. eigenvalues --    0.78358   0.82642   0.87420   0.88522   0.92483
 Alpha virt. eigenvalues --    0.93689   0.97929   0.98873   1.02033   1.03960
 Alpha virt. eigenvalues --    1.06502   1.08411   1.08716   1.09932   1.12252
 Alpha virt. eigenvalues --    1.14799   1.20322   1.21300   1.22199   1.25907
 Alpha virt. eigenvalues --    1.26424   1.26954   1.28980   1.30214   1.31328
 Alpha virt. eigenvalues --    1.33676   1.37593   1.39484   1.41335   1.41484
 Alpha virt. eigenvalues --    1.43363   1.48233   1.53125   1.53807   1.56288
 Alpha virt. eigenvalues --    1.61528   1.61589   1.63159   1.66018   1.66393
 Alpha virt. eigenvalues --    1.67284   1.69786   1.72793   1.74244   1.77878
 Alpha virt. eigenvalues --    1.78256   1.78962   1.82690   1.85191   1.86104
 Alpha virt. eigenvalues --    1.90535   1.92206   1.94443   1.97838   1.97966
 Alpha virt. eigenvalues --    2.00699   2.07135   2.07483   2.08832   2.12857
 Alpha virt. eigenvalues --    2.17254   2.22552   2.23298   2.26445   2.30283
 Alpha virt. eigenvalues --    2.33932   2.34496   2.37679   2.39214   2.42048
 Alpha virt. eigenvalues --    2.46219   2.50220   2.70721   2.79743   2.85127
 Alpha virt. eigenvalues --    2.98216   3.05434   3.07157   3.11776   3.26555
 Alpha virt. eigenvalues --    3.28439   3.32128   3.34865   3.37606   3.38178
 Alpha virt. eigenvalues --    3.42447   3.44599   3.46968   3.50564   3.51223
 Alpha virt. eigenvalues --    3.54760   3.59163   3.59216   3.61799   3.68906
 Alpha virt. eigenvalues --    3.69567   3.71745   3.72911   3.73494   3.79556
 Alpha virt. eigenvalues --    3.82465   3.83952   3.89797   3.92428   3.93836
 Alpha virt. eigenvalues --    3.95808   3.98865   4.01803   4.03925   4.08406
 Alpha virt. eigenvalues --    4.08656   4.12346   4.16180   4.17198   4.18013
 Alpha virt. eigenvalues --    4.18735   4.21621   4.23787   4.27897   4.28761
 Alpha virt. eigenvalues --    4.29454   4.31275   4.33042   4.33447   4.35534
 Alpha virt. eigenvalues --    4.38169   4.38807   4.40874   4.43261   4.43972
 Alpha virt. eigenvalues --    4.44183   4.45527   4.49054   4.50803   4.52394
 Alpha virt. eigenvalues --    4.55291   4.56278   4.56685   4.57493   4.59023
 Alpha virt. eigenvalues --    4.61224   4.61966   4.62991   4.66568   4.68959
 Alpha virt. eigenvalues --    4.71031   4.71058   4.75745   4.76951   4.79061
 Alpha virt. eigenvalues --    4.85802   4.87344   4.91372   4.95123   4.98554
 Alpha virt. eigenvalues --    5.01189   5.01571   5.08887   5.10356   5.15858
 Alpha virt. eigenvalues --    5.20181   5.20294   5.23250   5.29800   5.31277
 Alpha virt. eigenvalues --    5.34115   5.35447   5.39586   5.42966   5.45559
 Alpha virt. eigenvalues --    5.47301   5.48102   5.49798   5.51500   5.52923
 Alpha virt. eigenvalues --    5.55263   5.57917   5.65281   5.67746   5.73264
 Alpha virt. eigenvalues --    5.74858   5.76870   5.79608   5.88918   5.91116
 Alpha virt. eigenvalues --    5.93658   6.10428   6.15045   6.18924   6.19434
 Alpha virt. eigenvalues --    6.20284   6.34604   6.36155   6.37890   6.39577
 Alpha virt. eigenvalues --    6.56625   6.57459   6.58000   6.73444   6.78887
 Alpha virt. eigenvalues --    7.02040   7.24791   7.41059   9.29705  12.06956
 Alpha virt. eigenvalues --   12.69641  15.47615  17.34804  18.57150  22.10943
          Condensed to atoms (all electrons):
               1          2          3          4          5          6
     1  O    7.820224  -0.098064   0.349924  -0.066009   0.003377   0.006899
     2  N   -0.098064   6.583552   0.503993  -0.019765   0.536898  -0.028288
     3  C    0.349924   0.503993   4.372129   0.517633  -0.082837  -0.057055
     4  C   -0.066009  -0.019765   0.517633   4.860013  -0.039159   0.537846
     5  C    0.003377   0.536898  -0.082837  -0.039159   4.553235  -0.074718
     6  C    0.006899  -0.028288  -0.057055   0.537846  -0.074718   4.680955
     7  C   -0.000928  -0.044934  -0.047122  -0.045227   0.531457   0.504254
     8  H    0.354087   0.011499  -0.033518   0.010902   0.000829  -0.001952
     9  H    0.004285   0.006014  -0.022694   0.430176  -0.002072  -0.029203
    10  H   -0.000426  -0.036937   0.003126  -0.004066   0.448257   0.006892
    11  H   -0.000182  -0.001432   0.005547  -0.031793   0.005202   0.435069
    12  H    0.000020   0.006096  -0.001218   0.005766  -0.024081  -0.029492
               7          8          9         10         11         12
     1  O   -0.000928   0.354087   0.004285  -0.000426  -0.000182   0.000020
     2  N   -0.044934   0.011499   0.006014  -0.036937  -0.001432   0.006096
     3  C   -0.047122  -0.033518  -0.022694   0.003126   0.005547  -0.001218
     4  C   -0.045227   0.010902   0.430176  -0.004066  -0.031793   0.005766
     5  C    0.531457   0.000829  -0.002072   0.448257   0.005202  -0.024081
     6  C    0.504254  -0.001952  -0.029203   0.006892   0.435069  -0.029492
     7  C    4.932845   0.001066   0.005705  -0.065003  -0.032858   0.432838
     8  H    0.001066   0.440863  -0.000477  -0.000438   0.000047  -0.000027
     9  H    0.005705  -0.000477   0.558480   0.000113  -0.004793  -0.000079
    10  H   -0.065003  -0.000438   0.000113   0.592610  -0.000142  -0.002752
    11  H   -0.032858   0.000047  -0.004793  -0.000142   0.569682  -0.004541
    12  H    0.432838  -0.000027  -0.000079  -0.002752  -0.004541   0.572337
 Mulliken charges:
               1
     1  O   -0.373206
     2  N   -0.418633
     3  C    0.492091
     4  C   -0.156316
     5  C    0.143611
     6  C    0.048793
     7  C   -0.172094
     8  H    0.217119
     9  H    0.054544
    10  H    0.058767
    11  H    0.060193
    12  H    0.045132
 Sum of Mulliken charges =  -0.00000
 Mulliken charges with hydrogens summed into heavy atoms:
               1
     1  O   -0.156088
     2  N   -0.418633
     3  C    0.492091
     4  C   -0.101772
     5  C    0.202378
     6  C    0.108985
     7  C   -0.126962
 Electronic spatial extent (au):  <R**2>=            622.8396
 Charge=             -0.0000 electrons
 Dipole moment (field-independent basis, Debye):
    X=              0.5027    Y=             -1.2707    Z=             -0.0000  Tot=              1.3665
 Quadrupole moment (field-independent basis, Debye-Ang):
   XX=            -37.3708   YY=            -36.3481   ZZ=            -42.8196
   XY=             -2.0648   XZ=              0.0000   YZ=              0.0000
 Traceless Quadrupole moment (field-independent basis, Debye-Ang):
   XX=              1.4754   YY=              2.4981   ZZ=             -3.9735
   XY=             -2.0648   XZ=              0.0000   YZ=              0.0000
 Octapole moment (field-independent basis, Debye-Ang**2):
  XXX=              6.6039  YYY=              3.4486  ZZZ=              0.0000  XYY=            -10.9190
  XXY=             -0.0294  XXZ=              0.0000  XZZ=             -1.3750  YZZ=              5.3231
  YYZ=             -0.0000  XYZ=              0.0000
 Hexadecapole moment (field-independent basis, Debye-Ang**3):
 XXXX=           -262.0401 YYYY=           -451.9423 ZZZZ=            -45.6868 XXXY=              9.0237
 XXXZ=              0.0000 YYYX=            -30.4275 YYYZ=              0.0000 ZZZX=              0.0000
 ZZZY=              0.0000 XXYY=           -107.4271 XXZZ=            -58.8021 YYZZ=            -96.2339
 XXYZ=              0.0000 YYXZ=              0.0000 ZZXY=              0.6884
 N-N= 2.775236709615D+02 E-N=-1.310058645509D+03  KE= 3.222151162384D+02
 Symmetry A'   KE= 3.104208106426D+02
 Symmetry A"   KE= 1.179430559578D+01
 No NMR shielding tensors so no spin-rotation constants.
 Leave Link  601 at Fri Aug 27 00:11:32 2021, MaxMem= 17179869184 cpu:        63.2
 (Enter /public3/home/sc51754/softwares/g09e01/l701.exe)
 Compute integral first derivatives.
 ... and contract with generalized density number  0.
 Leave Link  701 at Fri Aug 27 00:11:33 2021, MaxMem= 17179869184 cpu:        56.3
 (Enter /public3/home/sc51754/softwares/g09e01/l702.exe)
 L702 exits ... SP integral derivatives will be done elsewhere.
 Leave Link  702 at Fri Aug 27 00:11:34 2021, MaxMem= 17179869184 cpu:         0.4
 (Enter /public3/home/sc51754/softwares/g09e01/l703.exe)
 Compute integral first derivatives, UseDBF=F ICtDFT=           0.
 Integral derivatives from FoFJK, PRISM(SPDF).
 Calling FoFJK, ICntrl=      2127 FMM=F ISym2X=1 I1Cent= 0 IOpClX= 0 NMat=1 NMatS=1 NMatT=0.
 FoFJK:  IHMeth= 1 ICntrl=    2127 DoSepK=T KAlg= 0 I1Cent=   0 FoldK=F
 IRaf=         1 NMat=   1 IRICut=       1 DoRegI=T DoRafI=F ISym2E= 1.
 FoFCou: FMM=F IPFlag=           0 FMFlag=      100000 FMFlg1=         800
         NFxFlg=           0 DoJE=F BraDBF=F KetDBF=F FulRan=T
         wScrn=  0.000000 ICntrl=    2527 IOpCl=  0 I1Cent=           0 NGrid=           0
         NMat0=    1 NMatS0=      1 NMatT0=    0 NMatD0=    1 NMtDS0=    0 NMtDT0=    0
 Petite list used in FoFCou.
 Leave Link  703 at Fri Aug 27 00:11:37 2021, MaxMem= 17179869184 cpu:       230.6
 (Enter /public3/home/sc51754/softwares/g09e01/l716.exe)
 Dipole        = 1.97758490D-01-4.99932565D-01-2.02674037D-32
 ***** Axes restored to original set *****
 -------------------------------------------------------------------
 Center     Atomic                   Forces (Hartrees/Bohr)
 Number     Number              X              Y              Z
 -------------------------------------------------------------------
      1        8          -0.000500179    0.001267120   -0.000000000
      2        7           0.003006119    0.000701134    0.000000000
      3        6          -0.000210882   -0.005211895    0.000000000
      4        6          -0.001829517   -0.002410596    0.000000000
      5        6           0.002977751   -0.000495748    0.000000000
      6        6          -0.001878042    0.002312557   -0.000000000
      7        6          -0.001320558    0.003246360   -0.000000000
      8        1          -0.000882981    0.000811259   -0.000000000
      9        1           0.000192017    0.000138142    0.000000000
     10        1          -0.000025582    0.000421700   -0.000000000
     11        1           0.000594944   -0.000196918    0.000000000
     12        1          -0.000123090   -0.000583114    0.000000000
 -------------------------------------------------------------------
 Cartesian Forces:  Max     0.005211895 RMS     0.001494816
 Leave Link  716 at Fri Aug 27 00:11:38 2021, MaxMem= 17179869184 cpu:         0.4
 (Enter /public3/home/sc51754/softwares/g09e01/l103.exe)

 GradGradGradGradGradGradGradGradGradGradGradGradGradGradGradGradGradGrad
 Berny optimization.
 FormGI is forming the generalized inverse of G from B-inverse, IUseBI=4.
 Internal  Forces:  Max     0.004033780 RMS     0.001042590
 Search for a local minimum.
 Step number   1 out of a maximum of   61
 All quantities printed in internal units (Hartrees-Bohrs-Radians)
 RMS Force = .10426D-02 SwitMx=.10000D-02 MixMth= 1
 Mixed Optimization -- RFO/linear search
 Second derivative matrix not updated -- first step.
 ITU=  0
     Eigenvalues ---    0.02265   0.02291   0.02312   0.02345   0.02366
     Eigenvalues ---    0.02409   0.02454   0.02466   0.02614   0.16000
     Eigenvalues ---    0.16000   0.16000   0.16000   0.16000   0.22000
     Eigenvalues ---    0.22422   0.24442   0.25000   0.35406   0.35728
     Eigenvalues ---    0.35970   0.35990   0.43621   0.45785   0.48169
     Eigenvalues ---    0.49389   0.54882   0.56881   0.57480   0.60970
 RFO step:  Lambda=-1.16091913D-04 EMin= 2.26525640D-02
 Linear search not attempted -- first point.
 Iteration  1 RMS(Cart)=  0.00315988 RMS(Int)=  0.00000441
 Iteration  2 RMS(Cart)=  0.00000498 RMS(Int)=  0.00000010
 Iteration  3 RMS(Cart)=  0.00000000 RMS(Int)=  0.00000010
 ITry= 1 IFail=0 DXMaxC= 9.40D-03 DCOld= 1.00D+10 DXMaxT= 3.00D-01 DXLimC= 3.00D+00 Rises=F
 ClnCor:  largest displacement from symmetrization is 9.17D-14 for atom    11.
 Variable       Old X    -DE/DX   Delta X   Delta X   Delta X     New X
                                 (Linear)    (Quad)   (Total)
    R1        2.53498   0.00207   0.00000   0.00363   0.00363   2.53861
    R2        1.81937   0.00109   0.00000   0.00198   0.00198   1.82135
    R3        2.48913  -0.00403   0.00000  -0.00655  -0.00655   2.48258
    R4        2.51605  -0.00180   0.00000  -0.00314  -0.00314   2.51290
    R5        2.63173  -0.00174   0.00000  -0.00375  -0.00375   2.62798
    R6        2.59740  -0.00290   0.00000  -0.00567  -0.00567   2.59173
    R7        2.04128   0.00024   0.00000   0.00066   0.00066   2.04194
    R8        2.60360  -0.00331   0.00000  -0.00665  -0.00665   2.59695
    R9        2.05020  -0.00016   0.00000  -0.00045  -0.00045   2.04975
   R10        2.62604  -0.00150   0.00000  -0.00301  -0.00301   2.62303
   R11        2.04509   0.00061   0.00000   0.00171   0.00171   2.04680
   R12        2.04097   0.00059   0.00000   0.00164   0.00164   2.04260
    A1        1.85547   0.00094   0.00000   0.00588   0.00588   1.86134
    A2        2.05525  -0.00000   0.00000  -0.00072  -0.00072   2.05453
    A3        2.05194  -0.00149   0.00000  -0.00582  -0.00582   2.04612
    A4        2.06888   0.00116   0.00000   0.00478   0.00478   2.07366
    A5        2.16236   0.00033   0.00000   0.00104   0.00104   2.16340
    A6        2.04920  -0.00017   0.00000  -0.00052  -0.00052   2.04868
    A7        2.09344   0.00006   0.00000   0.00008   0.00008   2.09352
    A8        2.14055   0.00011   0.00000   0.00044   0.00044   2.14099
    A9        2.15386   0.00012   0.00000   0.00041   0.00041   2.15427
   A10        2.02490  -0.00045   0.00000  -0.00265  -0.00265   2.02225
   A11        2.10443   0.00033   0.00000   0.00224   0.00224   2.10667
   A12        2.08852  -0.00018   0.00000  -0.00019  -0.00019   2.08834
   A13        2.09426  -0.00007   0.00000  -0.00088  -0.00088   2.09338
   A14        2.10040   0.00025   0.00000   0.00107   0.00107   2.10146
   A15        2.05718  -0.00010   0.00000  -0.00002  -0.00002   2.05715
   A16        2.10510  -0.00003   0.00000  -0.00049  -0.00049   2.10461
   A17        2.12091   0.00013   0.00000   0.00051   0.00051   2.12142
    D1        0.00000  -0.00000   0.00000  -0.00000   0.00000   0.00000
    D2        3.14159  -0.00000   0.00000   0.00000   0.00000   3.14159
    D3        3.14159   0.00000   0.00000   0.00000   0.00000   3.14159
    D4        0.00000  -0.00000   0.00000  -0.00000   0.00000   0.00000
    D5       -0.00000   0.00000   0.00000   0.00000   0.00000   0.00000
    D6        3.14159   0.00000   0.00000   0.00000   0.00000   3.14159
    D7        3.14159  -0.00000   0.00000  -0.00000   0.00000   3.14159
    D8        0.00000  -0.00000   0.00000  -0.00000  -0.00000   0.00000
    D9       -0.00000  -0.00000   0.00000  -0.00000   0.00000   0.00000
   D10        3.14159   0.00000   0.00000  -0.00000   0.00000   3.14159
   D11        0.00000   0.00000   0.00000   0.00000   0.00000   0.00000
   D12        3.14159   0.00000   0.00000   0.00000   0.00000   3.14159
   D13        3.14159  -0.00000   0.00000   0.00000   0.00000   3.14159
   D14       -0.00000   0.00000   0.00000   0.00000   0.00000   0.00000
   D15       -0.00000   0.00000   0.00000  -0.00000   0.00000   0.00000
   D16        3.14159   0.00000   0.00000  -0.00000   0.00000   3.14159
   D17        3.14159  -0.00000   0.00000  -0.00000   0.00000   3.14159
   D18       -0.00000   0.00000   0.00000  -0.00000   0.00000   0.00000
   D19        0.00000  -0.00000   0.00000   0.00000  -0.00000   0.00000
   D20        3.14159  -0.00000   0.00000  -0.00000   0.00000   3.14159
   D21        3.14159  -0.00000   0.00000  -0.00000   0.00000   3.14159
   D22       -0.00000  -0.00000   0.00000  -0.00000   0.00000   0.00000
         Item               Value     Threshold  Converged?
 Maximum Force            0.004034     0.000450     NO 
 RMS     Force            0.001043     0.000300     NO 
 Maximum Displacement     0.009396     0.001800     NO 
 RMS     Displacement     0.003162     0.001200     NO 
 Predicted change in Energy=-5.806259D-05
 Lowest energy point so far.  Saving SCF results.
 GradGradGradGradGradGradGradGradGradGradGradGradGradGradGradGradGradGrad

 Leave Link  103 at Fri Aug 27 00:11:38 2021, MaxMem= 17179869184 cpu:        34.8
 (Enter /public3/home/sc51754/softwares/g09e01/l202.exe)
                          Input orientation:                          
 ---------------------------------------------------------------------
 Center     Atomic      Atomic             Coordinates (Angstroms)
 Number     Number       Type             X           Y           Z
 ---------------------------------------------------------------------
      1          8           0        0.004048    2.238350   -0.000000
      2          7           0       -1.167255    0.295713   -0.000000
      3          6           0        0.001827    0.894978   -0.000000
      4          6           0        1.219226    0.222745    0.000000
      5          6           0       -1.180640   -1.033991   -0.000000
      6          6           0        1.182694   -1.148252    0.000000
      7          6           0       -0.041437   -1.802605    0.000000
      8          1           0       -0.918916    2.515986   -0.000000
      9          1           0        2.144040    0.781583    0.000000
     10          1           0       -2.161367   -1.497359   -0.000000
     11          1           0        2.106517   -1.713672    0.000000
     12          1           0       -0.105955   -2.881576    0.000000
 ---------------------------------------------------------------------
                    Distance matrix (angstroms):
                    1          2          3          4          5
     1  O    0.000000
     2  N    2.268433   0.000000
     3  C    1.343374   1.313723   0.000000
     4  C    2.353576   2.387596   1.390668   0.000000
     5  C    3.480187   1.329772   2.262554   2.709011   0.000000
     6  C    3.585845   2.758133   2.359923   1.371484   2.366094
     7  C    4.041211   2.381261   2.697929   2.385648   1.374245
     8  H    0.963818   2.234119   1.864252   3.135380   3.559613
     9  H    2.588772   3.346751   2.145213   1.080547   3.788114
    10  H    4.317933   2.050212   3.225320   3.793043   1.084683
    11  H    4.476478   3.841251   3.351831   2.130023   3.356689
    12  H    5.121108   3.349855   3.778092   3.375340   2.137409
                    6          7          8          9         10
     6  C    0.000000
     7  C    1.388047   0.000000
     8  H    4.224146   4.406835   0.000000
     9  H    2.156026   3.384426   3.519923   0.000000
    10  H    3.362235   2.141793   4.201265   4.871356   0.000000
    11  H    1.083119   2.149794   5.200313   2.495537   4.273362
    12  H    2.159868   1.080899   5.458442   4.298978   2.478059
                   11         12
    11  H    0.000000
    12  H    2.501805   0.000000
 Stoichiometry    C5H5NO
 Framework group  CS[SG(C5H5NO)]
 Deg. of freedom    21
 Full point group                 CS      NOp   2
 RotChk:  IX=0 Diff= 2.38D-03
 Largest Abelian subgroup         CS      NOp   2
 Largest concise Abelian subgroup C1      NOp   1
                         Standard orientation:                         
 ---------------------------------------------------------------------
 Center     Atomic      Atomic             Coordinates (Angstroms)
 Number     Number       Type             X           Y           Z
 ---------------------------------------------------------------------
      1          8           0       -0.000042    2.238773    0.000000
      2          7           0       -1.168070    0.294166   -0.000000
      3          6           0       -0.000000    0.895399    0.000000
      4          6           0        1.218530    0.225218    0.000000
      5          6           0       -1.179216   -1.035559   -0.000000
      6          6           0        1.184307   -1.145839   -0.000000
      7          6           0       -0.038721   -1.802252   -0.000000
      8          1           0       -0.923472    2.514855    0.000000
      9          1           0        2.142402    0.785612    0.000000
     10          1           0       -2.159162   -1.500578   -0.000000
     11          1           0        2.109080   -1.709702   -0.000000
     12          1           0       -0.101421   -2.881331   -0.000000
 ---------------------------------------------------------------------
 Rotational constants (GHZ):      5.9435977      2.8107192      1.9082910
 Leave Link  202 at Fri Aug 27 00:11:39 2021, MaxMem= 17179869184 cpu:         6.8
 (Enter /public3/home/sc51754/softwares/g09e01/l301.exe)
 Basis read from rwf:  (5D, 7F)
 No pseudopotential information found on rwf file.
 There are   223 symmetry adapted cartesian basis functions of A'  symmetry.
 There are    97 symmetry adapted cartesian basis functions of A"  symmetry.
 There are   190 symmetry adapted basis functions of A'  symmetry.
 There are    90 symmetry adapted basis functions of A"  symmetry.
   280 basis functions,   475 primitive gaussians,   320 cartesian basis functions
    25 alpha electrons       25 beta electrons
       nuclear repulsion energy       277.8406001798 Hartrees.
 IExCor=32609 DFT=T Ex+Corr=LC-wPBE ExCW=0 ScaHFX=  1.000000
 ScaDFX=  1.000000  0.000000  1.000000  1.000000 ScalE2=  1.000000  1.000000
 IRadAn=      0 IRanWt=     -1 IRanGd=            0 ICorTp=0 IEmpDi=  4
  HFx wShort=  0.000000 wLong=  0.400000 cFull=  0.000000 cShort=  0.000000 cLong=  1.000000
  DFx wShort=  0.000000 wLong=  0.400000 cFull=  0.000000 cShort=  0.000000 cLong=  1.000000
 NAtoms=   12 NActive=   12 NUniq=   12 SFac= 1.00D+00 NAtFMM=   60 NAOKFM=F Big=F
 Integral buffers will be    131072 words long.
 Raffenetti 2 integral format.
 Two-electron integral symmetry is turned on.
 No density basis found on file   724.
 Leave Link  301 at Fri Aug 27 00:11:39 2021, MaxMem= 17179869184 cpu:         1.0
 (Enter /public3/home/sc51754/softwares/g09e01/l302.exe)
 NPDir=0 NMtPBC=     1 NCelOv=     1 NCel=       1 NClECP=     1 NCelD=      1
         NCelK=      1 NCelE2=     1 NClLst=     1 CellRange=     0.0.
 One-electron integrals computed using PRISM.
 NBasis=   280 RedAO= T EigKep=  2.14D-04  NBF=   190    90
 NBsUse=   280 1.00D-06 EigRej= -1.00D+00 NBFU=   190    90
 Precomputing XC quadrature grid using
 IXCGrd= 4 IRadAn=           0 IRanWt=          -1 IRanGd=           0 AccXCQ= 0.00D+00.
 Generated NRdTot=       0 NPtTot=           0 NUsed=           0 NTot=          32
 NSgBfM=   320   320   320   320   320 MxSgAt=    12 MxSgA2=    12.
 Leave Link  302 at Fri Aug 27 00:11:40 2021, MaxMem= 17179869184 cpu:        46.4
 (Enter /public3/home/sc51754/softwares/g09e01/l303.exe)
 DipDrv:  MaxL=1.
 Leave Link  303 at Fri Aug 27 00:11:40 2021, MaxMem= 17179869184 cpu:        11.9
 (Enter /public3/home/sc51754/softwares/g09e01/l401.exe)
 Initial guess from the checkpoint file:  "HY_LC-wPBE_PC2_OPT_FREQ.chk"
 B after Tr=     0.000000    0.000000    0.000000
         Rot=    1.000000    0.000000   -0.000000   -0.000989 Ang=  -0.11 deg.
 Guess basis will be translated and rotated to current coordinates.
 JPrj=2 DoOrth=T DoCkMO=T.
 Initial guess orbital symmetries:
       Occupied  (A') (A') (A') (A') (A') (A') (A') (A') (A') (A')
                 (A') (A') (A') (A') (A') (A') (A") (A') (A') (A')
                 (A') (A") (A") (A') (A")
       Virtual   (A') (A') (A') (A') (A') (A') (A') (A') (A') (A')
                 (A') (A') (A') (A') (A') (A') (A') (A') (A') (A')
                 (A') (A') (A') (A') (A') (A') (A') (A') (A') (A')
                 (A') (A') (A') (A') (A') (A') (A') (A') (A') (A')
                 (A') (A') (A') (A') (A') (A') (A') (A') (A') (A')
                 (A') (A') (A') (A') (A') (A') (A') (A') (A') (A')
                 (A') (A') (A') (A') (A') (A') (A') (A') (A') (A')
                 (A') (A') (A') (A') (A') (A') (A') (A') (A') (A')
                 (A') (A') (A') (A') (A') (A') (A') (A') (A') (A')
                 (A') (A') (A') (A') (A') (A') (A') (A') (A') (A')
                 (A') (A') (A') (A') (A') (A') (A') (A') (A') (A')
                 (A') (A') (A') (A') (A') (A') (A') (A') (A') (A')
                 (A') (A') (A') (A') (A') (A') (A') (A') (A') (A')
                 (A') (A') (A') (A') (A') (A') (A') (A') (A') (A')
                 (A') (A') (A') (A') (A') (A') (A') (A') (A') (A')
                 (A') (A') (A') (A') (A') (A') (A') (A') (A') (A')
                 (A') (A') (A') (A') (A') (A') (A') (A') (A') (A")
                 (A") (A") (A") (A") (A") (A") (A") (A") (A") (A")
                 (A") (A") (A") (A") (A") (A") (A") (A") (A") (A")
                 (A") (A") (A") (A") (A") (A") (A") (A") (A") (A")
                 (A") (A") (A") (A") (A") (A") (A") (A") (A") (A")
                 (A") (A") (A") (A") (A") (A") (A") (A") (A") (A")
                 (A") (A") (A") (A") (A") (A") (A") (A") (A") (A")
                 (A") (A") (A") (A") (A") (A") (A") (A") (A") (A")
                 (A") (A") (A") (A") (A") (A") (A") (A") (A") (A")
                 (A") (A") (A") (A") (A")
 The electronic state of the initial guess is 1-A'.
 Leave Link  401 at Fri Aug 27 00:11:41 2021, MaxMem= 17179869184 cpu:        42.2
 (Enter /public3/home/sc51754/softwares/g09e01/l502.exe)
 Closed shell SCF:
 Using DIIS extrapolation, IDIIS=  1040.
 Integral symmetry usage will be decided dynamically.
 Keep R1 ints in memory in symmetry-blocked form, NReq=2335173138.
 IVT=      348658 IEndB=      348658 NGot= 17179869184 MDV= 16785904737
 LenX= 16785904737 LenY= 16785801896
 Requested convergence on RMS density matrix=1.00D-08 within 128 cycles.
 Requested convergence on MAX density matrix=1.00D-06.
 Requested convergence on             energy=1.00D-06.
 No special actions if energy rises.
 FoFCou: FMM=F IPFlag=           0 FMFlag=           0 FMFlg1=           0
         NFxFlg=           0 DoJE=F BraDBF=F KetDBF=F FulRan=T
         wScrn=  0.000000 ICntrl=     600 IOpCl=  0 I1Cent=           0 NGrid=           0
         NMat0=    1 NMatS0=  39340 NMatT0=    0 NMatD0=    1 NMtDS0=    0 NMtDT0=    0
 Petite list used in FoFCou.

 Cycle   1  Pass 1  IDiag  1:
 E= -323.429339093167    
 DIIS: error= 1.95D-04 at cycle   1 NSaved=   1.
 NSaved= 1 IEnMin= 1 EnMin= -323.429339093167     IErMin= 1 ErrMin= 1.95D-04
 ErrMax= 1.95D-04  0.00D+00 EMaxC= 1.00D-01 BMatC= 2.22D-05 BMatP= 2.22D-05
 IDIUse=3 WtCom= 9.98D-01 WtEn= 1.95D-03
 Coeff-Com:  0.100D+01
 Coeff-En:   0.100D+01
 Coeff:      0.100D+01
 Gap=     0.780 Goal=   None    Shift=    0.000
 RMSDP=1.42D-05 MaxDP=3.51D-04              OVMax= 8.16D-04

 Cycle   2  Pass 1  IDiag  1:
 E= -323.429359784043     Delta-E=       -0.000020690877 Rises=F Damp=F
 DIIS: error= 7.41D-05 at cycle   2 NSaved=   2.
 NSaved= 2 IEnMin= 2 EnMin= -323.429359784043     IErMin= 2 ErrMin= 7.41D-05
 ErrMax= 7.41D-05  0.00D+00 EMaxC= 1.00D-01 BMatC= 2.21D-06 BMatP= 2.22D-05
 IDIUse=1 WtCom= 1.00D+00 WtEn= 0.00D+00
 Coeff-Com:  0.974D-01 0.903D+00
 Coeff:      0.974D-01 0.903D+00
 Gap=     0.397 Goal=   None    Shift=    0.000
 RMSDP=6.10D-06 MaxDP=2.96D-04 DE=-2.07D-05 OVMax= 4.54D-04

 Cycle   3  Pass 1  IDiag  1:
 E= -323.429361243327     Delta-E=       -0.000001459284 Rises=F Damp=F
 DIIS: error= 7.84D-05 at cycle   3 NSaved=   3.
 NSaved= 3 IEnMin= 3 EnMin= -323.429361243327     IErMin= 2 ErrMin= 7.41D-05
 ErrMax= 7.84D-05  0.00D+00 EMaxC= 1.00D-01 BMatC= 1.22D-06 BMatP= 2.21D-06
 IDIUse=1 WtCom= 1.00D+00 WtEn= 0.00D+00
 Coeff-Com: -0.524D-01 0.413D+00 0.639D+00
 Coeff:     -0.524D-01 0.413D+00 0.639D+00
 Gap=     0.397 Goal=   None    Shift=    0.000
 RMSDP=2.54D-06 MaxDP=1.50D-04 DE=-1.46D-06 OVMax= 2.41D-04

 Cycle   4  Pass 1  IDiag  1:
 E= -323.429362222489     Delta-E=       -0.000000979162 Rises=F Damp=F
 DIIS: error= 1.62D-05 at cycle   4 NSaved=   4.
 NSaved= 4 IEnMin= 4 EnMin= -323.429362222489     IErMin= 4 ErrMin= 1.62D-05
 ErrMax= 1.62D-05  0.00D+00 EMaxC= 1.00D-01 BMatC= 5.98D-08 BMatP= 1.22D-06
 IDIUse=1 WtCom= 1.00D+00 WtEn= 0.00D+00
 Coeff-Com: -0.219D-01 0.457D-01 0.200D+00 0.777D+00
 Coeff:     -0.219D-01 0.457D-01 0.200D+00 0.777D+00
 Gap=     0.397 Goal=   None    Shift=    0.000
 RMSDP=8.11D-07 MaxDP=3.24D-05 DE=-9.79D-07 OVMax= 1.15D-04

 Cycle   5  Pass 1  IDiag  1:
 E= -323.429362250141     Delta-E=       -0.000000027652 Rises=F Damp=F
 DIIS: error= 7.10D-06 at cycle   5 NSaved=   5.
 NSaved= 5 IEnMin= 5 EnMin= -323.429362250141     IErMin= 5 ErrMin= 7.10D-06
 ErrMax= 7.10D-06  0.00D+00 EMaxC= 1.00D-01 BMatC= 6.66D-09 BMatP= 5.98D-08
 IDIUse=1 WtCom= 1.00D+00 WtEn= 0.00D+00
 Coeff-Com:  0.260D-02-0.488D-01-0.360D-01 0.189D+00 0.894D+00
 Coeff:      0.260D-02-0.488D-01-0.360D-01 0.189D+00 0.894D+00
 Gap=     0.397 Goal=   None    Shift=    0.000
 RMSDP=4.61D-07 MaxDP=1.19D-05 DE=-2.77D-08 OVMax= 7.69D-05

 Cycle   6  Pass 1  IDiag  1:
 E= -323.429362289700     Delta-E=       -0.000000039558 Rises=F Damp=F
 DIIS: error= 4.46D-06 at cycle   6 NSaved=   6.
 NSaved= 6 IEnMin= 6 EnMin= -323.429362289700     IErMin= 6 ErrMin= 4.46D-06
 ErrMax= 4.46D-06  0.00D+00 EMaxC= 1.00D-01 BMatC= 1.09D-09 BMatP= 6.66D-09
 IDIUse=1 WtCom= 1.00D+00 WtEn= 0.00D+00
 Coeff-Com:  0.290D-02-0.162D-01-0.297D-01-0.302D-01 0.203D+00 0.870D+00
 Coeff:      0.290D-02-0.162D-01-0.297D-01-0.302D-01 0.203D+00 0.870D+00
 Gap=     0.397 Goal=   None    Shift=    0.000
 RMSDP=2.02D-07 MaxDP=5.95D-06 DE=-3.96D-08 OVMax= 3.88D-05

 Cycle   7  Pass 1  IDiag  1:
 E= -323.429362293623     Delta-E=       -0.000000003923 Rises=F Damp=F
 DIIS: error= 2.01D-06 at cycle   7 NSaved=   7.
 NSaved= 7 IEnMin= 7 EnMin= -323.429362293623     IErMin= 7 ErrMin= 2.01D-06
 ErrMax= 2.01D-06  0.00D+00 EMaxC= 1.00D-01 BMatC= 3.30D-10 BMatP= 1.09D-09
 IDIUse=1 WtCom= 1.00D+00 WtEn= 0.00D+00
 Coeff-Com:  0.448D-03 0.753D-02-0.326D-02-0.682D-01-0.173D+00 0.281D+00
 Coeff-Com:  0.956D+00
 Coeff:      0.448D-03 0.753D-02-0.326D-02-0.682D-01-0.173D+00 0.281D+00
 Coeff:      0.956D+00
 Gap=     0.397 Goal=   None    Shift=    0.000
 RMSDP=1.55D-07 MaxDP=4.54D-06 DE=-3.92D-09 OVMax= 3.40D-05

 Cycle   8  Pass 1  IDiag  1:
 E= -323.429362295208     Delta-E=       -0.000000001585 Rises=F Damp=F
 DIIS: error= 1.06D-06 at cycle   8 NSaved=   8.
 NSaved= 8 IEnMin= 8 EnMin= -323.429362295208     IErMin= 8 ErrMin= 1.06D-06
 ErrMax= 1.06D-06  0.00D+00 EMaxC= 1.00D-01 BMatC= 5.30D-11 BMatP= 3.30D-10
 IDIUse=1 WtCom= 1.00D+00 WtEn= 0.00D+00
 Coeff-Com: -0.569D-03 0.421D-02 0.654D-02 0.992D-03-0.516D-01-0.224D+00
 Coeff-Com:  0.148D+00 0.112D+01
 Coeff:     -0.569D-03 0.421D-02 0.654D-02 0.992D-03-0.516D-01-0.224D+00
 Coeff:      0.148D+00 0.112D+01
 Gap=     0.397 Goal=   None    Shift=    0.000
 RMSDP=7.83D-08 MaxDP=2.28D-06 DE=-1.59D-09 OVMax= 1.65D-05

 Cycle   9  Pass 1  IDiag  1:
 E= -323.429362295481     Delta-E=       -0.000000000273 Rises=F Damp=F
 DIIS: error= 1.25D-07 at cycle   9 NSaved=   9.
 NSaved= 9 IEnMin= 9 EnMin= -323.429362295481     IErMin= 9 ErrMin= 1.25D-07
 ErrMax= 1.25D-07  0.00D+00 EMaxC= 1.00D-01 BMatC= 2.65D-12 BMatP= 5.30D-11
 IDIUse=1 WtCom= 1.00D+00 WtEn= 0.00D+00
 Coeff-Com: -0.216D-04-0.668D-03 0.469D-03 0.427D-02 0.147D-01-0.219D-01
 Coeff-Com: -0.680D-01-0.477D-01 0.112D+01
 Coeff:     -0.216D-04-0.668D-03 0.469D-03 0.427D-02 0.147D-01-0.219D-01
 Coeff:     -0.680D-01-0.477D-01 0.112D+01
 Gap=     0.397 Goal=   None    Shift=    0.000
 RMSDP=1.92D-08 MaxDP=4.92D-07 DE=-2.73D-10 OVMax= 3.33D-06

 Cycle  10  Pass 1  IDiag  1:
 E= -323.429362295488     Delta-E=       -0.000000000007 Rises=F Damp=F
 DIIS: error= 5.26D-08 at cycle  10 NSaved=  10.
 NSaved=10 IEnMin=10 EnMin= -323.429362295488     IErMin=10 ErrMin= 5.26D-08
 ErrMax= 5.26D-08  0.00D+00 EMaxC= 1.00D-01 BMatC= 7.23D-13 BMatP= 2.65D-12
 IDIUse=1 WtCom= 1.00D+00 WtEn= 0.00D+00
 Coeff-Com:  0.499D-04-0.733D-03-0.460D-03 0.151D-02 0.119D-01 0.160D-01
 Coeff-Com: -0.403D-01-0.142D+00 0.463D+00 0.691D+00
 Coeff:      0.499D-04-0.733D-03-0.460D-03 0.151D-02 0.119D-01 0.160D-01
 Coeff:     -0.403D-01-0.142D+00 0.463D+00 0.691D+00
 Gap=     0.397 Goal=   None    Shift=    0.000
 RMSDP=4.26D-09 MaxDP=1.81D-07 DE=-7.39D-12 OVMax= 6.99D-07

 SCF Done:  E(RLC-wPBE) =  -323.429362295     A.U. after   10 cycles
            NFock= 10  Conv=0.43D-08     -V/T= 2.0037
 KE= 3.222495747821D+02 PE=-1.310726989354D+03 EE= 3.872074520962D+02
 Leave Link  502 at Fri Aug 27 00:11:48 2021, MaxMem= 17179869184 cpu:       330.2
 (Enter /public3/home/sc51754/softwares/g09e01/l701.exe)
 Compute integral first derivatives.
 ... and contract with generalized density number  0.
 Leave Link  701 at Fri Aug 27 00:11:50 2021, MaxMem= 17179869184 cpu:        84.4
 (Enter /public3/home/sc51754/softwares/g09e01/l702.exe)
 L702 exits ... SP integral derivatives will be done elsewhere.
 Leave Link  702 at Fri Aug 27 00:11:50 2021, MaxMem= 17179869184 cpu:         0.3
 (Enter /public3/home/sc51754/softwares/g09e01/l703.exe)
 Compute integral first derivatives, UseDBF=F ICtDFT=           0.
 Integral derivatives from FoFJK, PRISM(SPDF).
 Calling FoFJK, ICntrl=      2127 FMM=F ISym2X=1 I1Cent= 0 IOpClX= 0 NMat=1 NMatS=1 NMatT=0.
 FoFJK:  IHMeth= 1 ICntrl=    2127 DoSepK=T KAlg= 0 I1Cent=   0 FoldK=F
 IRaf=         1 NMat=   1 IRICut=       1 DoRegI=T DoRafI=F ISym2E= 1.
 FoFCou: FMM=F IPFlag=           0 FMFlag=      100000 FMFlg1=         800
         NFxFlg=           0 DoJE=F BraDBF=F KetDBF=F FulRan=T
         wScrn=  0.000000 ICntrl=    2527 IOpCl=  0 I1Cent=           0 NGrid=           0
         NMat0=    1 NMatS0=      1 NMatT0=    0 NMatD0=    1 NMtDS0=    0 NMtDT0=    0
 Petite list used in FoFCou.
 Leave Link  703 at Fri Aug 27 00:11:54 2021, MaxMem= 17179869184 cpu:       237.3
 (Enter /public3/home/sc51754/softwares/g09e01/l716.exe)
 Dipole        = 1.97816774D-01-5.06412310D-01-2.66063471D-32
 ***** Axes restored to original set *****
 -------------------------------------------------------------------
 Center     Atomic                   Forces (Hartrees/Bohr)
 Number     Number              X              Y              Z
 -------------------------------------------------------------------
      1        8           0.000495718    0.001056582   -0.000000000
[...]
     30  0.868116D-02  0.000000D+00  0.000000D+00 -0.259840D-03  0.000000D+00
     31  0.000000D+00  0.582322D-04 -0.763379D-04  0.000000D+00  0.667428D-03
     32  0.000000D+00  0.960861D-05 -0.396888D-03  0.000000D+00 -0.491421D-03
     33  0.613459D-02  0.000000D+00  0.000000D+00 -0.370169D-03  0.000000D+00
     34  0.000000D+00 -0.107689D-03 -0.243102D-03  0.000000D+00  0.163900D-03
     35  0.000000D+00  0.996947D-04  0.165111D-03  0.000000D+00  0.202721D-03
     36 -0.353070D-01  0.000000D+00  0.000000D+00  0.526990D-05  0.000000D+00
               26            27            28            29            30 
     26  0.138232D+00
     27  0.000000D+00  0.251030D-01
     28 -0.347013D-04  0.000000D+00  0.309533D+00
     29  0.108320D-03  0.000000D+00  0.114347D+00  0.118646D+00
     30  0.000000D+00 -0.164164D-02  0.000000D+00  0.000000D+00  0.284661D-01
     31  0.369257D-03  0.000000D+00 -0.927999D-03  0.834573D-03  0.000000D+00
     32  0.113600D-02  0.000000D+00 -0.692697D-03  0.448153D-03  0.000000D+00
     33  0.000000D+00 -0.497202D-02  0.000000D+00  0.000000D+00 -0.607450D-03
     34 -0.126208D-02  0.000000D+00  0.618481D-03 -0.597843D-03  0.000000D+00
     35 -0.404414D-03  0.000000D+00  0.406409D-03  0.509024D-03  0.000000D+00
     36  0.000000D+00  0.415720D-03  0.000000D+00  0.000000D+00 -0.387407D-02
               31            32            33            34            35 
     31  0.283074D+00
     32 -0.137681D+00  0.142264D+00
     33  0.000000D+00  0.000000D+00  0.285724D-01
     34  0.103827D-02  0.694192D-03  0.000000D+00  0.574657D-01
     35 -0.309327D-03  0.645679D-03  0.000000D+00  0.183012D-01  0.370893D+00
     36  0.000000D+00  0.000000D+00 -0.382286D-02  0.000000D+00  0.000000D+00
               36 
     36  0.259284D-01
 FormGI is forming the generalized inverse of G from B-inverse, IUseBI=4.
 Leave Link  716 at Fri Aug 27 00:13:03 2021, MaxMem= 17179869184 cpu:        22.8
 (Enter /public3/home/sc51754/softwares/g09e01/l103.exe)

 GradGradGradGradGradGradGradGradGradGradGradGradGradGradGradGradGradGrad
 Berny optimization.
 Red2BG is reusing G-inverse.
 Internal  Forces:  Max     0.000290184 RMS     0.000082770
 Search for a local minimum.
 Step number   1 out of a maximum of    2
 All quantities printed in internal units (Hartrees-Bohrs-Radians)
 Second derivative matrix not updated -- analytic derivatives used.
 ITU=  0
     Eigenvalues ---    0.01391   0.01667   0.01850   0.02295   0.02408
     Eigenvalues ---    0.02813   0.03176   0.03906   0.04676   0.10490
     Eigenvalues ---    0.11082   0.12113   0.13156   0.15525   0.18950
     Eigenvalues ---    0.20216   0.21546   0.23521   0.31510   0.36232
     Eigenvalues ---    0.36788   0.37265   0.37433   0.40681   0.46801
     Eigenvalues ---    0.48039   0.51476   0.54090   0.56159   0.61888
 Angle between quadratic step and forces=  28.83 degrees.
 Linear search not attempted -- first point.
 Iteration  1 RMS(Cart)=  0.00024760 RMS(Int)=  0.00000006
 Iteration  2 RMS(Cart)=  0.00000009 RMS(Int)=  0.00000001
 ITry= 1 IFail=0 DXMaxC= 8.14D-04 DCOld= 1.00D+10 DXMaxT= 3.00D-01 DXLimC= 3.00D+00 Rises=F
 ClnCor:  largest displacement from symmetrization is 1.92D-11 for atom     8.
 Variable       Old X    -DE/DX   Delta X   Delta X   Delta X     New X
                                 (Linear)    (Quad)   (Total)
    R1        2.53977   0.00023   0.00000   0.00062   0.00062   2.54040
    R2        1.82091   0.00003   0.00000   0.00006   0.00006   1.82097
    R3        2.48222  -0.00029   0.00000  -0.00097  -0.00097   2.48125
    R4        2.51377   0.00027   0.00000   0.00091   0.00091   2.51468
    R5        2.62806   0.00028   0.00000   0.00090   0.00090   2.62896
    R6        2.59174   0.00000   0.00000  -0.00031  -0.00031   2.59143
    R7        2.04202  -0.00001   0.00000  -0.00005  -0.00005   2.04197
    R8        2.59651   0.00006   0.00000  -0.00027  -0.00027   2.59624
    R9        2.04995  -0.00002   0.00000  -0.00009  -0.00009   2.04986
   R10        2.62380   0.00018   0.00000   0.00075   0.00075   2.62455
   R11        2.04689  -0.00003   0.00000  -0.00008  -0.00008   2.04681
   R12        2.04270  -0.00003   0.00000  -0.00007  -0.00007   2.04263
    A1        1.85801   0.00000   0.00000  -0.00011  -0.00011   1.85790
    A2        2.05573  -0.00001   0.00000  -0.00010  -0.00010   2.05562
    A3        2.04817  -0.00003   0.00000   0.00021   0.00021   2.04837
    A4        2.07219  -0.00005   0.00000  -0.00062  -0.00062   2.07157
    A5        2.16282   0.00008   0.00000   0.00042   0.00042   2.16324
    A6        2.04854  -0.00001   0.00000  -0.00021  -0.00021   2.04833
    A7        2.09352   0.00002   0.00000   0.00006   0.00006   2.09358
    A8        2.14112  -0.00001   0.00000   0.00015   0.00015   2.14127
    A9        2.15339  -0.00002   0.00000  -0.00017  -0.00017   2.15321
   A10        2.02247  -0.00003   0.00000  -0.00033  -0.00033   2.02214
   A11        2.10733   0.00005   0.00000   0.00050   0.00050   2.10783
   A12        2.08879  -0.00004   0.00000  -0.00013  -0.00013   2.08866
   A13        2.09298   0.00003   0.00000   0.00034   0.00034   2.09332
   A14        2.10142   0.00000   0.00000  -0.00021  -0.00021   2.10121
   A15        2.05710   0.00001   0.00000   0.00020   0.00020   2.05730
   A16        2.10470   0.00003   0.00000   0.00031   0.00031   2.10501
   A17        2.12138  -0.00004   0.00000  -0.00051  -0.00051   2.12087
    D1       -0.00000   0.00000   0.00000   0.00000   0.00000   0.00000
    D2        3.14159  -0.00000   0.00000   0.00000   0.00000   3.14159
    D3        3.14159  -0.00000   0.00000   0.00000   0.00000   3.14159
    D4       -0.00000  -0.00000   0.00000   0.00000   0.00000   0.00000
    D5        0.00000   0.00000   0.00000   0.00000  -0.00000   0.00000
    D6        3.14159   0.00000   0.00000   0.00000   0.00000   3.14159
    D7        3.14159   0.00000   0.00000  -0.00000   0.00000   3.14159
    D8        0.00000   0.00000   0.00000  -0.00000  -0.00000   0.00000
    D9       -0.00000   0.00000   0.00000  -0.00000   0.00000   0.00000
   D10        3.14159   0.00000   0.00000  -0.00000   0.00000   3.14159
   D11        0.00000  -0.00000   0.00000   0.00000  -0.00000   0.00000
   D12        3.14159   0.00000   0.00000   0.00000   0.00000   3.14159
   D13        3.14159   0.00000   0.00000  -0.00000   0.00000   3.14159
   D14       -0.00000   0.00000   0.00000   0.00000   0.00000   0.00000
   D15        0.00000   0.00000   0.00000  -0.00000   0.00000   0.00000
   D16        3.14159  -0.00000   0.00000  -0.00000   0.00000   3.14159
   D17        3.14159  -0.00000   0.00000  -0.00000   0.00000   3.14159
   D18        0.00000  -0.00000   0.00000  -0.00000  -0.00000   0.00000
   D19       -0.00000  -0.00000   0.00000   0.00000   0.00000   0.00000
   D20        3.14159  -0.00000   0.00000   0.00000   0.00000   3.14159
   D21        3.14159  -0.00000   0.00000   0.00000   0.00000   3.14159
   D22        0.00000  -0.00000   0.00000  -0.00000   0.00000   0.00000
         Item               Value     Threshold  Converged?
 Maximum Force            0.000290     0.000450     YES
 RMS     Force            0.000083     0.000300     YES
 Maximum Displacement     0.000814     0.001800     YES
 RMS     Displacement     0.000248     0.001200     YES
 Predicted change in Energy=-6.005645D-07
 Optimization completed.
    -- Stationary point found.
                           ----------------------------
                           !   Optimized Parameters   !
                           ! (Angstroms and Degrees)  !
 --------------------------                            --------------------------
 ! Name  Definition              Value          Derivative Info.                !
 --------------------------------------------------------------------------------
 ! R1    R(1,3)                  1.344          -DE/DX =    0.0002              !
 ! R2    R(1,8)                  0.9636         -DE/DX =    0.0                 !
 ! R3    R(2,3)                  1.3135         -DE/DX =   -0.0003              !
 ! R4    R(2,5)                  1.3302         -DE/DX =    0.0003              !
 ! R5    R(3,4)                  1.3907         -DE/DX =    0.0003              !
 ! R6    R(4,6)                  1.3715         -DE/DX =    0.0                 !
 ! R7    R(4,9)                  1.0806         -DE/DX =    0.0                 !
 ! R8    R(5,7)                  1.374          -DE/DX =    0.0001              !
 ! R9    R(5,10)                 1.0848         -DE/DX =    0.0                 !
 ! R10   R(6,7)                  1.3885         -DE/DX =    0.0002              !
 ! R11   R(6,11)                 1.0832         -DE/DX =    0.0                 !
 ! R12   R(7,12)                 1.081          -DE/DX =    0.0                 !
 ! A1    A(3,1,8)              106.4559         -DE/DX =    0.0                 !
 ! A2    A(3,2,5)              117.7846         -DE/DX =    0.0                 !
 ! A3    A(1,3,2)              117.3514         -DE/DX =    0.0                 !
 ! A4    A(1,3,4)              118.7278         -DE/DX =    0.0                 !
 ! A5    A(2,3,4)              123.9207         -DE/DX =    0.0001              !
 ! A6    A(3,4,6)              117.3729         -DE/DX =    0.0                 !
 ! A7    A(3,4,9)              119.95           -DE/DX =    0.0                 !
 ! A8    A(6,4,9)              122.6772         -DE/DX =    0.0                 !
 ! A9    A(2,5,7)              123.38           -DE/DX =    0.0                 !
 ! A10   A(2,5,10)             115.879          -DE/DX =    0.0                 !
 ! A11   A(7,5,10)             120.741          -DE/DX =    0.0                 !
 ! A12   A(4,6,7)              119.6788         -DE/DX =    0.0                 !
 ! A13   A(4,6,11)             119.919          -DE/DX =    0.0                 !
 ! A14   A(7,6,11)             120.4022         -DE/DX =    0.0                 !
 ! A15   A(5,7,6)              117.8631         -DE/DX =    0.0                 !
 ! A16   A(5,7,12)             120.5906         -DE/DX =    0.0                 !
 ! A17   A(6,7,12)             121.5463         -DE/DX =    0.0                 !
 ! D1    D(8,1,3,2)              0.0            -DE/DX =    0.0                 !
 ! D2    D(8,1,3,4)            180.0            -DE/DX =    0.0                 !
 ! D3    D(5,2,3,1)            180.0            -DE/DX =    0.0                 !
 ! D4    D(5,2,3,4)              0.0            -DE/DX =    0.0                 !
 ! D5    D(3,2,5,7)              0.0            -DE/DX =    0.0                 !
 ! D6    D(3,2,5,10)           180.0            -DE/DX =    0.0                 !
 ! D7    D(1,3,4,6)            180.0            -DE/DX =    0.0                 !
 ! D8    D(1,3,4,9)              0.0            -DE/DX =    0.0                 !
 ! D9    D(2,3,4,6)              0.0            -DE/DX =    0.0                 !
 ! D10   D(2,3,4,9)            180.0            -DE/DX =    0.0                 !
 ! D11   D(3,4,6,7)              0.0            -DE/DX =    0.0                 !
 ! D12   D(3,4,6,11)           180.0            -DE/DX =    0.0                 !
 ! D13   D(9,4,6,7)            180.0            -DE/DX =    0.0                 !
 ! D14   D(9,4,6,11)             0.0            -DE/DX =    0.0                 !
 ! D15   D(2,5,7,6)              0.0            -DE/DX =    0.0                 !
 ! D16   D(2,5,7,12)           180.0            -DE/DX =    0.0                 !
 ! D17   D(10,5,7,6)           180.0            -DE/DX =    0.0                 !
 ! D18   D(10,5,7,12)            0.0            -DE/DX =    0.0                 !
 ! D19   D(4,6,7,5)              0.0            -DE/DX =    0.0                 !
 ! D20   D(4,6,7,12)           180.0            -DE/DX =    0.0                 !
 ! D21   D(11,6,7,5)           180.0            -DE/DX =    0.0                 !
 ! D22   D(11,6,7,12)            0.0            -DE/DX =    0.0                 !
 --------------------------------------------------------------------------------
 GradGradGradGradGradGradGradGradGradGradGradGradGradGradGradGradGradGrad

 Leave Link  103 at Fri Aug 27 00:13:05 2021, MaxMem= 17179869184 cpu:        67.9
 (Enter /public3/home/sc51754/softwares/g09e01/l9999.exe)
 1\1\GINC-R2613\Freq\RLC-wPBE\Gen\C5H5N1O1\SC51754\27-Aug-2021\0\\#P Ge
 om=AllCheck Guess=TCheck SCRF=Check GenChk RLC-wPBE/ChkBas Freq\\HY_LC
 -wPBE_PC2_OPT_FREQ\\0,1\O,0.0054801003,2.2392838046,0.\N,-1.1670597535
 ,0.2953141318,0.\C,0.0014369764,0.8953001782,0.\C,1.2189492662,0.22319
 15473,0.\C,-1.1811174469,-1.0348409763,0.\C,1.1823936125,-1.1478126906
 ,0.\C,-0.0418139384,-1.8028911731,0.\H,-0.9178089856,2.5150247111,0.\H
 ,2.143736719,0.7821563002,0.\H,-2.1620674235,-1.4979787076,0.\H,2.1064
 765676,-1.7129018136,0.\H,-0.1058246941,-2.881945312,0.\\Version=EM64L
 -G09RevE.01\State=1-A'\HF=-323.4293661\RMSD=3.249e-09\RMSF=1.611e-04\Z
 eroPoint=0.0951781\Thermal=0.1003102\Dipole=0.1970318,-0.508946,0.\Dip
 oleDeriv=-0.2422212,0.1518012,0.,0.1006264,-1.658213,0.,0.,0.,-0.39099
 28,-0.4784287,-0.2585489,0.,0.2157365,-0.8047147,0.,0.,0.,-0.2951686,0
 .2792713,-0.2695639,0.,-0.0568736,1.8666933,0.,0.,0.,0.234194,-0.04902
 1,0.4377459,0.,-0.087974,-0.5496751,0.,0.,0.,-0.1623998,0.4688195,0.13
 92188,0.,-0.2887913,0.3579573,0.,0.,0.,0.0005992,0.3132919,0.1058109,0
 .,0.1738276,0.3982506,0.,0.,0.,-0.0836349,-0.5525608,-0.1666476,0.,0.0
 848253,-0.0978558,0.,0.,0.,-0.1690352,0.2274922,-0.0585359,0.,-0.08803
 09,0.4072008,0.,0.,0.,0.3259247,0.0110522,-0.050434,0.,-0.0465579,0.05
 53316,0.,0.,0.,0.1540593,-0.0370379,-0.0849875,0.,-0.0553195,0.0265625
 ,0.,0.,0.,0.1055144,-0.0165285,0.06644,0.,0.0642606,0.0538247,0.,0.,0.
 ,0.1259996,0.0758708,-0.0122992,0.,-0.0157292,-0.0553621,0.,0.,0.,0.15
 49402\Polar=71.2336958,0.3074458,81.4488405,0.,0.,37.0164049\PG=CS [SG
 (C5H5N1O1)]\NImag=0\\0.60427722,-0.10985002,0.50338394,0.,0.,0.0378033
 4,-0.00746739,-0.03524602,0.,0.50869395,-0.06984996,-0.05377133,0.,0.1
 3155019,0.66540127,0.,0.,0.00812184,0.,0.,0.09433016,-0.11037034,-0.01
 432761,0.,-0.33115717,-0.04523254,0.,0.75140390,0.03334079,-0.32801188
 ,0.,-0.10502384,-0.18587140,0.,-0.01436155,0.76870857,0.,0.,-0.0559192
 7,0.,0.,-0.07671721,0.,0.,0.19857688,0.00016233,0.01589064,0.,-0.06918
 749,-0.04373335,0.,-0.28086518,0.11137927,0.,0.74474537,0.05308699,-0.
 04548376,0.,0.02938807,0.08422894,0.,0.01930106,-0.16018069,0.,0.05655
 085,0.76316309,0.,0.,0.01027516,0.,0.,0.02253524,0.,0.,-0.08226986,0.,
 0.,0.13127836,-0.00619005,0.00350513,0.,-0.12792455,-0.02463349,0.,0.0
 3328865,-0.05009480,0.,-0.02360303,0.03480237,0.,0.78846073,0.01028077
 ,0.00004835,0.,0.02507631,-0.36744717,0.,-0.13239866,-0.04438247,0.,0.
 04829997,-0.07477492,0.,0.03069380,0.71544813,0.,0.,0.01108910,0.,0.,-
 0.06837687,0.,0.,-0.00264722,0.,0.,-0.00694488,0.,0.,0.17102152,-0.012
 37082,0.00501431,0.,-0.02847934,-0.05260942,0.,0.06631538,0.03050464,0
 .,-0.14300328,0.03385596,0.,-0.06548458,0.04464890,0.,0.74572700,-0.00
 781661,0.00993271,0.,-0.04547189,-0.07446890,0.,0.10677554,-0.03276010
 ,0.,-0.04811390,-0.39273854,0.,-0.02683714,0.09206085,0.,-0.04165495,0
 .73934338,0.,0.,0.00477910,0.,0.,-0.00921834,0.,0.,0.00401068,0.,0.,-0
 .06370540,0.,0.,0.00969684,0.,0.,0.15494855,0.01068753,-0.00691996,0.,
 0.05971083,0.10587216,0.,-0.11187234,0.00211240,0.,0.04776230,-0.09262
 634,0.,-0.30375982,0.05171681,0.,-0.29840409,-0.04308832,0.,0.68827921
 ,-0.00201300,-0.00780611,0.,0.02131165,-0.05047286,0.,0.01524209,0.005
 99831,0.,-0.03392450,-0.02116202,0.,0.14283575,-0.20470123,0.,-0.12732
 314,-0.18406518,0.,-0.00285206,0.79495871,0.,0.,-0.00141261,0.,0.,0.02
 487380,0.,0.,-0.01071345,0.,0.,0.00925326,0.,0.,-0.07499818,0.,0.,-0.0
 6902988,0.,0.,0.13309716,-0.48101133,0.14231121,0.,-0.00121380,-0.0036
 0253,0.,-0.00285379,0.01139623,0.,0.00261115,-0.00246074,0.,-0.0006645
 5,-0.00161902,0.,0.00039876,0.00147416,0.,-0.00121320,-0.00061062,0.,0
 .48382433,0.09304826,-0.07742620,0.,0.00208682,0.00799989,0.,0.0535761
 4,-0.02689126,0.,-0.00191012,-0.00699845,0.,-0.00073100,-0.00219993,0.
 ,0.00241594,0.00077429,0.,-0.00157460,0.00107192,0.,-0.14671338,0.1035
 1221,0.,0.,-0.01103860,0.,0.,-0.00365005,0.,0.,0.00156506,0.,0.,0.0033
 8162,0.,0.,-0.00072899,0.,0.,0.00131824,0.,0.,0.00053224,0.,0.,0.00988
 659,0.00170647,-0.00039177,0.,-0.00562321,0.00275272,0.,-0.01568207,-0
 .01932952,0.,-0.27950010,-0.12804293,0.,0.00039791,0.00227689,0.,0.005
 65369,0.00225701,0.,0.00214963,0.00076920,0.,0.00010771,-0.00003625,0.
 ,0.29001607,-0.00067432,0.00081523,0.,0.00515501,-0.00029064,0.,0.0130
 1690,0.01201700,0.,-0.13014330,-0.13613045,0.,0.00046339,-0.00155996,0
 .,-0.02787324,-0.00891588,0.,0.00103337,-0.00511799,0.,-0.00022903,0.0
 0011050,0.,0.14017873,0.13823228,0.,0.,-0.00210284,0.,0.,0.00564294,0.
 ,0.,0.00276436,0.,0.,-0.03615994,0.,0.,-0.00018269,0.,0.,0.00288558,0.
 ,0.,0.00888888,0.,0.,-0.00064137,0.,0.,0.02510303,-0.00014760,-0.00026
 154,0.,0.00604884,-0.00437207,0.,0.00293301,0.00163265,0.,0.00032454,0
 .00095328,0.,-0.29868760,-0.10215172,0.,-0.00349429,0.00357669,0.,-0.0
 1620682,-0.01356123,0.,0.00006417,0.00015763,0.,-0.00005743,-0.0000347
 0,0.,0.30953269,-0.00101739,-0.00099103,0.,-0.03127697,-0.02342962,0.,
 -0.00126425,-0.00432564,0.,0.00016482,-0.00078909,0.,-0.10033909,-0.10
 062627,0.,0.00343940,-0.00145375,0.,0.01591039,0.01162525,0.,-0.000055
 58,0.00027881,0.,-0.00014536,0.00010832,0.,0.11434731,0.11864585,0.,0.
 ,0.00028470,0.,0.,-0.00267329,0.,0.,0.01063948,0.,0.,-0.00069230,0.,0.
 ,-0.04615344,0.,0.,0.00783064,0.,0.,0.00868116,0.,0.,-0.00025984,0.,0.
 ,-0.00164164,0.,0.,0.02846606,0.00001163,0.00021174,0.,0.00037867,-0.0
 0081713,0.,0.00182869,-0.00130263,0.,0.00505662,-0.00260038,0.,-0.0041
 7553,-0.00359523,0.,-0.27079067,0.12786591,0.,-0.01621894,0.01710045,0
 .,0.00005823,-0.00007634,0.,0.00066743,0.00036926,0.,-0.00092800,0.000
 83457,0.,0.28307359,0.00166163,-0.00075377,0.,-0.00070090,-0.00095112,
 0.,-0.00085424,-0.00516422,0.,0.02799440,-0.00987082,0.,-0.00363288,-0
 .00044915,0.,0.12713447,-0.13950517,0.,-0.01344127,0.01259685,0.,0.000
 00961,-0.00039689,0.,-0.00049142,0.00113600,0.,-0.00069270,0.00044815,
 0.,-0.13768089,0.14226446,0.,0.,-0.00048688,0.,0.,-0.00311598,0.,0.,0.
 01017086,0.,0.,0.00640489,0.,0.,0.00758133,0.,0.,-0.04548873,0.,0.,0.0
 0613459,0.,0.,-0.00037017,0.,0.,-0.00497202,0.,0.,-0.00060745,0.,0.,0.
 02857243,0.00071233,0.00006390,0.,-0.00377934,0.00467541,0.,-0.0029687
 4,-0.00025363,0.,-0.00450323,-0.00220818,0.,0.00834240,0.02677119,0.,0
 .00393224,-0.02896650,0.,-0.06091430,-0.01697459,0.,-0.00010769,-0.000
 24310,0.,0.00016390,-0.00126208,0.,0.00061848,-0.00059784,0.,0.0010382
 7,0.00069419,0.,0.05746567,-0.00019715,0.00006385,0.,0.00315157,-0.000
 92706,0.,0.00052711,0.00086377,0.,-0.00245477,0.00073670,0.,-0.0060320
 5,-0.01141622,0.,0.00244712,-0.00820370,0.,-0.01614257,-0.35292564,0.,
 0.00009969,0.00016511,0.,0.00020272,-0.00040441,0.,0.00040641,0.000509
 02,0.,-0.00030933,0.00064568,0.,0.01830123,0.37089290,0.,0.,-0.0013930
 2,0.,0.,0.00824775,0.,0.,0.00053969,0.,0.,0.00664386,0.,0.,0.00064349,
 0.,0.,0.00197272,0.,0.,-0.03530697,0.,0.,0.00000527,0.,0.,0.00041572,0
 .,0.,-0.00387407,0.,0.,-0.00382286,0.,0.,0.02592842\\-0.00004832,-0.00
 022083,0.,-0.00023584,-0.00044936,0.,0.00051917,0.00032001,0.,-0.00025
 937,0.00006978,0.,0.00005709,0.00028492,0.,-0.00022754,-0.00004920,0.,
 0.00016237,0.00009920,0.,0.00001934,-0.00001374,0.,-0.00000007,0.00002
 526,0.,0.00000613,-0.00004797,0.,0.00003554,0.00000755,0.,-0.00002849,
 -0.00002561,0.\\\@


 A SUCCESSFUL PURSUIT OF SCIENCE MAKES A MAN THE
 BENEFACTOR OF ALL MANKIND OF EVERY AGE.
   --  JOSEPH PRIESTLEY, "EXPERIMENTS AND
 OBSERVATIONS ON DIFFERENT KINDS OF AIR", 1774
 Job cpu time:       0 days  0 hours 51 minutes 41.3 seconds.
 File lengths (MBytes):  RWF=     80 Int=      0 D2E=      0 Chk=      7 Scr=      1
 Normal termination of Gaussian 09 at Fri Aug 27 00:13:05 2021.
