 Entering Gaussian System, Link 0=g09
 AtFile(1): pc-2.gbs
            -H     0
            S    4   1.00
                  0.754230D+02           0.240650D-02
                  0.113500D+02           0.184870D-01
                  0.259930D+01           0.897420D-01
                  0.735130D+00           0.281110D+00
            S    1   1.00
                  0.231670D+00           0.100000D+01
            S    1   1.00
                  0.741470D-01           0.100000D+01
            P    1   1.00
                  0.160000D+01           0.100000D+01
            P    1   1.00
                  0.450000D+00           0.100000D+01
            D    1   1.00
                  0.125000D+01           0.100000D+01
            ****
            -C     0
            S    7   1.00
                  0.785710D+04           0.568250D-03
                  0.117870D+04           0.439150D-02
                  0.268320D+03           0.225040D-01
                  0.759480D+02           0.866530D-01
                  0.245590D+02           0.244050D+00
                  0.862120D+01           0.441480D+00
                  0.312780D+01           0.353320D+00
            S    7   1.00
                  0.117870D+04          -0.594920D-06
                  0.268320D+03          -0.627480D-04
                  0.759480D+02          -0.757730D-03
                  0.245590D+02          -0.733080D-02
                  0.862120D+01          -0.389320D-01
                  0.312780D+01          -0.889080D-01
                  0.822020D+00           0.216890D+00
            S    1   1.00
                  0.330170D+00           0.100000D+01
            S    1   1.00
                  0.114630D+00           0.100000D+01
            P    4   1.00
                  0.337750D+02           0.602940D-02
                  0.767660D+01           0.432280D-01
                  0.223570D+01           0.163010D+00
                  0.764470D+00           0.365040D+00
            P    1   1.00
                  0.262320D+00           0.100000D+01
            P    1   1.00
                  0.846380D-01           0.100000D+01
            D    1   1.00
                  0.140000D+01           0.100000D+01
            D    1   1.00
                  0.450000D+00           0.100000D+01
            F    1   1.00
                  0.950000D+00           0.100000D+01
            ****
            -N     0
            S    7   1.00
                  0.111010D+05           0.545700D-03
                  0.166530D+04           0.421810D-02
                  0.379080D+03           0.216450D-01
                  0.107300D+03           0.837760D-01
                  0.347470D+02           0.238810D+00
                  0.122490D+02           0.439940D+00
                  0.447430D+01           0.363640D+00
            S    7   1.00
                  0.166530D+04          -0.150060D-05
                  0.379080D+03          -0.587530D-04
                  0.107300D+03          -0.774530D-03
                  0.347470D+02          -0.721610D-02
                  0.122490D+02          -0.393380D-01
                  0.447430D+01          -0.906110D-01
                  0.124040D+01           0.198820D+00
            S    1   1.00
                  0.487430D+00           0.100000D+01
            S    1   1.00
                  0.164840D+00           0.100000D+01
            P    4   1.00
                  0.479340D+02           0.617060D-02
                  0.109990D+02           0.442600D-01
                  0.324720D+01           0.168250D+00
                  0.111140D+01           0.368480D+00
            P    1   1.00
                  0.379880D+00           0.100000D+01
            P    1   1.00
                  0.120680D+00           0.100000D+01
            D    1   1.00
                  0.180000D+01           0.100000D+01
            D    1   1.00
                  0.550000D+00           0.100000D+01
            F    1   1.00
                  0.102000D+01           0.100000D+01
            ****
            -O     0
            S    7   1.00
                  0.147820D+05           0.535190D-03
                  0.221730D+04           0.413750D-02
                  0.504740D+03           0.212450D-01
                  0.142870D+03           0.824530D-01
                  0.463000D+02           0.236710D+00
                  0.163370D+02           0.440390D+00
                  0.598280D+01           0.364650D+00
            S    7   1.00
                  0.221730D+04          -0.192750D-05
                  0.504740D+03          -0.579640D-04
                  0.142870D+03          -0.794940D-03
                  0.463000D+02          -0.731250D-02
                  0.163370D+02          -0.405740D-01
                  0.598280D+01          -0.915940D-01
                  0.167180D+01           0.209400D+00
            S    1   1.00
                  0.646620D+00           0.100000D+01
            S    1   1.00
                  0.216690D+00           0.100000D+01
            P    4   1.00
                  0.604240D+02           0.689490D-02
                  0.139350D+02           0.490050D-01
                  0.415310D+01           0.182550D+00
                  0.141580D+01           0.376330D+00
            P    1   1.00
                  0.475490D+00           0.100000D+01
            P    1   1.00
                  0.145290D+00           0.100000D+01
            D    1   1.00
                  0.220000D+01           0.100000D+01
            D    1   1.00
                  0.650000D+00           0.100000D+01
            F    1   1.00
                  0.110000D+01           0.100000D+01
            ****
 Initial command:
 /public3/home/sc51754/softwares/g09e01/l1.exe "./Gau-32434.inp" -scrdir="./"
 Entering Link 1 = /public3/home/sc51754/softwares/g09e01/l1.exe PID=     32435.
  
 Copyright (c) 1988,1990,1992,1993,1995,1998,2003,2009,2015,
            Gaussian, Inc.  All Rights Reserved.
  
 This is part of the Gaussian(R) 09 program.  It is based on
 the Gaussian(R) 03 system (copyright 2003, Gaussian, Inc.),
 the Gaussian(R) 98 system (copyright 1998, Gaussian, Inc.),
 the Gaussian(R) 94 system (copyright 1995, Gaussian, Inc.),
 the Gaussian 92(TM) system (copyright 1992, Gaussian, Inc.),
 the Gaussian 90(TM) system (copyright 1990, Gaussian, Inc.),
 the Gaussian 88(TM) system (copyright 1988, Gaussian, Inc.),
 the Gaussian 86(TM) system (copyright 1986, Carnegie Mellon
 University), and the Gaussian 82(TM) system (copyright 1983,
 Carnegie Mellon University). Gaussian is a federally registered
 trademark of Gaussian, Inc.
  
 This software contains proprietary and confidential information,
 including trade secrets, belonging to Gaussian, Inc.
  
 This software is provided under written license and may be
 used, copied, transmitted, or stored only in accord with that
 written license.
  
 The following legend is applicable only to US Government
 contracts under FAR:
  
                    RESTRICTED RIGHTS LEGEND
  
 Use, reproduction and disclosure by the US Government is
 subject to restrictions as set forth in subparagraphs (a)
 and (c) of the Commercial Computer Software - Restricted
 Rights clause in FAR 52.227-19.
  
 Gaussian, Inc.
 340 Quinnipiac St., Bldg. 40, Wallingford CT 06492
  
  
 ---------------------------------------------------------------
 Warning -- This program may not be used in any manner that
 competes with the business of Gaussian, Inc. or will provide
 assistance to any competitor of Gaussian, Inc.  The licensee
 of this program is prohibited from giving any competitor of
 Gaussian, Inc. access to this program.  By using this program,
 the user acknowledges that Gaussian, Inc. is engaged in the
 business of creating and licensing software in the field of
 computational chemistry and represents and warrants to the
 licensee that it is not a competitor of Gaussian, Inc. and that
 it will not use this program in any manner prohibited above.
 ---------------------------------------------------------------
  

 Cite this work as:
 Gaussian 09, Revision E.01,
 M. J. Frisch, G. W. Trucks, H. B. Schlegel, G. E. Scuseria, 
 M. A. Robb, J. R. Cheeseman, G. Scalmani, V. Barone, B. Mennucci, 
 G. A. Petersson, H. Nakatsuji, M. Caricato, X. Li, H. P. Hratchian, 
 A. F. Izmaylov, J. Bloino, G. Zheng, J. L. Sonnenberg, M. Hada, 
 M. Ehara, K. Toyota, R. Fukuda, J. Hasegawa, M. Ishida, T. Nakajima, 
 Y. Honda, O. Kitao, H. Nakai, T. Vreven, J. A. Montgomery, Jr., 
 J. E. Peralta, F. Ogliaro, M. Bearpark, J. J. Heyd, E. Brothers, 
 K. N. Kudin, V. N. Staroverov, T. Keith, R. Kobayashi, J. Normand, 
 K. Raghavachari, A. Rendell, J. C. Burant, S. S. Iyengar, J. Tomasi, 
 M. Cossi, N. Rega, J. M. Millam, M. Klene, J. E. Knox, J. B. Cross, 
 V. Bakken, C. Adamo, J. Jaramillo, R. Gomperts, R. E. Stratmann, 
 O. Yazyev, A. J. Austin, R. Cammi, C. Pomelli, J. W. Ochterski, 
 R. L. Martin, K. Morokuma, V. G. Zakrzewski, G. A. Voth, 
 P. Salvador, J. J. Dannenberg, S. Dapprich, A. D. Daniels, 
 O. Farkas, J. B. Foresman, J. V. Ortiz, J. Cioslowski, 
 and D. J. Fox, Gaussian, Inc., Wallingford CT, 2013.
 
 ******************************************
 Gaussian 09:  EM64L-G09RevE.01 30-Nov-2015
                27-Aug-2021 
 ******************************************
 %nprocshared=64
 Will use up to   64 processors via shared memory.
 %mem=128GB
 %chk=HY_M06_PC2_OPT_FREQ.chk
 -------------------
 #p opt freq M06/gen
 -------------------
 1/14=-1,18=20,19=15,26=3,38=1/1,3;
 2/9=110,12=2,17=6,18=5,40=1/2;
 3/5=7,11=2,16=1,25=1,30=1,71=1,74=-54/1,2,3;
 4//1;
 5/5=2,38=5/2;
 6/7=2,8=2,9=2,10=2,28=1/1;
 7//1,2,3,16;
 1/14=-1,18=20,19=15,26=3/3(2);
 2/9=110/2;
 99//99;
 2/9=110/2;
 3/5=7,6=1,11=2,16=1,25=1,30=1,71=1,74=-54,82=7/1,2,3;
 4/5=5,16=3,69=1/1;
 5/5=2,38=5/2;
 7//1,2,3,16;
 1/14=-1,18=20,19=15,26=3/3(-5);
 2/9=110/2;
 6/7=2,8=2,9=2,10=2,19=2,28=1/1;
 99/9=1/99;
 Leave Link    1 at Fri Aug 27 00:15:02 2021, MaxMem= 17179869184 cpu:         4.3
 (Enter /public3/home/sc51754/softwares/g09e01/l101.exe)
 -------------------
 HY_M06_PC2_OPT_FREQ
 -------------------
 Symbolic Z-matrix:
 Charge =  0 Multiplicity = 1
 O                     0.00837   2.23974   0. 
 N                    -1.17143   0.29602   0. 
 C                     0.        0.89831   0. 
 C                     1.21926   0.22535   0. 
 C                    -1.18415  -1.03535   0. 
 C                     1.18363  -1.14867   0. 
 C                    -0.04131  -1.80488   0. 
 H                    -0.91394   2.51588   0. 
 H                     2.14363   0.78426   0. 
 H                    -2.16362  -1.50192   0. 
 H                     2.10659  -1.71377   0. 
 H                    -0.10426  -2.88308   0. 
 
 NAtoms=     12 NQM=       12 NQMF=       0 NMMI=      0 NMMIF=      0
                NMic=       0 NMicF=      0.
                    Isotopes and Nuclear Properties:
 (Nuclear quadrupole moments (NQMom) in fm**2, nuclear magnetic moments (NMagM)
  in nuclear magnetons)

  Atom         1           2           3           4           5           6           7           8           9          10
 IAtWgt=          16          14          12          12          12          12          12           1           1           1
 AtmWgt=  15.9949146  14.0030740  12.0000000  12.0000000  12.0000000  12.0000000  12.0000000   1.0078250   1.0078250   1.0078250
 NucSpn=           0           2           0           0           0           0           0           1           1           1
 AtZEff=   0.0000000   0.0000000   0.0000000   0.0000000   0.0000000   0.0000000   0.0000000   0.0000000   0.0000000   0.0000000
 NQMom=    0.0000000   2.0440000   0.0000000   0.0000000   0.0000000   0.0000000   0.0000000   0.0000000   0.0000000   0.0000000
 NMagM=    0.0000000   0.4037610   0.0000000   0.0000000   0.0000000   0.0000000   0.0000000   2.7928460   2.7928460   2.7928460
 AtZNuc=   8.0000000   7.0000000   6.0000000   6.0000000   6.0000000   6.0000000   6.0000000   1.0000000   1.0000000   1.0000000

  Atom        11          12
 IAtWgt=           1           1
 AtmWgt=   1.0078250   1.0078250
 NucSpn=           1           1
 AtZEff=   0.0000000   0.0000000
 NQMom=    0.0000000   0.0000000
 NMagM=    2.7928460   2.7928460
 AtZNuc=   1.0000000   1.0000000
 Leave Link  101 at Fri Aug 27 00:15:02 2021, MaxMem= 17179869184 cpu:        10.7
 (Enter /public3/home/sc51754/softwares/g09e01/l103.exe)

 GradGradGradGradGradGradGradGradGradGradGradGradGradGradGradGradGradGrad
 Berny optimization.
 Initialization pass.
                           ----------------------------
                           !    Initial Parameters    !
                           ! (Angstroms and Degrees)  !
 --------------------------                            --------------------------
 ! Name  Definition              Value          Derivative Info.                !
 --------------------------------------------------------------------------------
 ! R1    R(1,3)                  1.3415         estimate D2E/DX2                !
 ! R2    R(1,8)                  0.9628         estimate D2E/DX2                !
 ! R3    R(2,3)                  1.3172         estimate D2E/DX2                !
 ! R4    R(2,5)                  1.3314         estimate D2E/DX2                !
 ! R5    R(3,4)                  1.3927         estimate D2E/DX2                !
 ! R6    R(4,6)                  1.3745         estimate D2E/DX2                !
 ! R7    R(4,9)                  1.0802         estimate D2E/DX2                !
 ! R8    R(5,7)                  1.3778         estimate D2E/DX2                !
 ! R9    R(5,10)                 1.0849         estimate D2E/DX2                !
 ! R10   R(6,7)                  1.3896         estimate D2E/DX2                !
 ! R11   R(6,11)                 1.0822         estimate D2E/DX2                !
 ! R12   R(7,12)                 1.08           estimate D2E/DX2                !
 ! A1    A(3,1,8)              106.3104         estimate D2E/DX2                !
 ! A2    A(3,2,5)              117.7571         estimate D2E/DX2                !
 ! A3    A(1,3,2)              117.5674         estimate D2E/DX2                !
 ! A4    A(1,3,4)              118.5383         estimate D2E/DX2                !
 ! A5    A(2,3,4)              123.8942         estimate D2E/DX2                !
 ! A6    A(3,4,6)              117.4104         estimate D2E/DX2                !
 ! A7    A(3,4,9)              119.945          estimate D2E/DX2                !
 ! A8    A(6,4,9)              122.6446         estimate D2E/DX2                !
 ! A9    A(2,5,7)              123.4071         estimate D2E/DX2                !
 ! A10   A(2,5,10)             116.018          estimate D2E/DX2                !
 ! A11   A(7,5,10)             120.5749         estimate D2E/DX2                !
 ! A12   A(4,6,7)              119.6636         estimate D2E/DX2                !
 ! A13   A(4,6,11)             119.9925         estimate D2E/DX2                !
 ! A14   A(7,6,11)             120.3439         estimate D2E/DX2                !
 ! A15   A(5,7,6)              117.8675         estimate D2E/DX2                !
 ! A16   A(5,7,12)             120.6134         estimate D2E/DX2                !
 ! A17   A(6,7,12)             121.519          estimate D2E/DX2                !
 ! D1    D(8,1,3,2)              0.0            estimate D2E/DX2                !
 ! D2    D(8,1,3,4)            180.0            estimate D2E/DX2                !
 ! D3    D(5,2,3,1)            180.0            estimate D2E/DX2                !
 ! D4    D(5,2,3,4)              0.0            estimate D2E/DX2                !
 ! D5    D(3,2,5,7)              0.0            estimate D2E/DX2                !
 ! D6    D(3,2,5,10)           180.0            estimate D2E/DX2                !
 ! D7    D(1,3,4,6)            180.0            estimate D2E/DX2                !
 ! D8    D(1,3,4,9)              0.0            estimate D2E/DX2                !
 ! D9    D(2,3,4,6)              0.0            estimate D2E/DX2                !
 ! D10   D(2,3,4,9)            180.0            estimate D2E/DX2                !
 ! D11   D(3,4,6,7)              0.0            estimate D2E/DX2                !
 ! D12   D(3,4,6,11)           180.0            estimate D2E/DX2                !
 ! D13   D(9,4,6,7)            180.0            estimate D2E/DX2                !
 ! D14   D(9,4,6,11)             0.0            estimate D2E/DX2                !
 ! D15   D(2,5,7,6)              0.0            estimate D2E/DX2                !
 ! D16   D(2,5,7,12)           180.0            estimate D2E/DX2                !
 ! D17   D(10,5,7,6)           180.0            estimate D2E/DX2                !
 ! D18   D(10,5,7,12)            0.0            estimate D2E/DX2                !
 ! D19   D(4,6,7,5)              0.0            estimate D2E/DX2                !
 ! D20   D(4,6,7,12)           180.0            estimate D2E/DX2                !
 ! D21   D(11,6,7,5)           180.0            estimate D2E/DX2                !
 ! D22   D(11,6,7,12)            0.0            estimate D2E/DX2                !
 --------------------------------------------------------------------------------
 Trust Radius=3.00D-01 FncErr=1.00D-07 GrdErr=1.00D-06
 Number of steps in this run=     61 maximum allowed number of steps=    100.
 GradGradGradGradGradGradGradGradGradGradGradGradGradGradGradGradGradGrad

 Leave Link  103 at Fri Aug 27 00:15:02 2021, MaxMem= 17179869184 cpu:         0.2
 (Enter /public3/home/sc51754/softwares/g09e01/l202.exe)
                          Input orientation:                          
 ---------------------------------------------------------------------
 Center     Atomic      Atomic             Coordinates (Angstroms)
 Number     Number       Type             X           Y           Z
 ---------------------------------------------------------------------
      1          8           0        0.008372    2.239736    0.000000
      2          7           0       -1.171427    0.296023    0.000000
      3          6           0        0.000000    0.898309    0.000000
      4          6           0        1.219264    0.225352    0.000000
      5          6           0       -1.184145   -1.035351    0.000000
      6          6           0        1.183632   -1.148671    0.000000
      7          6           0       -0.041314   -1.804878    0.000000
      8          1           0       -0.913944    2.515883    0.000000
      9          1           0        2.143627    0.784264    0.000000
     10          1           0       -2.163617   -1.501920    0.000000
     11          1           0        2.106589   -1.713772    0.000000
     12          1           0       -0.104256   -2.883075    0.000000
 ---------------------------------------------------------------------
                    Distance matrix (angstroms):
                    1          2          3          4          5
     1  O    0.000000
     2  N    2.273752   0.000000
     3  C    1.341453   1.317190   0.000000
     4  C    2.350320   2.391735   1.392651   0.000000
     5  C    3.485440   1.331435   2.267430   2.713991   0.000000
     6  C    3.586438   2.762869   2.364553   1.374485   2.370487
     7  C    4.044919   2.385569   2.703503   2.389747   1.377764
     8  H    0.962769   2.234743   1.857913   3.130033   3.561498
     9  H    2.584127   3.350815   2.146659   1.080199   3.792765
    10  H    4.326376   2.053543   3.231461   3.798335   1.084920
    11  H    4.475795   3.845083   3.355694   2.132498   3.359938
    12  H    5.124049   3.353434   3.782821   3.378465   2.140151
                    6          7          8          9         10
     6  C    0.000000
     7  C    1.389640   0.000000
     8  H    4.222414   4.407999   0.000000
     9  H    2.158200   3.387864   3.513865   0.000000
    10  H    3.365837   2.143818   4.207662   4.876370   0.000000
    11  H    1.082215   2.149834   5.197461   2.498311   4.275458
    12  H    2.160281   1.080033   5.459335   4.301436   2.479628
                   11         12
    11  H    0.000000
    12  H    2.501021   0.000000
 Stoichiometry    C5H5NO
 Framework group  CS[SG(C5H5NO)]
 Deg. of freedom    21
 Full point group                 CS      NOp   2
 Largest Abelian subgroup         CS      NOp   2
 Largest concise Abelian subgroup C1      NOp   1
                         Standard orientation:                         
 ---------------------------------------------------------------------
 Center     Atomic      Atomic             Coordinates (Angstroms)
 Number     Number       Type             X           Y           Z
 ---------------------------------------------------------------------
      1          8           0        0.008372    2.239736    0.000000
      2          7           0       -1.171427    0.296023    0.000000
      3          6           0       -0.000000    0.898309    0.000000
      4          6           0        1.219264    0.225352    0.000000
      5          6           0       -1.184145   -1.035351    0.000000
      6          6           0        1.183632   -1.148671    0.000000
      7          6           0       -0.041314   -1.804878    0.000000
      8          1           0       -0.913944    2.515883    0.000000
      9          1           0        2.143627    0.784264    0.000000
     10          1           0       -2.163617   -1.501920    0.000000
     11          1           0        2.106589   -1.713772    0.000000
     12          1           0       -0.104257   -2.883075    0.000000
 ---------------------------------------------------------------------
 Rotational constants (GHZ):      5.9244098      2.8053779      1.9038502
 Leave Link  202 at Fri Aug 27 00:15:02 2021, MaxMem= 17179869184 cpu:         6.3
 (Enter /public3/home/sc51754/softwares/g09e01/l301.exe)
 General basis read from cards:  (5D, 7F)
 Centers:       8      9     10     11     12
 S 4 1.00
     Exponent=  7.5423000000D+01 Coefficients=  2.4065000000D-03
     Exponent=  1.1350000000D+01 Coefficients=  1.8487000000D-02
     Exponent=  2.5993000000D+00 Coefficients=  8.9742000000D-02
     Exponent=  7.3513000000D-01 Coefficients=  2.8111000000D-01
 S 1 1.00
     Exponent=  2.3167000000D-01 Coefficients=  1.0000000000D+00
 S 1 1.00
     Exponent=  7.4147000000D-02 Coefficients=  1.0000000000D+00
 P 1 1.00
     Exponent=  1.6000000000D+00 Coefficients=  1.0000000000D+00
 P 1 1.00
     Exponent=  4.5000000000D-01 Coefficients=  1.0000000000D+00
 D 1 1.00
     Exponent=  1.2500000000D+00 Coefficients=  1.0000000000D+00
 ****
 Centers:       3      4      5      6      7
 S 7 1.00
     Exponent=  7.8571000000D+03 Coefficients=  5.6825000000D-04
     Exponent=  1.1787000000D+03 Coefficients=  4.3915000000D-03
     Exponent=  2.6832000000D+02 Coefficients=  2.2504000000D-02
     Exponent=  7.5948000000D+01 Coefficients=  8.6653000000D-02
     Exponent=  2.4559000000D+01 Coefficients=  2.4405000000D-01
     Exponent=  8.6212000000D+00 Coefficients=  4.4148000000D-01
     Exponent=  3.1278000000D+00 Coefficients=  3.5332000000D-01
 S 7 1.00
     Exponent=  1.1787000000D+03 Coefficients= -5.9492000000D-07
     Exponent=  2.6832000000D+02 Coefficients= -6.2748000000D-05
     Exponent=  7.5948000000D+01 Coefficients= -7.5773000000D-04
     Exponent=  2.4559000000D+01 Coefficients= -7.3308000000D-03
     Exponent=  8.6212000000D+00 Coefficients= -3.8932000000D-02
     Exponent=  3.1278000000D+00 Coefficients= -8.8908000000D-02
     Exponent=  8.2202000000D-01 Coefficients=  2.1689000000D-01
 S 1 1.00
     Exponent=  3.3017000000D-01 Coefficients=  1.0000000000D+00
 S 1 1.00
     Exponent=  1.1463000000D-01 Coefficients=  1.0000000000D+00
 P 4 1.00
     Exponent=  3.3775000000D+01 Coefficients=  6.0294000000D-03
     Exponent=  7.6766000000D+00 Coefficients=  4.3228000000D-02
     Exponent=  2.2357000000D+00 Coefficients=  1.6301000000D-01
     Exponent=  7.6447000000D-01 Coefficients=  3.6504000000D-01
 P 1 1.00
     Exponent=  2.6232000000D-01 Coefficients=  1.0000000000D+00
 P 1 1.00
     Exponent=  8.4638000000D-02 Coefficients=  1.0000000000D+00
 D 1 1.00
     Exponent=  1.4000000000D+00 Coefficients=  1.0000000000D+00
 D 1 1.00
     Exponent=  4.5000000000D-01 Coefficients=  1.0000000000D+00
 F 1 1.00
     Exponent=  9.5000000000D-01 Coefficients=  1.0000000000D+00
 ****
 Centers:       2
 S 7 1.00
     Exponent=  1.1101000000D+04 Coefficients=  5.4570000000D-04
     Exponent=  1.6653000000D+03 Coefficients=  4.2181000000D-03
     Exponent=  3.7908000000D+02 Coefficients=  2.1645000000D-02
     Exponent=  1.0730000000D+02 Coefficients=  8.3776000000D-02
     Exponent=  3.4747000000D+01 Coefficients=  2.3881000000D-01
     Exponent=  1.2249000000D+01 Coefficients=  4.3994000000D-01
     Exponent=  4.4743000000D+00 Coefficients=  3.6364000000D-01
 S 7 1.00
     Exponent=  1.6653000000D+03 Coefficients= -1.5006000000D-06
     Exponent=  3.7908000000D+02 Coefficients= -5.8753000000D-05
     Exponent=  1.0730000000D+02 Coefficients= -7.7453000000D-04
     Exponent=  3.4747000000D+01 Coefficients= -7.2161000000D-03
     Exponent=  1.2249000000D+01 Coefficients= -3.9338000000D-02
     Exponent=  4.4743000000D+00 Coefficients= -9.0611000000D-02
     Exponent=  1.2404000000D+00 Coefficients=  1.9882000000D-01
 S 1 1.00
     Exponent=  4.8743000000D-01 Coefficients=  1.0000000000D+00
 S 1 1.00
     Exponent=  1.6484000000D-01 Coefficients=  1.0000000000D+00
 P 4 1.00
     Exponent=  4.7934000000D+01 Coefficients=  6.1706000000D-03
     Exponent=  1.0999000000D+01 Coefficients=  4.4260000000D-02
     Exponent=  3.2472000000D+00 Coefficients=  1.6825000000D-01
     Exponent=  1.1114000000D+00 Coefficients=  3.6848000000D-01
 P 1 1.00
     Exponent=  3.7988000000D-01 Coefficients=  1.0000000000D+00
 P 1 1.00
     Exponent=  1.2068000000D-01 Coefficients=  1.0000000000D+00
 D 1 1.00
     Exponent=  1.8000000000D+00 Coefficients=  1.0000000000D+00
 D 1 1.00
     Exponent=  5.5000000000D-01 Coefficients=  1.0000000000D+00
 F 1 1.00
     Exponent=  1.0200000000D+00 Coefficients=  1.0000000000D+00
 ****
 Centers:       1
 S 7 1.00
     Exponent=  1.4782000000D+04 Coefficients=  5.3519000000D-04
     Exponent=  2.2173000000D+03 Coefficients=  4.1375000000D-03
     Exponent=  5.0474000000D+02 Coefficients=  2.1245000000D-02
     Exponent=  1.4287000000D+02 Coefficients=  8.2453000000D-02
     Exponent=  4.6300000000D+01 Coefficients=  2.3671000000D-01
     Exponent=  1.6337000000D+01 Coefficients=  4.4039000000D-01
     Exponent=  5.9828000000D+00 Coefficients=  3.6465000000D-01
 S 7 1.00
     Exponent=  2.2173000000D+03 Coefficients= -1.9275000000D-06
     Exponent=  5.0474000000D+02 Coefficients= -5.7964000000D-05
     Exponent=  1.4287000000D+02 Coefficients= -7.9494000000D-04
     Exponent=  4.6300000000D+01 Coefficients= -7.3125000000D-03
     Exponent=  1.6337000000D+01 Coefficients= -4.0574000000D-02
     Exponent=  5.9828000000D+00 Coefficients= -9.1594000000D-02
     Exponent=  1.6718000000D+00 Coefficients=  2.0940000000D-01
 S 1 1.00
     Exponent=  6.4662000000D-01 Coefficients=  1.0000000000D+00
 S 1 1.00
     Exponent=  2.1669000000D-01 Coefficients=  1.0000000000D+00
 P 4 1.00
     Exponent=  6.0424000000D+01 Coefficients=  6.8949000000D-03
     Exponent=  1.3935000000D+01 Coefficients=  4.9005000000D-02
     Exponent=  4.1531000000D+00 Coefficients=  1.8255000000D-01
     Exponent=  1.4158000000D+00 Coefficients=  3.7633000000D-01
 P 1 1.00
     Exponent=  4.7549000000D-01 Coefficients=  1.0000000000D+00
 P 1 1.00
     Exponent=  1.4529000000D-01 Coefficients=  1.0000000000D+00
 D 1 1.00
     Exponent=  2.2000000000D+00 Coefficients=  1.0000000000D+00
 D 1 1.00
     Exponent=  6.5000000000D-01 Coefficients=  1.0000000000D+00
 F 1 1.00
     Exponent=  1.1000000000D+00 Coefficients=  1.0000000000D+00
 ****
 Ernie: Thresh=  0.10000D-02 Tol=  0.10000D-05 Strict=F.
 Ernie:  7 primitive shells out of 220 were deleted.
 There are   223 symmetry adapted cartesian basis functions of A'  symmetry.
 There are    97 symmetry adapted cartesian basis functions of A"  symmetry.
 There are   190 symmetry adapted basis functions of A'  symmetry.
 There are    90 symmetry adapted basis functions of A"  symmetry.
   280 basis functions,   475 primitive gaussians,   320 cartesian basis functions
    25 alpha electrons       25 beta electrons
       nuclear repulsion energy       277.5236709615 Hartrees.
 IExCor= 4235 DFT=T Ex+Corr=M06 ExCW=0 ScaHFX=  0.270000
 ScaDFX=  1.000000  1.000000  1.000000  1.000000 ScalE2=  1.000000  1.000000
 IRadAn=      0 IRanWt=     -1 IRanGd=            0 ICorTp=0 IEmpDi=  4
 NAtoms=   12 NActive=   12 NUniq=   12 SFac= 1.00D+00 NAtFMM=   60 NAOKFM=F Big=F
 Integral buffers will be    131072 words long.
 Raffenetti 2 integral format.
 Two-electron integral symmetry is turned on.
 Leave Link  301 at Fri Aug 27 00:15:02 2021, MaxMem= 17179869184 cpu:         1.3
 (Enter /public3/home/sc51754/softwares/g09e01/l302.exe)
 NPDir=0 NMtPBC=     1 NCelOv=     1 NCel=       1 NClECP=     1 NCelD=      1
         NCelK=      1 NCelE2=     1 NClLst=     1 CellRange=     0.0.
 One-electron integrals computed using PRISM.
 NBasis=   280 RedAO= T EigKep=  2.16D-04  NBF=   190    90
 NBsUse=   280 1.00D-06 EigRej= -1.00D+00 NBFU=   190    90
 Precomputing XC quadrature grid using
 IXCGrd= 4 IRadAn=           0 IRanWt=          -1 IRanGd=           0 AccXCQ= 0.00D+00.
 Generated NRdTot=       0 NPtTot=           0 NUsed=           0 NTot=          32
 NSgBfM=   320   320   320   320   320 MxSgAt=    12 MxSgA2=    12.
 Leave Link  302 at Fri Aug 27 00:15:03 2021, MaxMem= 17179869184 cpu:        38.6
 (Enter /public3/home/sc51754/softwares/g09e01/l303.exe)
 DipDrv:  MaxL=1.
 Leave Link  303 at Fri Aug 27 00:15:03 2021, MaxMem= 17179869184 cpu:        10.6
 (Enter /public3/home/sc51754/softwares/g09e01/l401.exe)
 ExpMin= 7.41D-02 ExpMax= 1.48D+04 ExpMxC= 5.05D+02 IAcc=2 IRadAn=         4 AccDes= 0.00D+00
 Harris functional with IExCor= 1009 and IRadAn=       4 diagonalized for initial guess.
 HarFok:  IExCor= 1009 AccDes= 0.00D+00 IRadAn=         4 IDoV= 1 UseB2=F ITyADJ=14
 ICtDFT=  3500011 ScaDFX=  1.000000  1.000000  1.000000  1.000000
 FoFCou: FMM=F IPFlag=           0 FMFlag=      100000 FMFlg1=           0
         NFxFlg=           0 DoJE=T BraDBF=F KetDBF=T FulRan=T
         wScrn=  0.000000 ICntrl=     500 IOpCl=  0 I1Cent=   200000004 NGrid=           0
         NMat0=    1 NMatS0=      1 NMatT0=    0 NMatD0=    1 NMtDS0=    0 NMtDT0=    0
 Petite list used in FoFCou.
 Harris En= -323.373786825503    
 JPrj=0 DoOrth=F DoCkMO=F.
 Initial guess orbital symmetries:
       Occupied  (A') (A') (A') (A') (A') (A') (A') (A') (A') (A')
                 (A') (A') (A') (A') (A') (A') (A') (A') (A") (A')
                 (A') (A") (A") (A') (A")
       Virtual   (A") (A") (A') (A') (A") (A') (A') (A') (A') (A')
                 (A') (A') (A") (A') (A") (A") (A') (A') (A') (A')
                 (A') (A') (A") (A") (A') (A') (A') (A') (A') (A')
                 (A') (A") (A') (A") (A') (A') (A') (A') (A') (A')
                 (A') (A') (A") (A') (A') (A') (A') (A") (A") (A')
                 (A") (A") (A') (A') (A") (A') (A') (A") (A') (A')
                 (A') (A") (A') (A') (A") (A') (A") (A') (A") (A')
                 (A') (A") (A") (A') (A") (A') (A') (A") (A') (A')
                 (A") (A') (A') (A") (A') (A') (A") (A') (A") (A")
                 (A') (A') (A') (A') (A') (A") (A') (A') (A") (A')
                 (A') (A') (A") (A') (A') (A') (A') (A") (A') (A')
                 (A') (A") (A') (A') (A') (A') (A") (A') (A') (A')
                 (A") (A') (A") (A') (A") (A') (A") (A") (A') (A")
                 (A") (A') (A') (A') (A") (A') (A') (A") (A') (A')
                 (A') (A') (A') (A") (A") (A') (A") (A') (A') (A')
                 (A") (A') (A') (A") (A") (A') (A") (A') (A") (A')
                 (A") (A') (A') (A') (A") (A") (A') (A') (A") (A')
                 (A") (A') (A') (A") (A') (A') (A") (A') (A") (A")
                 (A") (A") (A') (A') (A") (A') (A") (A") (A') (A")
                 (A") (A') (A') (A") (A') (A') (A") (A') (A") (A")
                 (A') (A') (A") (A') (A') (A') (A") (A') (A') (A')
                 (A") (A') (A') (A") (A') (A") (A') (A') (A") (A")
                 (A') (A') (A") (A') (A') (A") (A') (A') (A') (A')
                 (A") (A') (A') (A') (A') (A") (A") (A') (A') (A')
                 (A') (A") (A') (A') (A') (A') (A') (A') (A') (A')
                 (A') (A') (A') (A') (A')
 The electronic state of the initial guess is 1-A'.
 Leave Link  401 at Fri Aug 27 00:15:04 2021, MaxMem= 17179869184 cpu:        45.6
 (Enter /public3/home/sc51754/softwares/g09e01/l502.exe)
 Closed shell SCF:
 Using DIIS extrapolation, IDIIS=  1040.
 Integral symmetry usage will be decided dynamically.
 Keep R1 ints in memory in symmetry-blocked form, NReq=1167802198.
 IVT=      348658 IEndB=      348658 NGot= 17179869184 MDV= 16785904737
 LenX= 16785904737 LenY= 16785801896
 Requested convergence on RMS density matrix=1.00D-08 within 128 cycles.
 Requested convergence on MAX density matrix=1.00D-06.
 Requested convergence on             energy=1.00D-06.
 No special actions if energy rises.
 FoFCou: FMM=F IPFlag=           0 FMFlag=           0 FMFlg1=           0
         NFxFlg=           0 DoJE=F BraDBF=F KetDBF=F FulRan=T
         wScrn=  0.000000 ICntrl=     600 IOpCl=  0 I1Cent=           0 NGrid=           0
         NMat0=    1 NMatS0=  39340 NMatT0=    0 NMatD0=    1 NMtDS0=    0 NMtDT0=    0
 Petite list used in FoFCou.
 Integral accuracy reduced to 1.0D-05 until final iterations.

 Cycle   1  Pass 0  IDiag  1:
 E= -323.298241675793    
 DIIS: error= 2.55D-02 at cycle   1 NSaved=   1.
 NSaved= 1 IEnMin= 1 EnMin= -323.298241675793     IErMin= 1 ErrMin= 2.55D-02
 ErrMax= 2.55D-02  0.00D+00 EMaxC= 1.00D-01 BMatC= 1.54D-01 BMatP= 1.54D-01
 IDIUse=3 WtCom= 7.45D-01 WtEn= 2.55D-01
 Coeff-Com:  0.100D+01
 Coeff-En:   0.100D+01
 Coeff:      0.100D+01
 Gap=     0.216 Goal=   None    Shift=    0.000
 GapD=    0.216 DampG=1.000 DampE=0.500 DampFc=0.5000 IDamp=-1.
 Damping current iteration by 5.00D-01
 RMSDP=2.52D-03 MaxDP=1.11D-01              OVMax= 1.94D-01

 Cycle   2  Pass 0  IDiag  1:
 E= -323.359620799537     Delta-E=       -0.061379123744 Rises=F Damp=T
 DIIS: error= 4.74D-03 at cycle   2 NSaved=   2.
 NSaved= 2 IEnMin= 2 EnMin= -323.359620799537     IErMin= 2 ErrMin= 4.74D-03
 ErrMax= 4.74D-03  0.00D+00 EMaxC= 1.00D-01 BMatC= 7.12D-03 BMatP= 1.54D-01
 IDIUse=3 WtCom= 9.53D-01 WtEn= 4.74D-02
 Coeff-Com:  0.426D-01 0.957D+00
 Coeff-En:   0.106D+00 0.894D+00
 Coeff:      0.456D-01 0.954D+00
 Gap=     0.232 Goal=   None    Shift=    0.000
 RMSDP=8.20D-04 MaxDP=3.21D-02 DE=-6.14D-02 OVMax= 1.30D-01

 Cycle   3  Pass 0  IDiag  1:
 E= -323.432745974968     Delta-E=       -0.073125175432 Rises=F Damp=F
 DIIS: error= 4.70D-03 at cycle   3 NSaved=   3.
 NSaved= 3 IEnMin= 3 EnMin= -323.432745974968     IErMin= 3 ErrMin= 4.70D-03
 ErrMax= 4.70D-03  0.00D+00 EMaxC= 1.00D-01 BMatC= 4.21D-03 BMatP= 7.12D-03
 IDIUse=3 WtCom= 9.53D-01 WtEn= 4.70D-02
 Coeff-Com: -0.264D-01 0.420D+00 0.606D+00
 Coeff-En:   0.000D+00 0.000D+00 0.100D+01
 Coeff:     -0.251D-01 0.401D+00 0.625D+00
 Gap=     0.229 Goal=   None    Shift=    0.000
 RMSDP=2.85D-04 MaxDP=1.45D-02 DE=-7.31D-02 OVMax= 3.83D-02

 Cycle   4  Pass 0  IDiag  1:
 E= -323.435442151862     Delta-E=       -0.002696176893 Rises=F Damp=F
 DIIS: error= 3.55D-03 at cycle   4 NSaved=   4.
 NSaved= 4 IEnMin= 4 EnMin= -323.435442151862     IErMin= 4 ErrMin= 3.55D-03
 ErrMax= 3.55D-03  0.00D+00 EMaxC= 1.00D-01 BMatC= 1.48D-03 BMatP= 4.21D-03
 IDIUse=3 WtCom= 9.64D-01 WtEn= 3.55D-02
 Coeff-Com: -0.236D-01 0.135D+00 0.398D+00 0.491D+00
 Coeff-En:   0.000D+00 0.000D+00 0.283D+00 0.717D+00
 Coeff:     -0.228D-01 0.130D+00 0.394D+00 0.499D+00
 Gap=     0.228 Goal=   None    Shift=    0.000
 RMSDP=1.28D-04 MaxDP=4.93D-03 DE=-2.70D-03 OVMax= 1.79D-02

 Cycle   5  Pass 0  IDiag  1:
 E= -323.436911508545     Delta-E=       -0.001469356683 Rises=F Damp=F
 DIIS: error= 4.39D-04 at cycle   5 NSaved=   5.
 NSaved= 5 IEnMin= 5 EnMin= -323.436911508545     IErMin= 5 ErrMin= 4.39D-04
 ErrMax= 4.39D-04  0.00D+00 EMaxC= 1.00D-01 BMatC= 4.43D-05 BMatP= 1.48D-03
 IDIUse=3 WtCom= 9.96D-01 WtEn= 4.39D-03
 Coeff-Com: -0.748D-02 0.188D-01 0.104D+00 0.205D+00 0.680D+00
 Coeff-En:   0.000D+00 0.000D+00 0.000D+00 0.000D+00 0.100D+01
 Coeff:     -0.744D-02 0.187D-01 0.103D+00 0.204D+00 0.681D+00
 Gap=     0.228 Goal=   None    Shift=    0.000
 RMSDP=2.34D-05 MaxDP=1.06D-03 DE=-1.47D-03 OVMax= 2.89D-03

 Cycle   6  Pass 0  IDiag  1:
 E= -323.436944073947     Delta-E=       -0.000032565402 Rises=F Damp=F
 DIIS: error= 1.84D-04 at cycle   6 NSaved=   6.
 NSaved= 6 IEnMin= 6 EnMin= -323.436944073947     IErMin= 6 ErrMin= 1.84D-04
 ErrMax= 1.84D-04  0.00D+00 EMaxC= 1.00D-01 BMatC= 1.01D-05 BMatP= 4.43D-05
 IDIUse=3 WtCom= 9.98D-01 WtEn= 1.84D-03
 Coeff-Com: -0.273D-02 0.158D-02 0.306D-01 0.794D-01 0.397D+00 0.494D+00
 Coeff-En:   0.000D+00 0.000D+00 0.000D+00 0.000D+00 0.118D+00 0.882D+00
 Coeff:     -0.272D-02 0.158D-02 0.305D-01 0.793D-01 0.396D+00 0.495D+00
 Gap=     0.228 Goal=   None    Shift=    0.000
 RMSDP=9.13D-06 MaxDP=4.59D-04 DE=-3.26D-05 OVMax= 7.95D-04

 Initial convergence to 1.0D-05 achieved.  Increase integral accuracy.
 Cycle   7  Pass 1  IDiag  1:
 E= -323.437182927000     Delta-E=       -0.000238853053 Rises=F Damp=F
 DIIS: error= 4.31D-04 at cycle   1 NSaved=   1.
 NSaved= 1 IEnMin= 1 EnMin= -323.437182927000     IErMin= 1 ErrMin= 4.31D-04
 ErrMax= 4.31D-04  0.00D+00 EMaxC= 1.00D-01 BMatC= 9.54D-05 BMatP= 9.54D-05
 IDIUse=3 WtCom= 9.96D-01 WtEn= 4.31D-03
 Coeff-Com:  0.100D+01
 Coeff-En:   0.100D+01
 Coeff:      0.100D+01
 Gap=     0.228 Goal=   None    Shift=    0.000
 RMSDP=9.13D-06 MaxDP=4.59D-04 DE=-2.39D-04 OVMax= 1.18D-03

 Cycle   8  Pass 1  IDiag  1:
 E= -323.437221191752     Delta-E=       -0.000038264752 Rises=F Damp=F
 DIIS: error= 1.10D-04 at cycle   2 NSaved=   2.
 NSaved= 2 IEnMin= 2 EnMin= -323.437221191752     IErMin= 2 ErrMin= 1.10D-04
 ErrMax= 1.10D-04  0.00D+00 EMaxC= 1.00D-01 BMatC= 4.37D-06 BMatP= 9.54D-05
 IDIUse=3 WtCom= 9.99D-01 WtEn= 1.10D-03
 Coeff-Com:  0.121D+00 0.879D+00
 Coeff-En:   0.000D+00 0.100D+01
 Coeff:      0.121D+00 0.879D+00
 Gap=     0.228 Goal=   None    Shift=    0.000
 RMSDP=9.64D-06 MaxDP=3.58D-04 DE=-3.83D-05 OVMax= 1.35D-03

 Cycle   9  Pass 1  IDiag  1:
 E= -323.437220629054     Delta-E=        0.000000562698 Rises=F Damp=F
 DIIS: error= 1.49D-04 at cycle   3 NSaved=   3.
 NSaved= 3 IEnMin= 2 EnMin= -323.437221191752     IErMin= 2 ErrMin= 1.10D-04
 ErrMax= 1.49D-04  0.00D+00 EMaxC= 1.00D-01 BMatC= 3.37D-06 BMatP= 4.37D-06
 IDIUse=3 WtCom= 9.99D-01 WtEn= 1.49D-03
 Coeff-Com:  0.431D-01 0.484D+00 0.473D+00
 Coeff-En:   0.000D+00 0.544D+00 0.456D+00
 Coeff:      0.431D-01 0.484D+00 0.473D+00
 Gap=     0.228 Goal=   None    Shift=    0.000
 RMSDP=6.37D-06 MaxDP=2.46D-04 DE= 5.63D-07 OVMax= 1.07D-03

 Cycle  10  Pass 1  IDiag  1:
 E= -323.437223646809     Delta-E=       -0.000003017755 Rises=F Damp=F
 DIIS: error= 4.51D-05 at cycle   4 NSaved=   4.
 NSaved= 4 IEnMin= 4 EnMin= -323.437223646809     IErMin= 4 ErrMin= 4.51D-05
 ErrMax= 4.51D-05  0.00D+00 EMaxC= 1.00D-01 BMatC= 3.44D-07 BMatP= 3.37D-06
 IDIUse=1 WtCom= 1.00D+00 WtEn= 0.00D+00
 Coeff-Com: -0.171D-02 0.789D-01 0.258D+00 0.665D+00
 Coeff:     -0.171D-02 0.789D-01 0.258D+00 0.665D+00
 Gap=     0.228 Goal=   None    Shift=    0.000
 RMSDP=1.82D-06 MaxDP=6.60D-05 DE=-3.02D-06 OVMax= 2.78D-04

 Cycle  11  Pass 1  IDiag  1:
 E= -323.437223979287     Delta-E=       -0.000000332478 Rises=F Damp=F
 DIIS: error= 7.71D-06 at cycle   5 NSaved=   5.
 NSaved= 5 IEnMin= 5 EnMin= -323.437223979287     IErMin= 5 ErrMin= 7.71D-06
 ErrMax= 7.71D-06  0.00D+00 EMaxC= 1.00D-01 BMatC= 1.36D-08 BMatP= 3.44D-07
 IDIUse=1 WtCom= 1.00D+00 WtEn= 0.00D+00
 Coeff-Com: -0.207D-02 0.238D-01 0.112D+00 0.330D+00 0.537D+00
 Coeff:     -0.207D-02 0.238D-01 0.112D+00 0.330D+00 0.537D+00
 Gap=     0.228 Goal=   None    Shift=    0.000
 RMSDP=4.36D-07 MaxDP=2.15D-05 DE=-3.32D-07 OVMax= 4.26D-05

 Cycle  12  Pass 1  IDiag  1:
 E= -323.437223991147     Delta-E=       -0.000000011860 Rises=F Damp=F
 DIIS: error= 2.21D-06 at cycle   6 NSaved=   6.
 NSaved= 6 IEnMin= 6 EnMin= -323.437223991147     IErMin= 6 ErrMin= 2.21D-06
 ErrMax= 2.21D-06  0.00D+00 EMaxC= 1.00D-01 BMatC= 1.08D-09 BMatP= 1.36D-08
 IDIUse=1 WtCom= 1.00D+00 WtEn= 0.00D+00
 Coeff-Com: -0.736D-03 0.387D-03 0.175D-01 0.657D-01 0.243D+00 0.674D+00
 Coeff:     -0.736D-03 0.387D-03 0.175D-01 0.657D-01 0.243D+00 0.674D+00
 Gap=     0.228 Goal=   None    Shift=    0.000
 RMSDP=1.36D-07 MaxDP=5.28D-06 DE=-1.19D-08 OVMax= 1.77D-05

 Cycle  13  Pass 1  IDiag  1:
 E= -323.437223991843     Delta-E=       -0.000000000696 Rises=F Damp=F
 DIIS: error= 1.32D-06 at cycle   7 NSaved=   7.
 NSaved= 7 IEnMin= 7 EnMin= -323.437223991843     IErMin= 7 ErrMin= 1.32D-06
 ErrMax= 1.32D-06  0.00D+00 EMaxC= 1.00D-01 BMatC= 3.73D-10 BMatP= 1.08D-09
 IDIUse=1 WtCom= 1.00D+00 WtEn= 0.00D+00
 Coeff-Com: -0.189D-03-0.313D-02-0.454D-02-0.412D-02 0.844D-01 0.436D+00
 Coeff-Com:  0.491D+00
 Coeff:     -0.189D-03-0.313D-02-0.454D-02-0.412D-02 0.844D-01 0.436D+00
 Coeff:      0.491D+00
 Gap=     0.228 Goal=   None    Shift=    0.000
 RMSDP=5.50D-08 MaxDP=2.24D-06 DE=-6.96D-10 OVMax= 7.64D-06

 Cycle  14  Pass 1  IDiag  1:
 E= -323.437223992204     Delta-E=       -0.000000000361 Rises=F Damp=F
 DIIS: error= 1.83D-07 at cycle   8 NSaved=   8.
 NSaved= 8 IEnMin= 8 EnMin= -323.437223992204     IErMin= 8 ErrMin= 1.83D-07
 ErrMax= 1.83D-07  0.00D+00 EMaxC= 1.00D-01 BMatC= 8.37D-12 BMatP= 3.73D-10
 IDIUse=1 WtCom= 1.00D+00 WtEn= 0.00D+00
 Coeff-Com: -0.281D-06-0.107D-02-0.302D-02-0.700D-02 0.854D-02 0.935D-01
 Coeff-Com:  0.168D+00 0.741D+00
 Coeff:     -0.281D-06-0.107D-02-0.302D-02-0.700D-02 0.854D-02 0.935D-01
 Coeff:      0.168D+00 0.741D+00
 Gap=     0.228 Goal=   None    Shift=    0.000
 RMSDP=1.27D-08 MaxDP=4.74D-07 DE=-3.61D-10 OVMax= 1.47D-06

 Cycle  15  Pass 1  IDiag  1:
 E= -323.437223992214     Delta-E=       -0.000000000010 Rises=F Damp=F
 DIIS: error= 9.99D-08 at cycle   9 NSaved=   9.
 NSaved= 9 IEnMin= 9 EnMin= -323.437223992214     IErMin= 9 ErrMin= 9.99D-08
 ErrMax= 9.99D-08  0.00D+00 EMaxC= 1.00D-01 BMatC= 2.51D-12 BMatP= 8.37D-12
 IDIUse=1 WtCom= 1.00D+00 WtEn= 0.00D+00
 Coeff-Com:  0.290D-04-0.151D-03-0.112D-02-0.346D-02-0.770D-02-0.129D-01
 Coeff-Com:  0.151D-01 0.385D+00 0.625D+00
 Coeff:      0.290D-04-0.151D-03-0.112D-02-0.346D-02-0.770D-02-0.129D-01
 Coeff:      0.151D-01 0.385D+00 0.625D+00
 Gap=     0.228 Goal=   None    Shift=    0.000
 RMSDP=4.81D-09 MaxDP=2.80D-07 DE=-9.78D-12 OVMax= 3.83D-07

 SCF Done:  E(RM06) =  -323.437223992     A.U. after   15 cycles
            NFock= 15  Conv=0.48D-08     -V/T= 2.0029
 KE= 3.224899448581D+02 PE=-1.310464838951D+03 EE= 3.870139991390D+02
 Leave Link  502 at Fri Aug 27 00:15:12 2021, MaxMem= 17179869184 cpu:       277.8
 (Enter /public3/home/sc51754/softwares/g09e01/l601.exe)
 Copying SCF densities to generalized density rwf, IOpCl= 0 IROHF=0.

 **********************************************************************

            Population analysis using the SCF density.

 **********************************************************************

 Orbital symmetries:
       Occupied  (A') (A') (A') (A') (A') (A') (A') (A') (A') (A')
                 (A') (A') (A') (A') (A') (A') (A") (A') (A') (A')
                 (A') (A") (A") (A') (A")
       Virtual   (A") (A") (A') (A') (A') (A') (A') (A") (A') (A')
                 (A') (A") (A') (A') (A") (A") (A') (A') (A') (A')
                 (A") (A') (A') (A") (A') (A') (A') (A') (A') (A')
                 (A') (A") (A') (A") (A') (A') (A') (A') (A') (A')
                 (A') (A') (A') (A') (A") (A') (A') (A") (A") (A")
                 (A') (A') (A") (A') (A") (A') (A') (A') (A") (A')
                 (A') (A') (A') (A") (A') (A') (A") (A') (A") (A')
                 (A") (A") (A") (A") (A') (A') (A') (A") (A') (A')
                 (A') (A") (A') (A') (A') (A") (A") (A') (A") (A')
                 (A') (A") (A') (A') (A') (A') (A") (A') (A') (A")
                 (A') (A') (A') (A") (A') (A') (A') (A") (A') (A')
                 (A') (A') (A") (A') (A') (A') (A") (A') (A') (A')
                 (A") (A") (A') (A') (A") (A') (A") (A") (A") (A')
                 (A") (A') (A') (A') (A') (A") (A') (A") (A') (A')
                 (A') (A') (A") (A') (A") (A") (A') (A') (A') (A")
                 (A') (A') (A') (A") (A') (A") (A") (A') (A") (A')
                 (A") (A') (A') (A') (A") (A") (A') (A') (A") (A')
                 (A') (A") (A') (A") (A') (A") (A') (A') (A") (A')
                 (A") (A') (A') (A") (A") (A") (A") (A") (A') (A")
                 (A') (A") (A') (A") (A') (A") (A') (A') (A") (A")
                 (A') (A') (A") (A') (A') (A") (A') (A') (A') (A")
                 (A') (A") (A') (A') (A') (A") (A') (A') (A") (A')
                 (A') (A") (A") (A') (A') (A') (A') (A") (A') (A")
                 (A') (A') (A') (A') (A') (A") (A') (A') (A') (A")
                 (A') (A') (A") (A') (A') (A') (A') (A') (A') (A')
                 (A') (A') (A') (A') (A')
 The electronic state is 1-A'.
 Alpha  occ. eigenvalues --  -19.23870 -14.38184 -10.33496 -10.27791 -10.26053
 Alpha  occ. eigenvalues --  -10.24473 -10.24083  -1.10747  -0.95919  -0.82446
 Alpha  occ. eigenvalues --   -0.77171  -0.66344  -0.64312  -0.57125  -0.53241
 Alpha  occ. eigenvalues --   -0.49729  -0.45965  -0.45938  -0.43110  -0.41361
 Alpha  occ. eigenvalues --   -0.38454  -0.37591  -0.30836  -0.28964  -0.25627
 Alpha virt. eigenvalues --   -0.02828  -0.00150   0.01121   0.01624   0.02197
 Alpha virt. eigenvalues --    0.04007   0.05262   0.13783   0.14218   0.15581
 Alpha virt. eigenvalues --    0.16511   0.17157   0.18562   0.19287   0.20721
 Alpha virt. eigenvalues --    0.21391   0.21408   0.24524   0.25188   0.26124
 Alpha virt. eigenvalues --    0.26951   0.27112   0.28439   0.29110   0.30823
 Alpha virt. eigenvalues --    0.33255   0.35291   0.35951   0.36887   0.38138
 Alpha virt. eigenvalues --    0.38772   0.42544   0.43055   0.44154   0.44216
 Alpha virt. eigenvalues --    0.48240   0.49357   0.50001   0.53238   0.55457
 Alpha virt. eigenvalues --    0.59396   0.60704   0.61989   0.63618   0.64633
 Alpha virt. eigenvalues --    0.64948   0.69822   0.76045   0.77110   0.80630
 Alpha virt. eigenvalues --    0.81223   0.86076   0.86198   0.90235   0.91346
 Alpha virt. eigenvalues --    0.93559   0.95319   0.96163   0.96710   0.99232
 Alpha virt. eigenvalues --    1.01789   1.06200   1.07905   1.09722   1.10780
 Alpha virt. eigenvalues --    1.12989   1.14169   1.16531   1.17175   1.18347
 Alpha virt. eigenvalues --    1.21243   1.25817   1.27762   1.28643   1.28679
 Alpha virt. eigenvalues --    1.30122   1.35741   1.39898   1.41082   1.42065
 Alpha virt. eigenvalues --    1.47083   1.48291   1.49938   1.51224   1.53043
 Alpha virt. eigenvalues --    1.55473   1.57590   1.59484   1.62219   1.64177
 Alpha virt. eigenvalues --    1.65808   1.66063   1.67727   1.70573   1.72200
 Alpha virt. eigenvalues --    1.79353   1.79462   1.81713   1.84006   1.85297
 Alpha virt. eigenvalues --    1.87450   1.93933   1.97034   1.97607   2.00252
 Alpha virt. eigenvalues --    2.05291   2.06683   2.11653   2.12413   2.15876
 Alpha virt. eigenvalues --    2.17169   2.23147   2.23849   2.24264   2.25930
 Alpha virt. eigenvalues --    2.33577   2.43020   2.53601   2.62180   2.72033
 Alpha virt. eigenvalues --    2.87846   2.90509   2.92180   2.99874   3.12520
 Alpha virt. eigenvalues --    3.13250   3.15182   3.18208   3.21681   3.23449
 Alpha virt. eigenvalues --    3.28333   3.30950   3.31288   3.33474   3.39331
 Alpha virt. eigenvalues --    3.39854   3.44836   3.46545   3.48973   3.53389
 Alpha virt. eigenvalues --    3.56167   3.57591   3.58554   3.59220   3.62765
 Alpha virt. eigenvalues --    3.67344   3.67480   3.74764   3.75427   3.80104
 Alpha virt. eigenvalues --    3.80575   3.83163   3.86675   3.89210   3.93382
 Alpha virt. eigenvalues --    3.95553   3.99458   4.01744   4.04144   4.04227
 Alpha virt. eigenvalues --    4.05573   4.07411   4.07986   4.14089   4.14298
 Alpha virt. eigenvalues --    4.16065   4.17303   4.17705   4.19380   4.21195
 Alpha virt. eigenvalues --    4.21983   4.25010   4.25364   4.28567   4.28829
 Alpha virt. eigenvalues --    4.29760   4.29977   4.33695   4.35583   4.37945
 Alpha virt. eigenvalues --    4.38389   4.39281   4.40413   4.40725   4.42720
 Alpha virt. eigenvalues --    4.45338   4.47356   4.49053   4.50783   4.55127
 Alpha virt. eigenvalues --    4.56458   4.57141   4.61468   4.62740   4.64648
 Alpha virt. eigenvalues --    4.71331   4.71525   4.76962   4.79611   4.83119
 Alpha virt. eigenvalues --    4.87017   4.88321   4.93025   4.94776   4.98578
 Alpha virt. eigenvalues --    5.04159   5.06324   5.09262   5.14395   5.15787
 Alpha virt. eigenvalues --    5.16127   5.19166   5.20273   5.24557   5.28507
 Alpha virt. eigenvalues --    5.30526   5.31883   5.33592   5.33783   5.36675
 Alpha virt. eigenvalues --    5.39511   5.43484   5.45020   5.49566   5.52813
 Alpha virt. eigenvalues --    5.57461   5.62916   5.63066   5.70453   5.71940
 Alpha virt. eigenvalues --    5.76803   5.91501   5.97300   6.00027   6.03763
 Alpha virt. eigenvalues --    6.04251   6.15784   6.21502   6.24073   6.31703
 Alpha virt. eigenvalues --    6.40344   6.45487   6.53624   6.57975   6.70219
 Alpha virt. eigenvalues --    6.93657   7.05720   7.30462   9.16758  11.96962
 Alpha virt. eigenvalues --   12.60003  15.41679  17.29414  18.52964  22.09518
          Condensed to atoms (all electrons):
               1          2          3          4          5          6
     1  O    7.944113  -0.096564   0.266086  -0.052260   0.004470   0.008781
     2  N   -0.096564   6.723063   0.401388   0.002909   0.492703  -0.047547
     3  C    0.266086   0.401388   4.571402   0.443595  -0.070097  -0.026019
     4  C   -0.052260   0.002909   0.443595   4.954980  -0.059808   0.439051
     5  C    0.004470   0.492703  -0.070097  -0.059808   4.700564  -0.039334
     6  C    0.008781  -0.047547  -0.026019   0.439051  -0.039334   4.839515
     7  C   -0.000310  -0.022279  -0.076443  -0.009994   0.446608   0.406576
     8  H    0.349318   0.025252  -0.041686   0.008868   0.003779  -0.001695
     9  H    0.003476   0.007416  -0.055108   0.472002  -0.003833  -0.061836
    10  H   -0.000298  -0.044857   0.007194  -0.005304   0.464647   0.009711
    11  H   -0.000256  -0.003138   0.013357  -0.062545   0.010525   0.474100
    12  H    0.000046   0.010219  -0.002254   0.011011  -0.048391  -0.068855
               7          8          9         10         11         12
     1  O   -0.000310   0.349318   0.003476  -0.000298  -0.000256   0.000046
     2  N   -0.022279   0.025252   0.007416  -0.044857  -0.003138   0.010219
     3  C   -0.076443  -0.041686  -0.055108   0.007194   0.013357  -0.002254
     4  C   -0.009994   0.008868   0.472002  -0.005304  -0.062545   0.011011
     5  C    0.446608   0.003779  -0.003833   0.464647   0.010525  -0.048391
     6  C    0.406576  -0.001695  -0.061836   0.009711   0.474100  -0.068855
     7  C    5.059434   0.001079   0.012520  -0.094431  -0.066174   0.470361
     8  H    0.001079   0.433552  -0.001265  -0.000631   0.000148  -0.000075
     9  H    0.012520  -0.001265   0.601467   0.000167  -0.017324   0.000433
    10  H   -0.094431  -0.000631   0.000167   0.608741  -0.000206  -0.010705
    11  H   -0.066174   0.000148  -0.017324  -0.000206   0.618070  -0.015958
    12  H    0.470361  -0.000075   0.000433  -0.010705  -0.015958   0.624465
 Mulliken charges:
               1
     1  O   -0.426603
     2  N   -0.448563
     3  C    0.568585
     4  C   -0.142506
     5  C    0.098165
     6  C    0.067551
     7  C   -0.126947
     8  H    0.223357
     9  H    0.041886
    10  H    0.065972
    11  H    0.049402
    12  H    0.029702
 Sum of Mulliken charges =  -0.00000
 Mulliken charges with hydrogens summed into heavy atoms:
               1
     1  O   -0.203246
     2  N   -0.448563
     3  C    0.568585
     4  C   -0.100620
     5  C    0.164137
     6  C    0.116953
     7  C   -0.097245
 Electronic spatial extent (au):  <R**2>=            623.0200
 Charge=              0.0000 electrons
 Dipole moment (field-independent basis, Debye):
    X=              0.4772    Y=             -1.1392    Z=             -0.0000  Tot=              1.2351
 Quadrupole moment (field-independent basis, Debye-Ang):
   XX=            -37.7295   YY=            -36.5107   ZZ=            -42.5409
   XY=             -2.1009   XZ=              0.0000   YZ=              0.0000
 Traceless Quadrupole moment (field-independent basis, Debye-Ang):
   XX=              1.1975   YY=              2.4164   ZZ=             -3.6139
   XY=             -2.1009   XZ=              0.0000   YZ=              0.0000
 Octapole moment (field-independent basis, Debye-Ang**2):
  XXX=              6.0019  YYY=              5.2916  ZZZ=              0.0000  XYY=            -10.7556
  XXY=              0.7183  XXZ=              0.0000  XZZ=             -1.4034  YZZ=              5.4619
  YYZ=             -0.0000  XYZ=              0.0000
 Hexadecapole moment (field-independent basis, Debye-Ang**3):
 XXXX=           -264.3483 YYYY=           -451.9101 ZZZZ=            -45.3531 XXXY=              8.2147
 XXXZ=              0.0000 YYYX=            -29.6746 YYYZ=              0.0000 ZZZX=              0.0000
 ZZZY=              0.0000 XXYY=           -108.5619 XXZZ=            -58.4469 YYZZ=            -95.3201
 XXYZ=              0.0000 YYXZ=              0.0000 ZZXY=              0.7010
 N-N= 2.775236709615D+02 E-N=-1.310464857185D+03  KE= 3.224899448581D+02
 Symmetry A'   KE= 3.106762999188D+02
 Symmetry A"   KE= 1.181364493923D+01
 No NMR shielding tensors so no spin-rotation constants.
 Leave Link  601 at Fri Aug 27 00:15:13 2021, MaxMem= 17179869184 cpu:        51.5
 (Enter /public3/home/sc51754/softwares/g09e01/l701.exe)
 Compute integral first derivatives.
 ... and contract with generalized density number  0.
 Leave Link  701 at Fri Aug 27 00:15:14 2021, MaxMem= 17179869184 cpu:        57.8
 (Enter /public3/home/sc51754/softwares/g09e01/l702.exe)
 L702 exits ... SP integral derivatives will be done elsewhere.
 Leave Link  702 at Fri Aug 27 00:15:14 2021, MaxMem= 17179869184 cpu:         0.2
 (Enter /public3/home/sc51754/softwares/g09e01/l703.exe)
 Compute integral first derivatives, UseDBF=F ICtDFT=           0.
 Integral derivatives from FoFJK, PRISM(SPDF).
 Calling FoFJK, ICntrl=      2127 FMM=F ISym2X=1 I1Cent= 0 IOpClX= 0 NMat=1 NMatS=1 NMatT=0.
 FoFJK:  IHMeth= 1 ICntrl=    2127 DoSepK=F KAlg= 0 I1Cent=   0 FoldK=F
 IRaf=         0 NMat=   1 IRICut=       1 DoRegI=T DoRafI=F ISym2E= 1.
 FoFCou: FMM=F IPFlag=           0 FMFlag=      100000 FMFlg1=         800
         NFxFlg=           0 DoJE=F BraDBF=F KetDBF=F FulRan=T
         wScrn=  0.000000 ICntrl=    2127 IOpCl=  0 I1Cent=           0 NGrid=           0
         NMat0=    1 NMatS0=      1 NMatT0=    0 NMatD0=    1 NMtDS0=    0 NMtDT0=    0
 Petite list used in FoFCou.
 Leave Link  703 at Fri Aug 27 00:15:16 2021, MaxMem= 17179869184 cpu:       148.5
 (Enter /public3/home/sc51754/softwares/g09e01/l716.exe)
 Dipole        = 1.87760988D-01-4.48181905D-01-2.00594811D-32
 ***** Axes restored to original set *****
 -------------------------------------------------------------------
 Center     Atomic                   Forces (Hartrees/Bohr)
 Number     Number              X              Y              Z
 -------------------------------------------------------------------
      1        8          -0.000024705    0.000024162   -0.000000000
      2        7           0.000104580   -0.000065297    0.000000000
      3        6          -0.000151375   -0.000092889   -0.000000000
      4        6          -0.000024147   -0.000061441    0.000000000
      5        6           0.000103080   -0.000010751    0.000000000
      6        6          -0.000047534    0.000039147   -0.000000000
      7        6           0.000031930    0.000100237   -0.000000000
      8        1          -0.000087241    0.000035012   -0.000000000
      9        1           0.000002873    0.000006847   -0.000000000
     10        1           0.000019494   -0.000030737    0.000000000
     11        1           0.000040295    0.000050480   -0.000000000
     12        1           0.000032750    0.000005231    0.000000000
 -------------------------------------------------------------------
 Cartesian Forces:  Max     0.000151375 RMS     0.000050931
 Leave Link  716 at Fri Aug 27 00:15:17 2021, MaxMem= 17179869184 cpu:         0.5
 (Enter /public3/home/sc51754/softwares/g09e01/l103.exe)

 GradGradGradGradGradGradGradGradGradGradGradGradGradGradGradGradGradGrad
 Berny optimization.
 FormGI is forming the generalized inverse of G from B-inverse, IUseBI=4.
 Internal  Forces:  Max     0.000125915 RMS     0.000036653
 Search for a local minimum.
 Step number   1 out of a maximum of   61
 All quantities printed in internal units (Hartrees-Bohrs-Radians)
 RMS Force = .36653D-04 SwitMx=.10000D-02 MixMth= 2
 Mixed Optimization -- En-DIIS/RFO-DIIS
 Second derivative matrix not updated -- first step.
 ITU=  0
     Eigenvalues ---    0.02265   0.02291   0.02312   0.02345   0.02366
     Eigenvalues ---    0.02409   0.02454   0.02466   0.02614   0.16000
     Eigenvalues ---    0.16000   0.16000   0.16000   0.16000   0.22000
     Eigenvalues ---    0.22422   0.24442   0.25000   0.35406   0.35728
     Eigenvalues ---    0.35970   0.35990   0.43621   0.45785   0.48169
     Eigenvalues ---    0.49389   0.54882   0.56881   0.57480   0.60970
 RFO step:  Lambda=-1.72167331D-07 EMin= 2.26525640D-02
 Linear search not attempted -- first point.
 Iteration  1 RMS(Cart)=  0.00017081 RMS(Int)=  0.00000003
 Iteration  2 RMS(Cart)=  0.00000002 RMS(Int)=  0.00000000
 ITry= 1 IFail=0 DXMaxC= 8.46D-04 DCOld= 1.00D+10 DXMaxT= 3.00D-01 DXLimC= 3.00D+00 Rises=F
 ClnCor:  largest displacement from symmetrization is 8.29D-14 for atom    11.
 Variable       Old X    -DE/DX   Delta X   Delta X   Delta X     New X
                                 (Linear)    (Quad)   (Total)
    R1        2.53498   0.00008   0.00000   0.00014   0.00014   2.53512
    R2        1.81937   0.00005   0.00000   0.00010   0.00010   1.81946
    R3        2.48913  -0.00013   0.00000  -0.00020  -0.00020   2.48893
    R4        2.51605  -0.00008   0.00000  -0.00014  -0.00014   2.51591
    R5        2.63173   0.00003   0.00000   0.00008   0.00008   2.63181
    R6        2.59740  -0.00009   0.00000  -0.00017  -0.00017   2.59723
    R7        2.04128   0.00000   0.00000   0.00001   0.00001   2.04129
    R8        2.60360  -0.00010   0.00000  -0.00020  -0.00020   2.60340
    R9        2.05020  -0.00000   0.00000  -0.00000  -0.00000   2.05020
   R10        2.62604  -0.00009   0.00000  -0.00018  -0.00018   2.62586
   R11        2.04509   0.00000   0.00000   0.00001   0.00001   2.04510
   R12        2.04097  -0.00001   0.00000  -0.00002  -0.00002   2.04094
    A1        1.85547   0.00007   0.00000   0.00045   0.00045   1.85591
    A2        2.05525   0.00001   0.00000   0.00002   0.00002   2.05527
    A3        2.05194   0.00003   0.00000   0.00010   0.00010   2.05204
    A4        2.06888   0.00001   0.00000   0.00002   0.00002   2.06890
    A5        2.16236  -0.00003   0.00000  -0.00011  -0.00011   2.16225
    A6        2.04920   0.00001   0.00000   0.00007   0.00007   2.04927
    A7        2.09344   0.00003   0.00000   0.00019   0.00019   2.09363
    A8        2.14055  -0.00004   0.00000  -0.00026  -0.00026   2.14029
    A9        2.15386   0.00002   0.00000   0.00005   0.00005   2.15391
   A10        2.02490  -0.00002   0.00000  -0.00008  -0.00008   2.02482
   A11        2.10443   0.00000   0.00000   0.00003   0.00003   2.10446
   A12        2.08852  -0.00001   0.00000  -0.00005  -0.00005   2.08848
   A13        2.09426  -0.00001   0.00000  -0.00011  -0.00011   2.09416
   A14        2.10040   0.00003   0.00000   0.00016   0.00016   2.10056
   A15        2.05718   0.00001   0.00000   0.00002   0.00002   2.05720
   A16        2.10510  -0.00002   0.00000  -0.00010  -0.00010   2.10500
   A17        2.12091   0.00001   0.00000   0.00007   0.00007   2.12098
    D1        0.00000  -0.00000   0.00000   0.00000  -0.00000   0.00000
    D2        3.14159   0.00000   0.00000  -0.00000   0.00000   3.14159
    D3        3.14159   0.00000   0.00000  -0.00000   0.00000   3.14159
    D4        0.00000  -0.00000   0.00000   0.00000   0.00000   0.00000
    D5       -0.00000   0.00000   0.00000   0.00000   0.00000   0.00000
    D6        3.14159   0.00000   0.00000   0.00000   0.00000   3.14159
    D7        3.14159  -0.00000   0.00000  -0.00000   0.00000   3.14159
    D8        0.00000  -0.00000   0.00000  -0.00000   0.00000   0.00000
    D9       -0.00000  -0.00000   0.00000  -0.00000   0.00000   0.00000
   D10        3.14159   0.00000   0.00000  -0.00000   0.00000   3.14159
   D11        0.00000   0.00000   0.00000   0.00000   0.00000   0.00000
   D12        3.14159   0.00000   0.00000   0.00000   0.00000   3.14159
   D13        3.14159   0.00000   0.00000   0.00000   0.00000   3.14159
   D14       -0.00000  -0.00000   0.00000   0.00000   0.00000   0.00000
   D15       -0.00000   0.00000   0.00000  -0.00000   0.00000   0.00000
   D16        3.14159   0.00000   0.00000  -0.00000   0.00000   3.14159
   D17        3.14159  -0.00000   0.00000  -0.00000   0.00000   3.14159
   D18       -0.00000  -0.00000   0.00000  -0.00000   0.00000   0.00000
   D19        0.00000  -0.00000   0.00000   0.00000  -0.00000   0.00000
   D20        3.14159  -0.00000   0.00000   0.00000   0.00000   3.14159
   D21        3.14159  -0.00000   0.00000  -0.00000   0.00000   3.14159
   D22       -0.00000  -0.00000   0.00000  -0.00000   0.00000   0.00000
         Item               Value     Threshold  Converged?
 Maximum Force            0.000126     0.000450     YES
 RMS     Force            0.000037     0.000300     YES
 Maximum Displacement     0.000846     0.001800     YES
 RMS     Displacement     0.000171     0.001200     YES
 Predicted change in Energy=-8.608374D-08
 Optimization completed.
    -- Stationary point found.
                           ----------------------------
                           !   Optimized Parameters   !
                           ! (Angstroms and Degrees)  !
 --------------------------                            --------------------------
 ! Name  Definition              Value          Derivative Info.                !
 --------------------------------------------------------------------------------
 ! R1    R(1,3)                  1.3415         -DE/DX =    0.0001              !
 ! R2    R(1,8)                  0.9628         -DE/DX =    0.0001              !
 ! R3    R(2,3)                  1.3172         -DE/DX =   -0.0001              !
 ! R4    R(2,5)                  1.3314         -DE/DX =   -0.0001              !
 ! R5    R(3,4)                  1.3927         -DE/DX =    0.0                 !
 ! R6    R(4,6)                  1.3745         -DE/DX =   -0.0001              !
 ! R7    R(4,9)                  1.0802         -DE/DX =    0.0                 !
 ! R8    R(5,7)                  1.3778         -DE/DX =   -0.0001              !
 ! R9    R(5,10)                 1.0849         -DE/DX =    0.0                 !
 ! R10   R(6,7)                  1.3896         -DE/DX =   -0.0001              !
 ! R11   R(6,11)                 1.0822         -DE/DX =    0.0                 !
 ! R12   R(7,12)                 1.08           -DE/DX =    0.0                 !
 ! A1    A(3,1,8)              106.3104         -DE/DX =    0.0001              !
 ! A2    A(3,2,5)              117.7571         -DE/DX =    0.0                 !
 ! A3    A(1,3,2)              117.5674         -DE/DX =    0.0                 !
 ! A4    A(1,3,4)              118.5383         -DE/DX =    0.0                 !
 ! A5    A(2,3,4)              123.8942         -DE/DX =    0.0                 !
 ! A6    A(3,4,6)              117.4104         -DE/DX =    0.0                 !
 ! A7    A(3,4,9)              119.945          -DE/DX =    0.0                 !
 ! A8    A(6,4,9)              122.6446         -DE/DX =    0.0                 !
 ! A9    A(2,5,7)              123.4071         -DE/DX =    0.0                 !
 ! A10   A(2,5,10)             116.018          -DE/DX =    0.0                 !
 ! A11   A(7,5,10)             120.5749         -DE/DX =    0.0                 !
 ! A12   A(4,6,7)              119.6636         -DE/DX =    0.0                 !
 ! A13   A(4,6,11)             119.9925         -DE/DX =    0.0                 !
 ! A14   A(7,6,11)             120.3439         -DE/DX =    0.0                 !
 ! A15   A(5,7,6)              117.8675         -DE/DX =    0.0                 !
 ! A16   A(5,7,12)             120.6134         -DE/DX =    0.0                 !
 ! A17   A(6,7,12)             121.519          -DE/DX =    0.0                 !
 ! D1    D(8,1,3,2)              0.0            -DE/DX =    0.0                 !
 ! D2    D(8,1,3,4)            180.0            -DE/DX =    0.0                 !
 ! D3    D(5,2,3,1)            180.0            -DE/DX =    0.0                 !
 ! D4    D(5,2,3,4)              0.0            -DE/DX =    0.0                 !
 ! D5    D(3,2,5,7)              0.0            -DE/DX =    0.0                 !
 ! D6    D(3,2,5,10)           180.0            -DE/DX =    0.0                 !
 ! D7    D(1,3,4,6)            180.0            -DE/DX =    0.0                 !
 ! D8    D(1,3,4,9)              0.0            -DE/DX =    0.0                 !
 ! D9    D(2,3,4,6)              0.0            -DE/DX =    0.0                 !
 ! D10   D(2,3,4,9)            180.0            -DE/DX =    0.0                 !
 ! D11   D(3,4,6,7)              0.0            -DE/DX =    0.0                 !
 ! D12   D(3,4,6,11)           180.0            -DE/DX =    0.0                 !
 ! D13   D(9,4,6,7)            180.0            -DE/DX =    0.0                 !
 ! D14   D(9,4,6,11)             0.0            -DE/DX =    0.0                 !
 ! D15   D(2,5,7,6)              0.0            -DE/DX =    0.0                 !
 ! D16   D(2,5,7,12)           180.0            -DE/DX =    0.0                 !
 ! D17   D(10,5,7,6)           180.0            -DE/DX =    0.0                 !
 ! D18   D(10,5,7,12)            0.0            -DE/DX =    0.0                 !
 ! D19   D(4,6,7,5)              0.0            -DE/DX =    0.0                 !
 ! D20   D(4,6,7,12)           180.0            -DE/DX =    0.0                 !
 ! D21   D(11,6,7,5)           180.0            -DE/DX =    0.0                 !
 ! D22   D(11,6,7,12)            0.0            -DE/DX =    0.0                 !
 --------------------------------------------------------------------------------
 Lowest energy point so far.  Saving SCF results.
 GradGradGradGradGradGradGradGradGradGradGradGradGradGradGradGradGradGrad

 Largest change from initial coordinates is atom    8       0.000 Angstoms.
 Leave Link  103 at Fri Aug 27 00:15:17 2021, MaxMem= 17179869184 cpu:        25.4
 (Enter /public3/home/sc51754/softwares/g09e01/l202.exe)
                          Input orientation:                          
 ---------------------------------------------------------------------
 Center     Atomic      Atomic             Coordinates (Angstroms)
 Number     Number       Type             X           Y           Z
 ---------------------------------------------------------------------
      1          8           0        0.008372    2.239736   -0.000000
      2          7           0       -1.171427    0.296023   -0.000000
      3          6           0       -0.000000    0.898309   -0.000000
      4          6           0        1.219264    0.225352    0.000000
      5          6           0       -1.184145   -1.035351   -0.000000
      6          6           0        1.183632   -1.148671    0.000000
      7          6           0       -0.041314   -1.804878    0.000000
      8          1           0       -0.913944    2.515883   -0.000000
      9          1           0        2.143627    0.784264    0.000000
     10          1           0       -2.163617   -1.501920   -0.000000
     11          1           0        2.106589   -1.713772    0.000000
     12          1           0       -0.104256   -2.883075    0.000000
 ---------------------------------------------------------------------
                    Distance matrix (angstroms):
                    1          2          3          4          5
     1  O    0.000000
     2  N    2.273752   0.000000
     3  C    1.341453   1.317190   0.000000
     4  C    2.350320   2.391735   1.392651   0.000000
     5  C    3.485440   1.331435   2.267430   2.713991   0.000000
     6  C    3.586438   2.762869   2.364553   1.374485   2.370487
     7  C    4.044919   2.385569   2.703503   2.389747   1.377764
     8  H    0.962769   2.234743   1.857913   3.130033   3.561498
     9  H    2.584127   3.350815   2.146659   1.080199   3.792765
    10  H    4.326376   2.053543   3.231461   3.798335   1.084920
    11  H    4.475795   3.845083   3.355694   2.132498   3.359938
    12  H    5.124049   3.353434   3.782821   3.378465   2.140151
                    6          7          8          9         10
     6  C    0.000000
     7  C    1.389640   0.000000
     8  H    4.222414   4.407999   0.000000
     9  H    2.158200   3.387864   3.513865   0.000000
    10  H    3.365837   2.143818   4.207662   4.876370   0.000000
    11  H    1.082215   2.149834   5.197461   2.498311   4.275458
    12  H    2.160281   1.080033   5.459335   4.301436   2.479628
                   11         12
    11  H    0.000000
    12  H    2.501021   0.000000
 Stoichiometry    C5H5NO
 Framework group  CS[SG(C5H5NO)]
 Deg. of freedom    21
 Full point group                 CS      NOp   2
 RotChk:  IX=0 Diff= 4.12D-32
 Largest Abelian subgroup         CS      NOp   2
 Largest concise Abelian subgroup C1      NOp   1
                         Standard orientation:                         
 ---------------------------------------------------------------------
 Center     Atomic      Atomic             Coordinates (Angstroms)
 Number     Number       Type             X           Y           Z
 ---------------------------------------------------------------------
      1          8           0        0.008372    2.239736    0.000000
      2          7           0       -1.171427    0.296023    0.000000
      3          6           0       -0.000000    0.898309    0.000000
      4          6           0        1.219264    0.225352    0.000000
      5          6           0       -1.184145   -1.035351    0.000000
      6          6           0        1.183632   -1.148671    0.000000
      7          6           0       -0.041314   -1.804878    0.000000
      8          1           0       -0.913944    2.515883    0.000000
      9          1           0        2.143627    0.784264    0.000000
     10          1           0       -2.163617   -1.501920    0.000000
     11          1           0        2.106589   -1.713772    0.000000
     12          1           0       -0.104257   -2.883075    0.000000
 ---------------------------------------------------------------------
 Rotational constants (GHZ):      5.9244098      2.8053779      1.9038502
 Leave Link  202 at Fri Aug 27 00:15:17 2021, MaxMem= 17179869184 cpu:         9.0
 (Enter /public3/home/sc51754/softwares/g09e01/l9999.exe)
 1\1\GINC-R2613\FOpt\RM06\Gen\C5H5N1O1\SC51754\27-Aug-2021\0\\#p opt fr
 eq M06/gen\\HY_M06_PC2_OPT_FREQ\\0,1\O,0.008372,2.239736,0.\N,-1.17142
 7,0.296023,0.\C,0.,0.898309,0.\C,1.219264,0.225352,0.\C,-1.184145,-1.0
 35351,0.\C,1.183632,-1.148671,0.\C,-0.041314,-1.804878,0.\H,-0.913944,
 2.515883,0.\H,2.143627,0.784264,0.\H,-2.163617,-1.50192,0.\H,2.106589,
 -1.713772,0.\H,-0.104256,-2.883075,0.\\Version=EM64L-G09RevE.01\State=
 1-A'\HF=-323.437224\RMSD=4.805e-09\RMSF=5.093e-05\Dipole=0.1877611,-0.
 4481819,0.\Quadrupole=0.890314,1.7965244,-2.6868384,-1.5619506,0.,0.\P
 G=CS [SG(C5H5N1O1)]\\@


 PATIENCE IS THE ABILITY TO IDLE YOUR MOTOR WHEN
 YOU FEEL LIKE STRIPPING YOUR GEARS.
 Leave Link 9999 at Fri Aug 27 00:15:18 2021, MaxMem= 17179869184 cpu:         2.0
 Job cpu time:       0 days  0 hours 12 minutes 32.9 seconds.
 File lengths (MBytes):  RWF=     34 Int=      0 D2E=      0 Chk=      6 Scr=      1
 Normal termination of Gaussian 09 at Fri Aug 27 00:15:18 2021.
 (Enter /public3/home/sc51754/softwares/g09e01/l1.exe)
 Link1:  Proceeding to internal job step number  2.
 ----------------------------------------------------------------
 #P Geom=AllCheck Guess=TCheck SCRF=Check GenChk RM06/ChkBas Freq
 ----------------------------------------------------------------
 1/10=4,29=7,30=1,38=1,40=1/1,3;
 2/12=2,40=1/2;
 3/5=7,6=2,11=2,14=-4,16=1,25=1,30=1,67=1,70=2,71=2,74=-54,82=7,116=1,140=1/1,2,3;
 4/5=101/1;
 5/5=2,38=6,98=1/2;
 8/6=4,10=90,11=11/1;
 11/6=1,8=1,9=11,15=111,16=1/1,2,10;
 10/6=1/2;
 6/7=2,8=2,9=2,10=2,18=1,28=1/1;
 7/8=1,10=1,25=1/1,2,3,16;
 1/10=4,30=1/3;
 99//99;
 Leave Link    1 at Fri Aug 27 00:15:18 2021, MaxMem= 17179869184 cpu:         0.9
 (Enter /public3/home/sc51754/softwares/g09e01/l101.exe)
 Structure from the checkpoint file:  "HY_M06_PC2_OPT_FREQ.chk"
 -------------------
 HY_M06_PC2_OPT_FREQ
 -------------------
 Charge =  0 Multiplicity = 1
 Redundant internal coordinates found in file.
 O,0,0.008372,2.239736,0.
 N,0,-1.171427,0.296023,0.
 C,0,0.,0.898309,0.
 C,0,1.219264,0.225352,0.
 C,0,-1.184145,-1.035351,0.
 C,0,1.183632,-1.148671,0.
 C,0,-0.041314,-1.804878,0.
 H,0,-0.913944,2.515883,0.
 H,0,2.143627,0.784264,0.
 H,0,-2.163617,-1.50192,0.
 H,0,2.106589,-1.713772,0.
 H,0,-0.104256,-2.883075,0.
 Recover connectivity data from disk.
 NAtoms=     12 NQM=       12 NQMF=       0 NMMI=      0 NMMIF=      0
                NMic=       0 NMicF=      0.
                    Isotopes and Nuclear Properties:
 (Nuclear quadrupole moments (NQMom) in fm**2, nuclear magnetic moments (NMagM)
  in nuclear magnetons)

  Atom         1           2           3           4           5           6           7           8           9          10
 IAtWgt=          16          14          12          12          12          12          12           1           1           1
 AtmWgt=  15.9949146  14.0030740  12.0000000  12.0000000  12.0000000  12.0000000  12.0000000   1.0078250   1.0078250   1.0078250
 NucSpn=           0           2           0           0           0           0           0           1           1           1
 AtZEff=  -5.6000000  -4.5500000  -3.6000000  -3.6000000  -3.6000000  -3.6000000  -3.6000000  -1.0000000  -1.0000000  -1.0000000
 NQMom=    0.0000000   2.0440000   0.0000000   0.0000000   0.0000000   0.0000000   0.0000000   0.0000000   0.0000000   0.0000000
 NMagM=    0.0000000   0.4037610   0.0000000   0.0000000   0.0000000   0.0000000   0.0000000   2.7928460   2.7928460   2.7928460
 AtZNuc=   8.0000000   7.0000000   6.0000000   6.0000000   6.0000000   6.0000000   6.0000000   1.0000000   1.0000000   1.0000000

  Atom        11          12
 IAtWgt=           1           1
 AtmWgt=   1.0078250   1.0078250
 NucSpn=           1           1
 AtZEff=  -1.0000000  -1.0000000
 NQMom=    0.0000000   0.0000000
 NMagM=    2.7928460   2.7928460
 AtZNuc=   1.0000000   1.0000000
 Leave Link  101 at Fri Aug 27 00:15:18 2021, MaxMem= 17179869184 cpu:        10.5
 (Enter /public3/home/sc51754/softwares/g09e01/l103.exe)

 GradGradGradGradGradGradGradGradGradGradGradGradGradGradGradGradGradGrad
 Berny optimization.
 Initialization pass.
                           ----------------------------
                           !    Initial Parameters    !
                           ! (Angstroms and Degrees)  !
 --------------------------                            --------------------------
 ! Name  Definition              Value          Derivative Info.                !
 --------------------------------------------------------------------------------
 ! R1    R(1,3)                  1.3415         calculate D2E/DX2 analytically  !
 ! R2    R(1,8)                  0.9628         calculate D2E/DX2 analytically  !
 ! R3    R(2,3)                  1.3172         calculate D2E/DX2 analytically  !
 ! R4    R(2,5)                  1.3314         calculate D2E/DX2 analytically  !
 ! R5    R(3,4)                  1.3927         calculate D2E/DX2 analytically  !
 ! R6    R(4,6)                  1.3745         calculate D2E/DX2 analytically  !
 ! R7    R(4,9)                  1.0802         calculate D2E/DX2 analytically  !
 ! R8    R(5,7)                  1.3778         calculate D2E/DX2 analytically  !
 ! R9    R(5,10)                 1.0849         calculate D2E/DX2 analytically  !
 ! R10   R(6,7)                  1.3896         calculate D2E/DX2 analytically  !
 ! R11   R(6,11)                 1.0822         calculate D2E/DX2 analytically  !
 ! R12   R(7,12)                 1.08           calculate D2E/DX2 analytically  !
 ! A1    A(3,1,8)              106.3104         calculate D2E/DX2 analytically  !
 ! A2    A(3,2,5)              117.7571         calculate D2E/DX2 analytically  !
 ! A3    A(1,3,2)              117.5674         calculate D2E/DX2 analytically  !
 ! A4    A(1,3,4)              118.5383         calculate D2E/DX2 analytically  !
 ! A5    A(2,3,4)              123.8942         calculate D2E/DX2 analytically  !
 ! A6    A(3,4,6)              117.4104         calculate D2E/DX2 analytically  !
 ! A7    A(3,4,9)              119.945          calculate D2E/DX2 analytically  !
 ! A8    A(6,4,9)              122.6446         calculate D2E/DX2 analytically  !
 ! A9    A(2,5,7)              123.4071         calculate D2E/DX2 analytically  !
 ! A10   A(2,5,10)             116.018          calculate D2E/DX2 analytically  !
 ! A11   A(7,5,10)             120.5749         calculate D2E/DX2 analytically  !
 ! A12   A(4,6,7)              119.6636         calculate D2E/DX2 analytically  !
 ! A13   A(4,6,11)             119.9925         calculate D2E/DX2 analytically  !
 ! A14   A(7,6,11)             120.3439         calculate D2E/DX2 analytically  !
 ! A15   A(5,7,6)              117.8675         calculate D2E/DX2 analytically  !
 ! A16   A(5,7,12)             120.6134         calculate D2E/DX2 analytically  !
 ! A17   A(6,7,12)             121.519          calculate D2E/DX2 analytically  !
 ! D1    D(8,1,3,2)              0.0            calculate D2E/DX2 analytically  !
 ! D2    D(8,1,3,4)            180.0            calculate D2E/DX2 analytically  !
 ! D3    D(5,2,3,1)            180.0            calculate D2E/DX2 analytically  !
 ! D4    D(5,2,3,4)              0.0            calculate D2E/DX2 analytically  !
 ! D5    D(3,2,5,7)              0.0            calculate D2E/DX2 analytically  !
 ! D6    D(3,2,5,10)           180.0            calculate D2E/DX2 analytically  !
 ! D7    D(1,3,4,6)            180.0            calculate D2E/DX2 analytically  !
 ! D8    D(1,3,4,9)              0.0            calculate D2E/DX2 analytically  !
 ! D9    D(2,3,4,6)              0.0            calculate D2E/DX2 analytically  !
 ! D10   D(2,3,4,9)            180.0            calculate D2E/DX2 analytically  !
 ! D11   D(3,4,6,7)              0.0            calculate D2E/DX2 analytically  !
 ! D12   D(3,4,6,11)           180.0            calculate D2E/DX2 analytically  !
 ! D13   D(9,4,6,7)            180.0            calculate D2E/DX2 analytically  !
 ! D14   D(9,4,6,11)             0.0            calculate D2E/DX2 analytically  !
 ! D15   D(2,5,7,6)              0.0            calculate D2E/DX2 analytically  !
[...]
     28  0.000000D+00  0.935067D-04  0.182866D-03  0.000000D+00 -0.877215D-04
     29  0.000000D+00 -0.349042D-05  0.311937D-03  0.000000D+00 -0.189069D-03
     30  0.736371D-02  0.000000D+00  0.000000D+00 -0.280774D-03  0.000000D+00
     31  0.000000D+00  0.736076D-04 -0.850323D-04  0.000000D+00  0.540019D-03
     32  0.000000D+00  0.156778D-04 -0.437192D-03  0.000000D+00 -0.477029D-03
     33  0.508650D-02  0.000000D+00  0.000000D+00 -0.421350D-03  0.000000D+00
     34  0.000000D+00 -0.138428D-03 -0.245799D-03  0.000000D+00  0.163255D-03
     35  0.000000D+00  0.126184D-03  0.183421D-03  0.000000D+00  0.280528D-03
     36 -0.322788D-01  0.000000D+00  0.000000D+00 -0.185592D-04  0.000000D+00
               26            27            28            29            30 
     26  0.133848D+00
     27  0.000000D+00  0.239600D-01
     28 -0.273786D-04  0.000000D+00  0.299910D+00
     29  0.125109D-03  0.000000D+00  0.111545D+00  0.115616D+00
     30  0.000000D+00 -0.173988D-02  0.000000D+00  0.000000D+00  0.257984D-01
     31  0.367878D-03  0.000000D+00 -0.994115D-03  0.883648D-03  0.000000D+00
     32  0.119473D-02  0.000000D+00 -0.735296D-03  0.422652D-03  0.000000D+00
     33  0.000000D+00 -0.462432D-02  0.000000D+00  0.000000D+00 -0.501478D-03
     34 -0.129477D-02  0.000000D+00  0.705720D-03 -0.751499D-03  0.000000D+00
     35 -0.383022D-03  0.000000D+00  0.202791D-03  0.421495D-03  0.000000D+00
     36  0.000000D+00  0.533592D-03  0.000000D+00  0.000000D+00 -0.349439D-02
               31            32            33            34            35 
     31  0.275176D+00
     32 -0.134568D+00  0.138064D+00
     33  0.000000D+00  0.000000D+00  0.272813D-01
     34  0.122863D-02  0.764992D-03  0.000000D+00  0.554815D-01
     35 -0.834482D-04  0.575898D-03  0.000000D+00  0.175354D-01  0.361923D+00
     36  0.000000D+00  0.000000D+00 -0.363932D-02  0.000000D+00  0.000000D+00
               36 
     36  0.244553D-01
 FormGI is forming the generalized inverse of G from B-inverse, IUseBI=4.
 Leave Link  716 at Fri Aug 27 00:16:01 2021, MaxMem= 17179869184 cpu:        19.4
 (Enter /public3/home/sc51754/softwares/g09e01/l103.exe)

 GradGradGradGradGradGradGradGradGradGradGradGradGradGradGradGradGradGrad
 Berny optimization.
 Red2BG is reusing G-inverse.
 Internal  Forces:  Max     0.000125988 RMS     0.000036660
 Search for a local minimum.
 Step number   1 out of a maximum of    2
 All quantities printed in internal units (Hartrees-Bohrs-Radians)
 Second derivative matrix not updated -- analytic derivatives used.
 ITU=  0
     Eigenvalues ---    0.01382   0.01666   0.01758   0.02176   0.02288
     Eigenvalues ---    0.02668   0.02992   0.03651   0.04447   0.10005
     Eigenvalues ---    0.10599   0.11671   0.12706   0.15610   0.18408
     Eigenvalues ---    0.19615   0.20776   0.23310   0.31591   0.35081
     Eigenvalues ---    0.35788   0.36302   0.36424   0.39098   0.44284
     Eigenvalues ---    0.46438   0.48831   0.53249   0.53425   0.59111
 Angle between quadratic step and forces=  35.22 degrees.
 Linear search not attempted -- first point.
 Iteration  1 RMS(Cart)=  0.00019066 RMS(Int)=  0.00000003
 Iteration  2 RMS(Cart)=  0.00000003 RMS(Int)=  0.00000000
 ITry= 1 IFail=0 DXMaxC= 8.47D-04 DCOld= 1.00D+10 DXMaxT= 3.00D-01 DXLimC= 3.00D+00 Rises=F
 ClnCor:  largest displacement from symmetrization is 4.28D-12 for atom     1.
 Variable       Old X    -DE/DX   Delta X   Delta X   Delta X     New X
                                 (Linear)    (Quad)   (Total)
    R1        2.53498   0.00008   0.00000   0.00015   0.00015   2.53513
    R2        1.81937   0.00005   0.00000   0.00007   0.00007   1.81944
    R3        2.48913  -0.00013   0.00000  -0.00031  -0.00031   2.48882
    R4        2.51605  -0.00008   0.00000  -0.00010  -0.00010   2.51595
    R5        2.63173   0.00003   0.00000   0.00012   0.00012   2.63185
    R6        2.59740  -0.00009   0.00000  -0.00018  -0.00018   2.59722
    R7        2.04128   0.00000   0.00000   0.00001   0.00001   2.04129
    R8        2.60360  -0.00010   0.00000  -0.00023  -0.00023   2.60337
    R9        2.05020  -0.00000   0.00000   0.00000   0.00000   2.05020
   R10        2.62604  -0.00009   0.00000  -0.00015  -0.00015   2.62589
   R11        2.04509   0.00000   0.00000   0.00001   0.00001   2.04510
   R12        2.04097  -0.00001   0.00000  -0.00001  -0.00001   2.04095
    A1        1.85547   0.00007   0.00000   0.00037   0.00037   1.85584
    A2        2.05525   0.00001   0.00000   0.00008   0.00008   2.05533
    A3        2.05194   0.00003   0.00000   0.00020   0.00020   2.05214
    A4        2.06888   0.00001   0.00000  -0.00007  -0.00007   2.06881
    A5        2.16236  -0.00003   0.00000  -0.00013  -0.00013   2.16223
    A6        2.04920   0.00001   0.00000   0.00005   0.00005   2.04925
    A7        2.09344   0.00003   0.00000   0.00030   0.00030   2.09373
    A8        2.14055  -0.00004   0.00000  -0.00035  -0.00035   2.14020
    A9        2.15386   0.00002   0.00000   0.00002   0.00002   2.15388
   A10        2.02490  -0.00002   0.00000  -0.00007  -0.00007   2.02482
   A11        2.10443   0.00000   0.00000   0.00005   0.00005   2.10448
   A12        2.08852  -0.00001   0.00000  -0.00003  -0.00003   2.08849
   A13        2.09426  -0.00001   0.00000  -0.00019  -0.00019   2.09408
   A14        2.10040   0.00003   0.00000   0.00022   0.00022   2.10062
   A15        2.05718   0.00001   0.00000   0.00001   0.00001   2.05719
   A16        2.10510  -0.00002   0.00000  -0.00014  -0.00014   2.10496
   A17        2.12091   0.00001   0.00000   0.00013   0.00013   2.12104
    D1       -0.00000   0.00000   0.00000   0.00000   0.00000   0.00000
    D2        3.14159   0.00000   0.00000   0.00000   0.00000   3.14159
    D3        3.14159   0.00000   0.00000   0.00000   0.00000   3.14159
    D4       -0.00000   0.00000   0.00000   0.00000   0.00000   0.00000
    D5        0.00000   0.00000   0.00000  -0.00000   0.00000   0.00000
    D6        3.14159  -0.00000   0.00000  -0.00000   0.00000   3.14159
    D7        3.14159  -0.00000   0.00000  -0.00000   0.00000   3.14159
    D8       -0.00000  -0.00000   0.00000   0.00000   0.00000   0.00000
    D9        0.00000  -0.00000   0.00000  -0.00000  -0.00000   0.00000
   D10        3.14159   0.00000   0.00000   0.00000   0.00000   3.14159
   D11       -0.00000   0.00000   0.00000   0.00000   0.00000   0.00000
   D12        3.14159   0.00000   0.00000  -0.00000   0.00000   3.14159
   D13        3.14159  -0.00000   0.00000  -0.00000   0.00000   3.14159
   D14        0.00000   0.00000   0.00000  -0.00000   0.00000   0.00000
   D15       -0.00000  -0.00000   0.00000   0.00000   0.00000   0.00000
   D16        3.14159  -0.00000   0.00000   0.00000   0.00000   3.14159
   D17        3.14159   0.00000   0.00000   0.00000   0.00000   3.14159
   D18        0.00000  -0.00000   0.00000   0.00000   0.00000   0.00000
   D19        0.00000  -0.00000   0.00000  -0.00000   0.00000   0.00000
   D20        3.14159   0.00000   0.00000  -0.00000   0.00000   3.14159
   D21        3.14159  -0.00000   0.00000  -0.00000   0.00000   3.14159
   D22       -0.00000   0.00000   0.00000   0.00000   0.00000   0.00000
         Item               Value     Threshold  Converged?
 Maximum Force            0.000126     0.000450     YES
 RMS     Force            0.000037     0.000300     YES
 Maximum Displacement     0.000847     0.001800     YES
 RMS     Displacement     0.000191     0.001200     YES
 Predicted change in Energy=-9.641842D-08
 Optimization completed.
    -- Stationary point found.
                           ----------------------------
                           !   Optimized Parameters   !
                           ! (Angstroms and Degrees)  !
 --------------------------                            --------------------------
 ! Name  Definition              Value          Derivative Info.                !
 --------------------------------------------------------------------------------
 ! R1    R(1,3)                  1.3415         -DE/DX =    0.0001              !
 ! R2    R(1,8)                  0.9628         -DE/DX =    0.0001              !
 ! R3    R(2,3)                  1.3172         -DE/DX =   -0.0001              !
 ! R4    R(2,5)                  1.3314         -DE/DX =   -0.0001              !
 ! R5    R(3,4)                  1.3927         -DE/DX =    0.0                 !
 ! R6    R(4,6)                  1.3745         -DE/DX =   -0.0001              !
 ! R7    R(4,9)                  1.0802         -DE/DX =    0.0                 !
 ! R8    R(5,7)                  1.3778         -DE/DX =   -0.0001              !
 ! R9    R(5,10)                 1.0849         -DE/DX =    0.0                 !
 ! R10   R(6,7)                  1.3896         -DE/DX =   -0.0001              !
 ! R11   R(6,11)                 1.0822         -DE/DX =    0.0                 !
 ! R12   R(7,12)                 1.08           -DE/DX =    0.0                 !
 ! A1    A(3,1,8)              106.3104         -DE/DX =    0.0001              !
 ! A2    A(3,2,5)              117.7571         -DE/DX =    0.0                 !
 ! A3    A(1,3,2)              117.5674         -DE/DX =    0.0                 !
 ! A4    A(1,3,4)              118.5383         -DE/DX =    0.0                 !
 ! A5    A(2,3,4)              123.8942         -DE/DX =    0.0                 !
 ! A6    A(3,4,6)              117.4104         -DE/DX =    0.0                 !
 ! A7    A(3,4,9)              119.945          -DE/DX =    0.0                 !
 ! A8    A(6,4,9)              122.6446         -DE/DX =    0.0                 !
 ! A9    A(2,5,7)              123.4071         -DE/DX =    0.0                 !
 ! A10   A(2,5,10)             116.018          -DE/DX =    0.0                 !
 ! A11   A(7,5,10)             120.5749         -DE/DX =    0.0                 !
 ! A12   A(4,6,7)              119.6636         -DE/DX =    0.0                 !
 ! A13   A(4,6,11)             119.9925         -DE/DX =    0.0                 !
 ! A14   A(7,6,11)             120.3439         -DE/DX =    0.0                 !
 ! A15   A(5,7,6)              117.8675         -DE/DX =    0.0                 !
 ! A16   A(5,7,12)             120.6134         -DE/DX =    0.0                 !
 ! A17   A(6,7,12)             121.519          -DE/DX =    0.0                 !
 ! D1    D(8,1,3,2)              0.0            -DE/DX =    0.0                 !
 ! D2    D(8,1,3,4)            180.0            -DE/DX =    0.0                 !
 ! D3    D(5,2,3,1)            180.0            -DE/DX =    0.0                 !
 ! D4    D(5,2,3,4)              0.0            -DE/DX =    0.0                 !
 ! D5    D(3,2,5,7)              0.0            -DE/DX =    0.0                 !
 ! D6    D(3,2,5,10)           180.0            -DE/DX =    0.0                 !
 ! D7    D(1,3,4,6)            180.0            -DE/DX =    0.0                 !
 ! D8    D(1,3,4,9)              0.0            -DE/DX =    0.0                 !
 ! D9    D(2,3,4,6)              0.0            -DE/DX =    0.0                 !
 ! D10   D(2,3,4,9)            180.0            -DE/DX =    0.0                 !
 ! D11   D(3,4,6,7)              0.0            -DE/DX =    0.0                 !
 ! D12   D(3,4,6,11)           180.0            -DE/DX =    0.0                 !
 ! D13   D(9,4,6,7)            180.0            -DE/DX =    0.0                 !
 ! D14   D(9,4,6,11)             0.0            -DE/DX =    0.0                 !
 ! D15   D(2,5,7,6)              0.0            -DE/DX =    0.0                 !
 ! D16   D(2,5,7,12)           180.0            -DE/DX =    0.0                 !
 ! D17   D(10,5,7,6)           180.0            -DE/DX =    0.0                 !
 ! D18   D(10,5,7,12)            0.0            -DE/DX =    0.0                 !
 ! D19   D(4,6,7,5)              0.0            -DE/DX =    0.0                 !
 ! D20   D(4,6,7,12)           180.0            -DE/DX =    0.0                 !
 ! D21   D(11,6,7,5)           180.0            -DE/DX =    0.0                 !
 ! D22   D(11,6,7,12)            0.0            -DE/DX =    0.0                 !
 --------------------------------------------------------------------------------
 GradGradGradGradGradGradGradGradGradGradGradGradGradGradGradGradGradGrad

 Leave Link  103 at Fri Aug 27 00:16:01 2021, MaxMem= 17179869184 cpu:        16.0
 (Enter /public3/home/sc51754/softwares/g09e01/l9999.exe)
 1\1\GINC-R2613\Freq\RM06\Gen\C5H5N1O1\SC51754\27-Aug-2021\0\\#P Geom=A
 llCheck Guess=TCheck SCRF=Check GenChk RM06/ChkBas Freq\\HY_M06_PC2_OP
 T_FREQ\\0,1\O,0.008372,2.239736,0.\N,-1.171427,0.296023,0.\C,0.,0.8983
 09,0.\C,1.219264,0.225352,0.\C,-1.184145,-1.035351,0.\C,1.183632,-1.14
 8671,0.\C,-0.041314,-1.804878,0.\H,-0.913944,2.515883,0.\H,2.143627,0.
 784264,0.\H,-2.163617,-1.50192,0.\H,2.106589,-1.713772,0.\H,-0.104256,
 -2.883075,0.\\Version=EM64L-G09RevE.01\State=1-A'\HF=-323.437224\RMSD=
 1.631e-09\RMSF=5.094e-05\ZeroPoint=0.0935482\Thermal=0.0987467\Dipole=
 0.1877623,-0.4481807,0.\DipoleDeriv=-0.2299433,0.128682,0.,0.1053001,-
 1.6492808,0.,0.,0.,-0.3739616,-0.4835982,-0.2647796,0.,0.1921425,-0.81
 8216,0.,0.,0.,-0.2861564,0.3035972,-0.2214693,0.,-0.0606724,1.8481231,
 0.,0.,0.,0.2299731,-0.0373643,0.4137108,0.,-0.0646463,-0.4898186,0.,0.
 ,0.,-0.1522117,0.4568458,0.1368263,0.,-0.2525768,0.404989,0.,0.,0.,0.0
 002784,0.2900565,0.0820843,0.,0.138872,0.3560747,0.,0.,0.,-0.0787059,-
 0.48192,-0.1350346,0.,0.0884977,-0.0707872,0.,0.,0.,-0.150721,0.217375
 3,-0.0471984,0.,-0.0843073,0.3966716,0.,0.,0.,0.3150591,-0.0123027,-0.
 0541692,0.,-0.048789,0.0447416,0.,0.,0.,0.1429769,-0.0581949,-0.093702
 7,0.,-0.0615698,0.0093432,0.,0.,0.,0.0945243,-0.0301357,0.0674566,0.,0
 .0634102,0.0468051,0.,0.,0.,0.115364,0.0655844,-0.0124065,0.,-0.015661
 ,-0.0786456,0.,0.,0.,0.1435806\Polar=73.2470697,0.2357697,84.252745,0.
 ,0.,37.6949248\PG=CS [SG(C5H5N1O1)]\NImag=0\\0.59642851,-0.10899001,0.
 49795769,0.,0.,0.03728049,-0.00786869,-0.03619668,0.,0.47455535,-0.068
 38492,-0.05502165,0.,0.13279462,0.63687746,0.,0.,0.00774133,0.,0.,0.08
 956087,-0.10876406,-0.01260099,0.,-0.30553097,-0.05265116,0.,0.7126080
 2,0.03289815,-0.32149101,0.,-0.09256466,-0.17167559,0.,-0.02182628,0.7
 4127575,0.,0.,-0.05301626,0.,0.,-0.07222919,0.,0.,0.18754114,-0.000209
 00,0.01607163,0.,-0.06630069,-0.03685521,0.,-0.26545741,0.10530555,0.,
 0.71260245,0.05199101,-0.04564736,0.,0.02085284,0.06632156,0.,0.030147
 86,-0.15140157,0.,0.05002219,0.73336518,0.,0.,0.00926826,0.,0.,0.02021
 412,0.,0.,-0.07617120,0.,0.,0.12177093,-0.00513816,0.00275367,0.,-0.11
 550829,-0.01657954,0.,0.02008945,-0.04698746,0.,-0.01810447,0.02789274
 ,0.,0.75246770,0.00929886,0.00050038,0.,0.01202997,-0.34669977,0.,-0.1
 0996248,-0.04645203,0.,0.03954246,-0.05726993,0.,0.03024689,0.67687908
 ,0.,0.,0.01051614,0.,0.,-0.06384396,0.,0.,-0.00342189,0.,0.,-0.0056125
 9,0.,0.,0.15862459,-0.01161820,0.00439568,0.,-0.02084423,-0.04242521,0
 .,0.05155622,0.02930178,0.,-0.13182040,0.02631531,0.,-0.06222046,0.034
 83172,0.,0.71437820,-0.00659515,0.00842377,0.,-0.03634655,-0.05778583,
 0.,0.08861264,-0.03258393,0.,-0.03795231,-0.37334476,0.,-0.02178397,0.
 07328661,0.,-0.03889439,0.70758279,0.,0.,0.00458744,0.,0.,-0.00816736,
 0.,0.,0.00268821,0.,0.,-0.05773038,0.,0.,0.00797033,0.,0.,0.14346068,0
 .00908763,-0.00579535,0.,0.04639286,0.08781745,0.,-0.08771665,0.000760
 01,0.,0.03566022,-0.07759596,0.,-0.28710071,0.05893119,0.,-0.28314617,
 -0.04956633,0.,0.65845772,-0.00218910,-0.00695056,0.,0.02034513,-0.052
 16269,0.,0.01472366,0.00567515,0.,-0.03289031,-0.02428054,0.,0.1312865
 9,-0.18876568,0.,-0.11759152,-0.17179756,0.,-0.00160485,0.76200490,0.,
 0.,-0.00159265,0.,0.,0.02270130,0.,0.,-0.00920832,0.,0.,0.00740312,0.,
 0.,-0.06859608,0.,0.,-0.06276172,0.,0.,0.12269019,-0.47443232,0.140984
 91,0.,-0.00142036,-0.00379903,0.,-0.00256799,0.01180487,0.,0.00300745,
 -0.00262091,0.,-0.00098211,-0.00175043,0.,0.00023195,0.00136274,0.,-0.
 00104272,-0.00057343,0.,0.47714623,0.09249553,-0.07664275,0.,0.0017867
 6,0.00739628,0.,0.05304961,-0.02686855,0.,-0.00221289,-0.00683225,0.,-
 0.00069963,-0.00208249,0.,0.00242491,0.00056020,0.,-0.00129505,0.00108
 368,0.,-0.14527709,0.10323993,0.,0.,-0.01150305,0.,0.,-0.00373002,0.,0
 .,0.00132819,0.,0.,0.00342593,0.,0.,-0.00067034,0.,0.,0.00139337,0.,0.
 ,0.00056560,0.,0.,0.01053792,0.00189479,-0.00061204,0.,-0.00576467,0.0
 0292075,0.,-0.01635458,-0.01918766,0.,-0.26974838,-0.12403596,0.,0.000
 40223,0.00253319,0.,0.00508641,0.00148822,0.,0.00240960,0.00083710,0.,
 0.00003118,-0.00012419,0.,0.28142787,-0.00086488,0.00080937,0.,0.00519
 891,-0.00000323,0.,0.01189435,0.01105809,0.,-0.12595306,-0.13056941,0.
 ,0.00046698,-0.00163343,0.,-0.02741178,-0.00971755,0.,0.00132761,-0.00
 481612,0.,-0.00026999,0.00008778,0.,0.13656614,0.13384768,0.,0.,-0.002
 00789,0.,0.,0.00580095,0.,0.,0.00199812,0.,0.,-0.03357536,0.,0.,-0.000
 30985,0.,0.,0.00196436,0.,0.,0.00862719,0.,0.,-0.00062692,0.,0.,0.0239
 6001,-0.00015730,-0.00027151,0.,0.00542098,-0.00666983,0.,0.00319284,0
 .00206799,0.,0.00037994,0.00081696,0.,-0.28781921,-0.09782372,0.,-0.00
 328839,0.00391518,0.,-0.01735668,-0.01320295,0.,0.00009351,0.00018287,
 0.,-0.00008772,-0.00002738,0.,0.29991043,-0.00110018,-0.00107873,0.,-0
 .03035495,-0.02567436,0.,-0.00083841,-0.00371074,0.,-0.00002773,-0.000
 73204,0.,-0.09752315,-0.09522886,0.,0.00320968,-0.00141611,0.,0.015150
 24,0.01094364,0.,-0.00000349,0.00031194,0.,-0.00018907,0.00012511,0.,0
 .11154491,0.11561600,0.,0.,0.00045164,0.,0.,-0.00305360,0.,0.,0.010327
 14,0.,0.,-0.00076414,0.,0.,-0.04171550,0.,0.,0.00760886,0.,0.,0.007363
 71,0.,0.,-0.00028077,0.,0.,-0.00173988,0.,0.,0.02579841,-0.00001152,0.
 00019155,0.,0.00047928,-0.00073185,0.,0.00199766,-0.00137456,0.,0.0045
 4011,-0.00172210,0.,-0.00408238,-0.00405205,0.,-0.26157209,0.12429141,
 0.,-0.01737544,0.01688229,0.,0.00007361,-0.00008503,0.,0.00054002,0.00
 036788,0.,-0.00099411,0.00088365,0.,0.27517624,0.00169517,-0.00081668,
 0.,-0.00068010,-0.00078376,0.,-0.00121385,-0.00480305,0.,0.02740967,-0
 .01051463,0.,-0.00347063,-0.00043752,0.,0.12388628,-0.13420705,0.,-0.0
 1262715,0.01174235,0.,0.00001568,-0.00043719,0.,-0.00047703,0.00119473
 ,0.,-0.00073530,0.00042265,0.,-0.13456774,0.13806426,0.,0.,-0.00034188
 ,0.,0.,-0.00317823,0.,0.,0.00978175,0.,0.,0.00526836,0.,0.,0.00744780,
 0.,0.,-0.04215916,0.,0.,0.00508650,0.,0.,-0.00042135,0.,0.,-0.00462432
 ,0.,0.,-0.00050148,0.,0.,0.02728133,0.00078832,0.00006914,0.,-0.003610
 55,0.00456392,0.,-0.00305251,-0.00019772,0.,-0.00454982,-0.00206397,0.
 ,0.00799640,0.02617441,0.,0.00325715,-0.02853149,0.,-0.05826965,-0.016
 02262,0.,-0.00013843,-0.00024580,0.,0.00016325,-0.00129477,0.,0.000705
 72,-0.00075150,0.,0.00122863,0.00076499,0.,0.05548147,-0.00025447,-0.0
 0004246,0.,0.00313470,-0.00078843,0.,0.00066505,0.00097749,0.,-0.00246
 000,0.00090575,0.,-0.00560249,-0.01209636,0.,0.00195756,-0.00900060,0.
 ,-0.01550181,-0.34267657,0.,0.00012618,0.00018342,0.,0.00028053,-0.000
 38302,0.,0.00020279,0.00042150,0.,-0.00008345,0.00057590,0.,0.01753541
 ,0.36192338,0.,0.,-0.00138355,0.,0.,0.00818380,0.,0.,0.00038231,0.,0.,
 0.00650296,0.,0.,-0.00038864,0.,0.,0.00114537,0.,0.,-0.03227884,0.,0.,
 -0.00001856,0.,0.,0.00053359,0.,0.,-0.00349439,0.,0.,-0.00363932,0.,0.
 ,0.02445526\\0.00002467,-0.00002411,0.,-0.00010465,0.00006529,0.,0.000
 15141,0.00009289,0.,0.00002416,0.00006142,0.,-0.00010313,0.00001074,0.
 ,0.00004754,-0.00003915,0.,-0.00003193,-0.00010029,0.,0.00008726,-0.00
 003501,0.,-0.00000283,-0.00000682,0.,-0.00001946,0.00003075,0.,-0.0000
 4028,-0.00005049,0.,-0.00003274,-0.00000522,0.\\\@


 ONE OF THE BENEFITS OF A COLLEGE EDUCATION
 IS TO SHOW THE BOY ITS LITTLE AVAIL 
                                    EMERSON IN 'CULTURE'
 Job cpu time:       0 days  0 hours 43 minutes 33.1 seconds.
 File lengths (MBytes):  RWF=     80 Int=      0 D2E=      0 Chk=      6 Scr=      1
 Normal termination of Gaussian 09 at Fri Aug 27 00:16:01 2021.
