 Entering Gaussian System, Link 0=g09
 AtFile(1): pc-2.gbs
            -H     0
            S    4   1.00
                  0.754230D+02           0.240650D-02
                  0.113500D+02           0.184870D-01
                  0.259930D+01           0.897420D-01
                  0.735130D+00           0.281110D+00
            S    1   1.00
                  0.231670D+00           0.100000D+01
            S    1   1.00
                  0.741470D-01           0.100000D+01
            P    1   1.00
                  0.160000D+01           0.100000D+01
            P    1   1.00
                  0.450000D+00           0.100000D+01
            D    1   1.00
                  0.125000D+01           0.100000D+01
            ****
            -C     0
            S    7   1.00
                  0.785710D+04           0.568250D-03
                  0.117870D+04           0.439150D-02
                  0.268320D+03           0.225040D-01
                  0.759480D+02           0.866530D-01
                  0.245590D+02           0.244050D+00
                  0.862120D+01           0.441480D+00
                  0.312780D+01           0.353320D+00
            S    7   1.00
                  0.117870D+04          -0.594920D-06
                  0.268320D+03          -0.627480D-04
                  0.759480D+02          -0.757730D-03
                  0.245590D+02          -0.733080D-02
                  0.862120D+01          -0.389320D-01
                  0.312780D+01          -0.889080D-01
                  0.822020D+00           0.216890D+00
            S    1   1.00
                  0.330170D+00           0.100000D+01
            S    1   1.00
                  0.114630D+00           0.100000D+01
            P    4   1.00
                  0.337750D+02           0.602940D-02
                  0.767660D+01           0.432280D-01
                  0.223570D+01           0.163010D+00
                  0.764470D+00           0.365040D+00
            P    1   1.00
                  0.262320D+00           0.100000D+01
            P    1   1.00
                  0.846380D-01           0.100000D+01
            D    1   1.00
                  0.140000D+01           0.100000D+01
            D    1   1.00
                  0.450000D+00           0.100000D+01
            F    1   1.00
                  0.950000D+00           0.100000D+01
            ****
            -N     0
            S    7   1.00
                  0.111010D+05           0.545700D-03
                  0.166530D+04           0.421810D-02
                  0.379080D+03           0.216450D-01
                  0.107300D+03           0.837760D-01
                  0.347470D+02           0.238810D+00
                  0.122490D+02           0.439940D+00
                  0.447430D+01           0.363640D+00
            S    7   1.00
                  0.166530D+04          -0.150060D-05
                  0.379080D+03          -0.587530D-04
                  0.107300D+03          -0.774530D-03
                  0.347470D+02          -0.721610D-02
                  0.122490D+02          -0.393380D-01
                  0.447430D+01          -0.906110D-01
                  0.124040D+01           0.198820D+00
            S    1   1.00
                  0.487430D+00           0.100000D+01
            S    1   1.00
                  0.164840D+00           0.100000D+01
            P    4   1.00
                  0.479340D+02           0.617060D-02
                  0.109990D+02           0.442600D-01
                  0.324720D+01           0.168250D+00
                  0.111140D+01           0.368480D+00
            P    1   1.00
                  0.379880D+00           0.100000D+01
            P    1   1.00
                  0.120680D+00           0.100000D+01
            D    1   1.00
                  0.180000D+01           0.100000D+01
            D    1   1.00
                  0.550000D+00           0.100000D+01
            F    1   1.00
                  0.102000D+01           0.100000D+01
            ****
            -O     0
            S    7   1.00
                  0.147820D+05           0.535190D-03
                  0.221730D+04           0.413750D-02
                  0.504740D+03           0.212450D-01
                  0.142870D+03           0.824530D-01
                  0.463000D+02           0.236710D+00
                  0.163370D+02           0.440390D+00
                  0.598280D+01           0.364650D+00
            S    7   1.00
                  0.221730D+04          -0.192750D-05
                  0.504740D+03          -0.579640D-04
                  0.142870D+03          -0.794940D-03
                  0.463000D+02          -0.731250D-02
                  0.163370D+02          -0.405740D-01
                  0.598280D+01          -0.915940D-01
                  0.167180D+01           0.209400D+00
            S    1   1.00
                  0.646620D+00           0.100000D+01
            S    1   1.00
                  0.216690D+00           0.100000D+01
            P    4   1.00
                  0.604240D+02           0.689490D-02
                  0.139350D+02           0.490050D-01
                  0.415310D+01           0.182550D+00
                  0.141580D+01           0.376330D+00
            P    1   1.00
                  0.475490D+00           0.100000D+01
            P    1   1.00
                  0.145290D+00           0.100000D+01
            D    1   1.00
                  0.220000D+01           0.100000D+01
            D    1   1.00
                  0.650000D+00           0.100000D+01
            F    1   1.00
                  0.110000D+01           0.100000D+01
            ****
 Initial command:
 /public3/home/sc51754/softwares/g09e01/l1.exe "./Gau-48781.inp" -scrdir="./"
 Entering Link 1 = /public3/home/sc51754/softwares/g09e01/l1.exe PID=     48782.
  
 Copyright (c) 1988,1990,1992,1993,1995,1998,2003,2009,2015,
            Gaussian, Inc.  All Rights Reserved.
  
 This is part of the Gaussian(R) 09 program.  It is based on
 the Gaussian(R) 03 system (copyright 2003, Gaussian, Inc.),
 the Gaussian(R) 98 system (copyright 1998, Gaussian, Inc.),
 the Gaussian(R) 94 system (copyright 1995, Gaussian, Inc.),
 the Gaussian 92(TM) system (copyright 1992, Gaussian, Inc.),
 the Gaussian 90(TM) system (copyright 1990, Gaussian, Inc.),
 the Gaussian 88(TM) system (copyright 1988, Gaussian, Inc.),
 the Gaussian 86(TM) system (copyright 1986, Carnegie Mellon
 University), and the Gaussian 82(TM) system (copyright 1983,
 Carnegie Mellon University). Gaussian is a federally registered
 trademark of Gaussian, Inc.
  
 This software contains proprietary and confidential information,
 including trade secrets, belonging to Gaussian, Inc.
  
 This software is provided under written license and may be
 used, copied, transmitted, or stored only in accord with that
 written license.
  
 The following legend is applicable only to US Government
 contracts under FAR:
  
                    RESTRICTED RIGHTS LEGEND
  
 Use, reproduction and disclosure by the US Government is
 subject to restrictions as set forth in subparagraphs (a)
 and (c) of the Commercial Computer Software - Restricted
 Rights clause in FAR 52.227-19.
  
 Gaussian, Inc.
 340 Quinnipiac St., Bldg. 40, Wallingford CT 06492
  
  
 ---------------------------------------------------------------
 Warning -- This program may not be used in any manner that
 competes with the business of Gaussian, Inc. or will provide
 assistance to any competitor of Gaussian, Inc.  The licensee
 of this program is prohibited from giving any competitor of
 Gaussian, Inc. access to this program.  By using this program,
 the user acknowledges that Gaussian, Inc. is engaged in the
 business of creating and licensing software in the field of
 computational chemistry and represents and warrants to the
 licensee that it is not a competitor of Gaussian, Inc. and that
 it will not use this program in any manner prohibited above.
 ---------------------------------------------------------------
  

 Cite this work as:
 Gaussian 09, Revision E.01,
 M. J. Frisch, G. W. Trucks, H. B. Schlegel, G. E. Scuseria, 
 M. A. Robb, J. R. Cheeseman, G. Scalmani, V. Barone, B. Mennucci, 
 G. A. Petersson, H. Nakatsuji, M. Caricato, X. Li, H. P. Hratchian, 
 A. F. Izmaylov, J. Bloino, G. Zheng, J. L. Sonnenberg, M. Hada, 
 M. Ehara, K. Toyota, R. Fukuda, J. Hasegawa, M. Ishida, T. Nakajima, 
 Y. Honda, O. Kitao, H. Nakai, T. Vreven, J. A. Montgomery, Jr., 
 J. E. Peralta, F. Ogliaro, M. Bearpark, J. J. Heyd, E. Brothers, 
 K. N. Kudin, V. N. Staroverov, T. Keith, R. Kobayashi, J. Normand, 
 K. Raghavachari, A. Rendell, J. C. Burant, S. S. Iyengar, J. Tomasi, 
 M. Cossi, N. Rega, J. M. Millam, M. Klene, J. E. Knox, J. B. Cross, 
 V. Bakken, C. Adamo, J. Jaramillo, R. Gomperts, R. E. Stratmann, 
 O. Yazyev, A. J. Austin, R. Cammi, C. Pomelli, J. W. Ochterski, 
 R. L. Martin, K. Morokuma, V. G. Zakrzewski, G. A. Voth, 
 P. Salvador, J. J. Dannenberg, S. Dapprich, A. D. Daniels, 
 O. Farkas, J. B. Foresman, J. V. Ortiz, J. Cioslowski, 
 and D. J. Fox, Gaussian, Inc., Wallingford CT, 2013.
 
 ******************************************
 Gaussian 09:  EM64L-G09RevE.01 30-Nov-2015
                26-Aug-2021 
 ******************************************
 %nprocshared=64
 Will use up to   64 processors via shared memory.
 %mem=128GB
 %chk=HY_PBEPBE_PC2_OPT_FREQ.chk
 ----------------------
 #p opt freq PBEPBE/gen
 ----------------------
 1/14=-1,18=20,19=15,26=3,38=1/1,3;
 2/9=110,12=2,17=6,18=5,40=1/2;
 3/5=7,11=2,16=1,25=1,30=1,71=1,74=1009/1,2,3;
 4//1;
 5/5=2,38=5/2;
 6/7=2,8=2,9=2,10=2,28=1/1;
 7//1,2,3,16;
 1/14=-1,18=20,19=15,26=3/3(2);
 2/9=110/2;
 99//99;
 2/9=110/2;
 3/5=7,6=1,11=2,16=1,25=1,30=1,71=1,74=1009,82=7/1,2,3;
 4/5=5,16=3,69=1/1;
 5/5=2,38=5/2;
 7//1,2,3,16;
 1/14=-1,18=20,19=15,26=3/3(-5);
 2/9=110/2;
 6/7=2,8=2,9=2,10=2,19=2,28=1/1;
 99/9=1/99;
 Leave Link    1 at Thu Aug 26 23:58:33 2021, MaxMem= 17179869184 cpu:         3.2
 (Enter /public3/home/sc51754/softwares/g09e01/l101.exe)
 ----------------------
 HY_PBEPBE_PC2_OPT_FREQ
 ----------------------
 Symbolic Z-matrix:
 Charge =  0 Multiplicity = 1
 O                     0.00837   2.23974   0. 
 N                    -1.17143   0.29602   0. 
 C                     0.        0.89831   0. 
 C                     1.21926   0.22535   0. 
 C                    -1.18415  -1.03535   0. 
 C                     1.18363  -1.14867   0. 
 C                    -0.04131  -1.80488   0. 
 H                    -0.91394   2.51588   0. 
 H                     2.14363   0.78426   0. 
 H                    -2.16362  -1.50192   0. 
 H                     2.10659  -1.71377   0. 
 H                    -0.10426  -2.88308   0. 
 
 NAtoms=     12 NQM=       12 NQMF=       0 NMMI=      0 NMMIF=      0
                NMic=       0 NMicF=      0.
                    Isotopes and Nuclear Properties:
 (Nuclear quadrupole moments (NQMom) in fm**2, nuclear magnetic moments (NMagM)
  in nuclear magnetons)

  Atom         1           2           3           4           5           6           7           8           9          10
 IAtWgt=          16          14          12          12          12          12          12           1           1           1
 AtmWgt=  15.9949146  14.0030740  12.0000000  12.0000000  12.0000000  12.0000000  12.0000000   1.0078250   1.0078250   1.0078250
 NucSpn=           0           2           0           0           0           0           0           1           1           1
 AtZEff=   0.0000000   0.0000000   0.0000000   0.0000000   0.0000000   0.0000000   0.0000000   0.0000000   0.0000000   0.0000000
 NQMom=    0.0000000   2.0440000   0.0000000   0.0000000   0.0000000   0.0000000   0.0000000   0.0000000   0.0000000   0.0000000
 NMagM=    0.0000000   0.4037610   0.0000000   0.0000000   0.0000000   0.0000000   0.0000000   2.7928460   2.7928460   2.7928460
 AtZNuc=   8.0000000   7.0000000   6.0000000   6.0000000   6.0000000   6.0000000   6.0000000   1.0000000   1.0000000   1.0000000

  Atom        11          12
 IAtWgt=           1           1
 AtmWgt=   1.0078250   1.0078250
 NucSpn=           1           1
 AtZEff=   0.0000000   0.0000000
 NQMom=    0.0000000   0.0000000
 NMagM=    2.7928460   2.7928460
 AtZNuc=   1.0000000   1.0000000
 Leave Link  101 at Thu Aug 26 23:58:33 2021, MaxMem= 17179869184 cpu:        10.3
 (Enter /public3/home/sc51754/softwares/g09e01/l103.exe)

 GradGradGradGradGradGradGradGradGradGradGradGradGradGradGradGradGradGrad
 Berny optimization.
 Initialization pass.
                           ----------------------------
                           !    Initial Parameters    !
                           ! (Angstroms and Degrees)  !
 --------------------------                            --------------------------
 ! Name  Definition              Value          Derivative Info.                !
 --------------------------------------------------------------------------------
 ! R1    R(1,3)                  1.3415         estimate D2E/DX2                !
 ! R2    R(1,8)                  0.9628         estimate D2E/DX2                !
 ! R3    R(2,3)                  1.3172         estimate D2E/DX2                !
 ! R4    R(2,5)                  1.3314         estimate D2E/DX2                !
 ! R5    R(3,4)                  1.3927         estimate D2E/DX2                !
 ! R6    R(4,6)                  1.3745         estimate D2E/DX2                !
 ! R7    R(4,9)                  1.0802         estimate D2E/DX2                !
 ! R8    R(5,7)                  1.3778         estimate D2E/DX2                !
 ! R9    R(5,10)                 1.0849         estimate D2E/DX2                !
 ! R10   R(6,7)                  1.3896         estimate D2E/DX2                !
 ! R11   R(6,11)                 1.0822         estimate D2E/DX2                !
 ! R12   R(7,12)                 1.08           estimate D2E/DX2                !
 ! A1    A(3,1,8)              106.3104         estimate D2E/DX2                !
 ! A2    A(3,2,5)              117.7571         estimate D2E/DX2                !
 ! A3    A(1,3,2)              117.5674         estimate D2E/DX2                !
 ! A4    A(1,3,4)              118.5383         estimate D2E/DX2                !
 ! A5    A(2,3,4)              123.8942         estimate D2E/DX2                !
 ! A6    A(3,4,6)              117.4104         estimate D2E/DX2                !
 ! A7    A(3,4,9)              119.945          estimate D2E/DX2                !
 ! A8    A(6,4,9)              122.6446         estimate D2E/DX2                !
 ! A9    A(2,5,7)              123.4071         estimate D2E/DX2                !
 ! A10   A(2,5,10)             116.018          estimate D2E/DX2                !
 ! A11   A(7,5,10)             120.5749         estimate D2E/DX2                !
 ! A12   A(4,6,7)              119.6636         estimate D2E/DX2                !
 ! A13   A(4,6,11)             119.9925         estimate D2E/DX2                !
 ! A14   A(7,6,11)             120.3439         estimate D2E/DX2                !
 ! A15   A(5,7,6)              117.8675         estimate D2E/DX2                !
 ! A16   A(5,7,12)             120.6134         estimate D2E/DX2                !
 ! A17   A(6,7,12)             121.519          estimate D2E/DX2                !
 ! D1    D(8,1,3,2)              0.0            estimate D2E/DX2                !
 ! D2    D(8,1,3,4)            180.0            estimate D2E/DX2                !
 ! D3    D(5,2,3,1)            180.0            estimate D2E/DX2                !
 ! D4    D(5,2,3,4)              0.0            estimate D2E/DX2                !
 ! D5    D(3,2,5,7)              0.0            estimate D2E/DX2                !
 ! D6    D(3,2,5,10)           180.0            estimate D2E/DX2                !
 ! D7    D(1,3,4,6)            180.0            estimate D2E/DX2                !
 ! D8    D(1,3,4,9)              0.0            estimate D2E/DX2                !
 ! D9    D(2,3,4,6)              0.0            estimate D2E/DX2                !
 ! D10   D(2,3,4,9)            180.0            estimate D2E/DX2                !
 ! D11   D(3,4,6,7)              0.0            estimate D2E/DX2                !
 ! D12   D(3,4,6,11)           180.0            estimate D2E/DX2                !
 ! D13   D(9,4,6,7)            180.0            estimate D2E/DX2                !
 ! D14   D(9,4,6,11)             0.0            estimate D2E/DX2                !
 ! D15   D(2,5,7,6)              0.0            estimate D2E/DX2                !
 ! D16   D(2,5,7,12)           180.0            estimate D2E/DX2                !
 ! D17   D(10,5,7,6)           180.0            estimate D2E/DX2                !
 ! D18   D(10,5,7,12)            0.0            estimate D2E/DX2                !
 ! D19   D(4,6,7,5)              0.0            estimate D2E/DX2                !
 ! D20   D(4,6,7,12)           180.0            estimate D2E/DX2                !
 ! D21   D(11,6,7,5)           180.0            estimate D2E/DX2                !
 ! D22   D(11,6,7,12)            0.0            estimate D2E/DX2                !
 --------------------------------------------------------------------------------
 Trust Radius=3.00D-01 FncErr=1.00D-07 GrdErr=1.00D-06
 Number of steps in this run=     61 maximum allowed number of steps=    100.
 GradGradGradGradGradGradGradGradGradGradGradGradGradGradGradGradGradGrad

 Leave Link  103 at Thu Aug 26 23:58:33 2021, MaxMem= 17179869184 cpu:         0.1
 (Enter /public3/home/sc51754/softwares/g09e01/l202.exe)
                          Input orientation:                          
 ---------------------------------------------------------------------
 Center     Atomic      Atomic             Coordinates (Angstroms)
 Number     Number       Type             X           Y           Z
 ---------------------------------------------------------------------
      1          8           0        0.008372    2.239736    0.000000
      2          7           0       -1.171427    0.296023    0.000000
      3          6           0        0.000000    0.898309    0.000000
      4          6           0        1.219264    0.225352    0.000000
      5          6           0       -1.184145   -1.035351    0.000000
      6          6           0        1.183632   -1.148671    0.000000
      7          6           0       -0.041314   -1.804878    0.000000
      8          1           0       -0.913944    2.515883    0.000000
      9          1           0        2.143627    0.784264    0.000000
     10          1           0       -2.163617   -1.501920    0.000000
     11          1           0        2.106589   -1.713772    0.000000
     12          1           0       -0.104256   -2.883075    0.000000
 ---------------------------------------------------------------------
                    Distance matrix (angstroms):
                    1          2          3          4          5
     1  O    0.000000
     2  N    2.273752   0.000000
     3  C    1.341453   1.317190   0.000000
     4  C    2.350320   2.391735   1.392651   0.000000
     5  C    3.485440   1.331435   2.267430   2.713991   0.000000
     6  C    3.586438   2.762869   2.364553   1.374485   2.370487
     7  C    4.044919   2.385569   2.703503   2.389747   1.377764
     8  H    0.962769   2.234743   1.857913   3.130033   3.561498
     9  H    2.584127   3.350815   2.146659   1.080199   3.792765
    10  H    4.326376   2.053543   3.231461   3.798335   1.084920
    11  H    4.475795   3.845083   3.355694   2.132498   3.359938
    12  H    5.124049   3.353434   3.782821   3.378465   2.140151
                    6          7          8          9         10
     6  C    0.000000
     7  C    1.389640   0.000000
     8  H    4.222414   4.407999   0.000000
     9  H    2.158200   3.387864   3.513865   0.000000
    10  H    3.365837   2.143818   4.207662   4.876370   0.000000
    11  H    1.082215   2.149834   5.197461   2.498311   4.275458
    12  H    2.160281   1.080033   5.459335   4.301436   2.479628
                   11         12
    11  H    0.000000
    12  H    2.501021   0.000000
 Stoichiometry    C5H5NO
 Framework group  CS[SG(C5H5NO)]
 Deg. of freedom    21
 Full point group                 CS      NOp   2
 Largest Abelian subgroup         CS      NOp   2
 Largest concise Abelian subgroup C1      NOp   1
                         Standard orientation:                         
 ---------------------------------------------------------------------
 Center     Atomic      Atomic             Coordinates (Angstroms)
 Number     Number       Type             X           Y           Z
 ---------------------------------------------------------------------
      1          8           0        0.008372    2.239736    0.000000
      2          7           0       -1.171427    0.296023    0.000000
      3          6           0       -0.000000    0.898309    0.000000
      4          6           0        1.219264    0.225352    0.000000
      5          6           0       -1.184145   -1.035351    0.000000
      6          6           0        1.183632   -1.148671    0.000000
      7          6           0       -0.041314   -1.804878    0.000000
      8          1           0       -0.913944    2.515883    0.000000
      9          1           0        2.143627    0.784264    0.000000
     10          1           0       -2.163617   -1.501920    0.000000
     11          1           0        2.106589   -1.713772    0.000000
     12          1           0       -0.104257   -2.883075    0.000000
 ---------------------------------------------------------------------
 Rotational constants (GHZ):      5.9244098      2.8053779      1.9038502
 Leave Link  202 at Thu Aug 26 23:58:33 2021, MaxMem= 17179869184 cpu:         6.3
 (Enter /public3/home/sc51754/softwares/g09e01/l301.exe)
 General basis read from cards:  (5D, 7F)
 Centers:       8      9     10     11     12
 S 4 1.00
     Exponent=  7.5423000000D+01 Coefficients=  2.4065000000D-03
     Exponent=  1.1350000000D+01 Coefficients=  1.8487000000D-02
     Exponent=  2.5993000000D+00 Coefficients=  8.9742000000D-02
     Exponent=  7.3513000000D-01 Coefficients=  2.8111000000D-01
 S 1 1.00
     Exponent=  2.3167000000D-01 Coefficients=  1.0000000000D+00
 S 1 1.00
     Exponent=  7.4147000000D-02 Coefficients=  1.0000000000D+00
 P 1 1.00
     Exponent=  1.6000000000D+00 Coefficients=  1.0000000000D+00
 P 1 1.00
     Exponent=  4.5000000000D-01 Coefficients=  1.0000000000D+00
 D 1 1.00
     Exponent=  1.2500000000D+00 Coefficients=  1.0000000000D+00
 ****
 Centers:       3      4      5      6      7
 S 7 1.00
     Exponent=  7.8571000000D+03 Coefficients=  5.6825000000D-04
     Exponent=  1.1787000000D+03 Coefficients=  4.3915000000D-03
     Exponent=  2.6832000000D+02 Coefficients=  2.2504000000D-02
     Exponent=  7.5948000000D+01 Coefficients=  8.6653000000D-02
     Exponent=  2.4559000000D+01 Coefficients=  2.4405000000D-01
     Exponent=  8.6212000000D+00 Coefficients=  4.4148000000D-01
     Exponent=  3.1278000000D+00 Coefficients=  3.5332000000D-01
 S 7 1.00
     Exponent=  1.1787000000D+03 Coefficients= -5.9492000000D-07
     Exponent=  2.6832000000D+02 Coefficients= -6.2748000000D-05
     Exponent=  7.5948000000D+01 Coefficients= -7.5773000000D-04
     Exponent=  2.4559000000D+01 Coefficients= -7.3308000000D-03
     Exponent=  8.6212000000D+00 Coefficients= -3.8932000000D-02
     Exponent=  3.1278000000D+00 Coefficients= -8.8908000000D-02
     Exponent=  8.2202000000D-01 Coefficients=  2.1689000000D-01
 S 1 1.00
     Exponent=  3.3017000000D-01 Coefficients=  1.0000000000D+00
 S 1 1.00
     Exponent=  1.1463000000D-01 Coefficients=  1.0000000000D+00
 P 4 1.00
     Exponent=  3.3775000000D+01 Coefficients=  6.0294000000D-03
     Exponent=  7.6766000000D+00 Coefficients=  4.3228000000D-02
     Exponent=  2.2357000000D+00 Coefficients=  1.6301000000D-01
     Exponent=  7.6447000000D-01 Coefficients=  3.6504000000D-01
 P 1 1.00
     Exponent=  2.6232000000D-01 Coefficients=  1.0000000000D+00
 P 1 1.00
     Exponent=  8.4638000000D-02 Coefficients=  1.0000000000D+00
 D 1 1.00
     Exponent=  1.4000000000D+00 Coefficients=  1.0000000000D+00
 D 1 1.00
     Exponent=  4.5000000000D-01 Coefficients=  1.0000000000D+00
 F 1 1.00
     Exponent=  9.5000000000D-01 Coefficients=  1.0000000000D+00
 ****
 Centers:       2
 S 7 1.00
     Exponent=  1.1101000000D+04 Coefficients=  5.4570000000D-04
     Exponent=  1.6653000000D+03 Coefficients=  4.2181000000D-03
     Exponent=  3.7908000000D+02 Coefficients=  2.1645000000D-02
     Exponent=  1.0730000000D+02 Coefficients=  8.3776000000D-02
     Exponent=  3.4747000000D+01 Coefficients=  2.3881000000D-01
     Exponent=  1.2249000000D+01 Coefficients=  4.3994000000D-01
     Exponent=  4.4743000000D+00 Coefficients=  3.6364000000D-01
 S 7 1.00
     Exponent=  1.6653000000D+03 Coefficients= -1.5006000000D-06
     Exponent=  3.7908000000D+02 Coefficients= -5.8753000000D-05
     Exponent=  1.0730000000D+02 Coefficients= -7.7453000000D-04
     Exponent=  3.4747000000D+01 Coefficients= -7.2161000000D-03
     Exponent=  1.2249000000D+01 Coefficients= -3.9338000000D-02
     Exponent=  4.4743000000D+00 Coefficients= -9.0611000000D-02
     Exponent=  1.2404000000D+00 Coefficients=  1.9882000000D-01
 S 1 1.00
     Exponent=  4.8743000000D-01 Coefficients=  1.0000000000D+00
 S 1 1.00
     Exponent=  1.6484000000D-01 Coefficients=  1.0000000000D+00
 P 4 1.00
     Exponent=  4.7934000000D+01 Coefficients=  6.1706000000D-03
     Exponent=  1.0999000000D+01 Coefficients=  4.4260000000D-02
     Exponent=  3.2472000000D+00 Coefficients=  1.6825000000D-01
     Exponent=  1.1114000000D+00 Coefficients=  3.6848000000D-01
 P 1 1.00
     Exponent=  3.7988000000D-01 Coefficients=  1.0000000000D+00
 P 1 1.00
     Exponent=  1.2068000000D-01 Coefficients=  1.0000000000D+00
 D 1 1.00
     Exponent=  1.8000000000D+00 Coefficients=  1.0000000000D+00
 D 1 1.00
     Exponent=  5.5000000000D-01 Coefficients=  1.0000000000D+00
 F 1 1.00
     Exponent=  1.0200000000D+00 Coefficients=  1.0000000000D+00
 ****
 Centers:       1
 S 7 1.00
     Exponent=  1.4782000000D+04 Coefficients=  5.3519000000D-04
     Exponent=  2.2173000000D+03 Coefficients=  4.1375000000D-03
     Exponent=  5.0474000000D+02 Coefficients=  2.1245000000D-02
     Exponent=  1.4287000000D+02 Coefficients=  8.2453000000D-02
     Exponent=  4.6300000000D+01 Coefficients=  2.3671000000D-01
     Exponent=  1.6337000000D+01 Coefficients=  4.4039000000D-01
     Exponent=  5.9828000000D+00 Coefficients=  3.6465000000D-01
 S 7 1.00
     Exponent=  2.2173000000D+03 Coefficients= -1.9275000000D-06
     Exponent=  5.0474000000D+02 Coefficients= -5.7964000000D-05
     Exponent=  1.4287000000D+02 Coefficients= -7.9494000000D-04
     Exponent=  4.6300000000D+01 Coefficients= -7.3125000000D-03
     Exponent=  1.6337000000D+01 Coefficients= -4.0574000000D-02
     Exponent=  5.9828000000D+00 Coefficients= -9.1594000000D-02
     Exponent=  1.6718000000D+00 Coefficients=  2.0940000000D-01
 S 1 1.00
     Exponent=  6.4662000000D-01 Coefficients=  1.0000000000D+00
 S 1 1.00
     Exponent=  2.1669000000D-01 Coefficients=  1.0000000000D+00
 P 4 1.00
     Exponent=  6.0424000000D+01 Coefficients=  6.8949000000D-03
     Exponent=  1.3935000000D+01 Coefficients=  4.9005000000D-02
     Exponent=  4.1531000000D+00 Coefficients=  1.8255000000D-01
     Exponent=  1.4158000000D+00 Coefficients=  3.7633000000D-01
 P 1 1.00
     Exponent=  4.7549000000D-01 Coefficients=  1.0000000000D+00
 P 1 1.00
     Exponent=  1.4529000000D-01 Coefficients=  1.0000000000D+00
 D 1 1.00
     Exponent=  2.2000000000D+00 Coefficients=  1.0000000000D+00
 D 1 1.00
     Exponent=  6.5000000000D-01 Coefficients=  1.0000000000D+00
 F 1 1.00
     Exponent=  1.1000000000D+00 Coefficients=  1.0000000000D+00
 ****
 Ernie: Thresh=  0.10000D-02 Tol=  0.10000D-05 Strict=F.
 Ernie:  7 primitive shells out of 220 were deleted.
 There are   223 symmetry adapted cartesian basis functions of A'  symmetry.
 There are    97 symmetry adapted cartesian basis functions of A"  symmetry.
 There are   190 symmetry adapted basis functions of A'  symmetry.
 There are    90 symmetry adapted basis functions of A"  symmetry.
   280 basis functions,   475 primitive gaussians,   320 cartesian basis functions
    25 alpha electrons       25 beta electrons
       nuclear repulsion energy       277.5236709615 Hartrees.
 IExCor= 1009 DFT=T Ex=PBE Corr=PBE ExCW=0 ScaHFX=  0.000000
 ScaDFX=  1.000000  1.000000  1.000000  1.000000 ScalE2=  1.000000  1.000000
 IRadAn=      0 IRanWt=     -1 IRanGd=            0 ICorTp=0 IEmpDi=  4
 NAtoms=   12 NActive=   12 NUniq=   12 SFac= 1.00D+00 NAtFMM=   60 NAOKFM=F Big=F
 Integral buffers will be    131072 words long.
 Raffenetti 2 integral format.
 Two-electron integral symmetry is turned on.
 Leave Link  301 at Thu Aug 26 23:58:34 2021, MaxMem= 17179869184 cpu:         1.2
 (Enter /public3/home/sc51754/softwares/g09e01/l302.exe)
 NPDir=0 NMtPBC=     1 NCelOv=     1 NCel=       1 NClECP=     1 NCelD=      1
         NCelK=      1 NCelE2=     1 NClLst=     1 CellRange=     0.0.
 One-electron integrals computed using PRISM.
 NBasis=   280 RedAO= T EigKep=  2.16D-04  NBF=   190    90
 NBsUse=   280 1.00D-06 EigRej= -1.00D+00 NBFU=   190    90
 Precomputing XC quadrature grid using
 IXCGrd= 4 IRadAn=           0 IRanWt=          -1 IRanGd=           0 AccXCQ= 0.00D+00.
 Generated NRdTot=       0 NPtTot=           0 NUsed=           0 NTot=          32
 NSgBfM=   320   320   320   320   320 MxSgAt=    12 MxSgA2=    12.
 Leave Link  302 at Thu Aug 26 23:58:34 2021, MaxMem= 17179869184 cpu:        40.6
 (Enter /public3/home/sc51754/softwares/g09e01/l303.exe)
 DipDrv:  MaxL=1.
 Leave Link  303 at Thu Aug 26 23:58:35 2021, MaxMem= 17179869184 cpu:        11.4
 (Enter /public3/home/sc51754/softwares/g09e01/l401.exe)
 ExpMin= 7.41D-02 ExpMax= 1.48D+04 ExpMxC= 5.05D+02 IAcc=2 IRadAn=         4 AccDes= 0.00D+00
 Harris functional with IExCor= 1009 and IRadAn=       4 diagonalized for initial guess.
 HarFok:  IExCor= 1009 AccDes= 0.00D+00 IRadAn=         4 IDoV= 1 UseB2=F ITyADJ=14
 ICtDFT=  3500011 ScaDFX=  1.000000  1.000000  1.000000  1.000000
 FoFCou: FMM=F IPFlag=           0 FMFlag=      100000 FMFlg1=           0
         NFxFlg=           0 DoJE=T BraDBF=F KetDBF=T FulRan=T
         wScrn=  0.000000 ICntrl=     500 IOpCl=  0 I1Cent=   200000004 NGrid=           0
         NMat0=    1 NMatS0=      1 NMatT0=    0 NMatD0=    1 NMtDS0=    0 NMtDT0=    0
 Petite list used in FoFCou.
 Harris En= -323.373786825503    
 JPrj=0 DoOrth=F DoCkMO=F.
 Initial guess orbital symmetries:
       Occupied  (A') (A') (A') (A') (A') (A') (A') (A') (A') (A')
                 (A') (A') (A') (A') (A') (A') (A') (A') (A") (A')
                 (A') (A") (A") (A') (A")
       Virtual   (A") (A") (A') (A') (A") (A') (A') (A') (A') (A')
                 (A') (A') (A") (A') (A") (A") (A') (A') (A') (A')
                 (A') (A') (A") (A") (A') (A') (A') (A') (A') (A')
                 (A') (A") (A') (A") (A') (A') (A') (A') (A') (A')
                 (A') (A') (A") (A') (A') (A') (A') (A") (A") (A')
                 (A") (A") (A') (A') (A") (A') (A') (A") (A') (A')
                 (A') (A") (A') (A') (A") (A') (A") (A') (A") (A')
                 (A') (A") (A") (A') (A") (A') (A') (A") (A') (A')
                 (A") (A') (A') (A") (A') (A') (A") (A') (A") (A")
                 (A') (A') (A') (A') (A') (A") (A') (A') (A") (A')
                 (A') (A') (A") (A') (A') (A') (A') (A") (A') (A')
                 (A') (A") (A') (A') (A') (A') (A") (A') (A') (A')
                 (A") (A') (A") (A') (A") (A') (A") (A") (A') (A")
                 (A") (A') (A') (A') (A") (A') (A') (A") (A') (A')
                 (A') (A') (A') (A") (A") (A') (A") (A') (A') (A')
                 (A") (A') (A') (A") (A") (A') (A") (A') (A") (A')
                 (A") (A') (A') (A') (A") (A") (A') (A') (A") (A')
                 (A") (A') (A') (A") (A') (A') (A") (A') (A") (A")
                 (A") (A") (A') (A') (A") (A') (A") (A") (A') (A")
                 (A") (A') (A') (A") (A') (A') (A") (A') (A") (A")
                 (A') (A') (A") (A') (A') (A') (A") (A') (A') (A')
                 (A") (A') (A') (A") (A') (A") (A') (A') (A") (A")
                 (A') (A') (A") (A') (A') (A") (A') (A') (A') (A')
                 (A") (A') (A') (A') (A') (A") (A") (A') (A') (A')
                 (A') (A") (A') (A') (A') (A') (A') (A') (A') (A')
                 (A') (A') (A') (A') (A')
 The electronic state of the initial guess is 1-A'.
 Leave Link  401 at Thu Aug 26 23:58:36 2021, MaxMem= 17179869184 cpu:        46.4
 (Enter /public3/home/sc51754/softwares/g09e01/l502.exe)
 Closed shell SCF:
 Using DIIS extrapolation, IDIIS=  1040.
 Integral symmetry usage will be decided dynamically.
 Keep J ints in memory in symmetry-blocked form, NReq=1167802198.
 IVT=      348658 IEndB=      348658 NGot= 17179869184 MDV= 16785904737
 LenX= 16785904737 LenY= 16785801896
 Requested convergence on RMS density matrix=1.00D-08 within 128 cycles.
 Requested convergence on MAX density matrix=1.00D-06.
 Requested convergence on             energy=1.00D-06.
 No special actions if energy rises.
 FoFCou: FMM=F IPFlag=           0 FMFlag=           0 FMFlg1=           0
         NFxFlg=           0 DoJE=F BraDBF=F KetDBF=F FulRan=T
         wScrn=  0.000000 ICntrl=     600 IOpCl=  0 I1Cent=           0 NGrid=           0
         NMat0=    1 NMatS0=  39340 NMatT0=    0 NMatD0=    1 NMtDS0=    0 NMtDT0=    0
 Petite list used in FoFCou.
 Integral accuracy reduced to 1.0D-05 until final iterations.

 Cycle   1  Pass 0  IDiag  1:
 E= -323.123722515924    
 DIIS: error= 2.49D-02 at cycle   1 NSaved=   1.
 NSaved= 1 IEnMin= 1 EnMin= -323.123722515924     IErMin= 1 ErrMin= 2.49D-02
 ErrMax= 2.49D-02  0.00D+00 EMaxC= 1.00D-01 BMatC= 1.53D-01 BMatP= 1.53D-01
 IDIUse=3 WtCom= 7.51D-01 WtEn= 2.49D-01
 Coeff-Com:  0.100D+01
 Coeff-En:   0.100D+01
 Coeff:      0.100D+01
 Gap=     0.152 Goal=   None    Shift=    0.000
 GapD=    0.152 DampG=1.000 DampE=0.500 DampFc=0.5000 IDamp=-1.
 Damping current iteration by 5.00D-01
 RMSDP=2.97D-03 MaxDP=1.11D-01              OVMax= 2.39D-01

 Cycle   2  Pass 0  IDiag  1:
 E= -323.163417627429     Delta-E=       -0.039695111505 Rises=F Damp=T
 DIIS: error= 5.58D-03 at cycle   2 NSaved=   2.
 NSaved= 2 IEnMin= 2 EnMin= -323.163417627429     IErMin= 2 ErrMin= 5.58D-03
 ErrMax= 5.58D-03  0.00D+00 EMaxC= 1.00D-01 BMatC= 1.68D-02 BMatP= 1.53D-01
 IDIUse=3 WtCom= 9.44D-01 WtEn= 5.58D-02
 Coeff-Com:  0.207D+00 0.793D+00
 Coeff-En:   0.354D+00 0.646D+00
 Coeff:      0.215D+00 0.785D+00
 Gap=     0.152 Goal=   None    Shift=    0.000
 RMSDP=7.09D-04 MaxDP=3.32D-02 DE=-3.97D-02 OVMax= 2.05D-01

 Cycle   3  Pass 0  IDiag  1:
 E= -323.260625229936     Delta-E=       -0.097207602507 Rises=F Damp=F
 DIIS: error= 7.33D-03 at cycle   3 NSaved=   3.
 NSaved= 3 IEnMin= 3 EnMin= -323.260625229936     IErMin= 2 ErrMin= 5.58D-03
 ErrMax= 7.33D-03  0.00D+00 EMaxC= 1.00D-01 BMatC= 8.11D-03 BMatP= 1.68D-02
 IDIUse=3 WtCom= 9.27D-01 WtEn= 7.33D-02
 Coeff-Com:  0.741D-01 0.433D+00 0.493D+00
 Coeff-En:   0.000D+00 0.000D+00 0.100D+01
 Coeff:      0.687D-01 0.402D+00 0.530D+00
 Gap=     0.156 Goal=   None    Shift=    0.000
 RMSDP=4.63D-04 MaxDP=1.98D-02 DE=-9.72D-02 OVMax= 8.00D-02

 Cycle   4  Pass 0  IDiag  1:
 E= -323.264373973085     Delta-E=       -0.003748743149 Rises=F Damp=F
 DIIS: error= 6.77D-03 at cycle   4 NSaved=   4.
 NSaved= 4 IEnMin= 4 EnMin= -323.264373973085     IErMin= 2 ErrMin= 5.58D-03
 ErrMax= 6.77D-03  0.00D+00 EMaxC= 1.00D-01 BMatC= 4.82D-03 BMatP= 8.11D-03
 IDIUse=3 WtCom= 9.32D-01 WtEn= 6.77D-02
 Coeff-Com:  0.160D-01 0.175D+00 0.414D+00 0.395D+00
 Coeff-En:   0.000D+00 0.000D+00 0.402D+00 0.598D+00
 Coeff:      0.149D-01 0.163D+00 0.413D+00 0.409D+00
 Gap=     0.154 Goal=   None    Shift=    0.000
 RMSDP=2.18D-04 MaxDP=6.86D-03 DE=-3.75D-03 OVMax= 3.61D-02

 Cycle   5  Pass 0  IDiag  1:
 E= -323.269578164074     Delta-E=       -0.005204190988 Rises=F Damp=F
 DIIS: error= 7.76D-04 at cycle   5 NSaved=   5.
 NSaved= 5 IEnMin= 5 EnMin= -323.269578164074     IErMin= 5 ErrMin= 7.76D-04
 ErrMax= 7.76D-04  0.00D+00 EMaxC= 1.00D-01 BMatC= 1.96D-04 BMatP= 4.82D-03
 IDIUse=3 WtCom= 9.92D-01 WtEn= 7.76D-03
 Coeff-Com:  0.222D-02 0.591D-01 0.200D+00 0.244D+00 0.495D+00
 Coeff-En:   0.000D+00 0.000D+00 0.000D+00 0.000D+00 0.100D+01
 Coeff:      0.220D-02 0.587D-01 0.199D+00 0.242D+00 0.499D+00
 Gap=     0.154 Goal=   None    Shift=    0.000
 RMSDP=4.47D-05 MaxDP=2.36D-03 DE=-5.20D-03 OVMax= 6.98D-03

 Cycle   6  Pass 0  IDiag  1:
 E= -323.269728113830     Delta-E=       -0.000149949756 Rises=F Damp=F
 DIIS: error= 3.37D-04 at cycle   6 NSaved=   6.
 NSaved= 6 IEnMin= 6 EnMin= -323.269728113830     IErMin= 6 ErrMin= 3.37D-04
 ErrMax= 3.37D-04  0.00D+00 EMaxC= 1.00D-01 BMatC= 3.56D-05 BMatP= 1.96D-04
 IDIUse=3 WtCom= 9.97D-01 WtEn= 3.37D-03
 Coeff-Com: -0.132D-02 0.123D-01 0.667D-01 0.965D-01 0.334D+00 0.492D+00
 Coeff-En:   0.000D+00 0.000D+00 0.000D+00 0.000D+00 0.152D+00 0.848D+00
 Coeff:     -0.132D-02 0.122D-01 0.664D-01 0.962D-01 0.333D+00 0.493D+00
 Gap=     0.155 Goal=   None    Shift=    0.000
 RMSDP=1.74D-05 MaxDP=8.79D-04 DE=-1.50D-04 OVMax= 1.99D-03

 Cycle   7  Pass 0  IDiag  1:
 E= -323.269755261786     Delta-E=       -0.000027147956 Rises=F Damp=F
 DIIS: error= 1.15D-04 at cycle   7 NSaved=   7.
 NSaved= 7 IEnMin= 7 EnMin= -323.269755261786     IErMin= 7 ErrMin= 1.15D-04
 ErrMax= 1.15D-04  0.00D+00 EMaxC= 1.00D-01 BMatC= 3.01D-06 BMatP= 3.56D-05
 IDIUse=3 WtCom= 9.99D-01 WtEn= 1.15D-03
 EnCoef did     1 forward-backward iterations
 Coeff-Com: -0.849D-03 0.647D-02 0.372D-01 0.542D-01 0.201D+00 0.328D+00
 Coeff-Com:  0.374D+00
 Coeff-En:   0.000D+00 0.000D+00 0.000D+00 0.000D+00 0.000D+00 0.178D-02
 Coeff-En:   0.998D+00
 Coeff:     -0.848D-03 0.646D-02 0.371D-01 0.542D-01 0.200D+00 0.328D+00
 Coeff:      0.375D+00
 Gap=     0.154 Goal=   None    Shift=    0.000
 RMSDP=6.24D-06 MaxDP=1.96D-04 DE=-2.71D-05 OVMax= 1.07D-03

 Initial convergence to 1.0D-05 achieved.  Increase integral accuracy.
 Cycle   8  Pass 1  IDiag  1:
 E= -323.269657851270     Delta-E=        0.000097410516 Rises=F Damp=F
 DIIS: error= 4.04D-05 at cycle   1 NSaved=   1.
 NSaved= 1 IEnMin= 1 EnMin= -323.269657851270     IErMin= 1 ErrMin= 4.04D-05
 ErrMax= 4.04D-05  0.00D+00 EMaxC= 1.00D-01 BMatC= 5.06D-07 BMatP= 5.06D-07
 IDIUse=1 WtCom= 1.00D+00 WtEn= 0.00D+00
 Coeff-Com:  0.100D+01
 Coeff:      0.100D+01
 Gap=     0.155 Goal=   None    Shift=    0.000
 RMSDP=6.24D-06 MaxDP=1.96D-04 DE= 9.74D-05 OVMax= 9.96D-04

 Cycle   9  Pass 1  IDiag  1:
 E= -323.269656115400     Delta-E=        0.000001735870 Rises=F Damp=F
 DIIS: error= 9.47D-05 at cycle   2 NSaved=   2.
 NSaved= 2 IEnMin= 1 EnMin= -323.269657851270     IErMin= 1 ErrMin= 4.04D-05
 ErrMax= 9.47D-05  0.00D+00 EMaxC= 1.00D-01 BMatC= 2.25D-06 BMatP= 5.06D-07
 IDIUse=1 WtCom= 1.00D+00 WtEn= 0.00D+00
 Coeff-Com:  0.696D+00 0.304D+00
 Coeff:      0.696D+00 0.304D+00
 Gap=     0.154 Goal=   None    Shift=    0.000
 RMSDP=4.74D-06 MaxDP=1.41D-04 DE= 1.74D-06 OVMax= 8.66D-04

 Cycle  10  Pass 1  IDiag  1:
 E= -323.269658308901     Delta-E=       -0.000002193501 Rises=F Damp=F
 DIIS: error= 1.67D-05 at cycle   3 NSaved=   3.
 NSaved= 3 IEnMin= 3 EnMin= -323.269658308901     IErMin= 3 ErrMin= 1.67D-05
 ErrMax= 1.67D-05  0.00D+00 EMaxC= 1.00D-01 BMatC= 7.37D-08 BMatP= 5.06D-07
 IDIUse=1 WtCom= 1.00D+00 WtEn= 0.00D+00
 Coeff-Com:  0.150D+00 0.165D+00 0.686D+00
 Coeff:      0.150D+00 0.165D+00 0.686D+00
 Gap=     0.154 Goal=   None    Shift=    0.000
 RMSDP=1.01D-06 MaxDP=4.65D-05 DE=-2.19D-06 OVMax= 1.56D-04

 Cycle  11  Pass 1  IDiag  1:
 E= -323.269658364148     Delta-E=       -0.000000055247 Rises=F Damp=F
 DIIS: error= 7.51D-06 at cycle   4 NSaved=   4.
 NSaved= 4 IEnMin= 4 EnMin= -323.269658364148     IErMin= 4 ErrMin= 7.51D-06
 ErrMax= 7.51D-06  0.00D+00 EMaxC= 1.00D-01 BMatC= 2.33D-08 BMatP= 7.37D-08
 IDIUse=1 WtCom= 1.00D+00 WtEn= 0.00D+00
 Coeff-Com:  0.142D-01 0.746D-01 0.464D+00 0.447D+00
 Coeff:      0.142D-01 0.746D-01 0.464D+00 0.447D+00
 Gap=     0.154 Goal=   None    Shift=    0.000
 RMSDP=4.06D-07 MaxDP=1.96D-05 DE=-5.52D-08 OVMax= 4.99D-05

 Cycle  12  Pass 1  IDiag  1:
 E= -323.269658382186     Delta-E=       -0.000000018038 Rises=F Damp=F
 DIIS: error= 2.51D-06 at cycle   5 NSaved=   5.
 NSaved= 5 IEnMin= 5 EnMin= -323.269658382186     IErMin= 5 ErrMin= 2.51D-06
 ErrMax= 2.51D-06  0.00D+00 EMaxC= 1.00D-01 BMatC= 1.43D-09 BMatP= 2.33D-08
 IDIUse=1 WtCom= 1.00D+00 WtEn= 0.00D+00
 Coeff-Com: -0.214D-02 0.308D-01 0.219D+00 0.271D+00 0.481D+00
 Coeff:     -0.214D-02 0.308D-01 0.219D+00 0.271D+00 0.481D+00
 Gap=     0.154 Goal=   None    Shift=    0.000
 RMSDP=1.26D-07 MaxDP=4.28D-06 DE=-1.80D-08 OVMax= 1.87D-05

 Cycle  13  Pass 1  IDiag  1:
 E= -323.269658383255     Delta-E=       -0.000000001070 Rises=F Damp=F
 DIIS: error= 1.29D-06 at cycle   6 NSaved=   6.
 NSaved= 6 IEnMin= 6 EnMin= -323.269658383255     IErMin= 6 ErrMin= 1.29D-06
 ErrMax= 1.29D-06  0.00D+00 EMaxC= 1.00D-01 BMatC= 2.21D-10 BMatP= 1.43D-09
 IDIUse=1 WtCom= 1.00D+00 WtEn= 0.00D+00
 Coeff-Com: -0.267D-02 0.172D-01 0.127D+00 0.164D+00 0.336D+00 0.357D+00
 Coeff:     -0.267D-02 0.172D-01 0.127D+00 0.164D+00 0.336D+00 0.357D+00
 Gap=     0.154 Goal=   None    Shift=    0.000
 RMSDP=5.02D-08 MaxDP=2.19D-06 DE=-1.07D-09 OVMax= 8.54D-06

 Cycle  14  Pass 1  IDiag  1:
 E= -323.269658383488     Delta-E=       -0.000000000232 Rises=F Damp=F
 DIIS: error= 2.13D-07 at cycle   7 NSaved=   7.
 NSaved= 7 IEnMin= 7 EnMin= -323.269658383488     IErMin= 7 ErrMin= 2.13D-07
 ErrMax= 2.13D-07  0.00D+00 EMaxC= 1.00D-01 BMatC= 9.26D-12 BMatP= 2.21D-10
 IDIUse=1 WtCom= 1.00D+00 WtEn= 0.00D+00
 Coeff-Com: -0.122D-02 0.703D-02 0.529D-01 0.695D-01 0.147D+00 0.218D+00
 Coeff-Com:  0.507D+00
 Coeff:     -0.122D-02 0.703D-02 0.529D-01 0.695D-01 0.147D+00 0.218D+00
 Coeff:      0.507D+00
 Gap=     0.154 Goal=   None    Shift=    0.000
 RMSDP=9.91D-09 MaxDP=4.58D-07 DE=-2.32D-10 OVMax= 1.43D-06

 SCF Done:  E(RPBE-PBE) =  -323.269658383     A.U. after   14 cycles
            NFock= 14  Conv=0.99D-08     -V/T= 2.0025
 KE= 3.224768977527D+02 PE=-1.310218086656D+03 EE= 3.869478595582D+02
 Leave Link  502 at Thu Aug 26 23:58:42 2021, MaxMem= 17179869184 cpu:       240.6
 (Enter /public3/home/sc51754/softwares/g09e01/l601.exe)
 Copying SCF densities to generalized density rwf, IOpCl= 0 IROHF=0.

 **********************************************************************

            Population analysis using the SCF density.

 **********************************************************************

 Orbital symmetries:
       Occupied  (A') (A') (A') (A') (A') (A') (A') (A') (A') (A')
                 (A') (A') (A') (A') (A') (A') (A') (A") (A') (A')
                 (A') (A") (A") (A') (A")
       Virtual   (A") (A") (A') (A') (A') (A') (A') (A") (A') (A')
                 (A") (A') (A') (A') (A") (A") (A') (A') (A') (A')
                 (A") (A") (A') (A') (A') (A') (A') (A') (A') (A')
                 (A') (A") (A') (A") (A') (A') (A') (A') (A') (A')
                 (A') (A') (A') (A") (A') (A') (A') (A") (A") (A")
                 (A') (A") (A') (A') (A") (A') (A") (A') (A') (A')
                 (A') (A") (A') (A') (A") (A') (A') (A") (A') (A')
                 (A") (A") (A") (A') (A") (A') (A') (A") (A') (A')
                 (A") (A') (A') (A') (A") (A') (A") (A') (A") (A")
                 (A') (A') (A') (A') (A') (A") (A') (A') (A") (A')
                 (A') (A") (A') (A') (A') (A') (A') (A") (A') (A')
                 (A') (A") (A') (A') (A') (A') (A") (A') (A') (A')
                 (A") (A') (A") (A') (A") (A') (A") (A") (A') (A")
                 (A") (A') (A') (A') (A") (A') (A') (A") (A') (A')
                 (A') (A') (A") (A') (A") (A') (A") (A') (A') (A')
                 (A") (A') (A') (A") (A') (A") (A") (A') (A") (A')
                 (A") (A') (A') (A') (A") (A") (A') (A") (A') (A')
                 (A') (A") (A') (A") (A') (A') (A") (A') (A") (A")
                 (A") (A") (A') (A') (A") (A') (A") (A") (A') (A")
                 (A') (A") (A') (A") (A') (A') (A") (A') (A") (A")
                 (A') (A') (A") (A') (A') (A") (A') (A') (A') (A')
                 (A") (A') (A") (A') (A') (A") (A') (A') (A") (A")
                 (A') (A') (A") (A') (A') (A") (A') (A') (A') (A')
                 (A") (A') (A') (A') (A') (A") (A") (A') (A') (A')
                 (A') (A") (A') (A') (A') (A') (A') (A') (A') (A')
                 (A') (A') (A') (A') (A')
 The electronic state is 1-A'.
 Alpha  occ. eigenvalues --  -18.78495 -13.98215  -9.97518  -9.92145  -9.90545
 Alpha  occ. eigenvalues --   -9.89414  -9.88943  -0.99953  -0.86735  -0.74045
 Alpha  occ. eigenvalues --   -0.69257  -0.59307  -0.57539  -0.50803  -0.46987
 Alpha  occ. eigenvalues --   -0.43694  -0.40117  -0.39977  -0.36966  -0.35514
 Alpha  occ. eigenvalues --   -0.32845  -0.32021  -0.26857  -0.23448  -0.21847
 Alpha virt. eigenvalues --   -0.06398  -0.03812   0.00447   0.01211   0.03024
 Alpha virt. eigenvalues --    0.05093   0.06888   0.09366   0.11375   0.13494
 Alpha virt. eigenvalues --    0.13753   0.14699   0.16133   0.17480   0.17933
 Alpha virt. eigenvalues --    0.18512   0.19949   0.23034   0.23100   0.24796
 Alpha virt. eigenvalues --    0.24822   0.26822   0.26998   0.27550   0.29049
 Alpha virt. eigenvalues --    0.31213   0.31769   0.33258   0.33839   0.34772
 Alpha virt. eigenvalues --    0.36593   0.38767   0.40947   0.42381   0.42746
 Alpha virt. eigenvalues --    0.46141   0.49455   0.49657   0.51639   0.54831
 Alpha virt. eigenvalues --    0.56812   0.58558   0.60147   0.60199   0.62036
 Alpha virt. eigenvalues --    0.64417   0.68855   0.71621   0.72902   0.76637
 Alpha virt. eigenvalues --    0.77860   0.81842   0.83996   0.86589   0.87893
 Alpha virt. eigenvalues --    0.90514   0.91980   0.92441   0.94380   0.96191
 Alpha virt. eigenvalues --    0.98643   1.04155   1.04847   1.06458   1.09332
 Alpha virt. eigenvalues --    1.09921   1.11180   1.11593   1.14270   1.15148
 Alpha virt. eigenvalues --    1.16876   1.20339   1.22021   1.24405   1.24420
 Alpha virt. eigenvalues --    1.26444   1.30940   1.35960   1.36942   1.39427
 Alpha virt. eigenvalues --    1.44228   1.45174   1.46260   1.49193   1.49498
 Alpha virt. eigenvalues --    1.49525   1.52193   1.55608   1.56291   1.60264
 Alpha virt. eigenvalues --    1.60416   1.61801   1.65298   1.67996   1.69240
 Alpha virt. eigenvalues --    1.72134   1.74343   1.77118   1.79497   1.80592
 Alpha virt. eigenvalues --    1.83310   1.88609   1.88906   1.90241   1.94408
 Alpha virt. eigenvalues --    1.98300   2.03536   2.04599   2.07690   2.11600
 Alpha virt. eigenvalues --    2.15204   2.15621   2.19235   2.20718   2.23075
 Alpha virt. eigenvalues --    2.27277   2.30405   2.51314   2.60415   2.65509
 Alpha virt. eigenvalues --    2.78573   2.86215   2.87528   2.92179   3.06895
 Alpha virt. eigenvalues --    3.08764   3.12549   3.15323   3.17900   3.18733
 Alpha virt. eigenvalues --    3.22837   3.24499   3.27334   3.30780   3.31463
 Alpha virt. eigenvalues --    3.34935   3.39409   3.39495   3.42027   3.49406
 Alpha virt. eigenvalues --    3.50036   3.52204   3.53030   3.54120   3.59756
 Alpha virt. eigenvalues --    3.62720   3.64075   3.70290   3.72617   3.74125
 Alpha virt. eigenvalues --    3.76154   3.79276   3.81972   3.84491   3.88799
 Alpha virt. eigenvalues --    3.88891   3.93032   3.96809   3.97851   3.98105
 Alpha virt. eigenvalues --    3.99407   4.02099   4.04076   4.08271   4.09548
 Alpha virt. eigenvalues --    4.09794   4.11601   4.13732   4.13974   4.15918
 Alpha virt. eigenvalues --    4.18610   4.19373   4.21404   4.23659   4.24347
 Alpha virt. eigenvalues --    4.24586   4.26027   4.29236   4.31317   4.32834
 Alpha virt. eigenvalues --    4.35697   4.36656   4.37207   4.37942   4.39221
 Alpha virt. eigenvalues --    4.41580   4.42529   4.43616   4.47037   4.49735
 Alpha virt. eigenvalues --    4.51476   4.51524   4.56613   4.57429   4.59516
 Alpha virt. eigenvalues --    4.66280   4.68065   4.71776   4.75650   4.78834
 Alpha virt. eigenvalues --    4.81538   4.81911   4.89209   4.90654   4.96378
 Alpha virt. eigenvalues --    5.00212   5.00825   5.03538   5.10011   5.11448
 Alpha virt. eigenvalues --    5.14118   5.15706   5.19925   5.22882   5.25943
 Alpha virt. eigenvalues --    5.26831   5.28322   5.29715   5.31657   5.32575
 Alpha virt. eigenvalues --    5.35608   5.37974   5.45581   5.47971   5.53671
 Alpha virt. eigenvalues --    5.54673   5.56917   5.59619   5.68767   5.70906
 Alpha virt. eigenvalues --    5.73966   5.90249   5.94845   5.98784   5.98963
 Alpha virt. eigenvalues --    6.00045   6.12669   6.15620   6.17494   6.19065
 Alpha virt. eigenvalues --    6.35753   6.35808   6.37703   6.52747   6.57686
 Alpha virt. eigenvalues --    6.80869   7.04409   7.19615   9.11436  11.88777
 Alpha virt. eigenvalues --   12.51507  15.28486  17.16390  18.38283  21.91890
          Condensed to atoms (all electrons):
               1          2          3          4          5          6
     1  O    7.813983  -0.104867   0.351723  -0.066522   0.003282   0.007670
     2  N   -0.104867   6.569378   0.482274  -0.017909   0.547120  -0.035034
     3  C    0.351723   0.482274   4.454590   0.494637  -0.079872  -0.061493
     4  C   -0.066522  -0.017909   0.494637   4.875262  -0.043366   0.537590
     5  C    0.003282   0.547120  -0.079872  -0.043366   4.609983  -0.072623
     6  C    0.007670  -0.035034  -0.061493   0.537590  -0.072623   4.719466
     7  C   -0.000559  -0.050500  -0.051584  -0.043206   0.504836   0.507355
     8  H    0.340853   0.021819  -0.042681   0.016306   0.002119  -0.002483
     9  H    0.005583   0.008592  -0.027355   0.414383  -0.002484  -0.033299
    10  H   -0.000611  -0.038085   0.004980  -0.003946   0.439182   0.008875
    11  H   -0.000260  -0.002224   0.007958  -0.036885   0.007920   0.427693
    12  H    0.000072   0.009307  -0.000512   0.007267  -0.023015  -0.035533
               7          8          9         10         11         12
     1  O   -0.000559   0.340853   0.005583  -0.000611  -0.000260   0.000072
     2  N   -0.050500   0.021819   0.008592  -0.038085  -0.002224   0.009307
     3  C   -0.051584  -0.042681  -0.027355   0.004980   0.007958  -0.000512
     4  C   -0.043206   0.016306   0.414383  -0.003946  -0.036885   0.007267
     5  C    0.504836   0.002119  -0.002484   0.439182   0.007920  -0.023015
     6  C    0.507355  -0.002483  -0.033299   0.008875   0.427693  -0.035533
     7  C    4.960753   0.001915   0.009139  -0.075939  -0.037173   0.410551
     8  H    0.001915   0.465377  -0.001478  -0.000985   0.000148  -0.000092
     9  H    0.009139  -0.001478   0.586289   0.000304  -0.008029  -0.000238
    10  H   -0.075939  -0.000985   0.000304   0.612086  -0.000544  -0.002381
    11  H   -0.037173   0.000148  -0.008029  -0.000544   0.592120  -0.006797
    12  H    0.410551  -0.000092  -0.000238  -0.002381  -0.006797   0.598939
 Mulliken charges:
               1
     1  O   -0.350347
     2  N   -0.389871
     3  C    0.467337
     4  C   -0.133610
     5  C    0.106918
     6  C    0.031816
     7  C   -0.135589
     8  H    0.199182
     9  H    0.048595
    10  H    0.057065
    11  H    0.056074
    12  H    0.042432
 Sum of Mulliken charges =  -0.00000
 Mulliken charges with hydrogens summed into heavy atoms:
               1
     1  O   -0.151165
     2  N   -0.389871
     3  C    0.467337
     4  C   -0.085016
     5  C    0.163982
     6  C    0.087891
     7  C   -0.093157
 Electronic spatial extent (au):  <R**2>=            623.8580
 Charge=              0.0000 electrons
 Dipole moment (field-independent basis, Debye):
    X=              0.4762    Y=             -1.0268    Z=             -0.0000  Tot=              1.1319
 Quadrupole moment (field-independent basis, Debye-Ang):
   XX=            -38.1971   YY=            -36.7347   ZZ=            -42.9764
   XY=             -1.9610   XZ=              0.0000   YZ=              0.0000
 Traceless Quadrupole moment (field-independent basis, Debye-Ang):
   XX=              1.1057   YY=              2.5680   ZZ=             -3.6737
   XY=             -1.9610   XZ=              0.0000   YZ=              0.0000
 Octapole moment (field-independent basis, Debye-Ang**2):
  XXX=              6.2047  YYY=              5.4586  ZZZ=              0.0000  XYY=            -10.4790
  XXY=              0.6764  XXZ=              0.0000  XZZ=             -1.3718  YZZ=              5.4340
  YYZ=             -0.0000  XYZ=              0.0000
 Hexadecapole moment (field-independent basis, Debye-Ang**3):
 XXXX=           -269.9133 YYYY=           -458.3638 ZZZZ=            -46.8187 XXXY=              8.7804
 XXXZ=              0.0000 YYYX=            -28.6827 YYYZ=              0.0000 ZZZX=              0.0000
 ZZZY=              0.0000 XXYY=           -111.3644 XXZZ=            -59.7634 YYZZ=            -97.0423
 XXYZ=              0.0000 YYXZ=              0.0000 ZZXY=              0.7676
 N-N= 2.775236709615D+02 E-N=-1.310218112158D+03  KE= 3.224768977527D+02
 Symmetry A'   KE= 3.106775195147D+02
 Symmetry A"   KE= 1.179937823798D+01
 No NMR shielding tensors so no spin-rotation constants.
 Leave Link  601 at Thu Aug 26 23:58:44 2021, MaxMem= 17179869184 cpu:        72.0
 (Enter /public3/home/sc51754/softwares/g09e01/l701.exe)
 Compute integral first derivatives.
 ... and contract with generalized density number  0.
 Leave Link  701 at Thu Aug 26 23:58:45 2021, MaxMem= 17179869184 cpu:        82.3
 (Enter /public3/home/sc51754/softwares/g09e01/l702.exe)
 L702 exits ... SP integral derivatives will be done elsewhere.
 Leave Link  702 at Thu Aug 26 23:58:45 2021, MaxMem= 17179869184 cpu:         0.2
 (Enter /public3/home/sc51754/softwares/g09e01/l703.exe)
 Compute integral first derivatives, UseDBF=F ICtDFT=           0.
 Integral derivatives from FoFJK, PRISM(SPDF).
 Calling FoFJK, ICntrl=      2527 FMM=F ISym2X=1 I1Cent= 0 IOpClX= 0 NMat=1 NMatS=1 NMatT=0.
 FoFJK:  IHMeth= 1 ICntrl=    2527 DoSepK=F KAlg= 0 I1Cent=   0 FoldK=F
 IRaf=         0 NMat=   1 IRICut=       1 DoRegI=T DoRafI=F ISym2E= 1.
 FoFCou: FMM=F IPFlag=           0 FMFlag=      100000 FMFlg1=         800
         NFxFlg=           0 DoJE=F BraDBF=F KetDBF=F FulRan=T
         wScrn=  0.000000 ICntrl=    2527 IOpCl=  0 I1Cent=           0 NGrid=           0
         NMat0=    1 NMatS0=      1 NMatT0=    0 NMatD0=    1 NMtDS0=    0 NMtDT0=    0
 Petite list used in FoFCou.
 Leave Link  703 at Thu Aug 26 23:58:48 2021, MaxMem= 17179869184 cpu:       172.3
 (Enter /public3/home/sc51754/softwares/g09e01/l716.exe)
 Dipole        = 1.87349897D-01-4.03987007D-01-1.81739961D-32
 ***** Axes restored to original set *****
 -------------------------------------------------------------------
 Center     Atomic                   Forces (Hartrees/Bohr)
 Number     Number              X              Y              Z
 -------------------------------------------------------------------
      1        8           0.012086153    0.011531505    0.000000000
      2        7          -0.013932636    0.004902231   -0.000000000
      3        6           0.004482267    0.000196063    0.000000000
      4        6           0.005168165    0.003939618    0.000000000
      5        6          -0.006830769   -0.004225313   -0.000000000
      6        6           0.004878519   -0.005398853    0.000000000
      7        6           0.001590473   -0.005865504    0.000000000
      8        1          -0.012260693    0.003432898   -0.000000000
      9        1           0.005295821    0.002752447    0.000000000
     10        1          -0.005284398   -0.002167272   -0.000000000
     11        1           0.005121075   -0.002961868    0.000000000
     12        1          -0.000313977   -0.006135952    0.000000000
 -------------------------------------------------------------------
 Cartesian Forces:  Max     0.013932636 RMS     0.005315214
 Leave Link  716 at Thu Aug 26 23:58:48 2021, MaxMem= 17179869184 cpu:         0.4
 (Enter /public3/home/sc51754/softwares/g09e01/l103.exe)

 GradGradGradGradGradGradGradGradGradGradGradGradGradGradGradGradGradGrad
 Berny optimization.
 FormGI is forming the generalized inverse of G from B-inverse, IUseBI=4.
 Internal  Forces:  Max     0.016628183 RMS     0.005654099
 Search for a local minimum.
 Step number   1 out of a maximum of   61
 All quantities printed in internal units (Hartrees-Bohrs-Radians)
 RMS Force = .56541D-02 SwitMx=.10000D-02 MixMth= 1
 Mixed Optimization -- RFO/linear search
 Second derivative matrix not updated -- first step.
 ITU=  0
     Eigenvalues ---    0.02265   0.02291   0.02312   0.02345   0.02366
     Eigenvalues ---    0.02409   0.02454   0.02466   0.02614   0.16000
     Eigenvalues ---    0.16000   0.16000   0.16000   0.16000   0.22000
     Eigenvalues ---    0.22422   0.24442   0.25000   0.35406   0.35728
     Eigenvalues ---    0.35970   0.35990   0.43621   0.45785   0.48169
     Eigenvalues ---    0.49389   0.54882   0.56881   0.57480   0.60970
 RFO step:  Lambda=-3.15125429D-03 EMin= 2.26525640D-02
 Linear search not attempted -- first point.
 Iteration  1 RMS(Cart)=  0.01851397 RMS(Int)=  0.00001406
 Iteration  2 RMS(Cart)=  0.00002117 RMS(Int)=  0.00000169
 Iteration  3 RMS(Cart)=  0.00000000 RMS(Int)=  0.00000169
 ITry= 1 IFail=0 DXMaxC= 5.11D-02 DCOld= 1.00D+10 DXMaxT= 3.00D-01 DXLimC= 3.00D+00 Rises=F
 ClnCor:  largest displacement from symmetrization is 4.73D-10 for atom    11.
 Variable       Old X    -DE/DX   Delta X   Delta X   Delta X     New X
                                 (Linear)    (Quad)   (Total)
    R1        2.53498   0.01496   0.00000   0.02615   0.02615   2.56113
    R2        1.81937   0.01274   0.00000   0.02308   0.02308   1.84245
    R3        2.48913   0.01663   0.00000   0.02687   0.02688   2.51600
    R4        2.51605   0.01313   0.00000   0.02244   0.02244   2.53849
    R5        2.63173   0.01227   0.00000   0.02617   0.02618   2.65790
    R6        2.59740   0.01364   0.00000   0.02659   0.02659   2.62399
    R7        2.04128   0.00596   0.00000   0.01642   0.01642   2.05770
    R8        2.60360   0.01335   0.00000   0.02669   0.02668   2.63028
    R9        2.05020   0.00570   0.00000   0.01596   0.01596   2.06616
   R10        2.62604   0.01156   0.00000   0.02362   0.02362   2.64966
   R11        2.04509   0.00591   0.00000   0.01641   0.01641   2.06150
   R12        2.04097   0.00614   0.00000   0.01692   0.01692   2.05789
    A1        1.85547  -0.00043   0.00000  -0.00264  -0.00264   1.85283
    A2        2.05525   0.00030   0.00000   0.00405   0.00405   2.05930
    A3        2.05194   0.00009   0.00000  -0.00027  -0.00027   2.05167
    A4        2.06888   0.00126   0.00000   0.00436   0.00436   2.07324
    A5        2.16236  -0.00135   0.00000  -0.00409  -0.00409   2.15827
    A6        2.04920   0.00052   0.00000   0.00140   0.00140   2.05060
    A7        2.09344   0.00012   0.00000   0.00164   0.00164   2.09507
    A8        2.14055  -0.00064   0.00000  -0.00304  -0.00304   2.13751
    A9        2.15386  -0.00069   0.00000  -0.00250  -0.00250   2.15136
   A10        2.02490   0.00003   0.00000  -0.00066  -0.00066   2.02424
   A11        2.10443   0.00066   0.00000   0.00316   0.00316   2.10759
   A12        2.08852   0.00051   0.00000  -0.00022  -0.00022   2.08830
   A13        2.09426  -0.00042   0.00000  -0.00089  -0.00089   2.09337
   A14        2.10040  -0.00009   0.00000   0.00111   0.00111   2.10151
   A15        2.05718   0.00070   0.00000   0.00136   0.00136   2.05853
   A16        2.10510  -0.00029   0.00000  -0.00033  -0.00033   2.10478
   A17        2.12091  -0.00041   0.00000  -0.00104  -0.00103   2.11987
    D1        0.00000   0.00000   0.00000   0.00000   0.00000   0.00000
    D2        3.14159   0.00000   0.00000   0.00000   0.00000   3.14159
    D3        3.14159  -0.00000   0.00000  -0.00000   0.00000   3.14159
    D4        0.00000   0.00000   0.00000   0.00000  -0.00000   0.00000
    D5       -0.00000  -0.00000   0.00000  -0.00000   0.00000   0.00000
    D6        3.14159  -0.00000   0.00000  -0.00000   0.00000   3.14159
    D7        3.14159   0.00000   0.00000   0.00000   0.00000   3.14159
    D8        0.00000   0.00000   0.00000   0.00000  -0.00000   0.00000
    D9       -0.00000   0.00000   0.00000  -0.00000   0.00000   0.00000
   D10        3.14159  -0.00000   0.00000  -0.00000   0.00000   3.14159
   D11        0.00000  -0.00000   0.00000   0.00000  -0.00000   0.00000
   D12        3.14159  -0.00000   0.00000  -0.00000   0.00000   3.14159
   D13        3.14159   0.00000   0.00000   0.00000   0.00000   3.14159
   D14       -0.00000   0.00000   0.00000  -0.00000   0.00000   0.00000
   D15       -0.00000  -0.00000   0.00000  -0.00000   0.00000   0.00000
   D16        3.14159  -0.00000   0.00000  -0.00000   0.00000   3.14159
   D17        3.14159   0.00000   0.00000   0.00000   0.00000   3.14159
   D18       -0.00000   0.00000   0.00000   0.00000   0.00000   0.00000
   D19        0.00000   0.00000   0.00000   0.00000   0.00000   0.00000
   D20        3.14159   0.00000   0.00000   0.00000   0.00000   3.14159
   D21        3.14159   0.00000   0.00000   0.00000   0.00000   3.14159
   D22       -0.00000   0.00000   0.00000   0.00000   0.00000   0.00000
         Item               Value     Threshold  Converged?
 Maximum Force            0.016628     0.000450     NO 
 RMS     Force            0.005654     0.000300     NO 
 Maximum Displacement     0.051065     0.001800     NO 
 RMS     Displacement     0.018514     0.001200     NO 
 Predicted change in Energy=-1.585512D-03
 Lowest energy point so far.  Saving SCF results.
 GradGradGradGradGradGradGradGradGradGradGradGradGradGradGradGradGradGrad

 Leave Link  103 at Thu Aug 26 23:58:50 2021, MaxMem= 17179869184 cpu:        66.2
 (Enter /public3/home/sc51754/softwares/g09e01/l202.exe)
                          Input orientation:                          
 ---------------------------------------------------------------------
 Center     Atomic      Atomic             Coordinates (Angstroms)
 Number     Number       Type             X           Y           Z
 ---------------------------------------------------------------------
      1          8           0        0.006170    2.266758   -0.000000
      2          7           0       -1.181669    0.300081   -0.000000
      3          6           0        0.001062    0.911476   -0.000000
      4          6           0        1.231169    0.229503    0.000000
      5          6           0       -1.196985   -1.043143   -0.000000
      6          6           0        1.194497   -1.158568    0.000000
      7          6           0       -0.041934   -1.819804    0.000000
      8          1           0       -0.929264    2.541635   -0.000000
      9          1           0        2.164947    0.789620    0.000000
     10          1           0       -2.185259   -1.510868   -0.000000
     11          1           0        2.125090   -1.727827    0.000000
     12          1           0       -0.105043   -2.906962    0.000000
 ---------------------------------------------------------------------
                    Distance matrix (angstroms):
                    1          2          3          4          5
     1  O    0.000000
     2  N    2.297560   0.000000
     3  C    1.355292   1.331412   0.000000
     4  C    2.377190   2.413870   1.406502   0.000000
     5  C    3.521793   1.343311   2.292565   2.741452   0.000000
     6  C    3.625601   2.788157   2.389429   1.388555   2.394265
     7  C    4.086846   2.406846   2.731618   2.412561   1.391885
     8  H    0.974984   2.255720   1.876946   3.164400   3.594761
     9  H    2.615770   3.382231   2.167313   1.088886   3.829047
    10  H    4.367244   2.070442   3.263089   3.834171   1.093367
    11  H    4.521785   3.879055   3.387834   2.151799   3.391899
    12  H    5.174915   3.382935   3.819912   3.409233   2.160129
                    6          7          8          9         10
     6  C    0.000000
     7  C    1.402139   0.000000
     8  H    4.266364   4.450787   0.000000
     9  H    2.176514   3.417516   3.555797   0.000000
    10  H    3.398067   2.165475   4.242676   4.921030   0.000000
    11  H    1.090899   2.168975   5.249513   2.517763   4.315806
    12  H    2.178459   1.088988   5.510585   4.337923   2.505270
                   11         12
    11  H    0.000000
    12  H    2.522668   0.000000
 Stoichiometry    C5H5NO
 Framework group  CS[SG(C5H5NO)]
 Deg. of freedom    21
 Full point group                 CS      NOp   2
 RotChk:  IX=0 Diff= 2.43D-03
 Largest Abelian subgroup         CS      NOp   2
 Largest concise Abelian subgroup C1      NOp   1
                         Standard orientation:                         
 ---------------------------------------------------------------------
 Center     Atomic      Atomic             Coordinates (Angstroms)
 Number     Number       Type             X           Y           Z
 ---------------------------------------------------------------------
      1          8           0        0.002778    2.264026    0.000000
      2          7           0       -1.181679    0.295310   -0.000000
      3          6           0        0.000000    0.908737    0.000000
      4          6           0        1.231277    0.228880    0.000000
      5          6           0       -1.194685   -1.047939   -0.000000
      6          6           0        1.196991   -1.159252    0.000000
      7          6           0       -0.038301   -1.822613   -0.000000
      8          1           0       -0.933127    2.537294    0.000000
      9          1           0        2.164091    0.790602    0.000000
     10          1           0       -2.182154   -1.517362   -0.000000
     11          1           0        2.128562   -1.726911    0.000000
     12          1           0       -0.099541   -2.909878   -0.000000
 ---------------------------------------------------------------------
 Rotational constants (GHZ):      5.8117503      2.7481715      1.8658683
 Leave Link  202 at Thu Aug 26 23:58:50 2021, MaxMem= 17179869184 cpu:         4.6
 (Enter /public3/home/sc51754/softwares/g09e01/l301.exe)
 Basis read from rwf:  (5D, 7F)
 No pseudopotential information found on rwf file.
 There are   223 symmetry adapted cartesian basis functions of A'  symmetry.
 There are    97 symmetry adapted cartesian basis functions of A"  symmetry.
 There are   190 symmetry adapted basis functions of A'  symmetry.
 There are    90 symmetry adapted basis functions of A"  symmetry.
   280 basis functions,   475 primitive gaussians,   320 cartesian basis functions
    25 alpha electrons       25 beta electrons
       nuclear repulsion energy       274.7877453810 Hartrees.
 IExCor= 1009 DFT=T Ex=PBE Corr=PBE ExCW=0 ScaHFX=  0.000000
 ScaDFX=  1.000000  1.000000  1.000000  1.000000 ScalE2=  1.000000  1.000000
 IRadAn=      0 IRanWt=     -1 IRanGd=            0 ICorTp=0 IEmpDi=  4
 NAtoms=   12 NActive=   12 NUniq=   12 SFac= 1.00D+00 NAtFMM=   60 NAOKFM=F Big=F
 Integral buffers will be    131072 words long.
 Raffenetti 2 integral format.
 Two-electron integral symmetry is turned on.
 No density basis found on file   724.
 Leave Link  301 at Thu Aug 26 23:58:50 2021, MaxMem= 17179869184 cpu:         1.2
 (Enter /public3/home/sc51754/softwares/g09e01/l302.exe)
 NPDir=0 NMtPBC=     1 NCelOv=     1 NCel=       1 NClECP=     1 NCelD=      1
         NCelK=      1 NCelE2=     1 NClLst=     1 CellRange=     0.0.
 One-electron integrals computed using PRISM.
 NBasis=   280 RedAO= T EigKep=  2.31D-04  NBF=   190    90
 NBsUse=   280 1.00D-06 EigRej= -1.00D+00 NBFU=   190    90
 Precomputing XC quadrature grid using
 IXCGrd= 4 IRadAn=           0 IRanWt=          -1 IRanGd=           0 AccXCQ= 0.00D+00.
 Generated NRdTot=       0 NPtTot=           0 NUsed=           0 NTot=          32
 NSgBfM=   320   320   320   320   320 MxSgAt=    12 MxSgA2=    12.
 Leave Link  302 at Thu Aug 26 23:58:51 2021, MaxMem= 17179869184 cpu:        38.6
 (Enter /public3/home/sc51754/softwares/g09e01/l303.exe)
 DipDrv:  MaxL=1.
 Leave Link  303 at Thu Aug 26 23:58:51 2021, MaxMem= 17179869184 cpu:         9.8
 (Enter /public3/home/sc51754/softwares/g09e01/l401.exe)
 Initial guess from the checkpoint file:  "HY_PBEPBE_PC2_OPT_FREQ.chk"
 B after Tr=     0.000000    0.000000   -0.000000
         Rot=    1.000000   -0.000000   -0.000000   -0.000905 Ang=  -0.10 deg.
 Guess basis will be translated and rotated to current coordinates.
 JPrj=2 DoOrth=T DoCkMO=T.
 Initial guess orbital symmetries:
       Occupied  (A') (A') (A') (A') (A') (A') (A') (A') (A') (A')
                 (A') (A') (A') (A') (A') (A') (A') (A") (A') (A')
                 (A') (A") (A") (A') (A")
       Virtual   (A') (A') (A') (A') (A') (A') (A') (A') (A') (A')
                 (A') (A') (A') (A') (A') (A') (A') (A') (A') (A')
                 (A') (A') (A') (A') (A') (A') (A') (A') (A') (A')
                 (A') (A') (A') (A') (A') (A') (A') (A') (A') (A')
                 (A') (A') (A') (A') (A') (A') (A') (A') (A') (A')
                 (A') (A') (A') (A') (A') (A') (A') (A') (A') (A')
                 (A') (A') (A') (A') (A') (A') (A') (A') (A') (A')
                 (A') (A') (A') (A') (A') (A') (A') (A') (A') (A')
                 (A') (A') (A') (A') (A') (A') (A') (A') (A') (A')
                 (A') (A') (A') (A') (A') (A') (A') (A') (A') (A')
                 (A') (A') (A') (A') (A') (A') (A') (A') (A') (A')
                 (A') (A') (A') (A') (A') (A') (A') (A') (A') (A')
                 (A') (A') (A') (A') (A') (A') (A') (A') (A') (A')
                 (A') (A') (A') (A') (A') (A') (A') (A') (A') (A')
                 (A') (A') (A') (A') (A') (A') (A') (A') (A') (A')
                 (A') (A') (A') (A') (A') (A') (A') (A') (A') (A')
                 (A') (A') (A') (A') (A') (A') (A') (A') (A') (A")
                 (A") (A") (A") (A") (A") (A") (A") (A") (A") (A")
                 (A") (A") (A") (A") (A") (A") (A") (A") (A") (A")
                 (A") (A") (A") (A") (A") (A") (A") (A") (A") (A")
                 (A") (A") (A") (A") (A") (A") (A") (A") (A") (A")
                 (A") (A") (A") (A") (A") (A") (A") (A") (A") (A")
                 (A") (A") (A") (A") (A") (A") (A") (A") (A") (A")
                 (A") (A") (A") (A") (A") (A") (A") (A") (A") (A")
                 (A") (A") (A") (A") (A") (A") (A") (A") (A") (A")
                 (A") (A") (A") (A") (A")
 The electronic state of the initial guess is 1-A'.
 Generating alternative initial guess.
 ExpMin= 7.41D-02 ExpMax= 1.48D+04 ExpMxC= 5.05D+02 IAcc=2 IRadAn=         4 AccDes= 0.00D+00
 Harris functional with IExCor= 1009 and IRadAn=       4 diagonalized for initial guess.
 HarFok:  IExCor= 1009 AccDes= 0.00D+00 IRadAn=         4 IDoV= 1 UseB2=F ITyADJ=14
 ICtDFT=  3500011 ScaDFX=  1.000000  1.000000  1.000000  1.000000
 FoFCou: FMM=F IPFlag=           0 FMFlag=      100000 FMFlg1=           0
         NFxFlg=           0 DoJE=T BraDBF=F KetDBF=T FulRan=T
         wScrn=  0.000000 ICntrl=     500 IOpCl=  0 I1Cent=   200000004 NGrid=           0
         NMat0=    1 NMatS0=      1 NMatT0=    0 NMatD0=    1 NMtDS0=    0 NMtDT0=    0
 Petite list used in FoFCou.
 Harris En= -323.364924833313    
 Leave Link  401 at Thu Aug 26 23:58:52 2021, MaxMem= 17179869184 cpu:        72.3
 (Enter /public3/home/sc51754/softwares/g09e01/l502.exe)
 Closed shell SCF:
 Using DIIS extrapolation, IDIIS=  1040.
 Integral symmetry usage will be decided dynamically.
 Keep J ints in memory in symmetry-blocked form, NReq=1167802198.
 IVT=      348658 IEndB=      348658 NGot= 17179869184 MDV= 16785904737
 LenX= 16785904737 LenY= 16785801896
 Requested convergence on RMS density matrix=1.00D-08 within 128 cycles.
 Requested convergence on MAX density matrix=1.00D-06.
 Requested convergence on             energy=1.00D-06.
 No special actions if energy rises.
 FoFCou: FMM=F IPFlag=           0 FMFlag=           0 FMFlg1=           0
         NFxFlg=           0 DoJE=F BraDBF=F KetDBF=F FulRan=T
         wScrn=  0.000000 ICntrl=     600 IOpCl=  0 I1Cent=           0 NGrid=           0
         NMat0=    1 NMatS0=  39340 NMatT0=    0 NMatD0=    1 NMtDS0=    0 NMtDT0=    0
 Petite list used in FoFCou.
 Integral accuracy reduced to 1.0D-05 until final iterations.

 Cycle   1  Pass 0  IDiag  1:
 E= -323.270890280816    
 DIIS: error= 1.05D-03 at cycle   1 NSaved=   1.
 NSaved= 1 IEnMin= 1 EnMin= -323.270890280816     IErMin= 1 ErrMin= 1.05D-03
 ErrMax= 1.05D-03  0.00D+00 EMaxC= 1.00D-01 BMatC= 4.62D-04 BMatP= 4.62D-04
 IDIUse=3 WtCom= 9.89D-01 WtEn= 1.05D-02
 Coeff-Com:  0.100D+01
 Coeff-En:   0.100D+01
 Coeff:      0.100D+01
 Gap=     0.521 Goal=   None    Shift=    0.000
 GapD=    0.521 DampG=2.000 DampE=1.000 DampFc=2.0000 IDamp=-1.
 RMSDP=9.04D-05 MaxDP=2.26D-03              OVMax= 5.22D-03

 Cycle   2  Pass 0  IDiag  1:
 E= -323.271199179693     Delta-E=       -0.000308898877 Rises=F Damp=F
 DIIS: error= 7.08D-04 at cycle   2 NSaved=   2.
 NSaved= 2 IEnMin= 2 EnMin= -323.271199179693     IErMin= 2 ErrMin= 7.08D-04
 ErrMax= 7.08D-04  0.00D+00 EMaxC= 1.00D-01 BMatC= 1.04D-04 BMatP= 4.62D-04
 IDIUse=3 WtCom= 9.93D-01 WtEn= 7.08D-03
 Coeff-Com:  0.270D+00 0.730D+00
 Coeff-En:   0.000D+00 0.100D+01
 Coeff:      0.268D+00 0.732D+00
 Gap=     0.151 Goal=   None    Shift=    0.000
 RMSDP=5.69D-05 MaxDP=2.46D-03 DE=-3.09D-04 OVMax= 4.19D-03

 Cycle   3  Pass 0  IDiag  1:
 E= -323.271226736190     Delta-E=       -0.000027556497 Rises=F Damp=F
 DIIS: error= 5.37D-04 at cycle   3 NSaved=   3.
 NSaved= 3 IEnMin= 3 EnMin= -323.271226736190     IErMin= 3 ErrMin= 5.37D-04
 ErrMax= 5.37D-04  0.00D+00 EMaxC= 1.00D-01 BMatC= 7.11D-05 BMatP= 1.04D-04
 IDIUse=3 WtCom= 9.95D-01 WtEn= 5.37D-03
 Coeff-Com:  0.530D-01 0.452D+00 0.495D+00
 Coeff-En:   0.000D+00 0.429D+00 0.571D+00
 Coeff:      0.527D-01 0.452D+00 0.495D+00
 Gap=     0.152 Goal=   None    Shift=    0.000
 RMSDP=3.17D-05 MaxDP=1.52D-03 DE=-2.76D-05 OVMax= 3.29D-03

 Cycle   4  Pass 0  IDiag  1:
 E= -323.271286816829     Delta-E=       -0.000060080639 Rises=F Damp=F
 DIIS: error= 2.30D-04 at cycle   4 NSaved=   4.
 NSaved= 4 IEnMin= 4 EnMin= -323.271286816829     IErMin= 4 ErrMin= 2.30D-04
 ErrMax= 2.30D-04  0.00D+00 EMaxC= 1.00D-01 BMatC= 1.27D-05 BMatP= 7.11D-05
 IDIUse=3 WtCom= 9.98D-01 WtEn= 2.30D-03
 Coeff-Com:  0.202D-01 0.275D+00 0.359D+00 0.345D+00
 Coeff-En:   0.000D+00 0.000D+00 0.934D-01 0.907D+00
 Coeff:      0.201D-01 0.274D+00 0.359D+00 0.347D+00
 Gap=     0.151 Goal=   None    Shift=    0.000
 RMSDP=1.03D-05 MaxDP=5.32D-04 DE=-6.01D-05 OVMax= 1.49D-03

 Cycle   5  Pass 0  IDiag  1:
 E= -323.271297519385     Delta-E=       -0.000010702555 Rises=F Damp=F
 DIIS: error= 5.97D-05 at cycle   5 NSaved=   5.
 NSaved= 5 IEnMin= 5 EnMin= -323.271297519385     IErMin= 5 ErrMin= 5.97D-05
 ErrMax= 5.97D-05  0.00D+00 EMaxC= 1.00D-01 BMatC= 6.60D-07 BMatP= 1.27D-05
 IDIUse=1 WtCom= 1.00D+00 WtEn= 0.00D+00
 Coeff-Com:  0.230D-02 0.838D-01 0.137D+00 0.211D+00 0.566D+00
 Coeff:      0.230D-02 0.838D-01 0.137D+00 0.211D+00 0.566D+00
 Gap=     0.152 Goal=   None    Shift=    0.000
 RMSDP=2.70D-06 MaxDP=1.02D-04 DE=-1.07D-05 OVMax= 4.77D-04

 Initial convergence to 1.0D-05 achieved.  Increase integral accuracy.
 Cycle   6  Pass 1  IDiag  1:
 E= -323.271191062770     Delta-E=        0.000106456615 Rises=F Damp=F
 DIIS: error= 3.98D-05 at cycle   1 NSaved=   1.
 NSaved= 1 IEnMin= 1 EnMin= -323.271191062770     IErMin= 1 ErrMin= 3.98D-05
 ErrMax= 3.98D-05  0.00D+00 EMaxC= 1.00D-01 BMatC= 2.72D-07 BMatP= 2.72D-07
 IDIUse=1 WtCom= 1.00D+00 WtEn= 0.00D+00
 Coeff-Com:  0.100D+01
 Coeff:      0.100D+01
 Gap=     0.152 Goal=   None    Shift=    0.000
 RMSDP=2.70D-06 MaxDP=1.02D-04 DE= 1.06D-04 OVMax= 6.70D-04

 Cycle   7  Pass 1  IDiag  1:
 E= -323.271190575664     Delta-E=        0.000000487105 Rises=F Damp=F
 DIIS: error= 6.20D-05 at cycle   2 NSaved=   2.
 NSaved= 2 IEnMin= 1 EnMin= -323.271191062770     IErMin= 1 ErrMin= 3.98D-05
 ErrMax= 6.20D-05  0.00D+00 EMaxC= 1.00D-01 BMatC= 7.09D-07 BMatP= 2.72D-07
 IDIUse=1 WtCom= 1.00D+00 WtEn= 0.00D+00
 Coeff-Com:  0.643D+00 0.357D+00
 Coeff:      0.643D+00 0.357D+00
 Gap=     0.152 Goal=   None    Shift=    0.000
 RMSDP=3.15D-06 MaxDP=1.48D-04 DE= 4.87D-07 OVMax= 6.27D-04

 Cycle   8  Pass 1  IDiag  1:
 E= -323.271191306053     Delta-E=       -0.000000730389 Rises=F Damp=F
 DIIS: error= 2.06D-05 at cycle   3 NSaved=   3.
 NSaved= 3 IEnMin= 3 EnMin= -323.271191306053     IErMin= 3 ErrMin= 2.06D-05
 ErrMax= 2.06D-05  0.00D+00 EMaxC= 1.00D-01 BMatC= 7.79D-08 BMatP= 2.72D-07
 IDIUse=1 WtCom= 1.00D+00 WtEn= 0.00D+00
 Coeff-Com:  0.996D-01 0.242D+00 0.658D+00
 Coeff:      0.996D-01 0.242D+00 0.658D+00
 Gap=     0.152 Goal=   None    Shift=    0.000
 RMSDP=1.12D-06 MaxDP=4.90D-05 DE=-7.30D-07 OVMax= 1.89D-04

 Cycle   9  Pass 1  IDiag  1:
 E= -323.271191365501     Delta-E=       -0.000000059448 Rises=F Damp=F
 DIIS: error= 1.10D-05 at cycle   4 NSaved=   4.
 NSaved= 4 IEnMin= 4 EnMin= -323.271191365501     IErMin= 4 ErrMin= 1.10D-05
 ErrMax= 1.10D-05  0.00D+00 EMaxC= 1.00D-01 BMatC= 3.55D-08 BMatP= 7.79D-08
 IDIUse=1 WtCom= 1.00D+00 WtEn= 0.00D+00
 Coeff-Com: -0.117D-02 0.145D+00 0.505D+00 0.352D+00
 Coeff:     -0.117D-02 0.145D+00 0.505D+00 0.352D+00
 Gap=     0.152 Goal=   None    Shift=    0.000
 RMSDP=4.71D-07 MaxDP=2.76D-05 DE=-5.94D-08 OVMax= 5.88D-05

 Cycle  10  Pass 1  IDiag  1:
 E= -323.271191395487     Delta-E=       -0.000000029986 Rises=F Damp=F
 DIIS: error= 1.33D-06 at cycle   5 NSaved=   5.
 NSaved= 5 IEnMin= 5 EnMin= -323.271191395487     IErMin= 5 ErrMin= 1.33D-06
 ErrMax= 1.33D-06  0.00D+00 EMaxC= 1.00D-01 BMatC= 5.00D-10 BMatP= 3.55D-08
 IDIUse=1 WtCom= 1.00D+00 WtEn= 0.00D+00
 Coeff-Com: -0.407D-02 0.682D-01 0.251D+00 0.196D+00 0.489D+00
 Coeff:     -0.407D-02 0.682D-01 0.251D+00 0.196D+00 0.489D+00
 Gap=     0.152 Goal=   None    Shift=    0.000
 RMSDP=8.20D-08 MaxDP=3.79D-06 DE=-3.00D-08 OVMax= 8.40D-06

 Cycle  11  Pass 1  IDiag  1:
 E= -323.271191395895     Delta-E=       -0.000000000408 Rises=F Damp=F
 DIIS: error= 5.19D-07 at cycle   6 NSaved=   6.
 NSaved= 6 IEnMin= 6 EnMin= -323.271191395895     IErMin= 6 ErrMin= 5.19D-07
 ErrMax= 5.19D-07  0.00D+00 EMaxC= 1.00D-01 BMatC= 8.73D-11 BMatP= 5.00D-10
 IDIUse=1 WtCom= 1.00D+00 WtEn= 0.00D+00
 Coeff-Com: -0.245D-02 0.324D-01 0.122D+00 0.991D-01 0.329D+00 0.419D+00
 Coeff:     -0.245D-02 0.324D-01 0.122D+00 0.991D-01 0.329D+00 0.419D+00
 Gap=     0.152 Goal=   None    Shift=    0.000
 RMSDP=2.17D-08 MaxDP=1.10D-06 DE=-4.08D-10 OVMax= 2.44D-06

 Cycle  12  Pass 1  IDiag  1:
 E= -323.271191395963     Delta-E=       -0.000000000068 Rises=F Damp=F
 DIIS: error= 1.21D-07 at cycle   7 NSaved=   7.
 NSaved= 7 IEnMin= 7 EnMin= -323.271191395963     IErMin= 7 ErrMin= 1.21D-07
 ErrMax= 1.21D-07  0.00D+00 EMaxC= 1.00D-01 BMatC= 2.76D-12 BMatP= 8.73D-11
 IDIUse=1 WtCom= 1.00D+00 WtEn= 0.00D+00
 Coeff-Com: -0.794D-03 0.997D-02 0.384D-01 0.322D-01 0.125D+00 0.206D+00
 Coeff-Com:  0.589D+00
 Coeff:     -0.794D-03 0.997D-02 0.384D-01 0.322D-01 0.125D+00 0.206D+00
 Coeff:      0.589D+00
 Gap=     0.152 Goal=   None    Shift=    0.000
 RMSDP=6.04D-09 MaxDP=2.35D-07 DE=-6.79D-11 OVMax= 4.41D-07

 SCF Done:  E(RPBE-PBE) =  -323.271191396     A.U. after   12 cycles
            NFock= 12  Conv=0.60D-08     -V/T= 2.0035
 KE= 3.221561015801D+02 PE=-1.304505596688D+03 EE= 3.842905583306D+02
 Leave Link  502 at Thu Aug 26 23:58:59 2021, MaxMem= 17179869184 cpu:       229.0
 (Enter /public3/home/sc51754/softwares/g09e01/l701.exe)
 Compute integral first derivatives.
 ... and contract with generalized density number  0.
 Leave Link  701 at Thu Aug 26 23:59:00 2021, MaxMem= 17179869184 cpu:        76.3
[...]
     33  0.411695D-02  0.000000D+00  0.000000D+00 -0.419992D-03  0.000000D+00
     34  0.000000D+00 -0.155396D-03 -0.281603D-03  0.000000D+00  0.130903D-03
     35  0.000000D+00  0.181713D-03  0.211877D-03  0.000000D+00  0.307447D-03
     36 -0.293354D-01  0.000000D+00  0.000000D+00 -0.141417D-04  0.000000D+00
               26            27            28            29            30 
     26  0.127263D+00
     27  0.000000D+00  0.218254D-01
     28 -0.542140D-04  0.000000D+00  0.286919D+00
     29  0.138839D-03  0.000000D+00  0.105627D+00  0.109747D+00
     30  0.000000D+00 -0.174574D-02  0.000000D+00  0.000000D+00  0.242360D-01
     31  0.272375D-03  0.000000D+00 -0.976215D-03  0.902647D-03  0.000000D+00
     32  0.116537D-02  0.000000D+00 -0.749514D-03  0.426873D-03  0.000000D+00
     33  0.000000D+00 -0.426652D-02  0.000000D+00  0.000000D+00 -0.352780D-03
     34 -0.134138D-02  0.000000D+00  0.584061D-03 -0.595976D-03  0.000000D+00
     35 -0.393476D-03  0.000000D+00  0.317780D-03  0.472063D-03  0.000000D+00
     36  0.000000D+00  0.591555D-03  0.000000D+00  0.000000D+00 -0.300280D-02
               31            32            33            34            35 
     31  0.263565D+00
     32 -0.128395D+00  0.132586D+00
     33  0.000000D+00  0.000000D+00  0.245112D-01
     34  0.104205D-02  0.569459D-03  0.000000D+00  0.530816D-01
     35 -0.220780D-03  0.687001D-03  0.000000D+00  0.170835D-01  0.344723D+00
     36  0.000000D+00  0.000000D+00 -0.332233D-02  0.000000D+00  0.000000D+00
               36 
     36  0.225530D-01
 FormGI is forming the generalized inverse of G from B-inverse, IUseBI=4.
 Leave Link  716 at Fri Aug 27 00:00:07 2021, MaxMem= 17179869184 cpu:        21.6
 (Enter /public3/home/sc51754/softwares/g09e01/l103.exe)

 GradGradGradGradGradGradGradGradGradGradGradGradGradGradGradGradGradGrad
 Berny optimization.
 Red2BG is reusing G-inverse.
 Internal  Forces:  Max     0.000185630 RMS     0.000047756
 Search for a local minimum.
 Step number   1 out of a maximum of    2
 All quantities printed in internal units (Hartrees-Bohrs-Radians)
 Second derivative matrix not updated -- analytic derivatives used.
 ITU=  0
     Eigenvalues ---    0.01261   0.01607   0.01657   0.02019   0.02151
     Eigenvalues ---    0.02588   0.02825   0.03382   0.04115   0.09828
     Eigenvalues ---    0.10379   0.11360   0.12352   0.14776   0.17985
     Eigenvalues ---    0.18780   0.20317   0.22790   0.30871   0.33426
     Eigenvalues ---    0.34216   0.34583   0.34739   0.36192   0.41530
     Eigenvalues ---    0.43038   0.45393   0.48418   0.49315   0.54607
 Angle between quadratic step and forces=  24.96 degrees.
 Linear search not attempted -- first point.
 Iteration  1 RMS(Cart)=  0.00011349 RMS(Int)=  0.00000002
 Iteration  2 RMS(Cart)=  0.00000001 RMS(Int)=  0.00000000
 ITry= 1 IFail=0 DXMaxC= 4.30D-04 DCOld= 1.00D+10 DXMaxT= 3.00D-01 DXLimC= 3.00D+00 Rises=F
 ClnCor:  largest displacement from symmetrization is 2.15D-12 for atom    10.
 Variable       Old X    -DE/DX   Delta X   Delta X   Delta X     New X
                                 (Linear)    (Quad)   (Total)
    R1        2.56600   0.00019   0.00000   0.00049   0.00049   2.56649
    R2        1.84592  -0.00016   0.00000  -0.00035  -0.00035   1.84557
    R3        2.51845   0.00009   0.00000   0.00025   0.00025   2.51870
    R4        2.53959  -0.00004   0.00000  -0.00021  -0.00021   2.53938
    R5        2.65328  -0.00016   0.00000  -0.00057  -0.00057   2.65271
    R6        2.62373   0.00010   0.00000   0.00036   0.00036   2.62409
    R7        2.05745  -0.00002   0.00000  -0.00005  -0.00005   2.05740
    R8        2.62974   0.00002   0.00000   0.00019   0.00019   2.62993
    R9        2.06516   0.00000   0.00000   0.00000   0.00000   2.06517
   R10        2.64668  -0.00006   0.00000  -0.00027  -0.00027   2.64641
   R11        2.06109  -0.00001   0.00000  -0.00004  -0.00004   2.06105
   R12        2.05789  -0.00002   0.00000  -0.00003  -0.00003   2.05786
    A1        1.83842   0.00001   0.00000  -0.00005  -0.00005   1.83837
    A2        2.05104   0.00003   0.00000   0.00010   0.00010   2.05114
    A3        2.04450   0.00000   0.00000  -0.00013  -0.00013   2.04436
    A4        2.07341   0.00002   0.00000   0.00018   0.00018   2.07359
    A5        2.16527  -0.00002   0.00000  -0.00004  -0.00004   2.16523
    A6        2.04847   0.00002   0.00000   0.00010   0.00010   2.04856
    A7        2.09767  -0.00000   0.00000   0.00012   0.00012   2.09779
    A8        2.13705  -0.00002   0.00000  -0.00022  -0.00022   2.13683
    A9        2.15440  -0.00003   0.00000  -0.00013  -0.00013   2.15426
   A10        2.02022   0.00002   0.00000   0.00013   0.00013   2.02035
   A11        2.10857   0.00002   0.00000   0.00001   0.00001   2.10857
   A12        2.08795  -0.00001   0.00000  -0.00011  -0.00011   2.08784
   A13        2.09246  -0.00000   0.00000  -0.00009  -0.00009   2.09237
   A14        2.10277   0.00002   0.00000   0.00020   0.00020   2.10297
   A15        2.05924   0.00002   0.00000   0.00009   0.00009   2.05933
   A16        2.10433  -0.00003   0.00000  -0.00026  -0.00026   2.10408
   A17        2.11961   0.00001   0.00000   0.00017   0.00017   2.11978
    D1        0.00000   0.00000   0.00000  -0.00000   0.00000   0.00000
    D2        3.14159   0.00000   0.00000  -0.00000   0.00000   3.14159
    D3        3.14159  -0.00000   0.00000   0.00000   0.00000   3.14159
    D4       -0.00000  -0.00000   0.00000   0.00000   0.00000   0.00000
    D5        0.00000  -0.00000   0.00000   0.00000   0.00000   0.00000
    D6        3.14159   0.00000   0.00000   0.00000   0.00000   3.14159
    D7        3.14159   0.00000   0.00000  -0.00000   0.00000   3.14159
    D8       -0.00000   0.00000   0.00000  -0.00000   0.00000   0.00000
    D9        0.00000   0.00000   0.00000  -0.00000   0.00000   0.00000
   D10        3.14159   0.00000   0.00000  -0.00000   0.00000   3.14159
   D11       -0.00000  -0.00000   0.00000  -0.00000   0.00000   0.00000
   D12        3.14159  -0.00000   0.00000   0.00000   0.00000   3.14159
   D13        3.14159  -0.00000   0.00000   0.00000   0.00000   3.14159
   D14        0.00000  -0.00000   0.00000   0.00000   0.00000   0.00000
   D15       -0.00000   0.00000   0.00000  -0.00000   0.00000   0.00000
   D16        3.14159   0.00000   0.00000   0.00000   0.00000   3.14159
   D17        3.14159  -0.00000   0.00000  -0.00000   0.00000   3.14159
   D18        0.00000  -0.00000   0.00000   0.00000   0.00000   0.00000
   D19        0.00000  -0.00000   0.00000   0.00000   0.00000   0.00000
   D20        3.14159  -0.00000   0.00000  -0.00000   0.00000   3.14159
   D21        3.14159   0.00000   0.00000  -0.00000   0.00000   3.14159
   D22       -0.00000   0.00000   0.00000  -0.00000   0.00000   0.00000
         Item               Value     Threshold  Converged?
 Maximum Force            0.000186     0.000450     YES
 RMS     Force            0.000048     0.000300     YES
 Maximum Displacement     0.000430     0.001800     YES
 RMS     Displacement     0.000113     0.001200     YES
 Predicted change in Energy=-1.813266D-07
 Optimization completed.
    -- Stationary point found.
                           ----------------------------
                           !   Optimized Parameters   !
                           ! (Angstroms and Degrees)  !
 --------------------------                            --------------------------
 ! Name  Definition              Value          Derivative Info.                !
 --------------------------------------------------------------------------------
 ! R1    R(1,3)                  1.3579         -DE/DX =    0.0002              !
 ! R2    R(1,8)                  0.9768         -DE/DX =   -0.0002              !
 ! R3    R(2,3)                  1.3327         -DE/DX =    0.0001              !
 ! R4    R(2,5)                  1.3439         -DE/DX =    0.0                 !
 ! R5    R(3,4)                  1.4041         -DE/DX =   -0.0002              !
 ! R6    R(4,6)                  1.3884         -DE/DX =    0.0001              !
 ! R7    R(4,9)                  1.0888         -DE/DX =    0.0                 !
 ! R8    R(5,7)                  1.3916         -DE/DX =    0.0                 !
 ! R9    R(5,10)                 1.0928         -DE/DX =    0.0                 !
 ! R10   R(6,7)                  1.4006         -DE/DX =   -0.0001              !
 ! R11   R(6,11)                 1.0907         -DE/DX =    0.0                 !
 ! R12   R(7,12)                 1.089          -DE/DX =    0.0                 !
 ! A1    A(3,1,8)              105.3335         -DE/DX =    0.0                 !
 ! A2    A(3,2,5)              117.5161         -DE/DX =    0.0                 !
 ! A3    A(1,3,2)              117.1412         -DE/DX =    0.0                 !
 ! A4    A(1,3,4)              118.7978         -DE/DX =    0.0                 !
 ! A5    A(2,3,4)              124.061          -DE/DX =    0.0                 !
 ! A6    A(3,4,6)              117.3685         -DE/DX =    0.0                 !
 ! A7    A(3,4,9)              120.1876         -DE/DX =    0.0                 !
 ! A8    A(6,4,9)              122.444          -DE/DX =    0.0                 !
 ! A9    A(2,5,7)              123.4378         -DE/DX =    0.0                 !
 ! A10   A(2,5,10)             115.7502         -DE/DX =    0.0                 !
 ! A11   A(7,5,10)             120.812          -DE/DX =    0.0                 !
 ! A12   A(4,6,7)              119.6308         -DE/DX =    0.0                 !
 ! A13   A(4,6,11)             119.8894         -DE/DX =    0.0                 !
 ! A14   A(7,6,11)             120.4798         -DE/DX =    0.0                 !
 ! A15   A(5,7,6)              117.9857         -DE/DX =    0.0                 !
 ! A16   A(5,7,12)             120.5694         -DE/DX =    0.0                 !
 ! A17   A(6,7,12)             121.4449         -DE/DX =    0.0                 !
 ! D1    D(8,1,3,2)              0.0            -DE/DX =    0.0                 !
 ! D2    D(8,1,3,4)            180.0            -DE/DX =    0.0                 !
 ! D3    D(5,2,3,1)            180.0            -DE/DX =    0.0                 !
 ! D4    D(5,2,3,4)              0.0            -DE/DX =    0.0                 !
 ! D5    D(3,2,5,7)              0.0            -DE/DX =    0.0                 !
 ! D6    D(3,2,5,10)           180.0            -DE/DX =    0.0                 !
 ! D7    D(1,3,4,6)            180.0            -DE/DX =    0.0                 !
 ! D8    D(1,3,4,9)              0.0            -DE/DX =    0.0                 !
 ! D9    D(2,3,4,6)              0.0            -DE/DX =    0.0                 !
 ! D10   D(2,3,4,9)            180.0            -DE/DX =    0.0                 !
 ! D11   D(3,4,6,7)              0.0            -DE/DX =    0.0                 !
 ! D12   D(3,4,6,11)           180.0            -DE/DX =    0.0                 !
 ! D13   D(9,4,6,7)            180.0            -DE/DX =    0.0                 !
 ! D14   D(9,4,6,11)             0.0            -DE/DX =    0.0                 !
 ! D15   D(2,5,7,6)              0.0            -DE/DX =    0.0                 !
 ! D16   D(2,5,7,12)           180.0            -DE/DX =    0.0                 !
 ! D17   D(10,5,7,6)           180.0            -DE/DX =    0.0                 !
 ! D18   D(10,5,7,12)            0.0            -DE/DX =    0.0                 !
 ! D19   D(4,6,7,5)              0.0            -DE/DX =    0.0                 !
 ! D20   D(4,6,7,12)           180.0            -DE/DX =    0.0                 !
 ! D21   D(11,6,7,5)           180.0            -DE/DX =    0.0                 !
 ! D22   D(11,6,7,12)            0.0            -DE/DX =    0.0                 !
 --------------------------------------------------------------------------------
 GradGradGradGradGradGradGradGradGradGradGradGradGradGradGradGradGradGrad

 Leave Link  103 at Fri Aug 27 00:00:08 2021, MaxMem= 17179869184 cpu:        68.3
 (Enter /public3/home/sc51754/softwares/g09e01/l9999.exe)
 1\1\GINC-R2613\Freq\RPBEPBE\Gen\C5H5N1O1\SC51754\27-Aug-2021\0\\#P Geo
 m=AllCheck Guess=TCheck SCRF=Check GenChk RPBEPBE/ChkBas Freq\\HY_PBEP
 BE_PC2_OPT_FREQ\\0,1\O,0.0069185251,2.2668141589,0.\N,-1.1838243791,0.
 3038840542,0.\C,0.0036093123,0.9089519561,0.\C,1.2323680263,0.22959338
 03,0.\C,-1.1958934296,-1.039952642,0.\C,1.1943528055,-1.1583066542,0.\
 C,-0.0415604524,-1.8171656822,0.\H,-0.9344955991,2.5274164344,0.\H,2.1
 668358174,0.7883078491,0.\H,-2.1844328154,-1.5058748812,0.\H,2.1247256
 247,-1.727510556,0.\H,-0.1058224357,-2.9042574176,0.\\Version=EM64L-G0
 9RevE.01\State=1-A'\HF=-323.2712374\RMSD=7.240e-09\RMSF=9.082e-05\Zero
 Point=0.0907176\Thermal=0.0960745\Dipole=0.1893438,-0.4413398,0.\Dipol
 eDeriv=-0.1748415,0.0899894,0.,0.0886166,-1.508297,0.,0.,0.,-0.3369628
 ,-0.4451761,-0.2942648,0.,0.1674866,-0.7635378,0.,0.,0.,-0.2574695,0.2
 570874,-0.1721966,0.,-0.051966,1.6838525,0.,0.,0.,0.1736475,-0.0242789
 ,0.3871596,0.,-0.0442937,-0.4187234,0.,0.,0.,-0.1351779,0.4144986,0.13
 74406,0.,-0.1953642,0.3765699,0.,0.,0.,-0.0228256,0.2417607,0.0600316,
 0.,0.1013912,0.3122658,0.,0.,0.,-0.1003748,-0.4019257,-0.1105097,0.,0.
 0755396,-0.0678102,0.,0.,0.,-0.1432381,0.1791082,-0.0085951,0.,-0.0768
 838,0.3786334,0.,0.,0.,0.3022681,-0.0188605,-0.055616,0.,-0.0549583,0.
 0422022,0.,0.,0.,0.1451538,-0.0606295,-0.0953216,0.,-0.0640181,0.01013
 53,0.,0.,0.,0.1044396,-0.0346951,0.0719534,0.,0.0696017,0.0397912,0.,0
 .,0.,0.1233114,0.0679523,-0.0100708,0.,-0.0151516,-0.0850818,0.,0.,0.,
 0.1472282\Polar=76.6390283,-0.0335417,89.6799228,0.,0.,38.6547672\PG=C
 S [SG(C5H5N1O1)]\NImag=0\\0.54370833,-0.08823390,0.43671225,0.,0.,0.03
 384946,-0.00765535,-0.03232553,0.,0.44143554,-0.06216870,-0.05168290,0
 .,0.12123764,0.59729201,0.,0.,0.00710283,0.,0.,0.08241912,-0.10107969,
 -0.01167575,0.,-0.28441948,-0.05678369,0.,0.67448904,0.02995003,-0.280
 32419,0.,-0.07983866,-0.15727848,0.,-0.02738185,0.67590903,0.,0.,-0.04
 736281,0.,0.,-0.06544671,0.,0.,0.16987063,-0.00008497,0.01341882,0.,-0
 .05888479,-0.02824914,0.,-0.25421651,0.09823301,0.,0.67525999,0.047706
 15,-0.04021277,0.,0.01402567,0.05356720,0.,0.03685150,-0.14233564,0.,0
 .04808750,0.68844484,0.,0.,0.00776032,0.,0.,0.01758321,0.,0.,-0.069317
 91,0.,0.,0.11237689,-0.00418670,0.00119221,0.,-0.10720009,-0.00900174,
 0.,0.01208794,-0.04570635,0.,-0.01399920,0.02217668,0.,0.71154581,0.00
 776614,0.00086138,0.,0.00434776,-0.32946256,0.,-0.08921125,-0.04562772
 ,0.,0.02990313,-0.04373682,0.,0.03020052,0.63969981,0.,0.,0.00981592,0
 .,0.,-0.05820313,0.,0.,-0.00371778,0.,0.,-0.00473985,0.,0.,0.14445377,
 -0.01032592,0.00351497,0.,-0.01598073,-0.03337204,0.,0.03978454,0.0289
 1559,0.,-0.11897606,0.01909754,0.,-0.05773468,0.02731854,0.,0.68236751
 ,-0.00571253,0.00639449,0.,-0.02850848,-0.04464283,0.,0.07338528,-0.03
 032142,0.,-0.03130402,-0.35012356,0.,-0.01580740,0.05880554,0.,-0.0354
 4522,0.66764586,0.,0.,0.00417735,0.,0.,-0.00733757,0.,0.,0.00224910,0.
 ,0.,-0.05266608,0.,0.,0.00753675,0.,0.,0.13073122,0.00748006,-0.003982
 96,0.,0.03653298,0.07143273,0.,-0.06814710,-0.00011900,0.,0.02616551,-
 0.06423845,0.,-0.26793756,0.06121455,0.,-0.27307863,-0.05497966,0.,0.6
 2571681,-0.00211043,-0.00555042,0.,0.02088553,-0.04927765,0.,0.0125416
 4,0.00404257,0.,-0.03229380,-0.02446289,0.,0.11875255,-0.17436986,0.,-
 0.10942951,-0.16050424,0.,0.00333633,0.71800346,0.,0.,-0.00176927,0.,0
 .,0.02124695,0.,0.,-0.00855875,0.,0.,0.00666332,0.,0.,-0.06226652,0.,0
 .,-0.05772452,0.,0.,0.11267929,-0.43001701,0.11851649,0.,-0.00050841,-
 0.00404928,0.,-0.00433735,0.01344545,0.,0.00285940,-0.00212866,0.,-0.0
 0160688,-0.00150774,0.,0.00000826,0.00101664,0.,-0.00061790,-0.0004092
 0,0.,0.43417930,0.07291583,-0.06534793,0.,0.00186386,0.00730452,0.,0.0
 5217775,-0.02670237,0.,-0.00219892,-0.00693148,0.,-0.00103209,-0.00172
 643,0.,0.00241423,0.00053423,0.,-0.00105436,0.00110147,0.,-0.12482661,
 0.09162720,0.,0.,-0.01110541,0.,0.,-0.00368167,0.,0.,0.00115900,0.,0.,
 0.00347062,0.,0.,-0.00072193,0.,0.,0.00143870,0.,0.,0.00056406,0.,0.,0
 .01025161,0.00150536,-0.00045850,0.,-0.00510093,0.00313848,0.,-0.01626
 386,-0.01792228,0.,-0.25781914,-0.11849736,0.,0.00039037,0.00230659,0.
 ,0.00399614,0.00148915,0.,0.00240935,0.00067550,0.,0.00001042,-0.00007
 028,0.,0.27006110,-0.00036044,0.00086225,0.,0.00487910,-0.00020664,0.,
 0.01180750,0.01041262,0.,-0.11977827,-0.12323789,0.,0.00029866,-0.0014
 2657,0.,-0.02655395,-0.00985571,0.,0.00154645,-0.00483691,0.,-0.000309
 38,0.00011488,0.,0.12959355,0.12726324,0.,0.,-0.00153784,0.,0.,0.00550
 207,0.,0.,0.00161692,0.,0.,-0.03078673,0.,0.,-0.00032516,0.,0.,0.00147
 103,0.,0.,0.00830843,0.,0.,-0.00065342,0.,0.,0.02182542,-0.00015786,-0
 .00012281,0.,0.00487009,-0.00569820,0.,0.00294915,0.00177029,0.,0.0004
 0426,0.00065810,0.,-0.27466756,-0.09344247,0.,-0.00297702,0.00409669,0
 .,-0.01699357,-0.01258084,0.,0.00012358,0.00017782,0.,-0.00007831,-0.0
 0005421,0.,0.28691938,-0.00114868,-0.00099400,0.,-0.02930449,-0.024298
 58,0.,-0.00072345,-0.00399228,0.,0.00004765,-0.00070241,0.,-0.09247422
 ,-0.09006865,0.,0.00300333,-0.00148261,0.,0.01486995,0.01043881,0.,0.0
 0000128,0.00031447,0.,-0.00020541,0.00013884,0.,0.10562737,0.10974748,
 0.,0.,0.00062100,0.,0.,-0.00373486,0.,0.,0.00985371,0.,0.,-0.00078217,
 0.,0.,-0.03791517,0.,0.,0.00703479,0.,0.,0.00607543,0.,0.,-0.00028742,
 0.,0.,-0.00174574,0.,0.,0.02423601,-0.00001129,0.00006786,0.,0.0004792
 6,-0.00063066,0.,0.00195703,-0.00111920,0.,0.00365424,-0.00199075,0.,-
 0.00377516,-0.00411282,0.,-0.24962302,0.11924202,0.,-0.01713291,0.0160
 6959,0.,0.00006198,-0.00008561,0.,0.00075860,0.00027238,0.,-0.00097621
 ,0.00090265,0.,0.26356543,0.00171751,-0.00073465,0.,-0.00043999,-0.000
 53553,0.,-0.00168427,-0.00473584,0.,0.02660684,-0.01122506,0.,-0.00314
 131,-0.00069470,0.,0.11863841,-0.12739118,0.,-0.01283488,0.01095197,0.
 ,0.00006930,-0.00050045,0.,-0.00035688,0.00116537,0.,-0.00074951,0.000
 42687,0.,-0.12839466,0.13258620,0.,0.,-0.00015775,0.,0.,-0.00310935,0.
 ,0.,0.00915577,0.,0.,0.00428017,0.,0.,0.00705337,0.,0.,-0.03748873,0.,
 0.,0.00411695,0.,0.,-0.00041999,0.,0.,-0.00426652,0.,0.,-0.00035278,0.
 ,0.,0.02451119,0.00082504,0.00008910,0.,-0.00356810,0.00414461,0.,-0.0
 0280372,-0.00022702,0.,-0.00436273,-0.00174792,0.,0.00708373,0.0252170
 4,0.,0.00253960,-0.02747246,0.,-0.05439705,-0.01543735,0.,-0.00015540,
 -0.00028160,0.,0.00013090,-0.00134138,0.,0.00058406,-0.00059598,0.,0.0
 0104205,0.00056946,0.,0.05308162,-0.00032097,0.00001647,0.,0.00317758,
 -0.00077857,0.,0.00069660,0.00095374,0.,-0.00247280,0.00095647,0.,-0.0
 0545751,-0.01225342,0.,0.00189811,-0.00905858,0.,-0.01519068,-0.325536
 30,0.,0.00018171,0.00021188,0.,0.00030745,-0.00039348,0.,0.00031778,0.
 00047206,0.,-0.00022078,0.00068700,0.,0.01708350,0.34472271,0.,0.,-0.0
 0139381,0.,0.,0.00765912,0.,0.,0.00049884,0.,0.,0.00615820,0.,0.,-0.00
 097026,0.,0.,0.00057796,0.,0.,-0.02933537,0.,0.,-0.00001414,0.,0.,0.00
 059155,0.,0.,-0.00300280,0.,0.,-0.00332233,0.,0.,0.02255305\\0.0001479
 7,-0.00022530,0.,0.00003085,0.00009516,0.,-0.00023584,0.00018038,0.,0.
 00015598,-0.00016956,0.,0.00007557,-0.00003098,0.,0.00002790,0.0001575
 2,0.,-0.00009180,-0.00004005,0.,-0.00016570,0.00003445,0.,0.00000849,0
 .00002531,0.,0.00000669,-0.00000766,0.,0.00000996,-0.00000208,0.,0.000
 02994,-0.00001719,0.\\\@


 AND HERE I AM, FOR ALL MY LORE,
 THE WRETCHED FOOL I WAS BEFORE.
 CALLED MASTER OF ARTS, AND DOCTOR TO BOOT,
 FOR TEN YEARS ALMOST I CONFUTE
 AND UP AND DOWN, WHEREVER IT GOES
 I DRAG MY STUDENTS BY THE NOSE --
 AND SEE THAT FOR ALL OUR SCIENCE AND ART
 WE CAN KNOW NOTHING.  IT BURNS MY HEART.

                                       -- FAUST
 Job cpu time:       0 days  0 hours 36 minutes 50.8 seconds.
 File lengths (MBytes):  RWF=     80 Int=      0 D2E=      0 Chk=      7 Scr=      1
 Normal termination of Gaussian 09 at Fri Aug 27 00:00:08 2021.
