 Entering Gaussian System, Link 0=g09
 AtFile(1): pc-2.gbs
            -H     0
            S    4   1.00
                  0.754230D+02           0.240650D-02
                  0.113500D+02           0.184870D-01
                  0.259930D+01           0.897420D-01
                  0.735130D+00           0.281110D+00
            S    1   1.00
                  0.231670D+00           0.100000D+01
            S    1   1.00
                  0.741470D-01           0.100000D+01
            P    1   1.00
                  0.160000D+01           0.100000D+01
            P    1   1.00
                  0.450000D+00           0.100000D+01
            D    1   1.00
                  0.125000D+01           0.100000D+01
            ****
            -C     0
            S    7   1.00
                  0.785710D+04           0.568250D-03
                  0.117870D+04           0.439150D-02
                  0.268320D+03           0.225040D-01
                  0.759480D+02           0.866530D-01
                  0.245590D+02           0.244050D+00
                  0.862120D+01           0.441480D+00
                  0.312780D+01           0.353320D+00
            S    7   1.00
                  0.117870D+04          -0.594920D-06
                  0.268320D+03          -0.627480D-04
                  0.759480D+02          -0.757730D-03
                  0.245590D+02          -0.733080D-02
                  0.862120D+01          -0.389320D-01
                  0.312780D+01          -0.889080D-01
                  0.822020D+00           0.216890D+00
            S    1   1.00
                  0.330170D+00           0.100000D+01
            S    1   1.00
                  0.114630D+00           0.100000D+01
            P    4   1.00
                  0.337750D+02           0.602940D-02
                  0.767660D+01           0.432280D-01
                  0.223570D+01           0.163010D+00
                  0.764470D+00           0.365040D+00
            P    1   1.00
                  0.262320D+00           0.100000D+01
            P    1   1.00
                  0.846380D-01           0.100000D+01
            D    1   1.00
                  0.140000D+01           0.100000D+01
            D    1   1.00
                  0.450000D+00           0.100000D+01
            F    1   1.00
                  0.950000D+00           0.100000D+01
            ****
            -N     0
            S    7   1.00
                  0.111010D+05           0.545700D-03
                  0.166530D+04           0.421810D-02
                  0.379080D+03           0.216450D-01
                  0.107300D+03           0.837760D-01
                  0.347470D+02           0.238810D+00
                  0.122490D+02           0.439940D+00
                  0.447430D+01           0.363640D+00
            S    7   1.00
                  0.166530D+04          -0.150060D-05
                  0.379080D+03          -0.587530D-04
                  0.107300D+03          -0.774530D-03
                  0.347470D+02          -0.721610D-02
                  0.122490D+02          -0.393380D-01
                  0.447430D+01          -0.906110D-01
                  0.124040D+01           0.198820D+00
            S    1   1.00
                  0.487430D+00           0.100000D+01
            S    1   1.00
                  0.164840D+00           0.100000D+01
            P    4   1.00
                  0.479340D+02           0.617060D-02
                  0.109990D+02           0.442600D-01
                  0.324720D+01           0.168250D+00
                  0.111140D+01           0.368480D+00
            P    1   1.00
                  0.379880D+00           0.100000D+01
            P    1   1.00
                  0.120680D+00           0.100000D+01
            D    1   1.00
                  0.180000D+01           0.100000D+01
            D    1   1.00
                  0.550000D+00           0.100000D+01
            F    1   1.00
                  0.102000D+01           0.100000D+01
            ****
            -O     0
            S    7   1.00
                  0.147820D+05           0.535190D-03
                  0.221730D+04           0.413750D-02
                  0.504740D+03           0.212450D-01
                  0.142870D+03           0.824530D-01
                  0.463000D+02           0.236710D+00
                  0.163370D+02           0.440390D+00
                  0.598280D+01           0.364650D+00
            S    7   1.00
                  0.221730D+04          -0.192750D-05
                  0.504740D+03          -0.579640D-04
                  0.142870D+03          -0.794940D-03
                  0.463000D+02          -0.731250D-02
                  0.163370D+02          -0.405740D-01
                  0.598280D+01          -0.915940D-01
                  0.167180D+01           0.209400D+00
            S    1   1.00
                  0.646620D+00           0.100000D+01
            S    1   1.00
                  0.216690D+00           0.100000D+01
            P    4   1.00
                  0.604240D+02           0.689490D-02
                  0.139350D+02           0.490050D-01
                  0.415310D+01           0.182550D+00
                  0.141580D+01           0.376330D+00
            P    1   1.00
                  0.475490D+00           0.100000D+01
            P    1   1.00
                  0.145290D+00           0.100000D+01
            D    1   1.00
                  0.220000D+01           0.100000D+01
            D    1   1.00
                  0.650000D+00           0.100000D+01
            F    1   1.00
                  0.110000D+01           0.100000D+01
            ****
 Initial command:
 /gpfs/share/home/1801110325/software/g09e01/l1.exe "./Gau-31920.inp" -scrdir="./"
 Entering Link 1 = /gpfs/share/home/1801110325/software/g09e01/l1.exe PID=     31927.
  
 Copyright (c) 1988,1990,1992,1993,1995,1998,2003,2009,2015,
            Gaussian, Inc.  All Rights Reserved.
  
 This is part of the Gaussian(R) 09 program.  It is based on
 the Gaussian(R) 03 system (copyright 2003, Gaussian, Inc.),
 the Gaussian(R) 98 system (copyright 1998, Gaussian, Inc.),
 the Gaussian(R) 94 system (copyright 1995, Gaussian, Inc.),
 the Gaussian 92(TM) system (copyright 1992, Gaussian, Inc.),
 the Gaussian 90(TM) system (copyright 1990, Gaussian, Inc.),
 the Gaussian 88(TM) system (copyright 1988, Gaussian, Inc.),
 the Gaussian 86(TM) system (copyright 1986, Carnegie Mellon
 University), and the Gaussian 82(TM) system (copyright 1983,
 Carnegie Mellon University). Gaussian is a federally registered
 trademark of Gaussian, Inc.
  
 This software contains proprietary and confidential information,
 including trade secrets, belonging to Gaussian, Inc.
  
 This software is provided under written license and may be
 used, copied, transmitted, or stored only in accord with that
 written license.
  
 The following legend is applicable only to US Government
 contracts under FAR:
  
                    RESTRICTED RIGHTS LEGEND
  
 Use, reproduction and disclosure by the US Government is
 subject to restrictions as set forth in subparagraphs (a)
 and (c) of the Commercial Computer Software - Restricted
 Rights clause in FAR 52.227-19.
  
 Gaussian, Inc.
 340 Quinnipiac St., Bldg. 40, Wallingford CT 06492
  
  
 ---------------------------------------------------------------
 Warning -- This program may not be used in any manner that
 competes with the business of Gaussian, Inc. or will provide
 assistance to any competitor of Gaussian, Inc.  The licensee
 of this program is prohibited from giving any competitor of
 Gaussian, Inc. access to this program.  By using this program,
 the user acknowledges that Gaussian, Inc. is engaged in the
 business of creating and licensing software in the field of
 computational chemistry and represents and warrants to the
 licensee that it is not a competitor of Gaussian, Inc. and that
 it will not use this program in any manner prohibited above.
 ---------------------------------------------------------------
  

 Cite this work as:
 Gaussian 09, Revision E.01,
 M. J. Frisch, G. W. Trucks, H. B. Schlegel, G. E. Scuseria, 
 M. A. Robb, J. R. Cheeseman, G. Scalmani, V. Barone, B. Mennucci, 
 G. A. Petersson, H. Nakatsuji, M. Caricato, X. Li, H. P. Hratchian, 
 A. F. Izmaylov, J. Bloino, G. Zheng, J. L. Sonnenberg, M. Hada, 
 M. Ehara, K. Toyota, R. Fukuda, J. Hasegawa, M. Ishida, T. Nakajima, 
 Y. Honda, O. Kitao, H. Nakai, T. Vreven, J. A. Montgomery, Jr., 
 J. E. Peralta, F. Ogliaro, M. Bearpark, J. J. Heyd, E. Brothers, 
 K. N. Kudin, V. N. Staroverov, T. Keith, R. Kobayashi, J. Normand, 
 K. Raghavachari, A. Rendell, J. C. Burant, S. S. Iyengar, J. Tomasi, 
 M. Cossi, N. Rega, J. M. Millam, M. Klene, J. E. Knox, J. B. Cross, 
 V. Bakken, C. Adamo, J. Jaramillo, R. Gomperts, R. E. Stratmann, 
 O. Yazyev, A. J. Austin, R. Cammi, C. Pomelli, J. W. Ochterski, 
 R. L. Martin, K. Morokuma, V. G. Zakrzewski, G. A. Voth, 
 P. Salvador, J. J. Dannenberg, S. Dapprich, A. D. Daniels, 
 O. Farkas, J. B. Foresman, J. V. Ortiz, J. Cioslowski, 
 and D. J. Fox, Gaussian, Inc., Wallingford CT, 2013.
 
 ******************************************
 Gaussian 09:  EM64L-G09RevE.01 30-Nov-2015
                 2-Sep-2021 
 ******************************************
 %nprocshared=6
 Will use up to    6 processors via shared memory.
 %mem=10GB
 %chk=HY_TPSSh_PC2_OPT_FREQ.chk
 ----------------------------------------------------------
 #p opt freq TPSSh/gen SCF(novaracc,noincfock) int=acc2e=12
 ----------------------------------------------------------
 1/14=-1,18=20,19=15,26=3,38=1/1,3;
 2/9=110,12=2,17=6,18=5,40=1/2;
 3/5=7,11=2,16=1,25=1,30=1,71=1,74=-35/1,2,3;
 4//1;
 5/5=100002,38=1,87=12/2;
 6/7=2,8=2,9=2,10=2,28=1/1;
 7/87=12/1,2,3,16;
 1/14=-1,18=20,19=15,26=3/3(2);
 2/9=110/2;
 99//99;
 2/9=110/2;
 3/5=7,6=1,11=2,16=1,25=1,30=1,71=1,74=-35,82=7/1,2,3;
 4/5=5,16=3,69=1/1;
 5/5=100002,38=1,87=12/2;
 7/87=12/1,2,3,16;
 1/14=-1,18=20,19=15,26=3/3(-5);
 2/9=110/2;
 6/7=2,8=2,9=2,10=2,19=2,28=1/1;
 99/9=1/99;
 Leave Link    1 at Thu Sep  2 22:19:24 2021, MaxMem=  1342177280 cpu:         2.8
 (Enter /gpfs/share/home/1801110325/software/g09e01/l101.exe)
 ---------------------
 HY_TPSSh_PC2_OPT_FREQ
 ---------------------
 Symbolic Z-matrix:
 Charge =  0 Multiplicity = 1
 O                     0.00837   2.23974   0. 
 N                    -1.17143   0.29602   0. 
 C                     0.        0.89831   0. 
 C                     1.21926   0.22535   0. 
 C                    -1.18415  -1.03535   0. 
 C                     1.18363  -1.14867   0. 
 C                    -0.04131  -1.80488   0. 
 H                    -0.91394   2.51588   0. 
 H                     2.14363   0.78426   0. 
 H                    -2.16362  -1.50192   0. 
 H                     2.10659  -1.71377   0. 
 H                    -0.10426  -2.88308   0. 
 
 NAtoms=     12 NQM=       12 NQMF=       0 NMMI=      0 NMMIF=      0
                NMic=       0 NMicF=      0.
                    Isotopes and Nuclear Properties:
 (Nuclear quadrupole moments (NQMom) in fm**2, nuclear magnetic moments (NMagM)
  in nuclear magnetons)

  Atom         1           2           3           4           5           6           7           8           9          10
 IAtWgt=          16          14          12          12          12          12          12           1           1           1
 AtmWgt=  15.9949146  14.0030740  12.0000000  12.0000000  12.0000000  12.0000000  12.0000000   1.0078250   1.0078250   1.0078250
 NucSpn=           0           2           0           0           0           0           0           1           1           1
 AtZEff=   0.0000000   0.0000000   0.0000000   0.0000000   0.0000000   0.0000000   0.0000000   0.0000000   0.0000000   0.0000000
 NQMom=    0.0000000   2.0440000   0.0000000   0.0000000   0.0000000   0.0000000   0.0000000   0.0000000   0.0000000   0.0000000
 NMagM=    0.0000000   0.4037610   0.0000000   0.0000000   0.0000000   0.0000000   0.0000000   2.7928460   2.7928460   2.7928460
 AtZNuc=   8.0000000   7.0000000   6.0000000   6.0000000   6.0000000   6.0000000   6.0000000   1.0000000   1.0000000   1.0000000

  Atom        11          12
 IAtWgt=           1           1
 AtmWgt=   1.0078250   1.0078250
 NucSpn=           1           1
 AtZEff=   0.0000000   0.0000000
 NQMom=    0.0000000   0.0000000
 NMagM=    2.7928460   2.7928460
 AtZNuc=   1.0000000   1.0000000
 Leave Link  101 at Thu Sep  2 22:19:25 2021, MaxMem=  1342177280 cpu:         1.4
 (Enter /gpfs/share/home/1801110325/software/g09e01/l103.exe)

 GradGradGradGradGradGradGradGradGradGradGradGradGradGradGradGradGradGrad
 Berny optimization.
 Initialization pass.
                           ----------------------------
                           !    Initial Parameters    !
                           ! (Angstroms and Degrees)  !
 --------------------------                            --------------------------
 ! Name  Definition              Value          Derivative Info.                !
 --------------------------------------------------------------------------------
 ! R1    R(1,3)                  1.3415         estimate D2E/DX2                !
 ! R2    R(1,8)                  0.9628         estimate D2E/DX2                !
 ! R3    R(2,3)                  1.3172         estimate D2E/DX2                !
 ! R4    R(2,5)                  1.3314         estimate D2E/DX2                !
 ! R5    R(3,4)                  1.3927         estimate D2E/DX2                !
 ! R6    R(4,6)                  1.3745         estimate D2E/DX2                !
 ! R7    R(4,9)                  1.0802         estimate D2E/DX2                !
 ! R8    R(5,7)                  1.3778         estimate D2E/DX2                !
 ! R9    R(5,10)                 1.0849         estimate D2E/DX2                !
 ! R10   R(6,7)                  1.3896         estimate D2E/DX2                !
 ! R11   R(6,11)                 1.0822         estimate D2E/DX2                !
 ! R12   R(7,12)                 1.08           estimate D2E/DX2                !
 ! A1    A(3,1,8)              106.3104         estimate D2E/DX2                !
 ! A2    A(3,2,5)              117.7571         estimate D2E/DX2                !
 ! A3    A(1,3,2)              117.5674         estimate D2E/DX2                !
 ! A4    A(1,3,4)              118.5383         estimate D2E/DX2                !
 ! A5    A(2,3,4)              123.8942         estimate D2E/DX2                !
 ! A6    A(3,4,6)              117.4104         estimate D2E/DX2                !
 ! A7    A(3,4,9)              119.945          estimate D2E/DX2                !
 ! A8    A(6,4,9)              122.6446         estimate D2E/DX2                !
 ! A9    A(2,5,7)              123.4071         estimate D2E/DX2                !
 ! A10   A(2,5,10)             116.018          estimate D2E/DX2                !
 ! A11   A(7,5,10)             120.5749         estimate D2E/DX2                !
 ! A12   A(4,6,7)              119.6636         estimate D2E/DX2                !
 ! A13   A(4,6,11)             119.9925         estimate D2E/DX2                !
 ! A14   A(7,6,11)             120.3439         estimate D2E/DX2                !
 ! A15   A(5,7,6)              117.8675         estimate D2E/DX2                !
 ! A16   A(5,7,12)             120.6134         estimate D2E/DX2                !
 ! A17   A(6,7,12)             121.519          estimate D2E/DX2                !
 ! D1    D(8,1,3,2)              0.0            estimate D2E/DX2                !
 ! D2    D(8,1,3,4)            180.0            estimate D2E/DX2                !
 ! D3    D(5,2,3,1)            180.0            estimate D2E/DX2                !
 ! D4    D(5,2,3,4)              0.0            estimate D2E/DX2                !
 ! D5    D(3,2,5,7)              0.0            estimate D2E/DX2                !
 ! D6    D(3,2,5,10)           180.0            estimate D2E/DX2                !
 ! D7    D(1,3,4,6)            180.0            estimate D2E/DX2                !
 ! D8    D(1,3,4,9)              0.0            estimate D2E/DX2                !
 ! D9    D(2,3,4,6)              0.0            estimate D2E/DX2                !
 ! D10   D(2,3,4,9)            180.0            estimate D2E/DX2                !
 ! D11   D(3,4,6,7)              0.0            estimate D2E/DX2                !
 ! D12   D(3,4,6,11)           180.0            estimate D2E/DX2                !
 ! D13   D(9,4,6,7)            180.0            estimate D2E/DX2                !
 ! D14   D(9,4,6,11)             0.0            estimate D2E/DX2                !
 ! D15   D(2,5,7,6)              0.0            estimate D2E/DX2                !
 ! D16   D(2,5,7,12)           180.0            estimate D2E/DX2                !
 ! D17   D(10,5,7,6)           180.0            estimate D2E/DX2                !
 ! D18   D(10,5,7,12)            0.0            estimate D2E/DX2                !
 ! D19   D(4,6,7,5)              0.0            estimate D2E/DX2                !
 ! D20   D(4,6,7,12)           180.0            estimate D2E/DX2                !
 ! D21   D(11,6,7,5)           180.0            estimate D2E/DX2                !
 ! D22   D(11,6,7,12)            0.0            estimate D2E/DX2                !
 --------------------------------------------------------------------------------
 Trust Radius=3.00D-01 FncErr=1.00D-07 GrdErr=1.00D-06
 Number of steps in this run=     61 maximum allowed number of steps=    100.
 GradGradGradGradGradGradGradGradGradGradGradGradGradGradGradGradGradGrad

 Leave Link  103 at Thu Sep  2 22:19:25 2021, MaxMem=  1342177280 cpu:         0.7
 (Enter /gpfs/share/home/1801110325/software/g09e01/l202.exe)
                          Input orientation:                          
 ---------------------------------------------------------------------
 Center     Atomic      Atomic             Coordinates (Angstroms)
 Number     Number       Type             X           Y           Z
 ---------------------------------------------------------------------
      1          8           0        0.008372    2.239736    0.000000
      2          7           0       -1.171427    0.296023    0.000000
      3          6           0        0.000000    0.898309    0.000000
      4          6           0        1.219264    0.225352    0.000000
      5          6           0       -1.184145   -1.035351    0.000000
      6          6           0        1.183632   -1.148671    0.000000
      7          6           0       -0.041314   -1.804878    0.000000
      8          1           0       -0.913944    2.515883    0.000000
      9          1           0        2.143627    0.784264    0.000000
     10          1           0       -2.163617   -1.501920    0.000000
     11          1           0        2.106589   -1.713772    0.000000
     12          1           0       -0.104256   -2.883075    0.000000
 ---------------------------------------------------------------------
                    Distance matrix (angstroms):
                    1          2          3          4          5
     1  O    0.000000
     2  N    2.273752   0.000000
     3  C    1.341453   1.317190   0.000000
     4  C    2.350320   2.391735   1.392651   0.000000
     5  C    3.485440   1.331435   2.267430   2.713991   0.000000
     6  C    3.586438   2.762869   2.364553   1.374485   2.370487
     7  C    4.044919   2.385569   2.703503   2.389747   1.377764
     8  H    0.962769   2.234743   1.857913   3.130033   3.561498
     9  H    2.584127   3.350815   2.146659   1.080199   3.792765
    10  H    4.326376   2.053543   3.231461   3.798335   1.084920
    11  H    4.475795   3.845083   3.355694   2.132498   3.359938
    12  H    5.124049   3.353434   3.782821   3.378465   2.140151
                    6          7          8          9         10
     6  C    0.000000
     7  C    1.389640   0.000000
     8  H    4.222414   4.407999   0.000000
     9  H    2.158200   3.387864   3.513865   0.000000
    10  H    3.365837   2.143818   4.207662   4.876370   0.000000
    11  H    1.082215   2.149834   5.197461   2.498311   4.275458
    12  H    2.160281   1.080033   5.459335   4.301436   2.479628
                   11         12
    11  H    0.000000
    12  H    2.501021   0.000000
 Stoichiometry    C5H5NO
 Framework group  CS[SG(C5H5NO)]
 Deg. of freedom    21
 Full point group                 CS      NOp   2
 Largest Abelian subgroup         CS      NOp   2
 Largest concise Abelian subgroup C1      NOp   1
                         Standard orientation:                         
 ---------------------------------------------------------------------
 Center     Atomic      Atomic             Coordinates (Angstroms)
 Number     Number       Type             X           Y           Z
 ---------------------------------------------------------------------
      1          8           0        0.008372    2.239736    0.000000
      2          7           0       -1.171427    0.296023    0.000000
      3          6           0       -0.000000    0.898309    0.000000
      4          6           0        1.219264    0.225352    0.000000
      5          6           0       -1.184145   -1.035351    0.000000
      6          6           0        1.183632   -1.148671    0.000000
      7          6           0       -0.041314   -1.804878    0.000000
      8          1           0       -0.913944    2.515883    0.000000
      9          1           0        2.143627    0.784264    0.000000
     10          1           0       -2.163617   -1.501920    0.000000
     11          1           0        2.106589   -1.713772    0.000000
     12          1           0       -0.104257   -2.883075    0.000000
 ---------------------------------------------------------------------
 Rotational constants (GHZ):      5.9244098      2.8053779      1.9038502
 Leave Link  202 at Thu Sep  2 22:19:25 2021, MaxMem=  1342177280 cpu:         1.0
 (Enter /gpfs/share/home/1801110325/software/g09e01/l301.exe)
 General basis read from cards:  (5D, 7F)
 Centers:       8      9     10     11     12
 S 4 1.00
     Exponent=  7.5423000000D+01 Coefficients=  2.4065000000D-03
     Exponent=  1.1350000000D+01 Coefficients=  1.8487000000D-02
     Exponent=  2.5993000000D+00 Coefficients=  8.9742000000D-02
     Exponent=  7.3513000000D-01 Coefficients=  2.8111000000D-01
 S 1 1.00
     Exponent=  2.3167000000D-01 Coefficients=  1.0000000000D+00
 S 1 1.00
     Exponent=  7.4147000000D-02 Coefficients=  1.0000000000D+00
 P 1 1.00
     Exponent=  1.6000000000D+00 Coefficients=  1.0000000000D+00
 P 1 1.00
     Exponent=  4.5000000000D-01 Coefficients=  1.0000000000D+00
 D 1 1.00
     Exponent=  1.2500000000D+00 Coefficients=  1.0000000000D+00
 ****
 Centers:       3      4      5      6      7
 S 7 1.00
     Exponent=  7.8571000000D+03 Coefficients=  5.6825000000D-04
     Exponent=  1.1787000000D+03 Coefficients=  4.3915000000D-03
     Exponent=  2.6832000000D+02 Coefficients=  2.2504000000D-02
     Exponent=  7.5948000000D+01 Coefficients=  8.6653000000D-02
     Exponent=  2.4559000000D+01 Coefficients=  2.4405000000D-01
     Exponent=  8.6212000000D+00 Coefficients=  4.4148000000D-01
     Exponent=  3.1278000000D+00 Coefficients=  3.5332000000D-01
 S 7 1.00
     Exponent=  1.1787000000D+03 Coefficients= -5.9492000000D-07
     Exponent=  2.6832000000D+02 Coefficients= -6.2748000000D-05
     Exponent=  7.5948000000D+01 Coefficients= -7.5773000000D-04
     Exponent=  2.4559000000D+01 Coefficients= -7.3308000000D-03
     Exponent=  8.6212000000D+00 Coefficients= -3.8932000000D-02
     Exponent=  3.1278000000D+00 Coefficients= -8.8908000000D-02
     Exponent=  8.2202000000D-01 Coefficients=  2.1689000000D-01
 S 1 1.00
     Exponent=  3.3017000000D-01 Coefficients=  1.0000000000D+00
 S 1 1.00
     Exponent=  1.1463000000D-01 Coefficients=  1.0000000000D+00
 P 4 1.00
     Exponent=  3.3775000000D+01 Coefficients=  6.0294000000D-03
     Exponent=  7.6766000000D+00 Coefficients=  4.3228000000D-02
     Exponent=  2.2357000000D+00 Coefficients=  1.6301000000D-01
     Exponent=  7.6447000000D-01 Coefficients=  3.6504000000D-01
 P 1 1.00
     Exponent=  2.6232000000D-01 Coefficients=  1.0000000000D+00
 P 1 1.00
     Exponent=  8.4638000000D-02 Coefficients=  1.0000000000D+00
 D 1 1.00
     Exponent=  1.4000000000D+00 Coefficients=  1.0000000000D+00
 D 1 1.00
     Exponent=  4.5000000000D-01 Coefficients=  1.0000000000D+00
 F 1 1.00
     Exponent=  9.5000000000D-01 Coefficients=  1.0000000000D+00
 ****
 Centers:       2
 S 7 1.00
     Exponent=  1.1101000000D+04 Coefficients=  5.4570000000D-04
     Exponent=  1.6653000000D+03 Coefficients=  4.2181000000D-03
     Exponent=  3.7908000000D+02 Coefficients=  2.1645000000D-02
     Exponent=  1.0730000000D+02 Coefficients=  8.3776000000D-02
     Exponent=  3.4747000000D+01 Coefficients=  2.3881000000D-01
     Exponent=  1.2249000000D+01 Coefficients=  4.3994000000D-01
     Exponent=  4.4743000000D+00 Coefficients=  3.6364000000D-01
 S 7 1.00
     Exponent=  1.6653000000D+03 Coefficients= -1.5006000000D-06
     Exponent=  3.7908000000D+02 Coefficients= -5.8753000000D-05
     Exponent=  1.0730000000D+02 Coefficients= -7.7453000000D-04
     Exponent=  3.4747000000D+01 Coefficients= -7.2161000000D-03
     Exponent=  1.2249000000D+01 Coefficients= -3.9338000000D-02
     Exponent=  4.4743000000D+00 Coefficients= -9.0611000000D-02
     Exponent=  1.2404000000D+00 Coefficients=  1.9882000000D-01
 S 1 1.00
     Exponent=  4.8743000000D-01 Coefficients=  1.0000000000D+00
 S 1 1.00
     Exponent=  1.6484000000D-01 Coefficients=  1.0000000000D+00
 P 4 1.00
     Exponent=  4.7934000000D+01 Coefficients=  6.1706000000D-03
     Exponent=  1.0999000000D+01 Coefficients=  4.4260000000D-02
     Exponent=  3.2472000000D+00 Coefficients=  1.6825000000D-01
     Exponent=  1.1114000000D+00 Coefficients=  3.6848000000D-01
 P 1 1.00
     Exponent=  3.7988000000D-01 Coefficients=  1.0000000000D+00
 P 1 1.00
     Exponent=  1.2068000000D-01 Coefficients=  1.0000000000D+00
 D 1 1.00
     Exponent=  1.8000000000D+00 Coefficients=  1.0000000000D+00
 D 1 1.00
     Exponent=  5.5000000000D-01 Coefficients=  1.0000000000D+00
 F 1 1.00
     Exponent=  1.0200000000D+00 Coefficients=  1.0000000000D+00
 ****
 Centers:       1
 S 7 1.00
     Exponent=  1.4782000000D+04 Coefficients=  5.3519000000D-04
     Exponent=  2.2173000000D+03 Coefficients=  4.1375000000D-03
     Exponent=  5.0474000000D+02 Coefficients=  2.1245000000D-02
     Exponent=  1.4287000000D+02 Coefficients=  8.2453000000D-02
     Exponent=  4.6300000000D+01 Coefficients=  2.3671000000D-01
     Exponent=  1.6337000000D+01 Coefficients=  4.4039000000D-01
     Exponent=  5.9828000000D+00 Coefficients=  3.6465000000D-01
 S 7 1.00
     Exponent=  2.2173000000D+03 Coefficients= -1.9275000000D-06
     Exponent=  5.0474000000D+02 Coefficients= -5.7964000000D-05
     Exponent=  1.4287000000D+02 Coefficients= -7.9494000000D-04
     Exponent=  4.6300000000D+01 Coefficients= -7.3125000000D-03
     Exponent=  1.6337000000D+01 Coefficients= -4.0574000000D-02
     Exponent=  5.9828000000D+00 Coefficients= -9.1594000000D-02
     Exponent=  1.6718000000D+00 Coefficients=  2.0940000000D-01
 S 1 1.00
     Exponent=  6.4662000000D-01 Coefficients=  1.0000000000D+00
 S 1 1.00
     Exponent=  2.1669000000D-01 Coefficients=  1.0000000000D+00
 P 4 1.00
     Exponent=  6.0424000000D+01 Coefficients=  6.8949000000D-03
     Exponent=  1.3935000000D+01 Coefficients=  4.9005000000D-02
     Exponent=  4.1531000000D+00 Coefficients=  1.8255000000D-01
     Exponent=  1.4158000000D+00 Coefficients=  3.7633000000D-01
 P 1 1.00
     Exponent=  4.7549000000D-01 Coefficients=  1.0000000000D+00
 P 1 1.00
     Exponent=  1.4529000000D-01 Coefficients=  1.0000000000D+00
 D 1 1.00
     Exponent=  2.2000000000D+00 Coefficients=  1.0000000000D+00
 D 1 1.00
     Exponent=  6.5000000000D-01 Coefficients=  1.0000000000D+00
 F 1 1.00
     Exponent=  1.1000000000D+00 Coefficients=  1.0000000000D+00
 ****
 Ernie: Thresh=  0.10000D-02 Tol=  0.10000D-05 Strict=F.
 Ernie:  7 primitive shells out of 220 were deleted.
 There are   223 symmetry adapted cartesian basis functions of A'  symmetry.
 There are    97 symmetry adapted cartesian basis functions of A"  symmetry.
 There are   190 symmetry adapted basis functions of A'  symmetry.
 There are    90 symmetry adapted basis functions of A"  symmetry.
   280 basis functions,   475 primitive gaussians,   320 cartesian basis functions
    25 alpha electrons       25 beta electrons
       nuclear repulsion energy       277.5236709615 Hartrees.
 IExCor= 2523 DFT=T Ex+Corr=TPSSh ExCW=0 ScaHFX=  0.100000
 ScaDFX=  0.900000  0.900000  1.000000  1.000000 ScalE2=  1.000000  1.000000
 IRadAn=      0 IRanWt=     -1 IRanGd=            0 ICorTp=0 IEmpDi=  4
 NAtoms=   12 NActive=   12 NUniq=   12 SFac= 1.00D+00 NAtFMM=   60 NAOKFM=F Big=F
 Integral buffers will be    131072 words long.
 Raffenetti 2 integral format.
 Two-electron integral symmetry is turned on.
 Leave Link  301 at Thu Sep  2 22:19:26 2021, MaxMem=  1342177280 cpu:         2.7
 (Enter /gpfs/share/home/1801110325/software/g09e01/l302.exe)
 NPDir=0 NMtPBC=     1 NCelOv=     1 NCel=       1 NClECP=     1 NCelD=      1
         NCelK=      1 NCelE2=     1 NClLst=     1 CellRange=     0.0.
 One-electron integrals computed using PRISM.
 NBasis=   280 RedAO= T EigKep=  2.16D-04  NBF=   190    90
 NBsUse=   280 1.00D-06 EigRej= -1.00D+00 NBFU=   190    90
 Precomputing XC quadrature grid using
 IXCGrd= 4 IRadAn=           0 IRanWt=          -1 IRanGd=           0 AccXCQ= 0.00D+00.
 Generated NRdTot=       0 NPtTot=           0 NUsed=           0 NTot=          32
 NSgBfM=   320   320   320   320   320 MxSgAt=    12 MxSgA2=    12.
 Leave Link  302 at Thu Sep  2 22:19:26 2021, MaxMem=  1342177280 cpu:         1.3
 (Enter /gpfs/share/home/1801110325/software/g09e01/l303.exe)
 DipDrv:  MaxL=1.
 Leave Link  303 at Thu Sep  2 22:19:26 2021, MaxMem=  1342177280 cpu:         0.5
 (Enter /gpfs/share/home/1801110325/software/g09e01/l401.exe)
 ExpMin= 7.41D-02 ExpMax= 1.48D+04 ExpMxC= 5.05D+02 IAcc=2 IRadAn=         4 AccDes= 0.00D+00
 Harris functional with IExCor= 1009 and IRadAn=       4 diagonalized for initial guess.
 HarFok:  IExCor= 1009 AccDes= 0.00D+00 IRadAn=         4 IDoV= 1 UseB2=F ITyADJ=14
 ICtDFT=  3500011 ScaDFX=  1.000000  1.000000  1.000000  1.000000
 FoFCou: FMM=F IPFlag=           0 FMFlag=      100000 FMFlg1=           0
         NFxFlg=           0 DoJE=T BraDBF=F KetDBF=T FulRan=T
         wScrn=  0.000000 ICntrl=     500 IOpCl=  0 I1Cent=   200000004 NGrid=           0
         NMat0=    1 NMatS0=      1 NMatT0=    0 NMatD0=    1 NMtDS0=    0 NMtDT0=    0
 Petite list used in FoFCou.
 Harris En= -323.373786825503    
 JPrj=0 DoOrth=F DoCkMO=F.
 Initial guess orbital symmetries:
       Occupied  (A') (A') (A') (A') (A') (A') (A') (A') (A') (A')
                 (A') (A') (A') (A') (A') (A') (A') (A') (A") (A')
                 (A') (A") (A") (A') (A")
       Virtual   (A") (A") (A') (A') (A") (A') (A') (A') (A') (A')
                 (A') (A') (A") (A') (A") (A") (A') (A') (A') (A')
                 (A') (A') (A") (A") (A') (A') (A') (A') (A') (A')
                 (A') (A") (A') (A") (A') (A') (A') (A') (A') (A')
                 (A') (A') (A") (A') (A') (A') (A') (A") (A") (A')
                 (A") (A") (A') (A') (A") (A') (A') (A") (A') (A')
                 (A') (A") (A') (A') (A") (A') (A") (A') (A") (A')
                 (A') (A") (A") (A') (A") (A') (A') (A") (A') (A')
                 (A") (A') (A') (A") (A') (A') (A") (A') (A") (A")
                 (A') (A') (A') (A') (A') (A") (A') (A') (A") (A')
                 (A') (A') (A") (A') (A') (A') (A') (A") (A') (A')
                 (A') (A") (A') (A') (A') (A') (A") (A') (A') (A')
                 (A") (A') (A") (A') (A") (A') (A") (A") (A') (A")
                 (A") (A') (A') (A') (A") (A') (A') (A") (A') (A')
                 (A') (A') (A') (A") (A") (A') (A") (A') (A') (A')
                 (A") (A') (A') (A") (A") (A') (A") (A') (A") (A')
                 (A") (A') (A') (A') (A") (A") (A') (A') (A") (A')
                 (A") (A') (A') (A") (A') (A') (A") (A') (A") (A")
                 (A") (A") (A') (A') (A") (A') (A") (A") (A') (A")
                 (A") (A') (A') (A") (A') (A') (A") (A') (A") (A")
                 (A') (A') (A") (A') (A') (A') (A") (A') (A') (A')
                 (A") (A') (A') (A") (A') (A") (A') (A') (A") (A")
                 (A') (A') (A") (A') (A') (A") (A') (A') (A') (A')
                 (A") (A') (A') (A') (A') (A") (A") (A') (A') (A')
                 (A') (A") (A') (A') (A') (A') (A') (A') (A') (A')
                 (A') (A') (A') (A') (A')
 The electronic state of the initial guess is 1-A'.
 Leave Link  401 at Thu Sep  2 22:19:27 2021, MaxMem=  1342177280 cpu:         3.4
 (Enter /gpfs/share/home/1801110325/software/g09e01/l502.exe)
 Closed shell SCF:
 Using DIIS extrapolation, IDIIS=  1040.
 Integral symmetry usage will be decided dynamically.
 Keep R1 ints in memory in symmetry-blocked form, NReq=1167783638.
 IVT=      330098 IEndB=      330098 NGot=  1342177280 MDV=   948231393
 LenX=   948231393 LenY=   948128552
 Requested convergence on RMS density matrix=1.00D-08 within 128 cycles.
 Requested convergence on MAX density matrix=1.00D-06.
 Requested convergence on             energy=1.00D-06.
 No special actions if energy rises.
 FoFCou: FMM=F IPFlag=           0 FMFlag=           0 FMFlg1=           0
         NFxFlg=           0 DoJE=F BraDBF=F KetDBF=F FulRan=T
         wScrn=  0.000000 ICntrl=     600 IOpCl=  0 I1Cent=           0 NGrid=           0
         NMat0=    1 NMatS0=  39340 NMatT0=    0 NMatD0=    1 NMtDS0=    0 NMtDT0=    0
 Petite list used in FoFCou.

 Cycle   1  Pass 1  IDiag  1:
 E= -323.512161039703    
 DIIS: error= 2.59D-02 at cycle   1 NSaved=   1.
 NSaved= 1 IEnMin= 1 EnMin= -323.512161039703     IErMin= 1 ErrMin= 2.59D-02
 ErrMax= 2.59D-02  0.00D+00 EMaxC= 1.00D-01 BMatC= 1.70D-01 BMatP= 1.70D-01
 IDIUse=3 WtCom= 7.41D-01 WtEn= 2.59D-01
 Coeff-Com:  0.100D+01
 Coeff-En:   0.100D+01
 Coeff:      0.100D+01
 Gap=     0.189 Goal=   None    Shift=    0.000
 GapD=    0.189 DampG=1.000 DampE=0.500 DampFc=0.5000 IDamp=-1.
 Damping current iteration by 5.00D-01
 RMSDP=2.59D-03 MaxDP=1.14D-01              OVMax= 2.17D-01

 Cycle   2  Pass 1  IDiag  1:
 E= -323.572228892233     Delta-E=       -0.060067852530 Rises=F Damp=T
 DIIS: error= 6.84D-03 at cycle   2 NSaved=   2.
 NSaved= 2 IEnMin= 2 EnMin= -323.572228892233     IErMin= 2 ErrMin= 6.84D-03
 ErrMax= 6.84D-03  0.00D+00 EMaxC= 1.00D-01 BMatC= 1.39D-02 BMatP= 1.70D-01
 IDIUse=3 WtCom= 9.32D-01 WtEn= 6.84D-02
 Coeff-Com:  0.852D-01 0.915D+00
 Coeff-En:   0.194D+00 0.806D+00
 Coeff:      0.926D-01 0.907D+00
 Gap=     0.189 Goal=   None    Shift=    0.000
 RMSDP=6.14D-04 MaxDP=3.39D-02 DE=-6.01D-02 OVMax= 1.69D-01

 Cycle   3  Pass 1  IDiag  1:
 E= -323.654561401513     Delta-E=       -0.082332509279 Rises=F Damp=F
 DIIS: error= 6.70D-03 at cycle   3 NSaved=   3.
 NSaved= 3 IEnMin= 3 EnMin= -323.654561401513     IErMin= 3 ErrMin= 6.70D-03
 ErrMax= 6.70D-03  0.00D+00 EMaxC= 1.00D-01 BMatC= 7.13D-03 BMatP= 1.39D-02
 IDIUse=3 WtCom= 9.33D-01 WtEn= 6.70D-02
 Coeff-Com: -0.249D-01 0.395D+00 0.630D+00
 Coeff-En:   0.000D+00 0.000D+00 0.100D+01
 Coeff:     -0.232D-01 0.369D+00 0.655D+00
 Gap=     0.190 Goal=   None    Shift=    0.000
 RMSDP=4.29D-04 MaxDP=1.92D-02 DE=-8.23D-02 OVMax= 6.86D-02

 Cycle   4  Pass 1  IDiag  1:
 E= -323.656695816374     Delta-E=       -0.002134414861 Rises=F Damp=F
 DIIS: error= 6.93D-03 at cycle   4 NSaved=   4.
 NSaved= 4 IEnMin= 4 EnMin= -323.656695816374     IErMin= 3 ErrMin= 6.70D-03
 ErrMax= 6.93D-03  0.00D+00 EMaxC= 1.00D-01 BMatC= 5.03D-03 BMatP= 7.13D-03
 IDIUse=3 WtCom= 9.31D-01 WtEn= 6.93D-02
 Coeff-Com: -0.294D-01 0.122D+00 0.469D+00 0.438D+00
 Coeff-En:   0.000D+00 0.000D+00 0.435D+00 0.565D+00
 Coeff:     -0.274D-01 0.114D+00 0.467D+00 0.447D+00
 Gap=     0.188 Goal=   None    Shift=    0.000
 RMSDP=2.22D-04 MaxDP=7.52D-03 DE=-2.13D-03 OVMax= 3.64D-02

 Cycle   5  Pass 1  IDiag  1:
 E= -323.662078698748     Delta-E=       -0.005382882374 Rises=F Damp=F
 DIIS: error= 8.10D-04 at cycle   5 NSaved=   5.
 NSaved= 5 IEnMin= 5 EnMin= -323.662078698748     IErMin= 5 ErrMin= 8.10D-04
 ErrMax= 8.10D-04  0.00D+00 EMaxC= 1.00D-01 BMatC= 1.73D-04 BMatP= 5.03D-03
 IDIUse=3 WtCom= 9.92D-01 WtEn= 8.10D-03
 Coeff-Com: -0.113D-01 0.260D-01 0.189D+00 0.234D+00 0.562D+00
 Coeff-En:   0.000D+00 0.000D+00 0.000D+00 0.000D+00 0.100D+01
 Coeff:     -0.113D-01 0.258D-01 0.188D+00 0.232D+00 0.566D+00
 Gap=     0.188 Goal=   None    Shift=    0.000
 RMSDP=4.03D-05 MaxDP=2.06D-03 DE=-5.38D-03 OVMax= 5.95D-03

 Cycle   6  Pass 1  IDiag  1:
 E= -323.662209905766     Delta-E=       -0.000131207019 Rises=F Damp=F
 DIIS: error= 3.29D-04 at cycle   6 NSaved=   6.
 NSaved= 6 IEnMin= 6 EnMin= -323.662209905766     IErMin= 6 ErrMin= 3.29D-04
 ErrMax= 3.29D-04  0.00D+00 EMaxC= 1.00D-01 BMatC= 2.72D-05 BMatP= 1.73D-04
 IDIUse=3 WtCom= 9.97D-01 WtEn= 3.29D-03
 Coeff-Com: -0.460D-02 0.607D-02 0.769D-01 0.106D+00 0.350D+00 0.465D+00
 Coeff-En:   0.000D+00 0.000D+00 0.000D+00 0.000D+00 0.934D-01 0.907D+00
 Coeff:     -0.459D-02 0.605D-02 0.767D-01 0.105D+00 0.350D+00 0.467D+00
 Gap=     0.188 Goal=   None    Shift=    0.000
 RMSDP=1.42D-05 MaxDP=6.53D-04 DE=-1.31D-04 OVMax= 1.58D-03

 Cycle   7  Pass 1  IDiag  1:
 E= -323.662232133554     Delta-E=       -0.000022227788 Rises=F Damp=F
 DIIS: error= 7.87D-05 at cycle   7 NSaved=   7.
 NSaved= 7 IEnMin= 7 EnMin= -323.662232133554     IErMin= 7 ErrMin= 7.87D-05
 ErrMax= 7.87D-05  0.00D+00 EMaxC= 1.00D-01 BMatC= 1.01D-06 BMatP= 2.72D-05
 IDIUse=1 WtCom= 1.00D+00 WtEn= 0.00D+00
 Coeff-Com: -0.200D-02 0.234D-02 0.343D-01 0.473D-01 0.166D+00 0.254D+00
 Coeff-Com:  0.498D+00
 Coeff:     -0.200D-02 0.234D-02 0.343D-01 0.473D-01 0.166D+00 0.254D+00
 Coeff:      0.498D+00
 Gap=     0.188 Goal=   None    Shift=    0.000
 RMSDP=4.16D-06 MaxDP=1.32D-04 DE=-2.22D-05 OVMax= 7.19D-04

 Cycle   8  Pass 1  IDiag  1:
 E= -323.662232939214     Delta-E=       -0.000000805660 Rises=F Damp=F
 DIIS: error= 3.38D-05 at cycle   8 NSaved=   8.
 NSaved= 8 IEnMin= 8 EnMin= -323.662232939214     IErMin= 8 ErrMin= 3.38D-05
 ErrMax= 3.38D-05  0.00D+00 EMaxC= 1.00D-01 BMatC= 2.64D-07 BMatP= 1.01D-06
 IDIUse=1 WtCom= 1.00D+00 WtEn= 0.00D+00
 Coeff-Com: -0.218D-03-0.330D-04 0.523D-02 0.741D-02 0.322D-01 0.622D-01
 Coeff-Com:  0.344D+00 0.549D+00
 Coeff:     -0.218D-03-0.330D-04 0.523D-02 0.741D-02 0.322D-01 0.622D-01
 Coeff:      0.344D+00 0.549D+00
 Gap=     0.188 Goal=   None    Shift=    0.000
 RMSDP=1.38D-06 MaxDP=5.22D-05 DE=-8.06D-07 OVMax= 2.42D-04

 Cycle   9  Pass 1  IDiag  1:
 E= -323.662233194227     Delta-E=       -0.000000255013 Rises=F Damp=F
 DIIS: error= 4.93D-06 at cycle   9 NSaved=   9.
 NSaved= 9 IEnMin= 9 EnMin= -323.662233194227     IErMin= 9 ErrMin= 4.93D-06
 ErrMax= 4.93D-06  0.00D+00 EMaxC= 1.00D-01 BMatC= 7.02D-09 BMatP= 2.64D-07
 IDIUse=1 WtCom= 1.00D+00 WtEn= 0.00D+00
 Coeff-Com:  0.129D-04-0.142D-03 0.467D-03 0.822D-03 0.543D-02 0.143D-01
 Coeff-Com:  0.133D+00 0.248D+00 0.598D+00
 Coeff:      0.129D-04-0.142D-03 0.467D-03 0.822D-03 0.543D-02 0.143D-01
 Coeff:      0.133D+00 0.248D+00 0.598D+00
 Gap=     0.188 Goal=   None    Shift=    0.000
 RMSDP=2.91D-07 MaxDP=1.65D-05 DE=-2.55D-07 OVMax= 3.65D-05

 Cycle  10  Pass 1  IDiag  1:
 E= -323.662233199449     Delta-E=       -0.000000005222 Rises=F Damp=F
 DIIS: error= 2.90D-06 at cycle  10 NSaved=  10.
 NSaved=10 IEnMin=10 EnMin= -323.662233199449     IErMin=10 ErrMin= 2.90D-06
 ErrMax= 2.90D-06  0.00D+00 EMaxC= 1.00D-01 BMatC= 1.44D-09 BMatP= 7.02D-09
 IDIUse=1 WtCom= 1.00D+00 WtEn= 0.00D+00
 Coeff-Com:  0.269D-04-0.625D-04-0.267D-03-0.285D-03-0.335D-03 0.141D-02
 Coeff-Com:  0.371D-01 0.754D-01 0.345D+00 0.542D+00
 Coeff:      0.269D-04-0.625D-04-0.267D-03-0.285D-03-0.335D-03 0.141D-02
 Coeff:      0.371D-01 0.754D-01 0.345D+00 0.542D+00
 Gap=     0.188 Goal=   None    Shift=    0.000
 RMSDP=1.02D-07 MaxDP=5.39D-06 DE=-5.22D-09 OVMax= 1.17D-05

 Cycle  11  Pass 1  IDiag  1:
 E= -323.662233200842     Delta-E=       -0.000000001393 Rises=F Damp=F
 DIIS: error= 3.11D-07 at cycle  11 NSaved=  11.
 NSaved=11 IEnMin=11 EnMin= -323.662233200842     IErMin=11 ErrMin= 3.11D-07
 ErrMax= 3.11D-07  0.00D+00 EMaxC= 1.00D-01 BMatC= 2.74D-11 BMatP= 1.44D-09
 IDIUse=1 WtCom= 1.00D+00 WtEn= 0.00D+00
 Coeff-Com:  0.690D-05-0.132D-04-0.939D-04-0.114D-03-0.274D-03 0.153D-04
 Coeff-Com:  0.650D-02 0.141D-01 0.886D-01 0.198D+00 0.693D+00
 Coeff:      0.690D-05-0.132D-04-0.939D-04-0.114D-03-0.274D-03 0.153D-04
 Coeff:      0.650D-02 0.141D-01 0.886D-01 0.198D+00 0.693D+00
 Gap=     0.188 Goal=   None    Shift=    0.000
 RMSDP=2.09D-08 MaxDP=8.53D-07 DE=-1.39D-09 OVMax= 3.02D-06

 Cycle  12  Pass 1  IDiag  1:
 E= -323.662233200864     Delta-E=       -0.000000000021 Rises=F Damp=F
 DIIS: error= 2.05D-07 at cycle  12 NSaved=  12.
 NSaved=12 IEnMin=12 EnMin= -323.662233200864     IErMin=12 ErrMin= 2.05D-07
 ErrMax= 2.05D-07  0.00D+00 EMaxC= 1.00D-01 BMatC= 1.33D-11 BMatP= 2.74D-11
 IDIUse=1 WtCom= 1.00D+00 WtEn= 0.00D+00
 Coeff-Com:  0.221D-05-0.261D-05-0.426D-04-0.584D-04-0.178D-03-0.163D-03
 Coeff-Com:  0.674D-03 0.206D-02 0.246D-01 0.781D-01 0.462D+00 0.433D+00
 Coeff:      0.221D-05-0.261D-05-0.426D-04-0.584D-04-0.178D-03-0.163D-03
 Coeff:      0.674D-03 0.206D-02 0.246D-01 0.781D-01 0.462D+00 0.433D+00
 Gap=     0.188 Goal=   None    Shift=    0.000
 RMSDP=9.03D-09 MaxDP=4.98D-07 DE=-2.15D-11 OVMax= 1.59D-06

 SCF Done:  E(RTPSSh) =  -323.662233201     A.U. after   12 cycles
            NFock= 12  Conv=0.90D-08     -V/T= 2.0037
 KE= 3.224814188830D+02 PE=-1.310251650200D+03 EE= 3.865843271544D+02
 Leave Link  502 at Thu Sep  2 22:19:59 2021, MaxMem=  1342177280 cpu:       172.3
 (Enter /gpfs/share/home/1801110325/software/g09e01/l601.exe)
 Copying SCF densities to generalized density rwf, IOpCl= 0 IROHF=0.

 **********************************************************************

            Population analysis using the SCF density.

 **********************************************************************

 Orbital symmetries:
       Occupied  (A') (A') (A') (A') (A') (A') (A') (A') (A') (A')
                 (A') (A') (A') (A') (A') (A') (A') (A") (A') (A')
                 (A') (A") (A") (A') (A")
       Virtual   (A") (A") (A') (A') (A') (A') (A') (A") (A') (A')
                 (A") (A') (A') (A') (A") (A") (A') (A') (A') (A")
                 (A') (A") (A') (A') (A') (A') (A') (A') (A') (A')
                 (A') (A") (A') (A") (A') (A') (A') (A') (A') (A')
                 (A') (A') (A') (A") (A') (A') (A') (A") (A") (A")
                 (A') (A") (A') (A') (A") (A') (A") (A') (A') (A')
                 (A') (A") (A') (A') (A") (A') (A') (A") (A') (A')
                 (A") (A") (A") (A") (A') (A') (A') (A") (A') (A')
                 (A") (A') (A') (A') (A') (A") (A") (A') (A") (A')
                 (A") (A') (A') (A') (A') (A") (A') (A') (A") (A')
                 (A') (A") (A') (A') (A') (A') (A') (A") (A') (A')
                 (A') (A") (A') (A') (A') (A') (A") (A') (A') (A')
                 (A") (A') (A") (A') (A") (A') (A") (A') (A") (A")
                 (A") (A') (A') (A") (A') (A') (A") (A') (A') (A')
                 (A') (A') (A") (A') (A") (A') (A") (A') (A') (A')
                 (A") (A') (A") (A') (A") (A') (A") (A') (A") (A')
                 (A") (A') (A') (A") (A') (A") (A') (A") (A') (A')
                 (A") (A') (A") (A') (A') (A') (A") (A') (A") (A")
                 (A") (A") (A") (A') (A') (A") (A') (A") (A") (A')
                 (A") (A') (A') (A") (A') (A") (A') (A') (A") (A")
                 (A') (A') (A") (A') (A') (A") (A') (A') (A') (A')
                 (A") (A') (A') (A") (A") (A') (A') (A') (A") (A")
                 (A') (A') (A') (A") (A') (A") (A') (A') (A') (A')
                 (A") (A') (A') (A') (A') (A") (A") (A') (A') (A')
                 (A") (A') (A') (A') (A') (A') (A') (A') (A') (A')
                 (A') (A') (A') (A') (A')
 The electronic state is 1-A'.
 Alpha  occ. eigenvalues --  -19.08646 -14.24650 -10.20587 -10.15232 -10.13570
 Alpha  occ. eigenvalues --  -10.12282 -10.11818  -1.06248  -0.92392  -0.79323
 Alpha  occ. eigenvalues --   -0.74218  -0.63383  -0.61459  -0.54063  -0.50274
 Alpha  occ. eigenvalues --   -0.46927  -0.43284  -0.42657  -0.39989  -0.38510
 Alpha  occ. eigenvalues --   -0.35629  -0.34426  -0.28461  -0.26040  -0.23332
 Alpha virt. eigenvalues --   -0.04496  -0.01799   0.02183   0.03045   0.04536
 Alpha virt. eigenvalues --    0.06598   0.08360   0.12327   0.13687   0.15579
 Alpha virt. eigenvalues --    0.15983   0.16789   0.18506   0.19490   0.20130
 Alpha virt. eigenvalues --    0.20737   0.22233   0.25401   0.25547   0.27163
 Alpha virt. eigenvalues --    0.27231   0.29351   0.29516   0.29970   0.31759
 Alpha virt. eigenvalues --    0.33815   0.34804   0.36301   0.36935   0.37737
 Alpha virt. eigenvalues --    0.39400   0.41782   0.43838   0.45276   0.45415
 Alpha virt. eigenvalues --    0.49139   0.52016   0.52318   0.54758   0.57737
 Alpha virt. eigenvalues --    0.60743   0.62485   0.63576   0.63743   0.66043
 Alpha virt. eigenvalues --    0.67648   0.72040   0.75372   0.76633   0.80445
 Alpha virt. eigenvalues --    0.81903   0.85751   0.87613   0.90697   0.91944
 Alpha virt. eigenvalues --    0.94752   0.96228   0.96764   0.98653   1.00579
 Alpha virt. eigenvalues --    1.03087   1.09127   1.09261   1.11048   1.14351
 Alpha virt. eigenvalues --    1.14772   1.16036   1.16877   1.19065   1.19903
 Alpha virt. eigenvalues --    1.21991   1.25950   1.27884   1.29696   1.29847
 Alpha virt. eigenvalues --    1.31498   1.36600   1.41247   1.42399   1.44607
 Alpha virt. eigenvalues --    1.49896   1.50688   1.51640   1.54493   1.54904
 Alpha virt. eigenvalues --    1.55618   1.58164   1.61423   1.62498   1.66577
 Alpha virt. eigenvalues --    1.66720   1.67628   1.70805   1.73979   1.74815
 Alpha virt. eigenvalues --    1.78674   1.80688   1.83311   1.86326   1.86786
 Alpha virt. eigenvalues --    1.89747   1.95681   1.95897   1.97235   2.01382
 Alpha virt. eigenvalues --    2.05476   2.11850   2.12119   2.16876   2.19821
 Alpha virt. eigenvalues --    2.23629   2.23661   2.27360   2.29025   2.32540
 Alpha virt. eigenvalues --    2.35864   2.38992   2.61390   2.70895   2.74824
 Alpha virt. eigenvalues --    2.87682   2.95299   2.97982   3.01949   3.17231
 Alpha virt. eigenvalues --    3.20639   3.23023   3.27308   3.28190   3.30802
 Alpha virt. eigenvalues --    3.33849   3.35690   3.37671   3.41983   3.42915
 Alpha virt. eigenvalues --    3.46949   3.50173   3.50445   3.53127   3.60849
 Alpha virt. eigenvalues --    3.61379   3.64311   3.65227   3.66069   3.73061
 Alpha virt. eigenvalues --    3.73663   3.77783   3.82525   3.84699   3.85516
 Alpha virt. eigenvalues --    3.89740   3.90656   3.94833   3.95154   4.00286
 Alpha virt. eigenvalues --    4.01749   4.05298   4.09356   4.09828   4.11525
 Alpha virt. eigenvalues --    4.11649   4.15352   4.16950   4.21447   4.21492
 Alpha virt. eigenvalues --    4.22296   4.23754   4.24825   4.27383   4.29159
 Alpha virt. eigenvalues --    4.30938   4.31187   4.33603   4.34568   4.38035
 Alpha virt. eigenvalues --    4.38554   4.41730   4.42436   4.44603   4.44877
 Alpha virt. eigenvalues --    4.48430   4.49929   4.50875   4.52615   4.54471
 Alpha virt. eigenvalues --    4.55906   4.57836   4.58952   4.61749   4.62019
 Alpha virt. eigenvalues --    4.65922   4.66010   4.69865   4.71305   4.74214
 Alpha virt. eigenvalues --    4.80447   4.80699   4.85439   4.88587   4.92346
 Alpha virt. eigenvalues --    4.94231   4.94846   5.02964   5.03840   5.10083
 Alpha virt. eigenvalues --    5.14187   5.15084   5.16125   5.23172   5.25484
 Alpha virt. eigenvalues --    5.29465   5.29861   5.36085   5.37554   5.40199
 Alpha virt. eigenvalues --    5.40585   5.42382   5.43340   5.45810   5.50533
 Alpha virt. eigenvalues --    5.51581   5.52989   5.64294   5.64705   5.70067
 Alpha virt. eigenvalues --    5.70170   5.72997   5.77841   5.84662   5.88892
 Alpha virt. eigenvalues --    5.93880   6.07332   6.11393   6.14693   6.16273
 Alpha virt. eigenvalues --    6.17251   6.27032   6.32054   6.35271   6.37321
 Alpha virt. eigenvalues --    6.50479   6.51458   6.55438   6.70601   6.73520
 Alpha virt. eigenvalues --    6.96518   7.23550   7.37188   9.28388  12.08876
 Alpha virt. eigenvalues --   12.72490  15.52654  17.42845  18.66425  22.24671
          Condensed to atoms (all electrons):
               1          2          3          4          5          6
     1  O    7.869175  -0.097419   0.321494  -0.056185   0.003250   0.007673
     2  N   -0.097419   6.622876   0.470564  -0.008087   0.542625  -0.035433
     3  C    0.321494   0.470564   4.393940   0.513306  -0.079246  -0.059509
     4  C   -0.056185  -0.008087   0.513306   4.826932  -0.046234   0.546750
     5  C    0.003250   0.542625  -0.079246  -0.046234   4.538379  -0.074788
     6  C    0.007673  -0.035433  -0.059509   0.546750  -0.074788   4.660332
     7  C   -0.000593  -0.039001  -0.053161  -0.039151   0.531759   0.519875
     8  H    0.347984   0.018074  -0.039900   0.014105   0.001446  -0.002440
     9  H    0.006122   0.008472  -0.023805   0.416194  -0.002486  -0.029552
    10  H   -0.000506  -0.039218   0.003477  -0.004186   0.435089   0.007941
    11  H   -0.000281  -0.001887   0.006139  -0.031837   0.005857   0.422363
    12  H    0.000055   0.008866  -0.000624   0.005489  -0.021052  -0.029292
               7          8          9         10         11         12
     1  O   -0.000593   0.347984   0.006122  -0.000506  -0.000281   0.000055
     2  N   -0.039001   0.018074   0.008472  -0.039218  -0.001887   0.008866
     3  C   -0.053161  -0.039900  -0.023805   0.003477   0.006139  -0.000624
     4  C   -0.039151   0.014105   0.416194  -0.004186  -0.031837   0.005489
     5  C    0.531759   0.001446  -0.002486   0.435089   0.005857  -0.021052
     6  C    0.519875  -0.002440  -0.029552   0.007941   0.422363  -0.029292
     7  C    4.913795   0.001626   0.007145  -0.066602  -0.030737   0.414156
     8  H    0.001626   0.446411  -0.000905  -0.000761   0.000098  -0.000067
     9  H    0.007145  -0.000905   0.589313   0.000216  -0.006421  -0.000426
    10  H   -0.066602  -0.000761   0.000216   0.619708  -0.000645  -0.002414
    11  H   -0.030737   0.000098  -0.006421  -0.000645   0.597646  -0.004985
    12  H    0.414156  -0.000067  -0.000426  -0.002414  -0.004985   0.604749
 Mulliken charges:
               1
     1  O   -0.400769
     2  N   -0.450431
     3  C    0.547325
     4  C   -0.137096
     5  C    0.165401
     6  C    0.066080
     7  C   -0.159110
     8  H    0.214329
     9  H    0.036134
    10  H    0.047903
    11  H    0.044690
    12  H    0.025545
 Sum of Mulliken charges =  -0.00000
 Mulliken charges with hydrogens summed into heavy atoms:
               1
     1  O   -0.186440
     2  N   -0.450431
     3  C    0.547325
     4  C   -0.100962
     5  C    0.213304
     6  C    0.110770
     7  C   -0.133565
 Electronic spatial extent (au):  <R**2>=            623.3047
 Charge=             -0.0000 electrons
 Dipole moment (field-independent basis, Debye):
    X=              0.4823    Y=             -1.1174    Z=             -0.0000  Tot=              1.2171
 Quadrupole moment (field-independent basis, Debye-Ang):
   XX=            -37.8545   YY=            -36.5551   ZZ=            -42.7545
   XY=             -1.9927   XZ=              0.0000   YZ=              0.0000
 Traceless Quadrupole moment (field-independent basis, Debye-Ang):
   XX=              1.2002   YY=              2.4996   ZZ=             -3.6998
   XY=             -1.9927   XZ=              0.0000   YZ=              0.0000
 Octapole moment (field-independent basis, Debye-Ang**2):
  XXX=              6.1790  YYY=              4.9788  ZZZ=              0.0000  XYY=            -10.6732
  XXY=              0.5774  XXZ=              0.0000  XZZ=             -1.3735  YZZ=              5.3977
  YYZ=             -0.0000  XYZ=              0.0000
 Hexadecapole moment (field-independent basis, Debye-Ang**3):
 XXXX=           -265.6800 YYYY=           -453.8082 ZZZZ=            -45.7505 XXXY=              8.7472
 XXXZ=              0.0000 YYYX=            -29.0839 YYYZ=              0.0000 ZZZX=              0.0000
 ZZZY=              0.0000 XXYY=           -109.2769 XXZZ=            -58.8207 YYZZ=            -95.9415
 XXYZ=              0.0000 YYXZ=              0.0000 ZZXY=              0.7452
 N-N= 2.775236709615D+02 E-N=-1.310251644675D+03  KE= 3.224814188830D+02
 Symmetry A'   KE= 3.107629974751D+02
 Symmetry A"   KE= 1.171842140784D+01
 No NMR shielding tensors so no spin-rotation constants.
 Leave Link  601 at Thu Sep  2 22:20:00 2021, MaxMem=  1342177280 cpu:         1.2
 (Enter /gpfs/share/home/1801110325/software/g09e01/l701.exe)
 Compute integral first derivatives.
 ... and contract with generalized density number  0.
 Leave Link  701 at Thu Sep  2 22:20:00 2021, MaxMem=  1342177280 cpu:         1.6
 (Enter /gpfs/share/home/1801110325/software/g09e01/l702.exe)
 L702 exits ... SP integral derivatives will be done elsewhere.
 Leave Link  702 at Thu Sep  2 22:20:00 2021, MaxMem=  1342177280 cpu:         0.1
 (Enter /gpfs/share/home/1801110325/software/g09e01/l703.exe)
 Compute integral first derivatives, UseDBF=F ICtDFT=           0.
 Integral derivatives from FoFJK, PRISM(SPDF).
 Calling FoFJK, ICntrl=      2127 FMM=F ISym2X=1 I1Cent= 0 IOpClX= 0 NMat=1 NMatS=1 NMatT=0.
 FoFJK:  IHMeth= 1 ICntrl=    2127 DoSepK=F KAlg= 0 I1Cent=   0 FoldK=F
 IRaf=         0 NMat=   1 IRICut=       1 DoRegI=T DoRafI=F ISym2E= 1.
 FoFCou: FMM=F IPFlag=           0 FMFlag=      100000 FMFlg1=         800
         NFxFlg=           0 DoJE=F BraDBF=F KetDBF=F FulRan=T
         wScrn=  0.000000 ICntrl=    2127 IOpCl=  0 I1Cent=           0 NGrid=           0
         NMat0=    1 NMatS0=      1 NMatT0=    0 NMatD0=    1 NMtDS0=    0 NMtDT0=    0
 Petite list used in FoFCou.
 Leave Link  703 at Thu Sep  2 22:20:17 2021, MaxMem=  1342177280 cpu:       103.8
 (Enter /gpfs/share/home/1801110325/software/g09e01/l716.exe)
 Dipole        = 1.89738633D-01-4.39635711D-01-2.04308198D-32
 ***** Axes restored to original set *****
 -------------------------------------------------------------------
 Center     Atomic                   Forces (Hartrees/Bohr)
 Number     Number              X              Y              Z
 -------------------------------------------------------------------
      1        8           0.004606038    0.008935837   -0.000000000
      2        7          -0.008470138    0.004091260   -0.000000000
      3        6           0.004182119   -0.003492917    0.000000000
      4        6           0.004790598    0.004365025    0.000000000
      5        6          -0.006185701   -0.005001737   -0.000000000
      6        6           0.005009309   -0.004796709    0.000000000
      7        6           0.000492895   -0.005458696    0.000000000
      8        1          -0.005663040    0.002022202   -0.000000000
      9        1           0.000782046    0.000027962    0.000000000
     10        1          -0.000294885    0.000581841   -0.000000000
     11        1           0.000748454   -0.000263181    0.000000000
     12        1           0.000002307   -0.001010888    0.000000000
 -------------------------------------------------------------------
 Cartesian Forces:  Max     0.008935837 RMS     0.003502027
 Leave Link  716 at Thu Sep  2 22:20:17 2021, MaxMem=  1342177280 cpu:         0.1
 (Enter /gpfs/share/home/1801110325/software/g09e01/l103.exe)

 GradGradGradGradGradGradGradGradGradGradGradGradGradGradGradGradGradGrad
 Berny optimization.
 FormGI is forming the generalized inverse of G from B-inverse, IUseBI=4.
 Internal  Forces:  Max     0.010943682 RMS     0.003182339
 Search for a local minimum.
 Step number   1 out of a maximum of   61
 All quantities printed in internal units (Hartrees-Bohrs-Radians)
 RMS Force = .31823D-02 SwitMx=.10000D-02 MixMth= 1
 Mixed Optimization -- RFO/linear search
 Second derivative matrix not updated -- first step.
 ITU=  0
     Eigenvalues ---    0.02265   0.02291   0.02312   0.02345   0.02366
     Eigenvalues ---    0.02409   0.02454   0.02466   0.02614   0.16000
     Eigenvalues ---    0.16000   0.16000   0.16000   0.16000   0.22000
     Eigenvalues ---    0.22422   0.24442   0.25000   0.35406   0.35728
     Eigenvalues ---    0.35970   0.35990   0.43621   0.45785   0.48169
     Eigenvalues ---    0.49389   0.54882   0.56881   0.57480   0.60970
 RFO step:  Lambda=-9.65985071D-04 EMin= 2.26525640D-02
 Linear search not attempted -- first point.
 Iteration  1 RMS(Cart)=  0.01000643 RMS(Int)=  0.00000944
 Iteration  2 RMS(Cart)=  0.00001480 RMS(Int)=  0.00000015
 Iteration  3 RMS(Cart)=  0.00000000 RMS(Int)=  0.00000015
 ITry= 1 IFail=0 DXMaxC= 3.08D-02 DCOld= 1.00D+10 DXMaxT= 3.00D-01 DXLimC= 3.00D+00 Rises=F
 ClnCor:  largest displacement from symmetrization is 8.30D-12 for atom    11.
 Variable       Old X    -DE/DX   Delta X   Delta X   Delta X     New X
                                 (Linear)    (Quad)   (Total)
    R1        2.53498   0.01094   0.00000   0.01921   0.01921   2.55419
    R2        1.81937   0.00602   0.00000   0.01095   0.01095   1.83032
    R3        2.48913   0.00929   0.00000   0.01506   0.01506   2.50418
    R4        2.51605   0.00797   0.00000   0.01367   0.01367   2.52972
    R5        2.63173   0.00642   0.00000   0.01374   0.01374   2.64547
    R6        2.59740   0.00799   0.00000   0.01563   0.01563   2.61303
    R7        2.04128   0.00068   0.00000   0.00190   0.00190   2.04318
    R8        2.60360   0.00736   0.00000   0.01480   0.01480   2.61840
    R9        2.05020   0.00001   0.00000   0.00004   0.00004   2.05024
   R10        2.62604   0.00665   0.00000   0.01369   0.01369   2.63973
   R11        2.04509   0.00078   0.00000   0.00217   0.00217   2.04726
   R12        2.04097   0.00101   0.00000   0.00280   0.00280   2.04376
    A1        1.85547   0.00055   0.00000   0.00340   0.00340   1.85887
    A2        2.05525  -0.00019   0.00000   0.00088   0.00088   2.05613
    A3        2.05194  -0.00107   0.00000  -0.00458  -0.00458   2.04735
    A4        2.06888   0.00132   0.00000   0.00496   0.00496   2.07384
    A5        2.16236  -0.00025   0.00000  -0.00038  -0.00038   2.16199
    A6        2.04920   0.00013   0.00000  -0.00002  -0.00002   2.04918
    A7        2.09344   0.00031   0.00000   0.00232   0.00232   2.09576
    A8        2.14055  -0.00044   0.00000  -0.00231  -0.00231   2.13824
    A9        2.15386  -0.00039   0.00000  -0.00131  -0.00131   2.15255
   A10        2.02490  -0.00046   0.00000  -0.00339  -0.00339   2.02151
   A11        2.10443   0.00084   0.00000   0.00470   0.00470   2.10913
   A12        2.08852   0.00024   0.00000  -0.00034  -0.00034   2.08819
   A13        2.09426  -0.00031   0.00000  -0.00099  -0.00099   2.09327
   A14        2.10040   0.00007   0.00000   0.00133   0.00133   2.10173
   A15        2.05718   0.00045   0.00000   0.00116   0.00115   2.05833
   A16        2.10510  -0.00015   0.00000  -0.00008  -0.00008   2.10502
   A17        2.12091  -0.00031   0.00000  -0.00108  -0.00108   2.11983
    D1        0.00000   0.00000   0.00000   0.00000   0.00000   0.00000
    D2        3.14159   0.00000   0.00000   0.00000   0.00000   3.14159
    D3        3.14159  -0.00000   0.00000  -0.00000   0.00000   3.14159
    D4        0.00000   0.00000   0.00000   0.00000   0.00000   0.00000
    D5       -0.00000  -0.00000   0.00000  -0.00000   0.00000   0.00000
    D6        3.14159  -0.00000   0.00000  -0.00000   0.00000   3.14159
    D7        3.14159   0.00000   0.00000  -0.00000   0.00000   3.14159
    D8        0.00000   0.00000   0.00000   0.00000  -0.00000   0.00000
    D9       -0.00000  -0.00000   0.00000  -0.00000   0.00000   0.00000
   D10        3.14159  -0.00000   0.00000  -0.00000   0.00000   3.14159
   D11        0.00000   0.00000   0.00000   0.00000  -0.00000   0.00000
   D12        3.14159  -0.00000   0.00000   0.00000   0.00000   3.14159
   D13        3.14159   0.00000   0.00000   0.00000   0.00000   3.14159
   D14       -0.00000   0.00000   0.00000  -0.00000   0.00000   0.00000
   D15       -0.00000  -0.00000   0.00000  -0.00000   0.00000   0.00000
   D16        3.14159  -0.00000   0.00000  -0.00000   0.00000   3.14159
   D17        3.14159   0.00000   0.00000   0.00000   0.00000   3.14159
   D18       -0.00000   0.00000   0.00000   0.00000   0.00000   0.00000
   D19        0.00000   0.00000   0.00000   0.00000   0.00000   0.00000
   D20        3.14159   0.00000   0.00000   0.00000   0.00000   3.14159
   D21        3.14159   0.00000   0.00000   0.00000   0.00000   3.14159
   D22       -0.00000   0.00000   0.00000   0.00000   0.00000   0.00000
         Item               Value     Threshold  Converged?
 Maximum Force            0.010944     0.000450     NO 
 RMS     Force            0.003182     0.000300     NO 
 Maximum Displacement     0.030763     0.001800     NO 
 RMS     Displacement     0.010007     0.001200     NO 
 Predicted change in Energy=-4.838956D-04
 Lowest energy point so far.  Saving SCF results.
 GradGradGradGradGradGradGradGradGradGradGradGradGradGradGradGradGradGrad

 Leave Link  103 at Thu Sep  2 22:20:17 2021, MaxMem=  1342177280 cpu:         0.1
 (Enter /gpfs/share/home/1801110325/software/g09e01/l202.exe)
                          Input orientation:                          
 ---------------------------------------------------------------------
 Center     Atomic      Atomic             Coordinates (Angstroms)
 Number     Number       Type             X           Y           Z
 ---------------------------------------------------------------------
      1          8           0        0.004034    2.255402   -0.000000
      2          7           0       -1.176816    0.297918   -0.000000
      3          6           0        0.001727    0.903787   -0.000000
      4          6           0        1.227067    0.226795    0.000000
      5          6           0       -1.190852   -1.040679   -0.000000
      6          6           0        1.190610   -1.155482    0.000000
      7          6           0       -0.041234   -1.814149    0.000000
      8          1           0       -0.924147    2.532162   -0.000000
      9          1           0        2.153824    0.783681    0.000000
     10          1           0       -2.172351   -1.503021   -0.000000
     11          1           0        2.114858   -1.720671    0.000000
     12          1           0       -0.103939   -2.893842    0.000000
 ---------------------------------------------------------------------
                    Distance matrix (angstroms):
                    1          2          3          4          5
     1  O    0.000000
     2  N    2.286078   0.000000
     3  C    1.351617   1.325157   0.000000
     4  C    2.368767   2.404935   1.399920   0.000000
     5  C    3.505981   1.338670   2.281051   2.729986   0.000000
     6  C    3.611383   2.777963   2.377821   1.382758   2.384227
     7  C    4.069803   2.397994   2.718276   2.402923   1.385596
     8  H    0.968564   2.248486   1.873192   3.153163   3.582782
     9  H    2.605295   3.365878   2.155447   1.081204   3.809875
    10  H    4.343086   2.057782   3.243353   3.814224   1.084943
    11  H    4.501637   3.861324   3.369437   2.140280   3.374923
    12  H    5.150376   3.367254   3.799099   3.392632   2.148393
                    6          7          8          9         10
     6  C    0.000000
     7  C    1.396882   0.000000
     8  H    4.250990   4.435083   0.000000
     9  H    2.165210   3.401029   3.539929   0.000000
    10  H    3.380871   2.153709   4.223827   4.893342   0.000000
    11  H    1.083362   2.158117   5.227059   2.504655   4.292730
    12  H    2.167430   1.081513   5.487647   4.315284   2.492531
                   11         12
    11  H    0.000000
    12  H    2.509859   0.000000
 Stoichiometry    C5H5NO
 Framework group  CS[SG(C5H5NO)]
 Deg. of freedom    21
 Full point group                 CS      NOp   2
 RotChk:  IX=0 Diff= 3.12D-03
 Largest Abelian subgroup         CS      NOp   2
 Largest concise Abelian subgroup C1      NOp   1
                         Standard orientation:                         
 ---------------------------------------------------------------------
 Center     Atomic      Atomic             Coordinates (Angstroms)
 Number     Number       Type             X           Y           Z
 ---------------------------------------------------------------------
      1          8           0       -0.000675    2.254435    0.000000
      2          7           0       -1.177203    0.294349    0.000000
      3          6           0       -0.000000    0.902818    0.000000
      4          6           0        1.226831    0.228531    0.000000
      5          6           0       -1.188284   -1.044276    0.000000
      6          6           0        1.193425   -1.153823    0.000000
      7          6           0       -0.036962   -1.815207    0.000000
      8          1           0       -0.929465    2.529146    0.000000
      9          1           0        2.152358    0.787461    0.000000
     10          1           0       -2.168761   -1.508782    0.000000
     11          1           0        2.118918   -1.716971    0.000000
     12          1           0       -0.097285   -2.895036    0.000000
 ---------------------------------------------------------------------
 Rotational constants (GHZ):      5.8612463      2.7719907      1.8819500
 Leave Link  202 at Thu Sep  2 22:20:17 2021, MaxMem=  1342177280 cpu:         0.0
 (Enter /gpfs/share/home/1801110325/software/g09e01/l301.exe)
 Basis read from rwf:  (5D, 7F)
 No pseudopotential information found on rwf file.
 There are   223 symmetry adapted cartesian basis functions of A'  symmetry.
 There are    97 symmetry adapted cartesian basis functions of A"  symmetry.
 There are   190 symmetry adapted basis functions of A'  symmetry.
 There are    90 symmetry adapted basis functions of A"  symmetry.
   280 basis functions,   475 primitive gaussians,   320 cartesian basis functions
    25 alpha electrons       25 beta electrons
       nuclear repulsion energy       275.9881682727 Hartrees.
 IExCor= 2523 DFT=T Ex+Corr=TPSSh ExCW=0 ScaHFX=  0.100000
 ScaDFX=  0.900000  0.900000  1.000000  1.000000 ScalE2=  1.000000  1.000000
 IRadAn=      0 IRanWt=     -1 IRanGd=            0 ICorTp=0 IEmpDi=  4
 NAtoms=   12 NActive=   12 NUniq=   12 SFac= 1.00D+00 NAtFMM=   60 NAOKFM=F Big=F
 Integral buffers will be    131072 words long.
 Raffenetti 2 integral format.
 Two-electron integral symmetry is turned on.
 No density basis found on file   724.
 Leave Link  301 at Thu Sep  2 22:20:17 2021, MaxMem=  1342177280 cpu:         0.2
 (Enter /gpfs/share/home/1801110325/software/g09e01/l302.exe)
 NPDir=0 NMtPBC=     1 NCelOv=     1 NCel=       1 NClECP=     1 NCelD=      1
         NCelK=      1 NCelE2=     1 NClLst=     1 CellRange=     0.0.
 One-electron integrals computed using PRISM.
 NBasis=   280 RedAO= T EigKep=  2.24D-04  NBF=   190    90
 NBsUse=   280 1.00D-06 EigRej= -1.00D+00 NBFU=   190    90
 Precomputing XC quadrature grid using
 IXCGrd= 4 IRadAn=           0 IRanWt=          -1 IRanGd=           0 AccXCQ= 0.00D+00.
 Generated NRdTot=       0 NPtTot=           0 NUsed=           0 NTot=          32
 NSgBfM=   320   320   320   320   320 MxSgAt=    12 MxSgA2=    12.
 Leave Link  302 at Thu Sep  2 22:20:18 2021, MaxMem=  1342177280 cpu:         0.9
 (Enter /gpfs/share/home/1801110325/software/g09e01/l303.exe)
 DipDrv:  MaxL=1.
 Leave Link  303 at Thu Sep  2 22:20:18 2021, MaxMem=  1342177280 cpu:         0.2
 (Enter /gpfs/share/home/1801110325/software/g09e01/l401.exe)
 Initial guess from the checkpoint file:  "HY_TPSSh_PC2_OPT_FREQ.chk"
 B after Tr=     0.000000    0.000000   -0.000000
         Rot=    0.999999    0.000000   -0.000000   -0.001291 Ang=  -0.15 deg.
 Guess basis will be translated and rotated to current coordinates.
 JPrj=2 DoOrth=T DoCkMO=T.
 Initial guess orbital symmetries:
       Occupied  (A') (A') (A') (A') (A') (A') (A') (A') (A') (A')
                 (A') (A') (A') (A') (A') (A') (A') (A") (A') (A')
                 (A') (A") (A") (A') (A")
       Virtual   (A') (A') (A') (A') (A') (A') (A') (A') (A') (A')
                 (A') (A') (A') (A') (A') (A') (A') (A') (A') (A')
                 (A') (A') (A') (A') (A') (A') (A') (A') (A') (A')
                 (A') (A') (A') (A') (A') (A') (A') (A') (A') (A')
                 (A') (A') (A') (A') (A') (A') (A') (A') (A') (A')
                 (A') (A') (A') (A') (A') (A') (A') (A') (A') (A')
                 (A') (A') (A') (A') (A') (A') (A') (A') (A') (A')
                 (A') (A') (A') (A') (A') (A') (A') (A') (A') (A')
                 (A') (A') (A') (A') (A') (A') (A') (A') (A') (A')
                 (A') (A') (A') (A') (A') (A') (A') (A') (A') (A')
                 (A') (A') (A') (A') (A') (A') (A') (A') (A') (A')
                 (A') (A') (A') (A') (A') (A') (A') (A') (A') (A')
                 (A') (A') (A') (A') (A') (A') (A') (A') (A') (A')
                 (A') (A') (A') (A') (A') (A') (A') (A') (A') (A')
                 (A') (A') (A') (A') (A') (A') (A') (A') (A') (A')
                 (A') (A') (A') (A') (A') (A') (A') (A') (A') (A')
                 (A') (A') (A') (A') (A') (A') (A') (A') (A') (A")
                 (A") (A") (A") (A") (A") (A") (A") (A") (A") (A")
                 (A") (A") (A") (A") (A") (A") (A") (A") (A") (A")
                 (A") (A") (A") (A") (A") (A") (A") (A") (A") (A")
                 (A") (A") (A") (A") (A") (A") (A") (A") (A") (A")
                 (A") (A") (A") (A") (A") (A") (A") (A") (A") (A")
                 (A") (A") (A") (A") (A") (A") (A") (A") (A") (A")
                 (A") (A") (A") (A") (A") (A") (A") (A") (A") (A")
                 (A") (A") (A") (A") (A") (A") (A") (A") (A") (A")
                 (A") (A") (A") (A") (A")
 The electronic state of the initial guess is 1-A'.
 Generating alternative initial guess.
 ExpMin= 7.41D-02 ExpMax= 1.48D+04 ExpMxC= 5.05D+02 IAcc=2 IRadAn=         4 AccDes= 0.00D+00
 Harris functional with IExCor= 1009 and IRadAn=       4 diagonalized for initial guess.
 HarFok:  IExCor= 1009 AccDes= 0.00D+00 IRadAn=         4 IDoV= 1 UseB2=F ITyADJ=14
 ICtDFT=  3500011 ScaDFX=  1.000000  1.000000  1.000000  1.000000
 FoFCou: FMM=F IPFlag=           0 FMFlag=      100000 FMFlg1=           0
         NFxFlg=           0 DoJE=T BraDBF=F KetDBF=T FulRan=T
         wScrn=  0.000000 ICntrl=     500 IOpCl=  0 I1Cent=   200000004 NGrid=           0
         NMat0=    1 NMatS0=      1 NMatT0=    0 NMatD0=    1 NMtDS0=    0 NMtDT0=    0
 Petite list used in FoFCou.
 Harris En= -323.369752611700    
 Leave Link  401 at Thu Sep  2 22:20:18 2021, MaxMem=  1342177280 cpu:         3.3
 (Enter /gpfs/share/home/1801110325/software/g09e01/l502.exe)
 Closed shell SCF:
 Using DIIS extrapolation, IDIIS=  1040.
 Integral symmetry usage will be decided dynamically.
 Keep R1 ints in memory in symmetry-blocked form, NReq=1167783638.
 IVT=      330098 IEndB=      330098 NGot=  1342177280 MDV=   948231393
 LenX=   948231393 LenY=   948128552
 Requested convergence on RMS density matrix=1.00D-08 within 128 cycles.
 Requested convergence on MAX density matrix=1.00D-06.
 Requested convergence on             energy=1.00D-06.
 No special actions if energy rises.
 FoFCou: FMM=F IPFlag=           0 FMFlag=           0 FMFlg1=           0
         NFxFlg=           0 DoJE=F BraDBF=F KetDBF=F FulRan=T
         wScrn=  0.000000 ICntrl=     600 IOpCl=  0 I1Cent=           0 NGrid=           0
         NMat0=    1 NMatS0=  39340 NMatT0=    0 NMatD0=    1 NMtDS0=    0 NMtDT0=    0
 Petite list used in FoFCou.

 Cycle   1  Pass 1  IDiag  1:
 E= -323.662554264928    
 DIIS: error= 6.12D-04 at cycle   1 NSaved=   1.
 NSaved= 1 IEnMin= 1 EnMin= -323.662554264928     IErMin= 1 ErrMin= 6.12D-04
 ErrMax= 6.12D-04  0.00D+00 EMaxC= 1.00D-01 BMatC= 1.59D-04 BMatP= 1.59D-04
 IDIUse=3 WtCom= 9.94D-01 WtEn= 6.12D-03
 Coeff-Com:  0.100D+01
 Coeff-En:   0.100D+01
 Coeff:      0.100D+01
 Gap=     0.564 Goal=   None    Shift=    0.000
 RMSDP=5.07D-05 MaxDP=1.40D-03              OVMax= 3.04D-03

 Cycle   2  Pass 1  IDiag  1:
 E= -323.662676294582     Delta-E=       -0.000122029655 Rises=F Damp=F
 DIIS: error= 3.37D-04 at cycle   2 NSaved=   2.
 NSaved= 2 IEnMin= 2 EnMin= -323.662676294582     IErMin= 2 ErrMin= 3.37D-04
 ErrMax= 3.37D-04  0.00D+00 EMaxC= 1.00D-01 BMatC= 3.09D-05 BMatP= 1.59D-04
 IDIUse=3 WtCom= 9.97D-01 WtEn= 3.37D-03
 Coeff-Com:  0.244D+00 0.756D+00
 Coeff-En:   0.000D+00 0.100D+01
 Coeff:      0.244D+00 0.756D+00
 Gap=     0.187 Goal=   None    Shift=    0.000
 RMSDP=2.86D-05 MaxDP=1.44D-03 DE=-1.22D-04 OVMax= 2.22D-03

 Cycle   3  Pass 1  IDiag  1:
 E= -323.662685781589     Delta-E=       -0.000009487007 Rises=F Damp=F
 DIIS: error= 2.73D-04 at cycle   3 NSaved=   3.
 NSaved= 3 IEnMin= 3 EnMin= -323.662685781589     IErMin= 3 ErrMin= 2.73D-04
 ErrMax= 2.73D-04  0.00D+00 EMaxC= 1.00D-01 BMatC= 1.82D-05 BMatP= 3.09D-05
 IDIUse=3 WtCom= 9.97D-01 WtEn= 2.73D-03
 Coeff-Com:  0.270D-01 0.434D+00 0.539D+00
 Coeff-En:   0.000D+00 0.401D+00 0.599D+00
 Coeff:      0.270D-01 0.434D+00 0.539D+00
 Gap=     0.187 Goal=   None    Shift=    0.000
 RMSDP=1.55D-05 MaxDP=7.59D-04 DE=-9.49D-06 OVMax= 1.92D-03

 Cycle   4  Pass 1  IDiag  1:
 E= -323.662700366620     Delta-E=       -0.000014585031 Rises=F Damp=F
 DIIS: error= 1.25D-04 at cycle   4 NSaved=   4.
 NSaved= 4 IEnMin= 4 EnMin= -323.662700366620     IErMin= 4 ErrMin= 1.25D-04
 ErrMax= 1.25D-04  0.00D+00 EMaxC= 1.00D-01 BMatC= 2.89D-06 BMatP= 1.82D-05
 IDIUse=3 WtCom= 9.99D-01 WtEn= 1.25D-03
 Coeff-Com:  0.241D-02 0.237D+00 0.368D+00 0.393D+00
 Coeff-En:   0.000D+00 0.000D+00 0.956D-01 0.904D+00
 Coeff:      0.241D-02 0.237D+00 0.367D+00 0.394D+00
 Gap=     0.186 Goal=   None    Shift=    0.000
 RMSDP=4.95D-06 MaxDP=2.26D-04 DE=-1.46D-05 OVMax= 7.60D-04

 Cycle   5  Pass 1  IDiag  1:
 E= -323.662703079123     Delta-E=       -0.000002712502 Rises=F Damp=F
 DIIS: error= 2.20D-05 at cycle   5 NSaved=   5.
 NSaved= 5 IEnMin= 5 EnMin= -323.662703079123     IErMin= 5 ErrMin= 2.20D-05
 ErrMax= 2.20D-05  0.00D+00 EMaxC= 1.00D-01 BMatC= 9.83D-08 BMatP= 2.89D-06
 IDIUse=1 WtCom= 1.00D+00 WtEn= 0.00D+00
 Coeff-Com: -0.230D-02 0.555D-01 0.118D+00 0.194D+00 0.635D+00
 Coeff:     -0.230D-02 0.555D-01 0.118D+00 0.194D+00 0.635D+00
 Gap=     0.187 Goal=   None    Shift=    0.000
 RMSDP=9.68D-07 MaxDP=3.93D-05 DE=-2.71D-06 OVMax= 1.41D-04

 Cycle   6  Pass 1  IDiag  1:
 E= -323.662703160264     Delta-E=       -0.000000081141 Rises=F Damp=F
 DIIS: error= 6.49D-06 at cycle   6 NSaved=   6.
 NSaved= 6 IEnMin= 6 EnMin= -323.662703160264     IErMin= 6 ErrMin= 6.49D-06
 ErrMax= 6.49D-06  0.00D+00 EMaxC= 1.00D-01 BMatC= 1.44D-08 BMatP= 9.83D-08
 IDIUse=1 WtCom= 1.00D+00 WtEn= 0.00D+00
 Coeff-Com: -0.129D-02 0.151D-01 0.438D-01 0.858D-01 0.372D+00 0.484D+00
 Coeff:     -0.129D-02 0.151D-01 0.438D-01 0.858D-01 0.372D+00 0.484D+00
 Gap=     0.187 Goal=   None    Shift=    0.000
 RMSDP=3.95D-07 MaxDP=2.51D-05 DE=-8.11D-08 OVMax= 5.20D-05

 Cycle   7  Pass 1  IDiag  1:
 E= -323.662703174704     Delta-E=       -0.000000014439 Rises=F Damp=F
 DIIS: error= 1.74D-06 at cycle   7 NSaved=   7.
 NSaved= 7 IEnMin= 7 EnMin= -323.662703174704     IErMin= 7 ErrMin= 1.74D-06
 ErrMax= 1.74D-06  0.00D+00 EMaxC= 1.00D-01 BMatC= 8.48D-10 BMatP= 1.44D-08
 IDIUse=1 WtCom= 1.00D+00 WtEn= 0.00D+00
 Coeff-Com: -0.351D-03 0.117D-02 0.879D-02 0.223D-01 0.112D+00 0.242D+00
 Coeff-Com:  0.615D+00
 Coeff:     -0.351D-03 0.117D-02 0.879D-02 0.223D-01 0.112D+00 0.242D+00
 Coeff:      0.615D+00
 Gap=     0.187 Goal=   None    Shift=    0.000
 RMSDP=8.74D-08 MaxDP=3.64D-06 DE=-1.44D-08 OVMax= 1.46D-05

 Cycle   8  Pass 1  IDiag  1:
 E= -323.662703175417     Delta-E=       -0.000000000713 Rises=F Damp=F
 DIIS: error= 1.09D-06 at cycle   8 NSaved=   8.
 NSaved= 8 IEnMin= 8 EnMin= -323.662703175417     IErMin= 8 ErrMin= 1.09D-06
 ErrMax= 1.09D-06  0.00D+00 EMaxC= 1.00D-01 BMatC= 1.13D-10 BMatP= 8.48D-10
 IDIUse=1 WtCom= 1.00D+00 WtEn= 0.00D+00
 Coeff-Com: -0.163D-03 0.149D-03 0.353D-02 0.100D-01 0.517D-01 0.128D+00
 Coeff-Com:  0.379D+00 0.428D+00
 Coeff:     -0.163D-03 0.149D-03 0.353D-02 0.100D-01 0.517D-01 0.128D+00
 Coeff:      0.379D+00 0.428D+00
 Gap=     0.187 Goal=   None    Shift=    0.000
 RMSDP=3.81D-08 MaxDP=1.47D-06 DE=-7.13D-10 OVMax= 6.51D-06

 Cycle   9  Pass 1  IDiag  1:
 E= -323.662703175542     Delta-E=       -0.000000000125 Rises=F Damp=F
 DIIS: error= 2.71D-07 at cycle   9 NSaved=   9.
 NSaved= 9 IEnMin= 9 EnMin= -323.662703175542     IErMin= 9 ErrMin= 2.71D-07
 ErrMax= 2.71D-07  0.00D+00 EMaxC= 1.00D-01 BMatC= 8.95D-12 BMatP= 1.13D-10
 IDIUse=1 WtCom= 1.00D+00 WtEn= 0.00D+00
 Coeff-Com: -0.121D-05-0.259D-03-0.303D-03 0.835D-04 0.185D-02 0.118D-01
 Coeff-Com:  0.530D-01 0.232D+00 0.702D+00
 Coeff:     -0.121D-05-0.259D-03-0.303D-03 0.835D-04 0.185D-02 0.118D-01
 Coeff:      0.530D-01 0.232D+00 0.702D+00
 Gap=     0.187 Goal=   None    Shift=    0.000
 RMSDP=1.06D-08 MaxDP=3.63D-07 DE=-1.25D-10 OVMax= 2.07D-06

 Cycle  10  Pass 1  IDiag  1:
 E= -323.662703175547     Delta-E=       -0.000000000005 Rises=F Damp=F
 DIIS: error= 4.70D-08 at cycle  10 NSaved=  10.
 NSaved=10 IEnMin=10 EnMin= -323.662703175547     IErMin=10 ErrMin= 4.70D-08
 ErrMax= 4.70D-08  0.00D+00 EMaxC= 1.00D-01 BMatC= 8.98D-13 BMatP= 8.95D-12
 IDIUse=1 WtCom= 1.00D+00 WtEn= 0.00D+00
 Coeff-Com:  0.442D-05-0.156D-03-0.317D-03-0.376D-03-0.921D-03 0.209D-02
 Coeff-Com:  0.170D-01 0.119D+00 0.412D+00 0.452D+00
 Coeff:      0.442D-05-0.156D-03-0.317D-03-0.376D-03-0.921D-03 0.209D-02
 Coeff:      0.170D-01 0.119D+00 0.412D+00 0.452D+00
 Gap=     0.187 Goal=   None    Shift=    0.000
 RMSDP=2.83D-09 MaxDP=1.33D-07 DE=-5.46D-12 OVMax= 4.53D-07

 SCF Done:  E(RTPSSh) =  -323.662703176     A.U. after   10 cycles
            NFock= 10  Conv=0.28D-08     -V/T= 2.0042
 KE= 3.223131258456D+02 PE=-1.307054926156D+03 EE= 3.850909288624D+02
 Leave Link  502 at Thu Sep  2 22:20:48 2021, MaxMem=  1342177280 cpu:       158.6
 (Enter /gpfs/share/home/1801110325/software/g09e01/l701.exe)
 Compute integral first derivatives.
 ... and contract with generalized density number  0.
 Leave Link  701 at Thu Sep  2 22:20:48 2021, MaxMem=  1342177280 cpu:         1.6
 (Enter /gpfs/share/home/1801110325/software/g09e01/l702.exe)
 L702 exits ... SP integral derivatives will be done elsewhere.
 Leave Link  702 at Thu Sep  2 22:20:48 2021, MaxMem=  1342177280 cpu:         0.1
 (Enter /gpfs/share/home/1801110325/software/g09e01/l703.exe)
 Compute integral first derivatives, UseDBF=F ICtDFT=           0.
 Integral derivatives from FoFJK, PRISM(SPDF).
 Calling FoFJK, ICntrl=      2127 FMM=F ISym2X=1 I1Cent= 0 IOpClX= 0 NMat=1 NMatS=1 NMatT=0.
 FoFJK:  IHMeth= 1 ICntrl=    2127 DoSepK=F KAlg= 0 I1Cent=   0 FoldK=F
 IRaf=         0 NMat=   1 IRICut=       1 DoRegI=T DoRafI=F ISym2E= 1.
 FoFCou: FMM=F IPFlag=           0 FMFlag=      100000 FMFlg1=         800
         NFxFlg=           0 DoJE=F BraDBF=F KetDBF=F FulRan=T
         wScrn=  0.000000 ICntrl=    2127 IOpCl=  0 I1Cent=           0 NGrid=           0
         NMat0=    1 NMatS0=      1 NMatT0=    0 NMatD0=    1 NMtDS0=    0 NMtDT0=    0
 Petite list used in FoFCou.
 Leave Link  703 at Thu Sep  2 22:21:06 2021, MaxMem=  1342177280 cpu:       108.5
 (Enter /gpfs/share/home/1801110325/software/g09e01/l716.exe)
 Dipole        = 1.91244834D-01-4.57467551D-01-3.91914136D-32
 ***** Axes restored to original set *****
 -------------------------------------------------------------------
[...]
     29  0.000000D+00 -0.559058D-04  0.327412D-03  0.000000D+00 -0.202275D-03
     30  0.673741D-02  0.000000D+00  0.000000D+00 -0.273668D-03  0.000000D+00
     31  0.000000D+00  0.650738D-04 -0.107717D-03  0.000000D+00  0.761200D-03
     32  0.000000D+00  0.324683D-04 -0.534963D-03  0.000000D+00 -0.489898D-03
     33  0.471128D-02  0.000000D+00  0.000000D+00 -0.434249D-03  0.000000D+00
     34  0.000000D+00 -0.138983D-03 -0.296418D-03  0.000000D+00  0.181578D-03
     35  0.000000D+00  0.143468D-03  0.212181D-03  0.000000D+00  0.293121D-03
     36 -0.320774D-01  0.000000D+00  0.000000D+00 -0.163943D-04  0.000000D+00
               26            27            28            29            30 
     26  0.134242D+00
     27  0.000000D+00  0.237545D-01
     28 -0.547088D-04  0.000000D+00  0.300979D+00
     29  0.144027D-03  0.000000D+00  0.109582D+00  0.115865D+00
     30  0.000000D+00 -0.178274D-02  0.000000D+00  0.000000D+00  0.264444D-01
     31  0.415909D-03  0.000000D+00 -0.106078D-02  0.992117D-03  0.000000D+00
     32  0.135068D-02  0.000000D+00 -0.821748D-03  0.513341D-03  0.000000D+00
     33  0.000000D+00 -0.459808D-02  0.000000D+00  0.000000D+00 -0.442031D-03
     34 -0.150088D-02  0.000000D+00  0.706959D-03 -0.768164D-03  0.000000D+00
     35 -0.449880D-03  0.000000D+00  0.404904D-03  0.563383D-03  0.000000D+00
     36  0.000000D+00  0.606257D-03  0.000000D+00  0.000000D+00 -0.330690D-02
               31            32            33            34            35 
     31  0.275025D+00
     32 -0.132822D+00  0.139283D+00
     33  0.000000D+00  0.000000D+00  0.267820D-01
     34  0.118913D-02  0.778163D-03  0.000000D+00  0.571020D-01
     35 -0.292175D-03  0.747079D-03  0.000000D+00  0.173205D-01  0.358896D+00
     36  0.000000D+00  0.000000D+00 -0.360206D-02  0.000000D+00  0.000000D+00
               36 
     36  0.244759D-01
 FormGI is forming the generalized inverse of G from B-inverse, IUseBI=4.
 Leave Link  716 at Thu Sep  2 22:27:21 2021, MaxMem=  1342177280 cpu:         0.2
 (Enter /gpfs/share/home/1801110325/software/g09e01/l103.exe)

 GradGradGradGradGradGradGradGradGradGradGradGradGradGradGradGradGradGrad
 Berny optimization.
 Red2BG is reusing G-inverse.
 Internal  Forces:  Max     0.000103611 RMS     0.000027196
 Search for a local minimum.
 Step number   1 out of a maximum of    2
 All quantities printed in internal units (Hartrees-Bohrs-Radians)
 Second derivative matrix not updated -- analytic derivatives used.
 ITU=  0
     Eigenvalues ---    0.01339   0.01630   0.01741   0.02166   0.02297
     Eigenvalues ---    0.02724   0.02994   0.03592   0.04318   0.10299
     Eigenvalues ---    0.10930   0.12091   0.13066   0.15054   0.18669
     Eigenvalues ---    0.19589   0.21167   0.23440   0.31252   0.34990
     Eigenvalues ---    0.35626   0.36022   0.36201   0.37619   0.43006
     Eigenvalues ---    0.44514   0.47249   0.50736   0.51103   0.56523
 Angle between quadratic step and forces=  23.23 degrees.
 Linear search not attempted -- first point.
 Iteration  1 RMS(Cart)=  0.00008050 RMS(Int)=  0.00000000
 Iteration  2 RMS(Cart)=  0.00000000 RMS(Int)=  0.00000000
 ITry= 1 IFail=0 DXMaxC= 2.53D-04 DCOld= 1.00D+10 DXMaxT= 3.00D-01 DXLimC= 3.00D+00 Rises=F
 ClnCor:  largest displacement from symmetrization is 3.41D-15 for atom    11.
 Variable       Old X    -DE/DX   Delta X   Delta X   Delta X     New X
                                 (Linear)    (Quad)   (Total)
    R1        2.55864   0.00008   0.00000   0.00023   0.00023   2.55887
    R2        1.83129  -0.00010   0.00000  -0.00020  -0.00020   1.83109
    R3        2.50533   0.00001   0.00000  -0.00001  -0.00001   2.50532
    R4        2.53117  -0.00005   0.00000  -0.00017  -0.00017   2.53100
    R5        2.64139  -0.00007   0.00000  -0.00022  -0.00022   2.64117
    R6        2.61331   0.00005   0.00000   0.00017   0.00017   2.61347
    R7        2.04266   0.00001   0.00000   0.00003   0.00003   2.04269
    R8        2.61764   0.00001   0.00000   0.00010   0.00010   2.61774
    R9        2.04920   0.00003   0.00000   0.00007   0.00007   2.04927
   R10        2.63764  -0.00003   0.00000  -0.00012  -0.00012   2.63751
   R11        2.04670   0.00001   0.00000   0.00002   0.00002   2.04672
   R12        2.04355   0.00001   0.00000   0.00004   0.00004   2.04359
    A1        1.84872  -0.00002   0.00000  -0.00010  -0.00010   1.84862
    A2        2.05109   0.00005   0.00000   0.00017   0.00017   2.05125
    A3        2.04328   0.00005   0.00000   0.00012   0.00012   2.04340
    A4        2.07298  -0.00002   0.00000  -0.00005  -0.00005   2.07293
    A5        2.16693  -0.00002   0.00000  -0.00007  -0.00007   2.16686
    A6        2.04735   0.00001   0.00000   0.00005   0.00005   2.04739
    A7        2.09819  -0.00000   0.00000   0.00006   0.00006   2.09824
    A8        2.13765  -0.00001   0.00000  -0.00011  -0.00011   2.13755
    A9        2.15382  -0.00003   0.00000  -0.00013  -0.00013   2.15368
   A10        2.01864   0.00003   0.00000   0.00017   0.00017   2.01881
   A11        2.11073   0.00000   0.00000  -0.00004  -0.00004   2.11069
   A12        2.08825  -0.00001   0.00000  -0.00007  -0.00007   2.08818
   A13        2.09250   0.00000   0.00000  -0.00001  -0.00001   2.09249
   A14        2.10244   0.00001   0.00000   0.00007   0.00007   2.10251
   A15        2.05894   0.00001   0.00000   0.00006   0.00006   2.05901
   A16        2.10491  -0.00002   0.00000  -0.00014  -0.00014   2.10478
   A17        2.11933   0.00001   0.00000   0.00007   0.00007   2.11940
    D1        0.00000   0.00000   0.00000  -0.00000  -0.00000   0.00000
    D2        3.14159   0.00000   0.00000  -0.00000   0.00000   3.14159
    D3        3.14159   0.00000   0.00000  -0.00000   0.00000   3.14159
    D4       -0.00000   0.00000   0.00000  -0.00000   0.00000   0.00000
    D5        0.00000  -0.00000   0.00000  -0.00000  -0.00000   0.00000
    D6        3.14159   0.00000   0.00000   0.00000   0.00000   3.14159
    D7        3.14159  -0.00000   0.00000   0.00000   0.00000   3.14159
    D8        0.00000  -0.00000   0.00000  -0.00000  -0.00000   0.00000
    D9        0.00000  -0.00000   0.00000   0.00000   0.00000   0.00000
   D10        3.14159  -0.00000   0.00000   0.00000   0.00000   3.14159
   D11        0.00000   0.00000   0.00000  -0.00000  -0.00000   0.00000
   D12        3.14159   0.00000   0.00000  -0.00000   0.00000   3.14159
   D13        3.14159  -0.00000   0.00000   0.00000   0.00000   3.14159
   D14       -0.00000  -0.00000   0.00000  -0.00000   0.00000   0.00000
   D15        0.00000  -0.00000   0.00000   0.00000   0.00000   0.00000
   D16        3.14159  -0.00000   0.00000   0.00000   0.00000   3.14159
   D17        3.14159  -0.00000   0.00000  -0.00000   0.00000   3.14159
   D18        0.00000  -0.00000   0.00000   0.00000  -0.00000   0.00000
   D19       -0.00000   0.00000   0.00000  -0.00000   0.00000   0.00000
   D20        3.14159   0.00000   0.00000  -0.00000   0.00000   3.14159
   D21        3.14159   0.00000   0.00000   0.00000   0.00000   3.14159
   D22       -0.00000   0.00000   0.00000   0.00000   0.00000   0.00000
         Item               Value     Threshold  Converged?
 Maximum Force            0.000104     0.000450     YES
 RMS     Force            0.000027     0.000300     YES
 Maximum Displacement     0.000253     0.001800     YES
 RMS     Displacement     0.000081     0.001200     YES
 Predicted change in Energy=-5.646987D-08
 Optimization completed.
    -- Stationary point found.
                           ----------------------------
                           !   Optimized Parameters   !
                           ! (Angstroms and Degrees)  !
 --------------------------                            --------------------------
 ! Name  Definition              Value          Derivative Info.                !
 --------------------------------------------------------------------------------
 ! R1    R(1,3)                  1.354          -DE/DX =    0.0001              !
 ! R2    R(1,8)                  0.9691         -DE/DX =   -0.0001              !
 ! R3    R(2,3)                  1.3258         -DE/DX =    0.0                 !
 ! R4    R(2,5)                  1.3394         -DE/DX =    0.0                 !
 ! R5    R(3,4)                  1.3978         -DE/DX =   -0.0001              !
 ! R6    R(4,6)                  1.3829         -DE/DX =    0.0                 !
 ! R7    R(4,9)                  1.0809         -DE/DX =    0.0                 !
 ! R8    R(5,7)                  1.3852         -DE/DX =    0.0                 !
 ! R9    R(5,10)                 1.0844         -DE/DX =    0.0                 !
 ! R10   R(6,7)                  1.3958         -DE/DX =    0.0                 !
 ! R11   R(6,11)                 1.0831         -DE/DX =    0.0                 !
 ! R12   R(7,12)                 1.0814         -DE/DX =    0.0                 !
 ! A1    A(3,1,8)              105.9241         -DE/DX =    0.0                 !
 ! A2    A(3,2,5)              117.5187         -DE/DX =    0.0                 !
 ! A3    A(1,3,2)              117.0711         -DE/DX =    0.0                 !
 ! A4    A(1,3,4)              118.773          -DE/DX =    0.0                 !
 ! A5    A(2,3,4)              124.1559         -DE/DX =    0.0                 !
 ! A6    A(3,4,6)              117.3043         -DE/DX =    0.0                 !
 ! A7    A(3,4,9)              120.2172         -DE/DX =    0.0                 !
 ! A8    A(6,4,9)              122.4786         -DE/DX =    0.0                 !
 ! A9    A(2,5,7)              123.4046         -DE/DX =    0.0                 !
 ! A10   A(2,5,10)             115.6596         -DE/DX =    0.0                 !
 ! A11   A(7,5,10)             120.9357         -DE/DX =    0.0                 !
 ! A12   A(4,6,7)              119.6477         -DE/DX =    0.0                 !
 ! A13   A(4,6,11)             119.8914         -DE/DX =    0.0                 !
 ! A14   A(7,6,11)             120.4609         -DE/DX =    0.0                 !
 ! A15   A(5,7,6)              117.9688         -DE/DX =    0.0                 !
 ! A16   A(5,7,12)             120.6026         -DE/DX =    0.0                 !
 ! A17   A(6,7,12)             121.4286         -DE/DX =    0.0                 !
 ! D1    D(8,1,3,2)              0.0            -DE/DX =    0.0                 !
 ! D2    D(8,1,3,4)            180.0            -DE/DX =    0.0                 !
 ! D3    D(5,2,3,1)            180.0            -DE/DX =    0.0                 !
 ! D4    D(5,2,3,4)              0.0            -DE/DX =    0.0                 !
 ! D5    D(3,2,5,7)              0.0            -DE/DX =    0.0                 !
 ! D6    D(3,2,5,10)           180.0            -DE/DX =    0.0                 !
 ! D7    D(1,3,4,6)            180.0            -DE/DX =    0.0                 !
 ! D8    D(1,3,4,9)              0.0            -DE/DX =    0.0                 !
 ! D9    D(2,3,4,6)              0.0            -DE/DX =    0.0                 !
 ! D10   D(2,3,4,9)            180.0            -DE/DX =    0.0                 !
 ! D11   D(3,4,6,7)              0.0            -DE/DX =    0.0                 !
 ! D12   D(3,4,6,11)           180.0            -DE/DX =    0.0                 !
 ! D13   D(9,4,6,7)            180.0            -DE/DX =    0.0                 !
 ! D14   D(9,4,6,11)             0.0            -DE/DX =    0.0                 !
 ! D15   D(2,5,7,6)              0.0            -DE/DX =    0.0                 !
 ! D16   D(2,5,7,12)           180.0            -DE/DX =    0.0                 !
 ! D17   D(10,5,7,6)           180.0            -DE/DX =    0.0                 !
 ! D18   D(10,5,7,12)            0.0            -DE/DX =    0.0                 !
 ! D19   D(4,6,7,5)              0.0            -DE/DX =    0.0                 !
 ! D20   D(4,6,7,12)           180.0            -DE/DX =    0.0                 !
 ! D21   D(11,6,7,5)           180.0            -DE/DX =    0.0                 !
 ! D22   D(11,6,7,12)            0.0            -DE/DX =    0.0                 !
 --------------------------------------------------------------------------------
 GradGradGradGradGradGradGradGradGradGradGradGradGradGradGradGradGradGrad

 Leave Link  103 at Thu Sep  2 22:27:22 2021, MaxMem=  1342177280 cpu:         0.1
 (Enter /gpfs/share/home/1801110325/software/g09e01/l9999.exe)
 1\1\GINC-A8U03N01\Freq\RTPSSh\Gen\C5H5N1O1\1801110325\02-Sep-2021\0\\#
 P Geom=AllCheck Guess=TCheck SCRF=Check GenChk RTPSSh/ChkBas Freq\\HY_
 TPSSh_PC2_OPT_FREQ\\0,1\O,0.0050582573,2.2557666567,0.\N,-1.178119033,
 0.3000545726,0.\C,0.0032151446,0.901795404,0.\C,1.2274861595,0.2273262
 928,0.\C,-1.1904057903,-1.0393274121,0.\C,1.1901579166,-1.1550730382,0
 .\C,-0.0410835857,-1.8125205382,0.\H,-0.9264697479,2.5229148635,0.\H,2
 .1546862383,0.7829438462,0.\H,-2.1721240456,-1.4999091889,0.\H,2.11423
 38168,-1.7199757444,0.\H,-0.1038543305,-2.8920957141,0.\\Version=EM64L
 -G09RevE.01\State=1-A'\HF=-323.6627258\RMSD=5.985e-09\RMSF=4.679e-05\Z
 eroPoint=0.092971\Thermal=0.0982164\Dipole=0.1928185,-0.4746398,0.\Dip
 oleDeriv=-0.1950894,0.1073962,0.,0.0974249,-1.5703923,0.,0.,0.,-0.3561
 087,-0.4641395,-0.2773256,0.,0.1785256,-0.7876971,0.,0.,0.,-0.2692659,
 0.2703127,-0.2006877,0.,-0.0622836,1.7640477,0.,0.,0.,0.1884572,-0.016
 3263,0.4001834,0.,-0.0437081,-0.4471033,0.,0.,0.,-0.1403837,0.4468786,
 0.1381363,0.,-0.2136198,0.3788662,0.,0.,0.,-0.0142333,0.2737126,0.0617
 716,0.,0.1077205,0.3408394,0.,0.,0.,-0.0932668,-0.4348796,-0.1217214,0
 .,0.0783687,-0.0529994,0.,0.,0.,-0.1480025,0.1872519,-0.0196928,0.,-0.
 078625,0.3846924,0.,0.,0.,0.3107048,-0.0235822,-0.0592952,0.,-0.057367
 3,0.0391437,0.,0.,0.,0.1472482,-0.0669327,-0.0936922,0.,-0.0632456,0.0
 107327,0.,0.,0.,0.1041642,-0.0431482,0.075375,0.,0.0726496,0.0348428,0
 .,0.,0.,0.1222048,0.065942,-0.0104475,0.,-0.0158398,-0.0949729,0.,0.,0
 .,0.1484816\Polar=74.4383821,0.0563344,86.1573802,0.,0.,37.811361\PG=C
 S [SG(C5H5N1O1)]\NImag=0\\0.57220410,-0.09716281,0.45556199,0.,0.,0.03
 492619,-0.00710821,-0.03203561,0.,0.46419174,-0.06543717,-0.05335863,0
 .,0.12242379,0.61546222,0.,0.,0.00691023,0.,0.,0.08754083,-0.10721260,
 -0.01356587,0.,-0.29909784,-0.05323724,0.,0.70411802,0.03329366,-0.290
 89574,0.,-0.08388575,-0.16524979,0.,-0.02573517,0.70246208,0.,0.,-0.04
 963934,0.,0.,-0.06924645,0.,0.,0.17918188,0.00100229,0.01349891,0.,-0.
 06206278,-0.03157100,0.,-0.26509808,0.10095584,0.,0.70653891,0.0498688
 5,-0.04174337,0.,0.01616172,0.06062472,0.,0.03193155,-0.14926835,0.,0.
 05310729,0.71417169,0.,0.,0.00823287,0.,0.,0.01872556,0.,0.,-0.0730935
 3,0.,0.,0.12029056,-0.00521337,0.00142426,0.,-0.11604471,-0.01145020,0
 .,0.01752229,-0.04836854,0.,-0.01556366,0.02547227,0.,0.74540903,0.008
 60981,0.00124197,0.,0.00994755,-0.33729870,0.,-0.10039265,-0.04636307,
 0.,0.03449190,-0.05016234,0.,0.03278806,0.66361398,0.,0.,0.01039914,0.
 ,0.,-0.06189309,0.,0.,-0.00385817,0.,0.,-0.00514005,0.,0.,0.15509303,-
 0.01140613,0.00391486,0.,-0.01802781,-0.03792075,0.,0.04600011,0.03098
 084,0.,-0.12960157,0.02241307,0.,-0.06077245,0.03044504,0.,0.71067414,
 -0.00607645,0.00747241,0.,-0.03280325,-0.05084987,0.,0.08148146,-0.031
 92851,0.,-0.03575712,-0.36003411,0.,-0.01760252,0.06711409,0.,-0.03931
 141,0.69376535,0.,0.,0.00456704,0.,0.,-0.00769877,0.,0.,0.00202097,0.,
 0.,-0.05641782,0.,0.,0.00742691,0.,0.,0.14113589,0.00814028,-0.0047224
 1,0.,0.04211038,0.07855454,0.,-0.07786584,0.00041511,0.,0.03152876,-0.
 07063025,0.,-0.27949381,0.05761867,0.,-0.28089161,-0.05037435,0.,0.649
 31104,-0.00223348,-0.00614891,0.,0.02194318,-0.05089050,0.,0.01340047,
 0.00540080,0.,-0.03417921,-0.02419560,0.,0.12318227,-0.18502529,0.,-0.
 11224776,-0.17026205,0.,0.00165081,0.75047962,0.,0.,-0.00166361,0.,0.,
 0.02199066,0.,0.,-0.00887931,0.,0.,0.00669979,0.,0.,-0.06622686,0.,0.,
 -0.06153842,0.,0.,0.12092044,-0.45289799,0.12895280,0.,-0.00045232,-0.
 00350864,0.,-0.00318007,0.01144615,0.,0.00272974,-0.00225636,0.,-0.001
 33179,-0.00142763,0.,0.00011473,0.00098778,0.,-0.00067979,-0.00040177,
 0.,0.45563795,0.07946498,-0.07110970,0.,0.00188798,0.00808656,0.,0.054
 47518,-0.02708383,0.,-0.00242238,-0.00739757,0.,-0.00094646,-0.0019100
 3,0.,0.00262814,0.00056885,0.,-0.00115889,0.00115336,0.,-0.13362703,0.
 09753399,0.,0.,-0.01082093,0.,0.,-0.00360474,0.,0.,0.00106107,0.,0.,0.
 00340089,0.,0.,-0.00072785,0.,0.,0.00152545,0.,0.,0.00055100,0.,0.,0.0
 0999159,0.00175298,-0.00031598,0.,-0.00550760,0.00327711,0.,-0.0171876
 6,-0.01932189,0.,-0.26949159,-0.12269913,0.,0.00043758,0.00232510,0.,0
 .00493638,0.00184119,0.,0.00229153,0.00082682,0.,0.00004807,-0.0000677
 1,0.,0.28183975,-0.00069882,0.00107012,0.,0.00531231,-0.00033182,0.,0.
 01313706,0.01168073,0.,-0.12424525,-0.13100795,0.,0.00035544,-0.001546
 75,0.,-0.02864284,-0.00994598,0.,0.00167357,-0.00535912,0.,-0.00028533
 ,0.00015375,0.,0.13453354,0.13424220,0.,0.,-0.00176419,0.,0.,0.0059873
 0,0.,0.,0.00169838,0.,0.,-0.03343712,0.,0.,-0.00034644,0.,0.,0.0017593
 4,0.,0.,0.00877501,0.,0.,-0.00065216,0.,0.,0.02375446,-0.00012734,-0.0
 0020273,0.,0.00555538,-0.00507247,0.,0.00300059,0.00180477,0.,0.000452
 13,0.00070137,0.,-0.28888815,-0.09722691,0.,-0.00326816,0.00437755,0.,
 -0.01737237,-0.01366235,0.,0.00008538,0.00017033,0.,-0.00006222,-0.000
 05471,0.,0.30097859,-0.00129270,-0.00120962,0.,-0.03186981,-0.02472376
 ,0.,-0.00032579,-0.00449216,0.,0.00001372,-0.00067421,0.,-0.09548456,-
 0.09609723,0.,0.00329097,-0.00186315,0.,0.01612040,0.01164670,0.,-0.00
 005591,0.00032741,0.,-0.00020227,0.00014403,0.,0.10958200,0.11586527,0
 .,0.,0.00052263,0.,0.,-0.00374191,0.,0.,0.01046863,0.,0.,-0.00073016,0
 .,0.,-0.04150996,0.,0.,0.00761426,0.,0.,0.00673741,0.,0.,-0.00027367,0
 .,0.,-0.00178274,0.,0.,0.02644444,0.00003880,0.00011771,0.,0.00051687,
 -0.00062854,0.,0.00189268,-0.00131688,0.,0.00453700,-0.00223712,0.,-0.
 00416437,-0.00442503,0.,-0.26110631,0.12292009,0.,-0.01769444,0.017383
 37,0.,0.00006507,-0.00010772,0.,0.00076120,0.00041591,0.,-0.00106078,0
 .00099212,0.,0.27502515,0.00193991,-0.00082307,0.,-0.00045148,-0.00055
 258,0.,-0.00183529,-0.00533829,0.,0.02873404,-0.01125047,0.,-0.0035339
 7,-0.00096579,0.,0.12228877,-0.13481787,0.,-0.01381924,0.01238859,0.,0
 .00003247,-0.00053496,0.,-0.00048990,0.00135068,0.,-0.00082175,0.00051
 334,0.,-0.13282174,0.13928333,0.,0.,-0.00023597,0.,0.,-0.00320571,0.,0
 .,0.00982409,0.,0.,0.00487816,0.,0.,0.00756803,0.,0.,-0.04124546,0.,0.
 ,0.00471128,0.,0.,-0.00043425,0.,0.,-0.00459808,0.,0.,-0.00044203,0.,0
 .,0.02678200,0.00082718,0.00009688,0.,-0.00407310,0.00457057,0.,-0.002
 89160,-0.00026813,0.,-0.00497116,-0.00183326,0.,0.00810341,0.02724609,
 0.,0.00334868,-0.02968298,0.,-0.05938414,-0.01566234,0.,-0.00013898,-0
 .00029642,0.,0.00018158,-0.00150088,0.,0.00070696,-0.00076816,0.,0.001
 18913,0.00077816,0.,0.05710203,-0.00027579,-0.00005745,0.,0.00336938,-
 0.00091786,0.,0.00066630,0.00107612,0.,-0.00262673,0.00093756,0.,-0.00
 583607,-0.01260085,0.,0.00216108,-0.00921917,0.,-0.01532795,-0.3391876
 0,0.,0.00014347,0.00021218,0.,0.00029312,-0.00044988,0.,0.00040490,0.0
 0056338,0.,-0.00029217,0.00074708,0.,0.01732047,0.35889646,0.,0.,-0.00
 143407,0.,0.,0.00823609,0.,0.,0.00046178,0.,0.,0.00659085,0.,0.,-0.000
 78468,0.,0.,0.00085061,0.,0.,-0.03207740,0.,0.,-0.00001639,0.,0.,0.000
 60626,0.,0.,-0.00330690,0.,0.,-0.00360206,0.,0.,0.02447591\\0.00004561
 ,-0.00012460,0.,-0.00005846,0.00008278,0.,-0.00002264,0.00007095,0.,0.
 00008386,-0.00007196,0.,0.00005072,-0.00006439,0.,0.00002255,0.0000743
 5,0.,-0.00004511,-0.00004343,0.,-0.00011456,0.00003256,0.,-0.00001636,
 0.00001204,0.,0.00002657,0.00000567,0.,-0.00000031,0.00001715,0.,0.000
 02813,0.00000889,0.\\\@


 "A LITTLE BIT GOES A LONG WAY"
 R.S. MULLIKEN AS QUOTED BY K. RUEDENBERG
 Job cpu time:       0 days  0 hours 28 minutes 15.3 seconds.
 File lengths (MBytes):  RWF=   2160 Int=      0 D2E=      0 Chk=     32 Scr=     32
 Normal termination of Gaussian 09 at Thu Sep  2 22:27:22 2021.
