 Entering Gaussian System, Link 0=g09
 AtFile(1): pc-2.gbs
            -H     0
            S    4   1.00
                  0.754230D+02           0.240650D-02
                  0.113500D+02           0.184870D-01
                  0.259930D+01           0.897420D-01
                  0.735130D+00           0.281110D+00
            S    1   1.00
                  0.231670D+00           0.100000D+01
            S    1   1.00
                  0.741470D-01           0.100000D+01
            P    1   1.00
                  0.160000D+01           0.100000D+01
            P    1   1.00
                  0.450000D+00           0.100000D+01
            D    1   1.00
                  0.125000D+01           0.100000D+01
            ****
            -C     0
            S    7   1.00
                  0.785710D+04           0.568250D-03
                  0.117870D+04           0.439150D-02
                  0.268320D+03           0.225040D-01
                  0.759480D+02           0.866530D-01
                  0.245590D+02           0.244050D+00
                  0.862120D+01           0.441480D+00
                  0.312780D+01           0.353320D+00
            S    7   1.00
                  0.117870D+04          -0.594920D-06
                  0.268320D+03          -0.627480D-04
                  0.759480D+02          -0.757730D-03
                  0.245590D+02          -0.733080D-02
                  0.862120D+01          -0.389320D-01
                  0.312780D+01          -0.889080D-01
                  0.822020D+00           0.216890D+00
            S    1   1.00
                  0.330170D+00           0.100000D+01
            S    1   1.00
                  0.114630D+00           0.100000D+01
            P    4   1.00
                  0.337750D+02           0.602940D-02
                  0.767660D+01           0.432280D-01
                  0.223570D+01           0.163010D+00
                  0.764470D+00           0.365040D+00
            P    1   1.00
                  0.262320D+00           0.100000D+01
            P    1   1.00
                  0.846380D-01           0.100000D+01
            D    1   1.00
                  0.140000D+01           0.100000D+01
            D    1   1.00
                  0.450000D+00           0.100000D+01
            F    1   1.00
                  0.950000D+00           0.100000D+01
            ****
            -N     0
            S    7   1.00
                  0.111010D+05           0.545700D-03
                  0.166530D+04           0.421810D-02
                  0.379080D+03           0.216450D-01
                  0.107300D+03           0.837760D-01
                  0.347470D+02           0.238810D+00
                  0.122490D+02           0.439940D+00
                  0.447430D+01           0.363640D+00
            S    7   1.00
                  0.166530D+04          -0.150060D-05
                  0.379080D+03          -0.587530D-04
                  0.107300D+03          -0.774530D-03
                  0.347470D+02          -0.721610D-02
                  0.122490D+02          -0.393380D-01
                  0.447430D+01          -0.906110D-01
                  0.124040D+01           0.198820D+00
            S    1   1.00
                  0.487430D+00           0.100000D+01
            S    1   1.00
                  0.164840D+00           0.100000D+01
            P    4   1.00
                  0.479340D+02           0.617060D-02
                  0.109990D+02           0.442600D-01
                  0.324720D+01           0.168250D+00
                  0.111140D+01           0.368480D+00
            P    1   1.00
                  0.379880D+00           0.100000D+01
            P    1   1.00
                  0.120680D+00           0.100000D+01
            D    1   1.00
                  0.180000D+01           0.100000D+01
            D    1   1.00
                  0.550000D+00           0.100000D+01
            F    1   1.00
                  0.102000D+01           0.100000D+01
            ****
            -O     0
            S    7   1.00
                  0.147820D+05           0.535190D-03
                  0.221730D+04           0.413750D-02
                  0.504740D+03           0.212450D-01
                  0.142870D+03           0.824530D-01
                  0.463000D+02           0.236710D+00
                  0.163370D+02           0.440390D+00
                  0.598280D+01           0.364650D+00
            S    7   1.00
                  0.221730D+04          -0.192750D-05
                  0.504740D+03          -0.579640D-04
                  0.142870D+03          -0.794940D-03
                  0.463000D+02          -0.731250D-02
                  0.163370D+02          -0.405740D-01
                  0.598280D+01          -0.915940D-01
                  0.167180D+01           0.209400D+00
            S    1   1.00
                  0.646620D+00           0.100000D+01
            S    1   1.00
                  0.216690D+00           0.100000D+01
            P    4   1.00
                  0.604240D+02           0.689490D-02
                  0.139350D+02           0.490050D-01
                  0.415310D+01           0.182550D+00
                  0.141580D+01           0.376330D+00
            P    1   1.00
                  0.475490D+00           0.100000D+01
            P    1   1.00
                  0.145290D+00           0.100000D+01
            D    1   1.00
                  0.220000D+01           0.100000D+01
            D    1   1.00
                  0.650000D+00           0.100000D+01
            F    1   1.00
                  0.110000D+01           0.100000D+01
            ****
 Initial command:
 /public3/home/sc51754/softwares/g09e01/l1.exe "./Gau-27556.inp" -scrdir="./"
 Entering Link 1 = /public3/home/sc51754/softwares/g09e01/l1.exe PID=     27557.
  
 Copyright (c) 1988,1990,1992,1993,1995,1998,2003,2009,2015,
            Gaussian, Inc.  All Rights Reserved.
  
 This is part of the Gaussian(R) 09 program.  It is based on
 the Gaussian(R) 03 system (copyright 2003, Gaussian, Inc.),
 the Gaussian(R) 98 system (copyright 1998, Gaussian, Inc.),
 the Gaussian(R) 94 system (copyright 1995, Gaussian, Inc.),
 the Gaussian 92(TM) system (copyright 1992, Gaussian, Inc.),
 the Gaussian 90(TM) system (copyright 1990, Gaussian, Inc.),
 the Gaussian 88(TM) system (copyright 1988, Gaussian, Inc.),
 the Gaussian 86(TM) system (copyright 1986, Carnegie Mellon
 University), and the Gaussian 82(TM) system (copyright 1983,
 Carnegie Mellon University). Gaussian is a federally registered
 trademark of Gaussian, Inc.
  
 This software contains proprietary and confidential information,
 including trade secrets, belonging to Gaussian, Inc.
  
 This software is provided under written license and may be
 used, copied, transmitted, or stored only in accord with that
 written license.
  
 The following legend is applicable only to US Government
 contracts under FAR:
  
                    RESTRICTED RIGHTS LEGEND
  
 Use, reproduction and disclosure by the US Government is
 subject to restrictions as set forth in subparagraphs (a)
 and (c) of the Commercial Computer Software - Restricted
 Rights clause in FAR 52.227-19.
  
 Gaussian, Inc.
 340 Quinnipiac St., Bldg. 40, Wallingford CT 06492
  
  
 ---------------------------------------------------------------
 Warning -- This program may not be used in any manner that
 competes with the business of Gaussian, Inc. or will provide
 assistance to any competitor of Gaussian, Inc.  The licensee
 of this program is prohibited from giving any competitor of
 Gaussian, Inc. access to this program.  By using this program,
 the user acknowledges that Gaussian, Inc. is engaged in the
 business of creating and licensing software in the field of
 computational chemistry and represents and warrants to the
 licensee that it is not a competitor of Gaussian, Inc. and that
 it will not use this program in any manner prohibited above.
 ---------------------------------------------------------------
  

 Cite this work as:
 Gaussian 09, Revision E.01,
 M. J. Frisch, G. W. Trucks, H. B. Schlegel, G. E. Scuseria, 
 M. A. Robb, J. R. Cheeseman, G. Scalmani, V. Barone, B. Mennucci, 
 G. A. Petersson, H. Nakatsuji, M. Caricato, X. Li, H. P. Hratchian, 
 A. F. Izmaylov, J. Bloino, G. Zheng, J. L. Sonnenberg, M. Hada, 
 M. Ehara, K. Toyota, R. Fukuda, J. Hasegawa, M. Ishida, T. Nakajima, 
 Y. Honda, O. Kitao, H. Nakai, T. Vreven, J. A. Montgomery, Jr., 
 J. E. Peralta, F. Ogliaro, M. Bearpark, J. J. Heyd, E. Brothers, 
 K. N. Kudin, V. N. Staroverov, T. Keith, R. Kobayashi, J. Normand, 
 K. Raghavachari, A. Rendell, J. C. Burant, S. S. Iyengar, J. Tomasi, 
 M. Cossi, N. Rega, J. M. Millam, M. Klene, J. E. Knox, J. B. Cross, 
 V. Bakken, C. Adamo, J. Jaramillo, R. Gomperts, R. E. Stratmann, 
 O. Yazyev, A. J. Austin, R. Cammi, C. Pomelli, J. W. Ochterski, 
 R. L. Martin, K. Morokuma, V. G. Zakrzewski, G. A. Voth, 
 P. Salvador, J. J. Dannenberg, S. Dapprich, A. D. Daniels, 
 O. Farkas, J. B. Foresman, J. V. Ortiz, J. Cioslowski, 
 and D. J. Fox, Gaussian, Inc., Wallingford CT, 2013.
 
 ******************************************
 Gaussian 09:  EM64L-G09RevE.01 30-Nov-2015
                27-Aug-2021 
 ******************************************
 %nprocshared=64
 Will use up to   64 processors via shared memory.
 %mem=128GB
 %chk=HY_wB97_PC2_OPT_FREQ.chk
 --------------------
 #p opt freq wB97/gen
 --------------------
 1/14=-1,18=20,19=15,26=3,38=1/1,3;
 2/9=110,12=2,17=6,18=5,40=1/2;
 3/5=7,11=2,16=1,25=1,30=1,71=1,74=-56/1,2,3;
 4//1;
 5/5=2,38=5/2;
 6/7=2,8=2,9=2,10=2,28=1/1;
 7//1,2,3,16;
 1/14=-1,18=20,19=15,26=3/3(2);
 2/9=110/2;
 99//99;
 2/9=110/2;
 3/5=7,6=1,11=2,16=1,25=1,30=1,71=1,74=-56,82=7/1,2,3;
 4/5=5,16=3,69=1/1;
 5/5=2,38=5/2;
 7//1,2,3,16;
 1/14=-1,18=20,19=15,26=3/3(-5);
 2/9=110/2;
 6/7=2,8=2,9=2,10=2,19=2,28=1/1;
 99/9=1/99;
 Leave Link    1 at Fri Aug 27 00:13:05 2021, MaxMem= 17179869184 cpu:         4.8
 (Enter /public3/home/sc51754/softwares/g09e01/l101.exe)
 --------------------
 HY_wB97_PC2_OPT_FREQ
 --------------------
 Symbolic Z-matrix:
 Charge =  0 Multiplicity = 1
 O                     0.00837   2.23974   0. 
 N                    -1.17143   0.29602   0. 
 C                     0.        0.89831   0. 
 C                     1.21926   0.22535   0. 
 C                    -1.18415  -1.03535   0. 
 C                     1.18363  -1.14867   0. 
 C                    -0.04131  -1.80488   0. 
 H                    -0.91394   2.51588   0. 
 H                     2.14363   0.78426   0. 
 H                    -2.16362  -1.50192   0. 
 H                     2.10659  -1.71377   0. 
 H                    -0.10426  -2.88308   0. 
 
 NAtoms=     12 NQM=       12 NQMF=       0 NMMI=      0 NMMIF=      0
                NMic=       0 NMicF=      0.
                    Isotopes and Nuclear Properties:
 (Nuclear quadrupole moments (NQMom) in fm**2, nuclear magnetic moments (NMagM)
  in nuclear magnetons)

  Atom         1           2           3           4           5           6           7           8           9          10
 IAtWgt=          16          14          12          12          12          12          12           1           1           1
 AtmWgt=  15.9949146  14.0030740  12.0000000  12.0000000  12.0000000  12.0000000  12.0000000   1.0078250   1.0078250   1.0078250
 NucSpn=           0           2           0           0           0           0           0           1           1           1
 AtZEff=   0.0000000   0.0000000   0.0000000   0.0000000   0.0000000   0.0000000   0.0000000   0.0000000   0.0000000   0.0000000
 NQMom=    0.0000000   2.0440000   0.0000000   0.0000000   0.0000000   0.0000000   0.0000000   0.0000000   0.0000000   0.0000000
 NMagM=    0.0000000   0.4037610   0.0000000   0.0000000   0.0000000   0.0000000   0.0000000   2.7928460   2.7928460   2.7928460
 AtZNuc=   8.0000000   7.0000000   6.0000000   6.0000000   6.0000000   6.0000000   6.0000000   1.0000000   1.0000000   1.0000000

  Atom        11          12
 IAtWgt=           1           1
 AtmWgt=   1.0078250   1.0078250
 NucSpn=           1           1
 AtZEff=   0.0000000   0.0000000
 NQMom=    0.0000000   0.0000000
 NMagM=    2.7928460   2.7928460
 AtZNuc=   1.0000000   1.0000000
 Leave Link  101 at Fri Aug 27 00:13:05 2021, MaxMem= 17179869184 cpu:        12.3
 (Enter /public3/home/sc51754/softwares/g09e01/l103.exe)

 GradGradGradGradGradGradGradGradGradGradGradGradGradGradGradGradGradGrad
 Berny optimization.
 Initialization pass.
                           ----------------------------
                           !    Initial Parameters    !
                           ! (Angstroms and Degrees)  !
 --------------------------                            --------------------------
 ! Name  Definition              Value          Derivative Info.                !
 --------------------------------------------------------------------------------
 ! R1    R(1,3)                  1.3415         estimate D2E/DX2                !
 ! R2    R(1,8)                  0.9628         estimate D2E/DX2                !
 ! R3    R(2,3)                  1.3172         estimate D2E/DX2                !
 ! R4    R(2,5)                  1.3314         estimate D2E/DX2                !
 ! R5    R(3,4)                  1.3927         estimate D2E/DX2                !
 ! R6    R(4,6)                  1.3745         estimate D2E/DX2                !
 ! R7    R(4,9)                  1.0802         estimate D2E/DX2                !
 ! R8    R(5,7)                  1.3778         estimate D2E/DX2                !
 ! R9    R(5,10)                 1.0849         estimate D2E/DX2                !
 ! R10   R(6,7)                  1.3896         estimate D2E/DX2                !
 ! R11   R(6,11)                 1.0822         estimate D2E/DX2                !
 ! R12   R(7,12)                 1.08           estimate D2E/DX2                !
 ! A1    A(3,1,8)              106.3104         estimate D2E/DX2                !
 ! A2    A(3,2,5)              117.7571         estimate D2E/DX2                !
 ! A3    A(1,3,2)              117.5674         estimate D2E/DX2                !
 ! A4    A(1,3,4)              118.5383         estimate D2E/DX2                !
 ! A5    A(2,3,4)              123.8942         estimate D2E/DX2                !
 ! A6    A(3,4,6)              117.4104         estimate D2E/DX2                !
 ! A7    A(3,4,9)              119.945          estimate D2E/DX2                !
 ! A8    A(6,4,9)              122.6446         estimate D2E/DX2                !
 ! A9    A(2,5,7)              123.4071         estimate D2E/DX2                !
 ! A10   A(2,5,10)             116.018          estimate D2E/DX2                !
 ! A11   A(7,5,10)             120.5749         estimate D2E/DX2                !
 ! A12   A(4,6,7)              119.6636         estimate D2E/DX2                !
 ! A13   A(4,6,11)             119.9925         estimate D2E/DX2                !
 ! A14   A(7,6,11)             120.3439         estimate D2E/DX2                !
 ! A15   A(5,7,6)              117.8675         estimate D2E/DX2                !
 ! A16   A(5,7,12)             120.6134         estimate D2E/DX2                !
 ! A17   A(6,7,12)             121.519          estimate D2E/DX2                !
 ! D1    D(8,1,3,2)              0.0            estimate D2E/DX2                !
 ! D2    D(8,1,3,4)            180.0            estimate D2E/DX2                !
 ! D3    D(5,2,3,1)            180.0            estimate D2E/DX2                !
 ! D4    D(5,2,3,4)              0.0            estimate D2E/DX2                !
 ! D5    D(3,2,5,7)              0.0            estimate D2E/DX2                !
 ! D6    D(3,2,5,10)           180.0            estimate D2E/DX2                !
 ! D7    D(1,3,4,6)            180.0            estimate D2E/DX2                !
 ! D8    D(1,3,4,9)              0.0            estimate D2E/DX2                !
 ! D9    D(2,3,4,6)              0.0            estimate D2E/DX2                !
 ! D10   D(2,3,4,9)            180.0            estimate D2E/DX2                !
 ! D11   D(3,4,6,7)              0.0            estimate D2E/DX2                !
 ! D12   D(3,4,6,11)           180.0            estimate D2E/DX2                !
 ! D13   D(9,4,6,7)            180.0            estimate D2E/DX2                !
 ! D14   D(9,4,6,11)             0.0            estimate D2E/DX2                !
 ! D15   D(2,5,7,6)              0.0            estimate D2E/DX2                !
 ! D16   D(2,5,7,12)           180.0            estimate D2E/DX2                !
 ! D17   D(10,5,7,6)           180.0            estimate D2E/DX2                !
 ! D18   D(10,5,7,12)            0.0            estimate D2E/DX2                !
 ! D19   D(4,6,7,5)              0.0            estimate D2E/DX2                !
 ! D20   D(4,6,7,12)           180.0            estimate D2E/DX2                !
 ! D21   D(11,6,7,5)           180.0            estimate D2E/DX2                !
 ! D22   D(11,6,7,12)            0.0            estimate D2E/DX2                !
 --------------------------------------------------------------------------------
 Trust Radius=3.00D-01 FncErr=1.00D-07 GrdErr=1.00D-06
 Number of steps in this run=     61 maximum allowed number of steps=    100.
 GradGradGradGradGradGradGradGradGradGradGradGradGradGradGradGradGradGrad

 Leave Link  103 at Fri Aug 27 00:13:05 2021, MaxMem= 17179869184 cpu:         0.1
 (Enter /public3/home/sc51754/softwares/g09e01/l202.exe)
                          Input orientation:                          
 ---------------------------------------------------------------------
 Center     Atomic      Atomic             Coordinates (Angstroms)
 Number     Number       Type             X           Y           Z
 ---------------------------------------------------------------------
      1          8           0        0.008372    2.239736    0.000000
      2          7           0       -1.171427    0.296023    0.000000
      3          6           0        0.000000    0.898309    0.000000
      4          6           0        1.219264    0.225352    0.000000
      5          6           0       -1.184145   -1.035351    0.000000
      6          6           0        1.183632   -1.148671    0.000000
      7          6           0       -0.041314   -1.804878    0.000000
      8          1           0       -0.913944    2.515883    0.000000
      9          1           0        2.143627    0.784264    0.000000
     10          1           0       -2.163617   -1.501920    0.000000
     11          1           0        2.106589   -1.713772    0.000000
     12          1           0       -0.104256   -2.883075    0.000000
 ---------------------------------------------------------------------
                    Distance matrix (angstroms):
                    1          2          3          4          5
     1  O    0.000000
     2  N    2.273752   0.000000
     3  C    1.341453   1.317190   0.000000
     4  C    2.350320   2.391735   1.392651   0.000000
     5  C    3.485440   1.331435   2.267430   2.713991   0.000000
     6  C    3.586438   2.762869   2.364553   1.374485   2.370487
     7  C    4.044919   2.385569   2.703503   2.389747   1.377764
     8  H    0.962769   2.234743   1.857913   3.130033   3.561498
     9  H    2.584127   3.350815   2.146659   1.080199   3.792765
    10  H    4.326376   2.053543   3.231461   3.798335   1.084920
    11  H    4.475795   3.845083   3.355694   2.132498   3.359938
    12  H    5.124049   3.353434   3.782821   3.378465   2.140151
                    6          7          8          9         10
     6  C    0.000000
     7  C    1.389640   0.000000
     8  H    4.222414   4.407999   0.000000
     9  H    2.158200   3.387864   3.513865   0.000000
    10  H    3.365837   2.143818   4.207662   4.876370   0.000000
    11  H    1.082215   2.149834   5.197461   2.498311   4.275458
    12  H    2.160281   1.080033   5.459335   4.301436   2.479628
                   11         12
    11  H    0.000000
    12  H    2.501021   0.000000
 Stoichiometry    C5H5NO
 Framework group  CS[SG(C5H5NO)]
 Deg. of freedom    21
 Full point group                 CS      NOp   2
 Largest Abelian subgroup         CS      NOp   2
 Largest concise Abelian subgroup C1      NOp   1
                         Standard orientation:                         
 ---------------------------------------------------------------------
 Center     Atomic      Atomic             Coordinates (Angstroms)
 Number     Number       Type             X           Y           Z
 ---------------------------------------------------------------------
      1          8           0        0.008372    2.239736    0.000000
      2          7           0       -1.171427    0.296023    0.000000
      3          6           0       -0.000000    0.898309    0.000000
      4          6           0        1.219264    0.225352    0.000000
      5          6           0       -1.184145   -1.035351    0.000000
      6          6           0        1.183632   -1.148671    0.000000
      7          6           0       -0.041314   -1.804878    0.000000
      8          1           0       -0.913944    2.515883    0.000000
      9          1           0        2.143627    0.784264    0.000000
     10          1           0       -2.163617   -1.501920    0.000000
     11          1           0        2.106589   -1.713772    0.000000
     12          1           0       -0.104257   -2.883075    0.000000
 ---------------------------------------------------------------------
 Rotational constants (GHZ):      5.9244098      2.8053779      1.9038502
 Leave Link  202 at Fri Aug 27 00:13:06 2021, MaxMem= 17179869184 cpu:         6.1
 (Enter /public3/home/sc51754/softwares/g09e01/l301.exe)
 General basis read from cards:  (5D, 7F)
 Centers:       8      9     10     11     12
 S 4 1.00
     Exponent=  7.5423000000D+01 Coefficients=  2.4065000000D-03
     Exponent=  1.1350000000D+01 Coefficients=  1.8487000000D-02
     Exponent=  2.5993000000D+00 Coefficients=  8.9742000000D-02
     Exponent=  7.3513000000D-01 Coefficients=  2.8111000000D-01
 S 1 1.00
     Exponent=  2.3167000000D-01 Coefficients=  1.0000000000D+00
 S 1 1.00
     Exponent=  7.4147000000D-02 Coefficients=  1.0000000000D+00
 P 1 1.00
     Exponent=  1.6000000000D+00 Coefficients=  1.0000000000D+00
 P 1 1.00
     Exponent=  4.5000000000D-01 Coefficients=  1.0000000000D+00
 D 1 1.00
     Exponent=  1.2500000000D+00 Coefficients=  1.0000000000D+00
 ****
 Centers:       3      4      5      6      7
 S 7 1.00
     Exponent=  7.8571000000D+03 Coefficients=  5.6825000000D-04
     Exponent=  1.1787000000D+03 Coefficients=  4.3915000000D-03
     Exponent=  2.6832000000D+02 Coefficients=  2.2504000000D-02
     Exponent=  7.5948000000D+01 Coefficients=  8.6653000000D-02
     Exponent=  2.4559000000D+01 Coefficients=  2.4405000000D-01
     Exponent=  8.6212000000D+00 Coefficients=  4.4148000000D-01
     Exponent=  3.1278000000D+00 Coefficients=  3.5332000000D-01
 S 7 1.00
     Exponent=  1.1787000000D+03 Coefficients= -5.9492000000D-07
     Exponent=  2.6832000000D+02 Coefficients= -6.2748000000D-05
     Exponent=  7.5948000000D+01 Coefficients= -7.5773000000D-04
     Exponent=  2.4559000000D+01 Coefficients= -7.3308000000D-03
     Exponent=  8.6212000000D+00 Coefficients= -3.8932000000D-02
     Exponent=  3.1278000000D+00 Coefficients= -8.8908000000D-02
     Exponent=  8.2202000000D-01 Coefficients=  2.1689000000D-01
 S 1 1.00
     Exponent=  3.3017000000D-01 Coefficients=  1.0000000000D+00
 S 1 1.00
     Exponent=  1.1463000000D-01 Coefficients=  1.0000000000D+00
 P 4 1.00
     Exponent=  3.3775000000D+01 Coefficients=  6.0294000000D-03
     Exponent=  7.6766000000D+00 Coefficients=  4.3228000000D-02
     Exponent=  2.2357000000D+00 Coefficients=  1.6301000000D-01
     Exponent=  7.6447000000D-01 Coefficients=  3.6504000000D-01
 P 1 1.00
     Exponent=  2.6232000000D-01 Coefficients=  1.0000000000D+00
 P 1 1.00
     Exponent=  8.4638000000D-02 Coefficients=  1.0000000000D+00
 D 1 1.00
     Exponent=  1.4000000000D+00 Coefficients=  1.0000000000D+00
 D 1 1.00
     Exponent=  4.5000000000D-01 Coefficients=  1.0000000000D+00
 F 1 1.00
     Exponent=  9.5000000000D-01 Coefficients=  1.0000000000D+00
 ****
 Centers:       2
 S 7 1.00
     Exponent=  1.1101000000D+04 Coefficients=  5.4570000000D-04
     Exponent=  1.6653000000D+03 Coefficients=  4.2181000000D-03
     Exponent=  3.7908000000D+02 Coefficients=  2.1645000000D-02
     Exponent=  1.0730000000D+02 Coefficients=  8.3776000000D-02
     Exponent=  3.4747000000D+01 Coefficients=  2.3881000000D-01
     Exponent=  1.2249000000D+01 Coefficients=  4.3994000000D-01
     Exponent=  4.4743000000D+00 Coefficients=  3.6364000000D-01
 S 7 1.00
     Exponent=  1.6653000000D+03 Coefficients= -1.5006000000D-06
     Exponent=  3.7908000000D+02 Coefficients= -5.8753000000D-05
     Exponent=  1.0730000000D+02 Coefficients= -7.7453000000D-04
     Exponent=  3.4747000000D+01 Coefficients= -7.2161000000D-03
     Exponent=  1.2249000000D+01 Coefficients= -3.9338000000D-02
     Exponent=  4.4743000000D+00 Coefficients= -9.0611000000D-02
     Exponent=  1.2404000000D+00 Coefficients=  1.9882000000D-01
 S 1 1.00
     Exponent=  4.8743000000D-01 Coefficients=  1.0000000000D+00
 S 1 1.00
     Exponent=  1.6484000000D-01 Coefficients=  1.0000000000D+00
 P 4 1.00
     Exponent=  4.7934000000D+01 Coefficients=  6.1706000000D-03
     Exponent=  1.0999000000D+01 Coefficients=  4.4260000000D-02
     Exponent=  3.2472000000D+00 Coefficients=  1.6825000000D-01
     Exponent=  1.1114000000D+00 Coefficients=  3.6848000000D-01
 P 1 1.00
     Exponent=  3.7988000000D-01 Coefficients=  1.0000000000D+00
 P 1 1.00
     Exponent=  1.2068000000D-01 Coefficients=  1.0000000000D+00
 D 1 1.00
     Exponent=  1.8000000000D+00 Coefficients=  1.0000000000D+00
 D 1 1.00
     Exponent=  5.5000000000D-01 Coefficients=  1.0000000000D+00
 F 1 1.00
     Exponent=  1.0200000000D+00 Coefficients=  1.0000000000D+00
 ****
 Centers:       1
 S 7 1.00
     Exponent=  1.4782000000D+04 Coefficients=  5.3519000000D-04
     Exponent=  2.2173000000D+03 Coefficients=  4.1375000000D-03
     Exponent=  5.0474000000D+02 Coefficients=  2.1245000000D-02
     Exponent=  1.4287000000D+02 Coefficients=  8.2453000000D-02
     Exponent=  4.6300000000D+01 Coefficients=  2.3671000000D-01
     Exponent=  1.6337000000D+01 Coefficients=  4.4039000000D-01
     Exponent=  5.9828000000D+00 Coefficients=  3.6465000000D-01
 S 7 1.00
     Exponent=  2.2173000000D+03 Coefficients= -1.9275000000D-06
     Exponent=  5.0474000000D+02 Coefficients= -5.7964000000D-05
     Exponent=  1.4287000000D+02 Coefficients= -7.9494000000D-04
     Exponent=  4.6300000000D+01 Coefficients= -7.3125000000D-03
     Exponent=  1.6337000000D+01 Coefficients= -4.0574000000D-02
     Exponent=  5.9828000000D+00 Coefficients= -9.1594000000D-02
     Exponent=  1.6718000000D+00 Coefficients=  2.0940000000D-01
 S 1 1.00
     Exponent=  6.4662000000D-01 Coefficients=  1.0000000000D+00
 S 1 1.00
     Exponent=  2.1669000000D-01 Coefficients=  1.0000000000D+00
 P 4 1.00
     Exponent=  6.0424000000D+01 Coefficients=  6.8949000000D-03
     Exponent=  1.3935000000D+01 Coefficients=  4.9005000000D-02
     Exponent=  4.1531000000D+00 Coefficients=  1.8255000000D-01
     Exponent=  1.4158000000D+00 Coefficients=  3.7633000000D-01
 P 1 1.00
     Exponent=  4.7549000000D-01 Coefficients=  1.0000000000D+00
 P 1 1.00
     Exponent=  1.4529000000D-01 Coefficients=  1.0000000000D+00
 D 1 1.00
     Exponent=  2.2000000000D+00 Coefficients=  1.0000000000D+00
 D 1 1.00
     Exponent=  6.5000000000D-01 Coefficients=  1.0000000000D+00
 F 1 1.00
     Exponent=  1.1000000000D+00 Coefficients=  1.0000000000D+00
 ****
 Ernie: Thresh=  0.10000D-02 Tol=  0.10000D-05 Strict=F.
 Ernie:  7 primitive shells out of 220 were deleted.
 There are   223 symmetry adapted cartesian basis functions of A'  symmetry.
 There are    97 symmetry adapted cartesian basis functions of A"  symmetry.
 There are   190 symmetry adapted basis functions of A'  symmetry.
 There are    90 symmetry adapted basis functions of A"  symmetry.
   280 basis functions,   475 primitive gaussians,   320 cartesian basis functions
    25 alpha electrons       25 beta electrons
       nuclear repulsion energy       277.5236709615 Hartrees.
 IExCor= 4437 DFT=T Ex+Corr=wB97 ExCW=0 ScaHFX=  1.000000
 ScaDFX=  1.000000  1.000000  1.000000  1.000000 ScalE2=  1.000000  1.000000
 IRadAn=      0 IRanWt=     -1 IRanGd=            0 ICorTp=0 IEmpDi=  4
  HFx wShort=  0.000000 wLong=  0.400000 cFull=  0.000000 cShort=  0.000000 cLong=  1.000000
  DFx wShort=  0.000000 wLong=  0.400000 cFull=  0.000000 cShort=  0.000000 cLong=  1.000000
 NAtoms=   12 NActive=   12 NUniq=   12 SFac= 1.00D+00 NAtFMM=   60 NAOKFM=F Big=F
 Integral buffers will be    131072 words long.
 Raffenetti 2 integral format.
 Two-electron integral symmetry is turned on.
 Leave Link  301 at Fri Aug 27 00:13:06 2021, MaxMem= 17179869184 cpu:         1.8
 (Enter /public3/home/sc51754/softwares/g09e01/l302.exe)
 NPDir=0 NMtPBC=     1 NCelOv=     1 NCel=       1 NClECP=     1 NCelD=      1
         NCelK=      1 NCelE2=     1 NClLst=     1 CellRange=     0.0.
 One-electron integrals computed using PRISM.
 NBasis=   280 RedAO= T EigKep=  2.16D-04  NBF=   190    90
 NBsUse=   280 1.00D-06 EigRej= -1.00D+00 NBFU=   190    90
 Precomputing XC quadrature grid using
 IXCGrd= 4 IRadAn=           0 IRanWt=          -1 IRanGd=           0 AccXCQ= 0.00D+00.
 Generated NRdTot=       0 NPtTot=           0 NUsed=           0 NTot=          32
 NSgBfM=   320   320   320   320   320 MxSgAt=    12 MxSgA2=    12.
 Leave Link  302 at Fri Aug 27 00:13:07 2021, MaxMem= 17179869184 cpu:        41.0
 (Enter /public3/home/sc51754/softwares/g09e01/l303.exe)
 DipDrv:  MaxL=1.
 Leave Link  303 at Fri Aug 27 00:13:07 2021, MaxMem= 17179869184 cpu:        10.1
 (Enter /public3/home/sc51754/softwares/g09e01/l401.exe)
 ExpMin= 7.41D-02 ExpMax= 1.48D+04 ExpMxC= 5.05D+02 IAcc=2 IRadAn=         4 AccDes= 0.00D+00
 Harris functional with IExCor= 4437 and IRadAn=       4 diagonalized for initial guess.
 HarFok:  IExCor= 4437 AccDes= 0.00D+00 IRadAn=         4 IDoV= 1 UseB2=F ITyADJ=14
 ICtDFT=  3500011 ScaDFX=  1.000000  1.000000  1.000000  1.000000
 FoFCou: FMM=F IPFlag=           0 FMFlag=      100000 FMFlg1=           0
         NFxFlg=           0 DoJE=T BraDBF=F KetDBF=T FulRan=T
         wScrn=  0.000000 ICntrl=     500 IOpCl=  0 I1Cent=   200000004 NGrid=           0
         NMat0=    1 NMatS0=      1 NMatT0=    0 NMatD0=    1 NMtDS0=    0 NMtDT0=    0
 Petite list used in FoFCou.
 Harris En= -313.583922197335    
 JPrj=0 DoOrth=F DoCkMO=F.
 Initial guess orbital symmetries:
       Occupied  (A') (A') (A') (A') (A') (A') (A') (A') (A') (A')
                 (A') (A') (A') (A') (A') (A') (A') (A") (A') (A')
                 (A') (A") (A") (A') (A")
       Virtual   (A") (A") (A') (A') (A') (A') (A') (A") (A') (A")
                 (A') (A') (A') (A') (A") (A") (A') (A') (A') (A')
                 (A") (A") (A') (A') (A') (A') (A') (A') (A') (A')
                 (A') (A") (A') (A") (A') (A') (A') (A') (A') (A')
                 (A') (A') (A') (A") (A') (A') (A') (A") (A") (A')
                 (A") (A') (A") (A') (A") (A') (A') (A') (A") (A')
                 (A') (A') (A") (A') (A") (A') (A') (A") (A') (A')
                 (A") (A") (A") (A') (A") (A') (A') (A") (A') (A')
                 (A") (A') (A') (A') (A") (A') (A") (A') (A") (A")
                 (A') (A') (A') (A') (A') (A") (A') (A') (A") (A')
                 (A') (A') (A") (A') (A') (A') (A') (A") (A') (A')
                 (A') (A") (A') (A') (A') (A') (A") (A') (A') (A')
                 (A") (A") (A') (A') (A") (A') (A") (A") (A') (A")
                 (A") (A') (A') (A') (A") (A') (A') (A") (A') (A')
                 (A') (A') (A') (A") (A") (A') (A") (A') (A') (A')
                 (A") (A') (A') (A") (A') (A") (A") (A') (A") (A')
                 (A") (A') (A') (A') (A") (A") (A') (A') (A") (A')
                 (A') (A") (A') (A') (A") (A') (A") (A') (A") (A")
                 (A") (A') (A") (A') (A") (A') (A") (A") (A') (A")
                 (A") (A') (A') (A") (A') (A') (A") (A') (A") (A")
                 (A') (A') (A") (A') (A') (A') (A") (A') (A') (A')
                 (A") (A') (A") (A') (A") (A') (A') (A') (A") (A")
                 (A') (A') (A") (A') (A') (A") (A') (A') (A') (A')
                 (A") (A') (A') (A') (A') (A") (A") (A') (A') (A')
                 (A') (A") (A') (A') (A') (A') (A') (A') (A') (A')
                 (A') (A') (A') (A') (A')
 The electronic state of the initial guess is 1-A'.
 Leave Link  401 at Fri Aug 27 00:13:08 2021, MaxMem= 17179869184 cpu:        48.0
 (Enter /public3/home/sc51754/softwares/g09e01/l502.exe)
 Closed shell SCF:
 Using DIIS extrapolation, IDIIS=  1040.
 Integral symmetry usage will be decided dynamically.
 Keep R1 ints in memory in symmetry-blocked form, NReq=2335173138.
 IVT=      348658 IEndB=      348658 NGot= 17179869184 MDV= 16785904737
 LenX= 16785904737 LenY= 16785801896
 Requested convergence on RMS density matrix=1.00D-08 within 128 cycles.
 Requested convergence on MAX density matrix=1.00D-06.
 Requested convergence on             energy=1.00D-06.
 No special actions if energy rises.
 FoFCou: FMM=F IPFlag=           0 FMFlag=           0 FMFlg1=           0
         NFxFlg=           0 DoJE=F BraDBF=F KetDBF=F FulRan=T
         wScrn=  0.000000 ICntrl=     600 IOpCl=  0 I1Cent=           0 NGrid=           0
         NMat0=    1 NMatS0=  39340 NMatT0=    0 NMatD0=    1 NMtDS0=    0 NMtDT0=    0
 Petite list used in FoFCou.
 Integral accuracy reduced to 1.0D-05 until final iterations.

 Cycle   1  Pass 0  IDiag  1:
 E= -323.522233859074    
 DIIS: error= 1.29D-02 at cycle   1 NSaved=   1.
 NSaved= 1 IEnMin= 1 EnMin= -323.522233859074     IErMin= 1 ErrMin= 1.29D-02
 ErrMax= 1.29D-02  0.00D+00 EMaxC= 1.00D-01 BMatC= 7.05D-02 BMatP= 7.05D-02
 IDIUse=3 WtCom= 8.71D-01 WtEn= 1.29D-01
 Coeff-Com:  0.100D+01
 Coeff-En:   0.100D+01
 Coeff:      0.100D+01
 Gap=     0.400 Goal=   None    Shift=    0.000
 GapD=    0.400 DampG=1.000 DampE=0.500 DampFc=0.5000 IDamp=-1.
 Damping current iteration by 5.00D-01
 RMSDP=1.22D-03 MaxDP=7.13D-02              OVMax= 1.12D-01

 Cycle   2  Pass 0  IDiag  1:
 E= -323.554314417023     Delta-E=       -0.032080557949 Rises=F Damp=T
 DIIS: error= 4.33D-03 at cycle   2 NSaved=   2.
 NSaved= 2 IEnMin= 2 EnMin= -323.554314417023     IErMin= 2 ErrMin= 4.33D-03
 ErrMax= 4.33D-03  0.00D+00 EMaxC= 1.00D-01 BMatC= 6.22D-03 BMatP= 7.05D-02
 IDIUse=3 WtCom= 9.57D-01 WtEn= 4.33D-02
 Coeff-Com: -0.206D+00 0.121D+01
 Coeff-En:   0.000D+00 0.100D+01
 Coeff:     -0.197D+00 0.120D+01
 Gap=     0.399 Goal=   None    Shift=    0.000
 RMSDP=4.52D-04 MaxDP=1.54D-02 DE=-3.21D-02 OVMax= 5.10D-02

 Cycle   3  Pass 0  IDiag  1:
 E= -323.583256868905     Delta-E=       -0.028942451882 Rises=F Damp=F
 DIIS: error= 2.09D-03 at cycle   3 NSaved=   3.
 NSaved= 3 IEnMin= 3 EnMin= -323.583256868905     IErMin= 3 ErrMin= 2.09D-03
 ErrMax= 2.09D-03  0.00D+00 EMaxC= 1.00D-01 BMatC= 8.79D-04 BMatP= 6.22D-03
 IDIUse=3 WtCom= 9.79D-01 WtEn= 2.09D-02
 Coeff-Com: -0.104D+00 0.298D+00 0.806D+00
 Coeff-En:   0.000D+00 0.000D+00 0.100D+01
 Coeff:     -0.102D+00 0.292D+00 0.810D+00
 Gap=     0.395 Goal=   None    Shift=    0.000
 RMSDP=1.26D-04 MaxDP=5.31D-03 DE=-2.89D-02 OVMax= 1.22D-02

 Cycle   4  Pass 0  IDiag  1:
 E= -323.583990001812     Delta-E=       -0.000733132907 Rises=F Damp=F
 DIIS: error= 9.63D-04 at cycle   4 NSaved=   4.
 NSaved= 4 IEnMin= 4 EnMin= -323.583990001812     IErMin= 4 ErrMin= 9.63D-04
 ErrMax= 9.63D-04  0.00D+00 EMaxC= 1.00D-01 BMatC= 2.13D-04 BMatP= 8.79D-04
 IDIUse=3 WtCom= 9.90D-01 WtEn= 9.63D-03
 Coeff-Com: -0.265D-01 0.171D-01 0.358D+00 0.651D+00
 Coeff-En:   0.000D+00 0.000D+00 0.000D+00 0.100D+01
 Coeff:     -0.262D-01 0.170D-01 0.355D+00 0.654D+00
 Gap=     0.396 Goal=   None    Shift=    0.000
 RMSDP=4.26D-05 MaxDP=3.22D-03 DE=-7.33D-04 OVMax= 4.54D-03

 Cycle   5  Pass 0  IDiag  1:
 E= -323.584182042421     Delta-E=       -0.000192040609 Rises=F Damp=F
 DIIS: error= 1.28D-04 at cycle   5 NSaved=   5.
 NSaved= 5 IEnMin= 5 EnMin= -323.584182042421     IErMin= 5 ErrMin= 1.28D-04
 ErrMax= 1.28D-04  0.00D+00 EMaxC= 1.00D-01 BMatC= 8.12D-06 BMatP= 2.13D-04
 IDIUse=3 WtCom= 9.99D-01 WtEn= 1.28D-03
 Coeff-Com:  0.674D-04-0.176D-01 0.340D-01 0.159D+00 0.825D+00
 Coeff-En:   0.000D+00 0.000D+00 0.000D+00 0.000D+00 0.100D+01
 Coeff:      0.673D-04-0.175D-01 0.340D-01 0.158D+00 0.825D+00
 Gap=     0.395 Goal=   None    Shift=    0.000
 RMSDP=1.59D-05 MaxDP=6.29D-04 DE=-1.92D-04 OVMax= 1.11D-03

 Cycle   6  Pass 0  IDiag  1:
 E= -323.584192665980     Delta-E=       -0.000010623559 Rises=F Damp=F
 DIIS: error= 9.29D-05 at cycle   6 NSaved=   6.
 NSaved= 6 IEnMin= 6 EnMin= -323.584192665980     IErMin= 6 ErrMin= 9.29D-05
 ErrMax= 9.29D-05  0.00D+00 EMaxC= 1.00D-01 BMatC= 1.48D-06 BMatP= 8.12D-06
 IDIUse=1 WtCom= 1.00D+00 WtEn= 0.00D+00
 Coeff-Com:  0.295D-02-0.841D-02-0.268D-01-0.237D-01 0.266D+00 0.790D+00
 Coeff:      0.295D-02-0.841D-02-0.268D-01-0.237D-01 0.266D+00 0.790D+00
 Gap=     0.396 Goal=   None    Shift=    0.000
 RMSDP=6.97D-06 MaxDP=3.47D-04 DE=-1.06D-05 OVMax= 7.63D-04

 Initial convergence to 1.0D-05 achieved.  Increase integral accuracy.
 Cycle   7  Pass 1  IDiag  1:
 E= -323.583870672129     Delta-E=        0.000321993851 Rises=F Damp=F
 DIIS: error= 6.39D-05 at cycle   1 NSaved=   1.
 NSaved= 1 IEnMin= 1 EnMin= -323.583870672129     IErMin= 1 ErrMin= 6.39D-05
 ErrMax= 6.39D-05  0.00D+00 EMaxC= 1.00D-01 BMatC= 2.56D-06 BMatP= 2.56D-06
 IDIUse=1 WtCom= 1.00D+00 WtEn= 0.00D+00
 Coeff-Com:  0.100D+01
 Coeff:      0.100D+01
 Gap=     0.396 Goal=   None    Shift=    0.000
 RMSDP=6.97D-06 MaxDP=3.47D-04 DE= 3.22D-04 OVMax= 3.57D-04

 Cycle   8  Pass 1  IDiag  1:
 E= -323.583872062184     Delta-E=       -0.000001390055 Rises=F Damp=F
 DIIS: error= 1.89D-05 at cycle   2 NSaved=   2.
 NSaved= 2 IEnMin= 2 EnMin= -323.583872062184     IErMin= 2 ErrMin= 1.89D-05
 ErrMax= 1.89D-05  0.00D+00 EMaxC= 1.00D-01 BMatC= 1.42D-07 BMatP= 2.56D-06
 IDIUse=1 WtCom= 1.00D+00 WtEn= 0.00D+00
 Coeff-Com:  0.182D-01 0.982D+00
 Coeff:      0.182D-01 0.982D+00
 Gap=     0.396 Goal=   None    Shift=    0.000
 RMSDP=1.97D-06 MaxDP=8.41D-05 DE=-1.39D-06 OVMax= 2.40D-04

 Cycle   9  Pass 1  IDiag  1:
 E= -323.583872161013     Delta-E=       -0.000000098829 Rises=F Damp=F
 DIIS: error= 2.54D-05 at cycle   3 NSaved=   3.
 NSaved= 3 IEnMin= 3 EnMin= -323.583872161013     IErMin= 2 ErrMin= 1.89D-05
 ErrMax= 2.54D-05  0.00D+00 EMaxC= 1.00D-01 BMatC= 1.11D-07 BMatP= 1.42D-07
 IDIUse=1 WtCom= 1.00D+00 WtEn= 0.00D+00
 Coeff-Com: -0.460D-01 0.482D+00 0.564D+00
 Coeff:     -0.460D-01 0.482D+00 0.564D+00
 Gap=     0.396 Goal=   None    Shift=    0.000
 RMSDP=9.08D-07 MaxDP=4.55D-05 DE=-9.88D-08 OVMax= 1.29D-04

 Cycle  10  Pass 1  IDiag  1:
 E= -323.583872273027     Delta-E=       -0.000000112014 Rises=F Damp=F
 DIIS: error= 6.84D-06 at cycle   4 NSaved=   4.
 NSaved= 4 IEnMin= 4 EnMin= -323.583872273027     IErMin= 4 ErrMin= 6.84D-06
 ErrMax= 6.84D-06  0.00D+00 EMaxC= 1.00D-01 BMatC= 2.81D-09 BMatP= 1.11D-07
 IDIUse=1 WtCom= 1.00D+00 WtEn= 0.00D+00
 Coeff-Com:  0.504D-02-0.129D+00-0.752D-01 0.120D+01
 Coeff:      0.504D-02-0.129D+00-0.752D-01 0.120D+01
 Gap=     0.396 Goal=   None    Shift=    0.000
 RMSDP=5.07D-07 MaxDP=1.86D-05 DE=-1.12D-07 OVMax= 7.47D-05

 Cycle  11  Pass 1  IDiag  1:
 E= -323.583872286536     Delta-E=       -0.000000013510 Rises=F Damp=F
 DIIS: error= 2.83D-06 at cycle   5 NSaved=   5.
 NSaved= 5 IEnMin= 5 EnMin= -323.583872286536     IErMin= 5 ErrMin= 2.83D-06
 ErrMax= 2.83D-06  0.00D+00 EMaxC= 1.00D-01 BMatC= 1.37D-09 BMatP= 2.81D-09
 IDIUse=1 WtCom= 1.00D+00 WtEn= 0.00D+00
 Coeff-Com:  0.126D-01-0.166D+00-0.159D+00 0.560D+00 0.752D+00
 Coeff:      0.126D-01-0.166D+00-0.159D+00 0.560D+00 0.752D+00
 Gap=     0.396 Goal=   None    Shift=    0.000
 RMSDP=2.38D-07 MaxDP=7.22D-06 DE=-1.35D-08 OVMax= 4.19D-05

 Cycle  12  Pass 1  IDiag  1:
 E= -323.583872289970     Delta-E=       -0.000000003434 Rises=F Damp=F
 DIIS: error= 1.69D-06 at cycle   6 NSaved=   6.
 NSaved= 6 IEnMin= 6 EnMin= -323.583872289970     IErMin= 6 ErrMin= 1.69D-06
 ErrMax= 1.69D-06  0.00D+00 EMaxC= 1.00D-01 BMatC= 1.23D-10 BMatP= 1.37D-09
 IDIUse=1 WtCom= 1.00D+00 WtEn= 0.00D+00
 Coeff-Com:  0.170D-02-0.874D-02-0.143D-01-0.117D+00 0.105D+00 0.103D+01
 Coeff:      0.170D-02-0.874D-02-0.143D-01-0.117D+00 0.105D+00 0.103D+01
 Gap=     0.396 Goal=   None    Shift=    0.000
 RMSDP=1.05D-07 MaxDP=2.92D-06 DE=-3.43D-09 OVMax= 2.01D-05

 Cycle  13  Pass 1  IDiag  1:
 E= -323.583872290537     Delta-E=       -0.000000000568 Rises=F Damp=F
 DIIS: error= 3.77D-07 at cycle   7 NSaved=   7.
 NSaved= 7 IEnMin= 7 EnMin= -323.583872290537     IErMin= 7 ErrMin= 3.77D-07
 ErrMax= 3.77D-07  0.00D+00 EMaxC= 1.00D-01 BMatC= 2.89D-11 BMatP= 1.23D-10
 IDIUse=1 WtCom= 1.00D+00 WtEn= 0.00D+00
 Coeff-Com: -0.139D-02 0.225D-01 0.226D-01-0.125D+00-0.893D-01 0.354D+00
 Coeff-Com:  0.817D+00
 Coeff:     -0.139D-02 0.225D-01 0.226D-01-0.125D+00-0.893D-01 0.354D+00
 Coeff:      0.817D+00
 Gap=     0.396 Goal=   None    Shift=    0.000
 RMSDP=3.28D-08 MaxDP=9.14D-07 DE=-5.68D-10 OVMax= 6.43D-06

 Cycle  14  Pass 1  IDiag  1:
 E= -323.583872290626     Delta-E=       -0.000000000089 Rises=F Damp=F
 DIIS: error= 1.77D-07 at cycle   8 NSaved=   8.
 NSaved= 8 IEnMin= 8 EnMin= -323.583872290626     IErMin= 8 ErrMin= 1.77D-07
 ErrMax= 1.77D-07  0.00D+00 EMaxC= 1.00D-01 BMatC= 3.06D-12 BMatP= 2.89D-11
 IDIUse=1 WtCom= 1.00D+00 WtEn= 0.00D+00
 Coeff-Com: -0.461D-03 0.417D-02 0.693D-02-0.243D-02-0.277D-01-0.101D+00
 Coeff-Com:  0.675D-01 0.105D+01
 Coeff:     -0.461D-03 0.417D-02 0.693D-02-0.243D-02-0.277D-01-0.101D+00
 Coeff:      0.675D-01 0.105D+01
 Gap=     0.396 Goal=   None    Shift=    0.000
 RMSDP=1.63D-08 MaxDP=4.54D-07 DE=-8.86D-11 OVMax= 3.23D-06

 Cycle  15  Pass 1  IDiag  1:
 E= -323.583872290643     Delta-E=       -0.000000000017 Rises=F Damp=F
 DIIS: error= 7.45D-08 at cycle   9 NSaved=   9.
 NSaved= 9 IEnMin= 9 EnMin= -323.583872290643     IErMin= 9 ErrMin= 7.45D-08
 ErrMax= 7.45D-08  0.00D+00 EMaxC= 1.00D-01 BMatC= 5.92D-13 BMatP= 3.06D-12
 IDIUse=1 WtCom= 1.00D+00 WtEn= 0.00D+00
 Coeff-Com:  0.924D-04-0.220D-02-0.107D-02 0.156D-01 0.833D-02-0.696D-01
 Coeff-Com: -0.110D+00 0.214D+00 0.946D+00
 Coeff:      0.924D-04-0.220D-02-0.107D-02 0.156D-01 0.833D-02-0.696D-01
 Coeff:     -0.110D+00 0.214D+00 0.946D+00
 Gap=     0.396 Goal=   None    Shift=    0.000
 RMSDP=6.82D-09 MaxDP=2.47D-07 DE=-1.72D-11 OVMax= 1.15D-06

 SCF Done:  E(RwB97) =  -323.583872291     A.U. after   15 cycles
            NFock= 15  Conv=0.68D-08     -V/T= 2.0032
 KE= 3.225369824761D+02 PE=-1.310043878275D+03 EE= 3.863993525468D+02
 Leave Link  502 at Fri Aug 27 00:13:16 2021, MaxMem= 17179869184 cpu:       351.1
 (Enter /public3/home/sc51754/softwares/g09e01/l601.exe)
 Copying SCF densities to generalized density rwf, IOpCl= 0 IROHF=0.

 **********************************************************************

            Population analysis using the SCF density.

 **********************************************************************

 Orbital symmetries:
       Occupied  (A') (A') (A') (A') (A') (A') (A') (A') (A') (A')
                 (A') (A') (A') (A') (A') (A') (A") (A') (A') (A')
                 (A') (A") (A") (A') (A")
       Virtual   (A") (A") (A') (A') (A') (A') (A') (A') (A") (A')
                 (A") (A') (A') (A') (A") (A") (A') (A') (A') (A")
                 (A') (A') (A') (A") (A') (A') (A') (A') (A') (A')
                 (A') (A") (A') (A') (A") (A') (A') (A') (A') (A')
                 (A') (A') (A') (A") (A') (A') (A') (A") (A") (A")
                 (A') (A") (A') (A') (A") (A') (A") (A') (A') (A')
                 (A') (A') (A") (A') (A') (A") (A') (A") (A') (A')
                 (A") (A") (A") (A') (A") (A') (A') (A") (A') (A')
                 (A') (A") (A') (A') (A') (A") (A") (A') (A") (A')
                 (A") (A') (A') (A') (A') (A") (A') (A') (A") (A')
                 (A') (A') (A") (A') (A') (A') (A') (A") (A') (A')
                 (A') (A") (A') (A') (A') (A') (A") (A') (A') (A')
                 (A") (A') (A") (A') (A") (A') (A") (A") (A') (A")
                 (A") (A') (A') (A') (A") (A') (A") (A') (A') (A')
                 (A') (A') (A") (A') (A") (A') (A") (A') (A') (A')
                 (A") (A') (A') (A") (A") (A') (A") (A') (A") (A')
                 (A") (A') (A') (A') (A") (A") (A') (A") (A') (A')
                 (A') (A") (A') (A") (A') (A') (A") (A') (A") (A")
                 (A") (A") (A') (A') (A") (A') (A") (A") (A') (A")
                 (A") (A') (A') (A") (A') (A') (A") (A') (A") (A")
                 (A') (A') (A") (A') (A') (A") (A') (A') (A') (A')
                 (A") (A') (A") (A') (A') (A") (A') (A') (A") (A")
                 (A') (A') (A") (A') (A') (A") (A') (A') (A') (A')
                 (A") (A') (A') (A') (A') (A") (A") (A') (A') (A')
                 (A') (A") (A') (A') (A') (A') (A') (A') (A') (A')
                 (A') (A') (A') (A') (A')
 The electronic state is 1-A'.
 Alpha  occ. eigenvalues --  -19.03100 -14.23030 -10.23110 -10.17543 -10.15939
 Alpha  occ. eigenvalues --  -10.14101 -10.13666  -1.22337  -1.09282  -0.96232
 Alpha  occ. eigenvalues --   -0.90827  -0.79036  -0.76911  -0.68800  -0.64937
 Alpha  occ. eigenvalues --   -0.61119  -0.57769  -0.57131  -0.53904  -0.51892
 Alpha  occ. eigenvalues --   -0.48848  -0.48428  -0.40234  -0.39087  -0.34291
 Alpha virt. eigenvalues --    0.05267   0.08158   0.10505   0.11631   0.12443
 Alpha virt. eigenvalues --    0.14417   0.15866   0.22776   0.23884   0.24570
 Alpha virt. eigenvalues --    0.25026   0.25513   0.27581   0.28270   0.29426
 Alpha virt. eigenvalues --    0.29611   0.31594   0.34732   0.35671   0.36725
 Alpha virt. eigenvalues --    0.37361   0.38724   0.39307   0.39667   0.42392
 Alpha virt. eigenvalues --    0.43404   0.46133   0.47109   0.47818   0.48729
 Alpha virt. eigenvalues --    0.49522   0.52276   0.54672   0.54895   0.55054
 Alpha virt. eigenvalues --    0.59728   0.61942   0.62419   0.65232   0.67826
 Alpha virt. eigenvalues --    0.72236   0.73990   0.75504   0.75849   0.77495
 Alpha virt. eigenvalues --    0.78919   0.82613   0.87804   0.89040   0.92916
 Alpha virt. eigenvalues --    0.94788   0.98204   0.99279   1.02934   1.04543
 Alpha virt. eigenvalues --    1.07210   1.08978   1.09248   1.10326   1.12814
 Alpha virt. eigenvalues --    1.15244   1.20473   1.22250   1.22488   1.26349
 Alpha virt. eigenvalues --    1.27258   1.27384   1.30205   1.30552   1.31817
 Alpha virt. eigenvalues --    1.34928   1.39407   1.41753   1.42232   1.42712
 Alpha virt. eigenvalues --    1.43917   1.49400   1.53936   1.54569   1.56950
 Alpha virt. eigenvalues --    1.62023   1.62809   1.63913   1.66670   1.67012
 Alpha virt. eigenvalues --    1.68093   1.70691   1.73216   1.75020   1.78844
 Alpha virt. eigenvalues --    1.78912   1.79741   1.83283   1.85783   1.86715
 Alpha virt. eigenvalues --    1.91431   1.93255   1.95479   1.98459   1.99128
 Alpha virt. eigenvalues --    2.02024   2.08142   2.08818   2.09737   2.13611
 Alpha virt. eigenvalues --    2.18512   2.23403   2.24143   2.26752   2.30789
 Alpha virt. eigenvalues --    2.34248   2.36027   2.38383   2.40173   2.42447
 Alpha virt. eigenvalues --    2.47450   2.51923   2.70871   2.79698   2.85677
 Alpha virt. eigenvalues --    2.98112   3.06555   3.06571   3.12805   3.26608
 Alpha virt. eigenvalues --    3.28899   3.32181   3.34095   3.37664   3.37681
 Alpha virt. eigenvalues --    3.42360   3.45491   3.47699   3.50476   3.51529
 Alpha virt. eigenvalues --    3.55295   3.59375   3.59739   3.62739   3.69429
 Alpha virt. eigenvalues --    3.70274   3.72412   3.73275   3.73932   3.79557
 Alpha virt. eigenvalues --    3.82922   3.83986   3.90377   3.92552   3.94521
 Alpha virt. eigenvalues --    3.96021   3.99142   4.01890   4.03711   4.08939
 Alpha virt. eigenvalues --    4.09199   4.13073   4.17068   4.17900   4.18357
 Alpha virt. eigenvalues --    4.19317   4.22429   4.24327   4.28709   4.28958
 Alpha virt. eigenvalues --    4.29785   4.31607   4.33240   4.33963   4.36083
 Alpha virt. eigenvalues --    4.38338   4.38900   4.41212   4.43613   4.44529
 Alpha virt. eigenvalues --    4.44629   4.46178   4.49345   4.51037   4.52930
 Alpha virt. eigenvalues --    4.55571   4.56878   4.57180   4.57678   4.59152
 Alpha virt. eigenvalues --    4.61569   4.62504   4.63687   4.67126   4.69450
 Alpha virt. eigenvalues --    4.71579   4.71595   4.76116   4.77257   4.79468
 Alpha virt. eigenvalues --    4.86267   4.87089   4.91807   4.94915   4.98371
 Alpha virt. eigenvalues --    5.01625   5.02305   5.08753   5.10985   5.16283
 Alpha virt. eigenvalues --    5.20094   5.21178   5.24011   5.30469   5.31746
 Alpha virt. eigenvalues --    5.33971   5.35982   5.39464   5.43616   5.46102
 Alpha virt. eigenvalues --    5.47154   5.48786   5.50725   5.51367   5.52738
 Alpha virt. eigenvalues --    5.55646   5.58370   5.65023   5.67912   5.73770
 Alpha virt. eigenvalues --    5.74432   5.77407   5.80530   5.89365   5.91647
 Alpha virt. eigenvalues --    5.93260   6.10820   6.15871   6.19523   6.20004
 Alpha virt. eigenvalues --    6.20494   6.33703   6.36367   6.37985   6.39769
 Alpha virt. eigenvalues --    6.56646   6.56816   6.58680   6.73249   6.78691
 Alpha virt. eigenvalues --    7.02022   7.23941   7.40831   9.29423  12.06843
 Alpha virt. eigenvalues --   12.69524  15.47747  17.35262  18.57824  22.12044
          Condensed to atoms (all electrons):
               1          2          3          4          5          6
     1  O    7.872197  -0.103169   0.338067  -0.067233   0.003785   0.006704
     2  N   -0.103169   6.675014   0.509254  -0.011907   0.517538  -0.036248
     3  C    0.338067   0.509254   4.322940   0.525271  -0.078485  -0.051134
     4  C   -0.067233  -0.011907   0.525271   4.799553  -0.039953   0.544072
     5  C    0.003785   0.517538  -0.078485  -0.039953   4.510561  -0.070164
     6  C    0.006704  -0.036248  -0.051134   0.544072  -0.070164   4.656013
     7  C   -0.000495  -0.035128  -0.051930  -0.041816   0.533990   0.510177
     8  H    0.352812   0.012491  -0.032559   0.008947   0.002074  -0.001350
     9  H    0.003022   0.005806  -0.033095   0.444406  -0.001790  -0.035749
    10  H   -0.000427  -0.040339   0.003793  -0.003859   0.460456   0.007211
    11  H   -0.000197  -0.002513   0.007179  -0.040835   0.007687   0.451254
    12  H    0.000026   0.006658  -0.001271   0.007510  -0.033266  -0.037250
               7          8          9         10         11         12
     1  O   -0.000495   0.352812   0.003022  -0.000427  -0.000197   0.000026
     2  N   -0.035128   0.012491   0.005806  -0.040339  -0.002513   0.006658
     3  C   -0.051930  -0.032559  -0.033095   0.003793   0.007179  -0.001271
     4  C   -0.041816   0.008947   0.444406  -0.003859  -0.040835   0.007510
     5  C    0.533990   0.002074  -0.001790   0.460456   0.007687  -0.033266
     6  C    0.510177  -0.001350  -0.035749   0.007211   0.451254  -0.037250
     7  C    4.885548   0.000556   0.006700  -0.067218  -0.043718   0.445689
     8  H    0.000556   0.437916  -0.000556  -0.000321   0.000070  -0.000032
     9  H    0.006700  -0.000556   0.576092   0.000139  -0.006893   0.000123
    10  H   -0.067218  -0.000321   0.000139   0.602292   0.000039  -0.004278
    11  H   -0.043718   0.000070  -0.006893   0.000039   0.590562  -0.007186
    12  H    0.445689  -0.000032   0.000123  -0.004278  -0.007186   0.589045
 Mulliken charges:
               1
     1  O   -0.405091
     2  N   -0.497455
     3  C    0.541972
     4  C   -0.124156
     5  C    0.187568
     6  C    0.056466
     7  C   -0.142354
     8  H    0.219952
     9  H    0.041796
    10  H    0.042514
    11  H    0.044552
    12  H    0.034235
 Sum of Mulliken charges =  -0.00000
 Mulliken charges with hydrogens summed into heavy atoms:
               1
     1  O   -0.185139
     2  N   -0.497455
     3  C    0.541972
     4  C   -0.082360
     5  C    0.230082
     6  C    0.101018
     7  C   -0.108119
 Electronic spatial extent (au):  <R**2>=            623.8115
 Charge=             -0.0000 electrons
 Dipole moment (field-independent basis, Debye):
    X=              0.5112    Y=             -1.2725    Z=             -0.0000  Tot=              1.3713
 Quadrupole moment (field-independent basis, Debye-Ang):
   XX=            -37.8568   YY=            -36.8276   ZZ=            -43.1613
   XY=             -2.0364   XZ=              0.0000   YZ=              0.0000
 Traceless Quadrupole moment (field-independent basis, Debye-Ang):
   XX=              1.4251   YY=              2.4543   ZZ=             -3.8794
   XY=             -2.0364   XZ=              0.0000   YZ=              0.0000
 Octapole moment (field-independent basis, Debye-Ang**2):
  XXX=              6.5651  YYY=              3.8991  ZZZ=              0.0000  XYY=            -10.8531
  XXY=             -0.0434  XXZ=              0.0000  XZZ=             -1.3806  YZZ=              5.3930
  YYZ=             -0.0000  XYZ=              0.0000
 Hexadecapole moment (field-independent basis, Debye-Ang**3):
 XXXX=           -265.5368 YYYY=           -456.9891 ZZZZ=            -46.9244 XXXY=              9.1473
 XXXZ=              0.0000 YYYX=            -30.2469 YYYZ=              0.0000 ZZZX=              0.0000
 ZZZY=              0.0000 XXYY=           -108.9274 XXZZ=            -59.5065 YYZZ=            -97.1888
 XXYZ=              0.0000 YYXZ=              0.0000 ZZXY=              0.7046
 N-N= 2.775236709615D+02 E-N=-1.310043883800D+03  KE= 3.225369824761D+02
 Symmetry A'   KE= 3.108346752548D+02
 Symmetry A"   KE= 1.170230722129D+01
 No NMR shielding tensors so no spin-rotation constants.
 Leave Link  601 at Fri Aug 27 00:13:17 2021, MaxMem= 17179869184 cpu:        59.0
 (Enter /public3/home/sc51754/softwares/g09e01/l701.exe)
 Compute integral first derivatives.
 ... and contract with generalized density number  0.
 Leave Link  701 at Fri Aug 27 00:13:19 2021, MaxMem= 17179869184 cpu:        98.2
 (Enter /public3/home/sc51754/softwares/g09e01/l702.exe)
 L702 exits ... SP integral derivatives will be done elsewhere.
 Leave Link  702 at Fri Aug 27 00:13:19 2021, MaxMem= 17179869184 cpu:         0.3
 (Enter /public3/home/sc51754/softwares/g09e01/l703.exe)
 Compute integral first derivatives, UseDBF=F ICtDFT=           0.
 Integral derivatives from FoFJK, PRISM(SPDF).
 Calling FoFJK, ICntrl=      2127 FMM=F ISym2X=1 I1Cent= 0 IOpClX= 0 NMat=1 NMatS=1 NMatT=0.
 FoFJK:  IHMeth= 1 ICntrl=    2127 DoSepK=T KAlg= 0 I1Cent=   0 FoldK=F
 IRaf=         1 NMat=   1 IRICut=       1 DoRegI=T DoRafI=F ISym2E= 1.
 FoFCou: FMM=F IPFlag=           0 FMFlag=      100000 FMFlg1=         800
         NFxFlg=           0 DoJE=F BraDBF=F KetDBF=F FulRan=T
         wScrn=  0.000000 ICntrl=    2527 IOpCl=  0 I1Cent=           0 NGrid=           0
         NMat0=    1 NMatS0=      1 NMatT0=    0 NMatD0=    1 NMtDS0=    0 NMtDT0=    0
 Petite list used in FoFCou.
 Leave Link  703 at Fri Aug 27 00:13:23 2021, MaxMem= 17179869184 cpu:       231.2
 (Enter /public3/home/sc51754/softwares/g09e01/l716.exe)
 Dipole        = 2.01124636D-01-5.00624596D-01-2.06993132D-32
 ***** Axes restored to original set *****
 -------------------------------------------------------------------
 Center     Atomic                   Forces (Hartrees/Bohr)
 Number     Number              X              Y              Z
 -------------------------------------------------------------------
      1        8          -0.000627637    0.006844471   -0.000000000
      2        7          -0.003713393    0.004312901   -0.000000000
      3        6           0.000561871   -0.004578567    0.000000000
      4        6           0.003313871    0.000806440    0.000000000
      5        6          -0.001627316   -0.003402315    0.000000000
      6        6           0.002665168   -0.000862102    0.000000000
      7        6          -0.001376743   -0.002778285    0.000000000
      8        1          -0.000581626    0.001130879   -0.000000000
      9        1           0.001045798    0.000702741    0.000000000
     10        1          -0.000897745    0.000019807   -0.000000000
     11        1           0.001479983   -0.000688314    0.000000000
     12        1          -0.000242231   -0.001507655    0.000000000
 -------------------------------------------------------------------
 Cartesian Forces:  Max     0.006844471 RMS     0.002063126
 Leave Link  716 at Fri Aug 27 00:13:23 2021, MaxMem= 17179869184 cpu:         0.4
 (Enter /public3/home/sc51754/softwares/g09e01/l103.exe)

 GradGradGradGradGradGradGradGradGradGradGradGradGradGradGradGradGradGrad
 Berny optimization.
 FormGI is forming the generalized inverse of G from B-inverse, IUseBI=4.
 Internal  Forces:  Max     0.007957337 RMS     0.001935569
 Search for a local minimum.
 Step number   1 out of a maximum of   61
 All quantities printed in internal units (Hartrees-Bohrs-Radians)
 RMS Force = .19356D-02 SwitMx=.10000D-02 MixMth= 1
 Mixed Optimization -- RFO/linear search
 Second derivative matrix not updated -- first step.
 ITU=  0
     Eigenvalues ---    0.02265   0.02291   0.02312   0.02345   0.02366
     Eigenvalues ---    0.02409   0.02454   0.02466   0.02614   0.16000
     Eigenvalues ---    0.16000   0.16000   0.16000   0.16000   0.22000
     Eigenvalues ---    0.22422   0.24442   0.25000   0.35406   0.35728
     Eigenvalues ---    0.35970   0.35990   0.43621   0.45785   0.48169
     Eigenvalues ---    0.49389   0.54882   0.56881   0.57480   0.60970
 RFO step:  Lambda=-3.81210488D-04 EMin= 2.26525640D-02
 Linear search not attempted -- first point.
 Iteration  1 RMS(Cart)=  0.00714462 RMS(Int)=  0.00000819
 Iteration  2 RMS(Cart)=  0.00000690 RMS(Int)=  0.00000029
 Iteration  3 RMS(Cart)=  0.00000000 RMS(Int)=  0.00000029
 ITry= 1 IFail=0 DXMaxC= 2.96D-02 DCOld= 1.00D+10 DXMaxT= 3.00D-01 DXLimC= 3.00D+00 Rises=F
 ClnCor:  largest displacement from symmetrization is 2.16D-11 for atom    11.
 Variable       Old X    -DE/DX   Delta X   Delta X   Delta X     New X
                                 (Linear)    (Quad)   (Total)
    R1        2.53498   0.00796   0.00000   0.01398   0.01398   2.54896
    R2        1.81937   0.00090   0.00000   0.00164   0.00164   1.82101
    R3        2.48913   0.00344   0.00000   0.00554   0.00554   2.49467
    R4        2.51605   0.00529   0.00000   0.00900   0.00900   2.52505
    R5        2.63173   0.00472   0.00000   0.01005   0.01005   2.64178
    R6        2.59740   0.00394   0.00000   0.00777   0.00777   2.60517
    R7        2.04128   0.00126   0.00000   0.00350   0.00350   2.04478
    R8        2.60360   0.00342   0.00000   0.00693   0.00693   2.61053
    R9        2.05020   0.00080   0.00000   0.00226   0.00226   2.05246
   R10        2.62604   0.00505   0.00000   0.01060   0.01060   2.63664
   R11        2.04509   0.00162   0.00000   0.00454   0.00454   2.04963
   R12        2.04097   0.00152   0.00000   0.00422   0.00422   2.04518
    A1        1.85547   0.00164   0.00000   0.01021   0.01021   1.86568
    A2        2.05525  -0.00034   0.00000  -0.00098  -0.00098   2.05427
    A3        2.05194  -0.00099   0.00000  -0.00399  -0.00399   2.04795
    A4        2.06888   0.00069   0.00000   0.00271   0.00271   2.07160
    A5        2.16236   0.00030   0.00000   0.00127   0.00127   2.16364
    A6        2.04920  -0.00009   0.00000  -0.00063  -0.00063   2.04857
    A7        2.09344  -0.00004   0.00000  -0.00020  -0.00020   2.09323
    A8        2.14055   0.00013   0.00000   0.00083   0.00083   2.14138
    A9        2.15386   0.00019   0.00000   0.00108   0.00108   2.15494
   A10        2.02490  -0.00049   0.00000  -0.00297  -0.00297   2.02193
   A11        2.10443   0.00029   0.00000   0.00189   0.00189   2.10632
   A12        2.08852   0.00002   0.00000  -0.00025  -0.00025   2.08827
   A13        2.09426  -0.00022   0.00000  -0.00120  -0.00120   2.09306
   A14        2.10040   0.00020   0.00000   0.00146   0.00146   2.10185
   A15        2.05718  -0.00008   0.00000  -0.00049  -0.00049   2.05668
   A16        2.10510  -0.00009   0.00000  -0.00058  -0.00058   2.10452
   A17        2.12091   0.00017   0.00000   0.00107   0.00107   2.12198
    D1        0.00000   0.00000   0.00000   0.00000  -0.00000   0.00000
    D2        3.14159   0.00000   0.00000   0.00000   0.00000   3.14159
    D3        3.14159  -0.00000   0.00000  -0.00000   0.00000   3.14159
    D4        0.00000   0.00000   0.00000   0.00000  -0.00000   0.00000
    D5       -0.00000  -0.00000   0.00000  -0.00000   0.00000   0.00000
    D6        3.14159  -0.00000   0.00000  -0.00000   0.00000   3.14159
    D7        3.14159   0.00000   0.00000   0.00000   0.00000   3.14159
    D8        0.00000   0.00000   0.00000   0.00000   0.00000   0.00000
    D9       -0.00000  -0.00000   0.00000  -0.00000   0.00000   0.00000
   D10        3.14159  -0.00000   0.00000  -0.00000   0.00000   3.14159
   D11        0.00000   0.00000   0.00000   0.00000   0.00000   0.00000
   D12        3.14159  -0.00000   0.00000  -0.00000   0.00000   3.14159
   D13        3.14159   0.00000   0.00000   0.00000   0.00000   3.14159
   D14       -0.00000   0.00000   0.00000  -0.00000   0.00000   0.00000
   D15       -0.00000  -0.00000   0.00000  -0.00000   0.00000   0.00000
   D16        3.14159  -0.00000   0.00000  -0.00000   0.00000   3.14159
   D17        3.14159   0.00000   0.00000   0.00000   0.00000   3.14159
   D18       -0.00000   0.00000   0.00000   0.00000   0.00000   0.00000
   D19        0.00000   0.00000   0.00000   0.00000  -0.00000   0.00000
   D20        3.14159   0.00000   0.00000   0.00000   0.00000   3.14159
   D21        3.14159   0.00000   0.00000   0.00000   0.00000   3.14159
   D22       -0.00000   0.00000   0.00000   0.00000   0.00000   0.00000
         Item               Value     Threshold  Converged?
 Maximum Force            0.007957     0.000450     NO 
 RMS     Force            0.001936     0.000300     NO 
 Maximum Displacement     0.029609     0.001800     NO 
 RMS     Displacement     0.007143     0.001200     NO 
 Predicted change in Energy=-1.907654D-04
 Lowest energy point so far.  Saving SCF results.
 GradGradGradGradGradGradGradGradGradGradGradGradGradGradGradGradGradGrad

 Leave Link  103 at Fri Aug 27 00:13:24 2021, MaxMem= 17179869184 cpu:        26.7
 (Enter /public3/home/sc51754/softwares/g09e01/l202.exe)
                          Input orientation:                          
 ---------------------------------------------------------------------
 Center     Atomic      Atomic             Coordinates (Angstroms)
 Number     Number       Type             X           Y           Z
 ---------------------------------------------------------------------
      1          8           0        0.003530    2.248840   -0.000000
      2          7           0       -1.174756    0.297094   -0.000000
      3          6           0       -0.000347    0.899995   -0.000000
      4          6           0        1.224015    0.225271    0.000000
      5          6           0       -1.187041   -1.039046   -0.000000
      6          6           0        1.188315   -1.152865    0.000000
      7          6           0       -0.041722   -1.811444    0.000000
      8          1           0       -0.917706    2.531551   -0.000000
      9          1           0        2.149481    0.785937    0.000000
     10          1           0       -2.168808   -1.503568   -0.000000
     11          1           0        2.114017   -1.718081    0.000000
     12          1           0       -0.106196   -2.891786    0.000000
 ---------------------------------------------------------------------
                    Distance matrix (angstroms):
                    1          2          3          4          5
     1  O    0.000000
     2  N    2.279840   0.000000
     3  C    1.348851   1.320123   0.000000
     4  C    2.363137   2.399845   1.397968   0.000000
     5  C    3.496807   1.336197   2.273350   2.722442   0.000000
     6  C    3.602127   2.772451   2.372162   1.378599   2.378081
     7  C    4.060536   2.393678   2.711754   2.397978   1.381431
     8  H    0.963639   2.249194   1.871770   3.147363   3.580741
     9  H    2.597151   3.359987   2.152851   1.082051   3.803017
    10  H    4.335853   2.056824   3.237180   3.807904   1.086116
    11  H    4.493397   3.857066   3.365242   2.137457   3.370174
    12  H    5.141797   3.363150   3.793258   3.389027   2.144964
                    6          7          8          9         10
     6  C    0.000000
     7  C    1.395248   0.000000
     8  H    4.243848   4.430457   0.000000
     9  H    2.163977   3.398199   3.529136   0.000000
    10  H    3.375391   2.149251   4.224623   4.887684   0.000000
    11  H    1.084617   2.157760   5.220222   2.504269   4.288194
    12  H    2.167857   1.082265   5.483715   4.314363   2.486266
                   11         12
    11  H    0.000000
    12  H    2.511360   0.000000
 Stoichiometry    C5H5NO
 Framework group  CS[SG(C5H5NO)]
 Deg. of freedom    21
 Full point group                 CS      NOp   2
 RotChk:  IX=0 Diff= 2.39D-04
 Largest Abelian subgroup         CS      NOp   2
 Largest concise Abelian subgroup C1      NOp   1
                         Standard orientation:                         
 ---------------------------------------------------------------------
 Center     Atomic      Atomic             Coordinates (Angstroms)
 Number     Number       Type             X           Y           Z
 ---------------------------------------------------------------------
      1          8           0        0.003650    2.248723   -0.000000
      2          7           0       -1.174307    0.296778   -0.000000
      3          6           0       -0.000000    0.899877   -0.000000
      4          6           0        1.224476    0.225359    0.000000
      5          6           0       -1.186367   -1.039364   -0.000000
      6          6           0        1.189008   -1.152783    0.000000
      7          6           0       -0.040918   -1.811569    0.000000
      8          1           0       -0.917634    2.531278   -0.000000
      9          1           0        2.149847    0.786182    0.000000
     10          1           0       -2.168056   -1.504051   -0.000000
     11          1           0        2.114806   -1.717842    0.000000
     12          1           0       -0.105209   -2.891922    0.000000
 ---------------------------------------------------------------------
 Rotational constants (GHZ):      5.8873808      2.7844085      1.8903680
 Leave Link  202 at Fri Aug 27 00:13:24 2021, MaxMem= 17179869184 cpu:         5.4
 (Enter /public3/home/sc51754/softwares/g09e01/l301.exe)
 Basis read from rwf:  (5D, 7F)
 No pseudopotential information found on rwf file.
 There are   223 symmetry adapted cartesian basis functions of A'  symmetry.
 There are    97 symmetry adapted cartesian basis functions of A"  symmetry.
 There are   190 symmetry adapted basis functions of A'  symmetry.
 There are    90 symmetry adapted basis functions of A"  symmetry.
   280 basis functions,   475 primitive gaussians,   320 cartesian basis functions
    25 alpha electrons       25 beta electrons
       nuclear repulsion energy       276.5792556015 Hartrees.
 IExCor= 4437 DFT=T Ex+Corr=wB97 ExCW=0 ScaHFX=  1.000000
 ScaDFX=  1.000000  1.000000  1.000000  1.000000 ScalE2=  1.000000  1.000000
 IRadAn=      0 IRanWt=     -1 IRanGd=            0 ICorTp=0 IEmpDi=  4
  HFx wShort=  0.000000 wLong=  0.400000 cFull=  0.000000 cShort=  0.000000 cLong=  1.000000
  DFx wShort=  0.000000 wLong=  0.400000 cFull=  0.000000 cShort=  0.000000 cLong=  1.000000
 NAtoms=   12 NActive=   12 NUniq=   12 SFac= 1.00D+00 NAtFMM=   60 NAOKFM=F Big=F
 Integral buffers will be    131072 words long.
 Raffenetti 2 integral format.
 Two-electron integral symmetry is turned on.
 No density basis found on file   724.
 Leave Link  301 at Fri Aug 27 00:13:24 2021, MaxMem= 17179869184 cpu:         1.0
 (Enter /public3/home/sc51754/softwares/g09e01/l302.exe)
 NPDir=0 NMtPBC=     1 NCelOv=     1 NCel=       1 NClECP=     1 NCelD=      1
         NCelK=      1 NCelE2=     1 NClLst=     1 CellRange=     0.0.
 One-electron integrals computed using PRISM.
 NBasis=   280 RedAO= T EigKep=  2.21D-04  NBF=   190    90
 NBsUse=   280 1.00D-06 EigRej= -1.00D+00 NBFU=   190    90
 Precomputing XC quadrature grid using
 IXCGrd= 4 IRadAn=           0 IRanWt=          -1 IRanGd=           0 AccXCQ= 0.00D+00.
 Generated NRdTot=       0 NPtTot=           0 NUsed=           0 NTot=          32
 NSgBfM=   320   320   320   320   320 MxSgAt=    12 MxSgA2=    12.
 Leave Link  302 at Fri Aug 27 00:13:25 2021, MaxMem= 17179869184 cpu:        36.7
 (Enter /public3/home/sc51754/softwares/g09e01/l303.exe)
 DipDrv:  MaxL=1.
 Leave Link  303 at Fri Aug 27 00:13:26 2021, MaxMem= 17179869184 cpu:        16.3
 (Enter /public3/home/sc51754/softwares/g09e01/l401.exe)
 Initial guess from the checkpoint file:  "HY_wB97_PC2_OPT_FREQ.chk"
 B after Tr=    -0.000000    0.000000    0.000000
         Rot=    1.000000   -0.000000   -0.000000   -0.000340 Ang=  -0.04 deg.
 Guess basis will be translated and rotated to current coordinates.
 JPrj=2 DoOrth=T DoCkMO=T.
 Initial guess orbital symmetries:
       Occupied  (A') (A') (A') (A') (A') (A') (A') (A') (A') (A')
                 (A') (A') (A') (A') (A') (A') (A") (A') (A') (A')
                 (A') (A") (A") (A') (A")
       Virtual   (A') (A') (A') (A') (A') (A') (A') (A') (A') (A')
                 (A') (A') (A') (A') (A') (A') (A') (A') (A') (A')
                 (A') (A') (A') (A') (A') (A') (A') (A') (A') (A')
                 (A') (A') (A') (A') (A') (A') (A') (A') (A') (A')
                 (A') (A') (A') (A') (A') (A') (A') (A') (A') (A')
                 (A') (A') (A') (A') (A') (A') (A') (A') (A') (A')
                 (A') (A') (A') (A') (A') (A') (A') (A') (A') (A')
                 (A') (A') (A') (A') (A') (A') (A') (A') (A') (A')
                 (A') (A') (A') (A') (A') (A') (A') (A') (A') (A')
                 (A') (A') (A') (A') (A') (A') (A') (A') (A') (A')
                 (A') (A') (A') (A') (A') (A') (A') (A') (A') (A')
                 (A') (A') (A') (A') (A') (A') (A') (A') (A') (A')
                 (A') (A') (A') (A') (A') (A') (A') (A') (A') (A')
                 (A') (A') (A') (A') (A') (A') (A') (A') (A') (A')
                 (A') (A') (A') (A') (A') (A') (A') (A') (A') (A')
                 (A') (A') (A') (A') (A') (A') (A') (A') (A') (A')
                 (A') (A') (A') (A') (A') (A') (A') (A') (A') (A")
                 (A") (A") (A") (A") (A") (A") (A") (A") (A") (A")
                 (A") (A") (A") (A") (A") (A") (A") (A") (A") (A")
                 (A") (A") (A") (A") (A") (A") (A") (A") (A") (A")
                 (A") (A") (A") (A") (A") (A") (A") (A") (A") (A")
                 (A") (A") (A") (A") (A") (A") (A") (A") (A") (A")
                 (A") (A") (A") (A") (A") (A") (A") (A") (A") (A")
                 (A") (A") (A") (A") (A") (A") (A") (A") (A") (A")
                 (A") (A") (A") (A") (A") (A") (A") (A") (A") (A")
                 (A") (A") (A") (A") (A")
 The electronic state of the initial guess is 1-A'.
 Generating alternative initial guess.
 ExpMin= 7.41D-02 ExpMax= 1.48D+04 ExpMxC= 5.05D+02 IAcc=2 IRadAn=         4 AccDes= 0.00D+00
 Harris functional with IExCor= 4437 and IRadAn=       4 diagonalized for initial guess.
 HarFok:  IExCor= 4437 AccDes= 0.00D+00 IRadAn=         4 IDoV= 1 UseB2=F ITyADJ=14
 ICtDFT=  3500011 ScaDFX=  1.000000  1.000000  1.000000  1.000000
 FoFCou: FMM=F IPFlag=           0 FMFlag=      100000 FMFlg1=           0
         NFxFlg=           0 DoJE=T BraDBF=F KetDBF=T FulRan=T
         wScrn=  0.000000 ICntrl=     500 IOpCl=  0 I1Cent=   200000004 NGrid=           0
         NMat0=    1 NMatS0=      1 NMatT0=    0 NMatD0=    1 NMtDS0=    0 NMtDT0=    0
 Petite list used in FoFCou.
 Harris En= -313.584591560069    
 Leave Link  401 at Fri Aug 27 00:13:27 2021, MaxMem= 17179869184 cpu:        82.8
 (Enter /public3/home/sc51754/softwares/g09e01/l502.exe)
 Closed shell SCF:
 Using DIIS extrapolation, IDIIS=  1040.
 Integral symmetry usage will be decided dynamically.
 Keep R1 ints in memory in symmetry-blocked form, NReq=2335173138.
 IVT=      348658 IEndB=      348658 NGot= 17179869184 MDV= 16785904737
 LenX= 16785904737 LenY= 16785801896
 Requested convergence on RMS density matrix=1.00D-08 within 128 cycles.
 Requested convergence on MAX density matrix=1.00D-06.
 Requested convergence on             energy=1.00D-06.
 No special actions if energy rises.
 FoFCou: FMM=F IPFlag=           0 FMFlag=           0 FMFlg1=           0
         NFxFlg=           0 DoJE=F BraDBF=F KetDBF=F FulRan=T
         wScrn=  0.000000 ICntrl=     600 IOpCl=  0 I1Cent=           0 NGrid=           0
         NMat0=    1 NMatS0=  39340 NMatT0=    0 NMatD0=    1 NMtDS0=    0 NMtDT0=    0
 Petite list used in FoFCou.
 Integral accuracy reduced to 1.0D-05 until final iterations.

 Cycle   1  Pass 0  IDiag  1:
 E= -323.584296455739    
 DIIS: error= 3.91D-04 at cycle   1 NSaved=   1.
 NSaved= 1 IEnMin= 1 EnMin= -323.584296455739     IErMin= 1 ErrMin= 3.91D-04
 ErrMax= 3.91D-04  0.00D+00 EMaxC= 1.00D-01 BMatC= 6.92D-05 BMatP= 6.92D-05
 IDIUse=3 WtCom= 9.96D-01 WtEn= 3.91D-03
 Coeff-Com:  0.100D+01
 Coeff-En:   0.100D+01
 Coeff:      0.100D+01
 Gap=     0.778 Goal=   None    Shift=    0.000
 RMSDP=2.68D-05 MaxDP=6.99D-04              OVMax= 1.44D-03

 Cycle   2  Pass 0  IDiag  1:
 E= -323.584353353487     Delta-E=       -0.000056897748 Rises=F Damp=F
 DIIS: error= 1.57D-04 at cycle   2 NSaved=   2.
 NSaved= 2 IEnMin= 2 EnMin= -323.584353353487     IErMin= 2 ErrMin= 1.57D-04
 ErrMax= 1.57D-04  0.00D+00 EMaxC= 1.00D-01 BMatC= 4.55D-06 BMatP= 6.92D-05
 IDIUse=3 WtCom= 9.98D-01 WtEn= 1.57D-03
 Coeff-Com:  0.656D-01 0.934D+00
 Coeff-En:   0.000D+00 0.100D+01
 Coeff:      0.655D-01 0.934D+00
 Gap=     0.395 Goal=   None    Shift=    0.000
 RMSDP=1.07D-05 MaxDP=6.36D-04 DE=-5.69D-05 OVMax= 7.13D-04

 Cycle   3  Pass 0  IDiag  1:
 E= -323.584357480212     Delta-E=       -0.000004126725 Rises=F Damp=F
 DIIS: error= 8.23D-05 at cycle   3 NSaved=   3.
 NSaved= 3 IEnMin= 3 EnMin= -323.584357480212     IErMin= 3 ErrMin= 8.23D-05
 ErrMax= 8.23D-05  0.00D+00 EMaxC= 1.00D-01 BMatC= 1.29D-06 BMatP= 4.55D-06
 IDIUse=1 WtCom= 1.00D+00 WtEn= 0.00D+00
 Coeff-Com: -0.426D-01 0.309D+00 0.734D+00
 Coeff:     -0.426D-01 0.309D+00 0.734D+00
 Gap=     0.395 Goal=   None    Shift=    0.000
 RMSDP=3.28D-06 MaxDP=1.30D-04 DE=-4.13D-06 OVMax= 3.09D-04

 Initial convergence to 1.0D-05 achieved.  Increase integral accuracy.
 Cycle   4  Pass 1  IDiag  1:
 E= -323.584045412258     Delta-E=        0.000312067954 Rises=F Damp=F
 DIIS: error= 6.54D-05 at cycle   1 NSaved=   1.
 NSaved= 1 IEnMin= 1 EnMin= -323.584045412258     IErMin= 1 ErrMin= 6.54D-05
 ErrMax= 6.54D-05  0.00D+00 EMaxC= 1.00D-01 BMatC= 2.54D-06 BMatP= 2.54D-06
 IDIUse=1 WtCom= 1.00D+00 WtEn= 0.00D+00
 Coeff-Com:  0.100D+01
 Coeff:      0.100D+01
 Gap=     0.395 Goal=   None    Shift=    0.000
 RMSDP=3.28D-06 MaxDP=1.30D-04 DE= 3.12D-04 OVMax= 2.20D-04

 Cycle   5  Pass 1  IDiag  1:
 E= -323.584046581976     Delta-E=       -0.000001169718 Rises=F Damp=F
 DIIS: error= 1.68D-05 at cycle   2 NSaved=   2.
 NSaved= 2 IEnMin= 2 EnMin= -323.584046581976     IErMin= 2 ErrMin= 1.68D-05
 ErrMax= 1.68D-05  0.00D+00 EMaxC= 1.00D-01 BMatC= 1.11D-07 BMatP= 2.54D-06
 IDIUse=1 WtCom= 1.00D+00 WtEn= 0.00D+00
 Coeff-Com:  0.438D-02 0.996D+00
 Coeff:      0.438D-02 0.996D+00
 Gap=     0.395 Goal=   None    Shift=    0.000
 RMSDP=1.52D-06 MaxDP=7.23D-05 DE=-1.17D-06 OVMax= 1.59D-04

 Cycle   6  Pass 1  IDiag  1:
 E= -323.584046610855     Delta-E=       -0.000000028879 Rises=F Damp=F
 DIIS: error= 1.76D-05 at cycle   3 NSaved=   3.
 NSaved= 3 IEnMin= 3 EnMin= -323.584046610855     IErMin= 2 ErrMin= 1.68D-05
 ErrMax= 1.76D-05  0.00D+00 EMaxC= 1.00D-01 BMatC= 9.95D-08 BMatP= 1.11D-07
 IDIUse=1 WtCom= 1.00D+00 WtEn= 0.00D+00
 Coeff-Com: -0.412D-01 0.504D+00 0.537D+00
 Coeff:     -0.412D-01 0.504D+00 0.537D+00
 Gap=     0.395 Goal=   None    Shift=    0.000
 RMSDP=6.92D-07 MaxDP=3.64D-05 DE=-2.89D-08 OVMax= 8.18D-05

 Cycle   7  Pass 1  IDiag  1:
 E= -323.584046689796     Delta-E=       -0.000000078940 Rises=F Damp=F
 DIIS: error= 3.94D-06 at cycle   4 NSaved=   4.
 NSaved= 4 IEnMin= 4 EnMin= -323.584046689796     IErMin= 4 ErrMin= 3.94D-06
 ErrMax= 3.94D-06  0.00D+00 EMaxC= 1.00D-01 BMatC= 7.77D-10 BMatP= 9.95D-08
 IDIUse=1 WtCom= 1.00D+00 WtEn= 0.00D+00
 Coeff-Com:  0.430D-03-0.548D-01-0.221D-01 0.108D+01
 Coeff:      0.430D-03-0.548D-01-0.221D-01 0.108D+01
 Gap=     0.395 Goal=   None    Shift=    0.000
 RMSDP=2.33D-07 MaxDP=1.22D-05 DE=-7.89D-08 OVMax= 3.38D-05

 Cycle   8  Pass 1  IDiag  1:
 E= -323.584046693010     Delta-E=       -0.000000003214 Rises=F Damp=F
 DIIS: error= 1.51D-06 at cycle   5 NSaved=   5.
 NSaved= 5 IEnMin= 5 EnMin= -323.584046693010     IErMin= 5 ErrMin= 1.51D-06
 ErrMax= 1.51D-06  0.00D+00 EMaxC= 1.00D-01 BMatC= 2.12D-10 BMatP= 7.77D-10
 IDIUse=1 WtCom= 1.00D+00 WtEn= 0.00D+00
 Coeff-Com:  0.490D-02-0.668D-01-0.631D-01 0.169D+00 0.956D+00
 Coeff:      0.490D-02-0.668D-01-0.631D-01 0.169D+00 0.956D+00
 Gap=     0.395 Goal=   None    Shift=    0.000
 RMSDP=1.19D-07 MaxDP=4.58D-06 DE=-3.21D-09 OVMax= 2.11D-05

 Cycle   9  Pass 1  IDiag  1:
 E= -323.584046693896     Delta-E=       -0.000000000887 Rises=F Damp=F
 DIIS: error= 1.24D-06 at cycle   6 NSaved=   6.
 NSaved= 6 IEnMin= 6 EnMin= -323.584046693896     IErMin= 6 ErrMin= 1.24D-06
 ErrMax= 1.24D-06  0.00D+00 EMaxC= 1.00D-01 BMatC= 6.74D-11 BMatP= 2.12D-10
 IDIUse=1 WtCom= 1.00D+00 WtEn= 0.00D+00
 Coeff-Com:  0.165D-02-0.108D-01-0.156D-01-0.185D+00 0.320D+00 0.889D+00
 Coeff:      0.165D-02-0.108D-01-0.156D-01-0.185D+00 0.320D+00 0.889D+00
 Gap=     0.395 Goal=   None    Shift=    0.000
 RMSDP=6.31D-08 MaxDP=1.79D-06 DE=-8.87D-10 OVMax= 1.16D-05

 Cycle  10  Pass 1  IDiag  1:
 E= -323.584046694173     Delta-E=       -0.000000000276 Rises=F Damp=F
 DIIS: error= 3.49D-07 at cycle   7 NSaved=   7.
 NSaved= 7 IEnMin= 7 EnMin= -323.584046694173     IErMin= 7 ErrMin= 3.49D-07
 ErrMax= 3.49D-07  0.00D+00 EMaxC= 1.00D-01 BMatC= 1.10D-11 BMatP= 6.74D-11
 IDIUse=1 WtCom= 1.00D+00 WtEn= 0.00D+00
 Coeff-Com: -0.756D-03 0.129D-01 0.113D-01-0.816D-01-0.153D+00 0.191D+00
 Coeff-Com:  0.102D+01
 Coeff:     -0.756D-03 0.129D-01 0.113D-01-0.816D-01-0.153D+00 0.191D+00
 Coeff:      0.102D+01
 Gap=     0.395 Goal=   None    Shift=    0.000
 RMSDP=3.21D-08 MaxDP=9.05D-07 DE=-2.76D-10 OVMax= 7.34D-06

 Cycle  11  Pass 1  IDiag  1:
 E= -323.584046694216     Delta-E=       -0.000000000043 Rises=F Damp=F
 DIIS: error= 1.18D-07 at cycle   8 NSaved=   8.
 NSaved= 8 IEnMin= 8 EnMin= -323.584046694216     IErMin= 8 ErrMin= 1.18D-07
 ErrMax= 1.18D-07  0.00D+00 EMaxC= 1.00D-01 BMatC= 2.82D-12 BMatP= 1.10D-11
 IDIUse=1 WtCom= 1.00D+00 WtEn= 0.00D+00
 Coeff-Com: -0.568D-03 0.707D-02 0.707D-02-0.719D-02-0.112D+00-0.629D-01
 Coeff-Com:  0.446D+00 0.723D+00
 Coeff:     -0.568D-03 0.707D-02 0.707D-02-0.719D-02-0.112D+00-0.629D-01
 Coeff:      0.446D+00 0.723D+00
 Gap=     0.395 Goal=   None    Shift=    0.000
 RMSDP=9.57D-09 MaxDP=2.60D-07 DE=-4.27D-11 OVMax= 1.76D-06

 SCF Done:  E(RwB97) =  -323.584046694     A.U. after   11 cycles
            NFock= 11  Conv=0.96D-08     -V/T= 2.0036
 KE= 3.224285565414D+02 PE=-1.308071716822D+03 EE= 3.854798579854D+02
 Leave Link  502 at Fri Aug 27 00:13:34 2021, MaxMem= 17179869184 cpu:       328.1
[...]
     34  0.000000D+00 -0.102575D-03 -0.240779D-03  0.000000D+00  0.165708D-03
     35  0.000000D+00  0.107776D-03  0.163862D-03  0.000000D+00  0.215631D-03
     36 -0.338559D-01  0.000000D+00  0.000000D+00 -0.482081D-05  0.000000D+00
               26            27            28            29            30 
     26  0.138777D+00
     27  0.000000D+00  0.246723D-01
     28 -0.446946D-04  0.000000D+00  0.311283D+00
     29  0.121166D-03  0.000000D+00  0.115172D+00  0.119405D+00
     30  0.000000D+00 -0.165282D-02  0.000000D+00  0.000000D+00  0.275612D-01
     31  0.427381D-03  0.000000D+00 -0.966415D-03  0.862225D-03  0.000000D+00
     32  0.108614D-02  0.000000D+00 -0.718803D-03  0.457845D-03  0.000000D+00
     33  0.000000D+00 -0.488981D-02  0.000000D+00  0.000000D+00 -0.622804D-03
     34 -0.130729D-02  0.000000D+00  0.565703D-03 -0.681766D-03  0.000000D+00
     35 -0.420059D-03  0.000000D+00  0.441570D-03  0.456788D-03  0.000000D+00
     36  0.000000D+00  0.427428D-03  0.000000D+00  0.000000D+00 -0.382697D-02
               31            32            33            34            35 
     31  0.282761D+00
     32 -0.137649D+00  0.141984D+00
     33  0.000000D+00  0.000000D+00  0.282348D-01
     34  0.989476D-03  0.756348D-03  0.000000D+00  0.570262D-01
     35 -0.367053D-03  0.594744D-03  0.000000D+00  0.186273D-01  0.370929D+00
     36  0.000000D+00  0.000000D+00 -0.375458D-02  0.000000D+00  0.000000D+00
               36 
     36  0.250360D-01
 FormGI is forming the generalized inverse of G from B-inverse, IUseBI=4.
 Leave Link  716 at Fri Aug 27 00:15:00 2021, MaxMem= 17179869184 cpu:        18.5
 (Enter /public3/home/sc51754/softwares/g09e01/l103.exe)

 GradGradGradGradGradGradGradGradGradGradGradGradGradGradGradGradGradGrad
 Berny optimization.
 Red2BG is reusing G-inverse.
 Internal  Forces:  Max     0.000126362 RMS     0.000037815
 Search for a local minimum.
 Step number   1 out of a maximum of    2
 All quantities printed in internal units (Hartrees-Bohrs-Radians)
 Second derivative matrix not updated -- analytic derivatives used.
 ITU=  0
     Eigenvalues ---    0.01368   0.01642   0.01818   0.02278   0.02381
     Eigenvalues ---    0.02772   0.03168   0.03831   0.04627   0.10453
     Eigenvalues ---    0.11069   0.12081   0.13221   0.16122   0.19014
     Eigenvalues ---    0.20187   0.21641   0.23392   0.31026   0.36426
     Eigenvalues ---    0.36761   0.37256   0.37385   0.39798   0.45804
     Eigenvalues ---    0.47056   0.50484   0.53785   0.54911   0.60491
 Angle between quadratic step and forces=  21.86 degrees.
 Linear search not attempted -- first point.
 Iteration  1 RMS(Cart)=  0.00021156 RMS(Int)=  0.00000004
 Iteration  2 RMS(Cart)=  0.00000005 RMS(Int)=  0.00000000
 ITry= 1 IFail=0 DXMaxC= 7.85D-04 DCOld= 1.00D+10 DXMaxT= 3.00D-01 DXLimC= 3.00D+00 Rises=F
 ClnCor:  largest displacement from symmetrization is 3.93D-11 for atom     1.
 Variable       Old X    -DE/DX   Delta X   Delta X   Delta X     New X
                                 (Linear)    (Quad)   (Total)
    R1        2.55167   0.00001   0.00000   0.00001   0.00001   2.55168
    R2        1.82051  -0.00001   0.00000  -0.00001  -0.00001   1.82050
    R3        2.49277  -0.00013   0.00000  -0.00052  -0.00052   2.49225
    R4        2.52708   0.00011   0.00000   0.00043   0.00043   2.52750
    R5        2.64052   0.00012   0.00000   0.00051   0.00051   2.64103
    R6        2.60336  -0.00003   0.00000  -0.00029  -0.00029   2.60307
    R7        2.04435   0.00001   0.00000   0.00002   0.00002   2.04437
    R8        2.60822  -0.00005   0.00000  -0.00032  -0.00032   2.60790
    R9        2.05194   0.00000   0.00000  -0.00002  -0.00002   2.05193
   R10        2.63659   0.00010   0.00000   0.00044   0.00044   2.63704
   R11        2.04927  -0.00000   0.00000  -0.00001  -0.00001   2.04926
   R12        2.04483   0.00001   0.00000   0.00003   0.00003   2.04486
    A1        1.85945   0.00002   0.00000   0.00016   0.00016   1.85961
    A2        2.05095   0.00006   0.00000   0.00019   0.00019   2.05115
    A3        2.04798   0.00007   0.00000   0.00044   0.00044   2.04841
    A4        2.06799  -0.00005   0.00000  -0.00039  -0.00039   2.06760
    A5        2.16721  -0.00002   0.00000  -0.00005  -0.00005   2.16717
    A6        2.04725   0.00001   0.00000   0.00001   0.00001   2.04725
    A7        2.09338  -0.00002   0.00000  -0.00026  -0.00026   2.09313
    A8        2.14255   0.00002   0.00000   0.00025   0.00025   2.14280
    A9        2.15563  -0.00004   0.00000  -0.00021  -0.00021   2.15541
   A10        2.02019   0.00002   0.00000  -0.00003  -0.00003   2.02016
   A11        2.10737   0.00003   0.00000   0.00024   0.00024   2.10761
   A12        2.08809  -0.00002   0.00000  -0.00009  -0.00009   2.08800
   A13        2.09292   0.00003   0.00000   0.00033   0.00033   2.09325
   A14        2.10217  -0.00002   0.00000  -0.00024  -0.00024   2.10193
   A15        2.05724   0.00002   0.00000   0.00015   0.00015   2.05739
   A16        2.10429   0.00000   0.00000   0.00008   0.00008   2.10437
   A17        2.12166  -0.00002   0.00000  -0.00024  -0.00024   2.12142
    D1        0.00000  -0.00000   0.00000  -0.00000  -0.00000   0.00000
    D2        3.14159  -0.00000   0.00000  -0.00000   0.00000   3.14159
    D3        3.14159   0.00000   0.00000   0.00000   0.00000   3.14159
    D4        0.00000  -0.00000   0.00000   0.00000   0.00000   0.00000
    D5       -0.00000   0.00000   0.00000   0.00000   0.00000   0.00000
    D6        3.14159  -0.00000   0.00000   0.00000   0.00000   3.14159
    D7        3.14159  -0.00000   0.00000  -0.00000   0.00000   3.14159
    D8        0.00000  -0.00000   0.00000  -0.00000   0.00000   0.00000
    D9       -0.00000   0.00000   0.00000  -0.00000   0.00000   0.00000
   D10        3.14159   0.00000   0.00000  -0.00000   0.00000   3.14159
   D11       -0.00000  -0.00000   0.00000   0.00000   0.00000   0.00000
   D12        3.14159  -0.00000   0.00000   0.00000   0.00000   3.14159
   D13        3.14159   0.00000   0.00000   0.00000   0.00000   3.14159
   D14        0.00000   0.00000   0.00000   0.00000  -0.00000   0.00000
   D15        0.00000  -0.00000   0.00000  -0.00000   0.00000   0.00000
   D16        3.14159  -0.00000   0.00000  -0.00000   0.00000   3.14159
   D17        3.14159   0.00000   0.00000  -0.00000   0.00000   3.14159
   D18       -0.00000   0.00000   0.00000  -0.00000   0.00000   0.00000
   D19        0.00000   0.00000   0.00000   0.00000  -0.00000   0.00000
   D20        3.14159   0.00000   0.00000   0.00000   0.00000   3.14159
   D21        3.14159  -0.00000   0.00000   0.00000   0.00000   3.14159
   D22       -0.00000  -0.00000   0.00000   0.00000   0.00000   0.00000
         Item               Value     Threshold  Converged?
 Maximum Force            0.000126     0.000450     YES
 RMS     Force            0.000038     0.000300     YES
 Maximum Displacement     0.000785     0.001800     YES
 RMS     Displacement     0.000212     0.001200     YES
 Predicted change in Energy=-1.776518D-07
 Optimization completed.
    -- Stationary point found.
                           ----------------------------
                           !   Optimized Parameters   !
                           ! (Angstroms and Degrees)  !
 --------------------------                            --------------------------
 ! Name  Definition              Value          Derivative Info.                !
 --------------------------------------------------------------------------------
 ! R1    R(1,3)                  1.3503         -DE/DX =    0.0                 !
 ! R2    R(1,8)                  0.9634         -DE/DX =    0.0                 !
 ! R3    R(2,3)                  1.3191         -DE/DX =   -0.0001              !
 ! R4    R(2,5)                  1.3373         -DE/DX =    0.0001              !
 ! R5    R(3,4)                  1.3973         -DE/DX =    0.0001              !
 ! R6    R(4,6)                  1.3776         -DE/DX =    0.0                 !
 ! R7    R(4,9)                  1.0818         -DE/DX =    0.0                 !
 ! R8    R(5,7)                  1.3802         -DE/DX =   -0.0001              !
 ! R9    R(5,10)                 1.0858         -DE/DX =    0.0                 !
 ! R10   R(6,7)                  1.3952         -DE/DX =    0.0001              !
 ! R11   R(6,11)                 1.0844         -DE/DX =    0.0                 !
 ! R12   R(7,12)                 1.0821         -DE/DX =    0.0                 !
 ! A1    A(3,1,8)              106.5386         -DE/DX =    0.0                 !
 ! A2    A(3,2,5)              117.511          -DE/DX =    0.0001              !
 ! A3    A(1,3,2)              117.3404         -DE/DX =    0.0001              !
 ! A4    A(1,3,4)              118.4874         -DE/DX =    0.0                 !
 ! A5    A(2,3,4)              124.1722         -DE/DX =    0.0                 !
 ! A6    A(3,4,6)              117.2987         -DE/DX =    0.0                 !
 ! A7    A(3,4,9)              119.9421         -DE/DX =    0.0                 !
 ! A8    A(6,4,9)              122.7592         -DE/DX =    0.0                 !
 ! A9    A(2,5,7)              123.5083         -DE/DX =    0.0                 !
 ! A10   A(2,5,10)             115.7485         -DE/DX =    0.0                 !
 ! A11   A(7,5,10)             120.7431         -DE/DX =    0.0                 !
 ! A12   A(4,6,7)              119.6388         -DE/DX =    0.0                 !
 ! A13   A(4,6,11)             119.9155         -DE/DX =    0.0                 !
 ! A14   A(7,6,11)             120.4457         -DE/DX =    0.0                 !
 ! A15   A(5,7,6)              117.871          -DE/DX =    0.0                 !
 ! A16   A(5,7,12)             120.5668         -DE/DX =    0.0                 !
 ! A17   A(6,7,12)             121.5622         -DE/DX =    0.0                 !
 ! D1    D(8,1,3,2)              0.0            -DE/DX =    0.0                 !
 ! D2    D(8,1,3,4)            180.0            -DE/DX =    0.0                 !
 ! D3    D(5,2,3,1)            180.0            -DE/DX =    0.0                 !
 ! D4    D(5,2,3,4)              0.0            -DE/DX =    0.0                 !
 ! D5    D(3,2,5,7)              0.0            -DE/DX =    0.0                 !
 ! D6    D(3,2,5,10)           180.0            -DE/DX =    0.0                 !
 ! D7    D(1,3,4,6)            180.0            -DE/DX =    0.0                 !
 ! D8    D(1,3,4,9)              0.0            -DE/DX =    0.0                 !
 ! D9    D(2,3,4,6)              0.0            -DE/DX =    0.0                 !
 ! D10   D(2,3,4,9)            180.0            -DE/DX =    0.0                 !
 ! D11   D(3,4,6,7)              0.0            -DE/DX =    0.0                 !
 ! D12   D(3,4,6,11)           180.0            -DE/DX =    0.0                 !
 ! D13   D(9,4,6,7)            180.0            -DE/DX =    0.0                 !
 ! D14   D(9,4,6,11)             0.0            -DE/DX =    0.0                 !
 ! D15   D(2,5,7,6)              0.0            -DE/DX =    0.0                 !
 ! D16   D(2,5,7,12)           180.0            -DE/DX =    0.0                 !
 ! D17   D(10,5,7,6)           180.0            -DE/DX =    0.0                 !
 ! D18   D(10,5,7,12)            0.0            -DE/DX =    0.0                 !
 ! D19   D(4,6,7,5)              0.0            -DE/DX =    0.0                 !
 ! D20   D(4,6,7,12)           180.0            -DE/DX =    0.0                 !
 ! D21   D(11,6,7,5)           180.0            -DE/DX =    0.0                 !
 ! D22   D(11,6,7,12)            0.0            -DE/DX =    0.0                 !
 --------------------------------------------------------------------------------
 GradGradGradGradGradGradGradGradGradGradGradGradGradGradGradGradGradGrad

 Leave Link  103 at Fri Aug 27 00:15:01 2021, MaxMem= 17179869184 cpu:        57.1
 (Enter /public3/home/sc51754/softwares/g09e01/l9999.exe)
 1\1\GINC-R2613\Freq\RwB97\Gen\C5H5N1O1\SC51754\27-Aug-2021\0\\#P Geom=
 AllCheck Guess=TCheck SCRF=Check GenChk RwB97/ChkBas Freq\\HY_wB97_PC2
 _OPT_FREQ\\0,1\O,0.00580754,2.2482283101,0.\N,-1.1758903517,0.29809017
 11,0.\C,-0.001062504,0.8979593206,0.\C,1.2236520441,0.2252540726,0.\C,
 -1.1866737115,-1.0391379318,0.\C,1.1880648121,-1.1519250312,0.\C,-0.04
 2026905,-1.8103509674,0.\H,-0.9163028452,2.5271589197,0.\H,2.148231549
 9,0.7869435726,0.\H,-2.1684722774,-1.5029488536,0.\H,2.1137224528,-1.7
 168533322,0.\H,-0.106268804,-2.8905182506,0.\\Version=EM64L-G09RevE.01
 \State=1-A'\HF=-323.5840599\RMSD=1.043e-09\RMSF=7.879e-05\ZeroPoint=0.
 0947796\Thermal=0.0999349\Dipole=0.2059659,-0.5187385,0.\DipoleDeriv=-
 0.2369529,0.1472169,0.,0.1003083,-1.654703,0.,0.,0.,-0.3874875,-0.4755
 937,-0.263899,0.,0.2107505,-0.8031434,0.,0.,0.,-0.2960459,0.2802842,-0
 .2717145,0.,-0.0538605,1.8778737,0.,0.,0.,0.23145,-0.0427453,0.4440114
 ,0.,-0.0893619,-0.553167,0.,0.,0.,-0.1638732,0.4790195,0.1401538,0.,-0
 .2941939,0.362487,0.,0.,0.,0.0045043,0.3287327,0.1073493,0.,0.1767989,
 0.4136032,0.,0.,0.,-0.0804295,-0.5568525,-0.1683704,0.,0.0879941,-0.09
 03397,0.,0.,0.,-0.1744588,0.2187297,-0.0536207,0.,-0.0842786,0.3942669
 ,0.,0.,0.,0.3228356,0.0039645,-0.0510111,0.,-0.0474436,0.0491567,0.,0.
 ,0.,0.155315,-0.0433455,-0.0851823,0.,-0.0558635,0.0203403,0.,0.,0.,0.
 1057275,-0.0248285,0.0674785,0.,0.0654979,0.047279,0.,0.,0.,0.1258006,
 0.069588,-0.0124119,0.,-0.0163477,-0.0636536,0.,0.,0.,0.1566619\Polar=
 72.7009586,0.2845632,82.9176419,0.,0.,38.0062993\PG=CS [SG(C5H5N1O1)]\
 NImag=0\\0.60233361,-0.10992384,0.49326722,0.,0.,0.03677563,-0.0075470
 3,-0.03350076,0.,0.49982524,-0.06829369,-0.05242936,0.,0.12504525,0.64
 858794,0.,0.,0.00761420,0.,0.,0.09263169,-0.10926161,-0.01607015,0.,-0
 .32403487,-0.04246956,0.,0.73530477,0.03270563,-0.31826824,0.,-0.10007
 908,-0.18320832,0.,-0.01309527,0.75170802,0.,0.,-0.05416049,0.,0.,-0.0
 7491306,0.,0.,0.19411188,0.00026595,0.01540284,0.,-0.06692844,-0.04349
 153,0.,-0.27436070,0.10673244,0.,0.73462588,0.05250066,-0.04473916,0.,
 0.02890582,0.08287734,0.,0.01658610,-0.15654159,0.,0.06082657,0.749829
 55,0.,0.,0.00984713,0.,0.,0.02166898,0.,0.,-0.07991616,0.,0.,0.1277011
 9,-0.00634592,0.00314195,0.,-0.12744603,-0.02194035,0.,0.03338083,-0.0
 4953806,0.,-0.02442547,0.03407534,0.,0.78331752,0.01038715,0.00014825,
 0.,0.02526362,-0.35535436,0.,-0.13067233,-0.04355789,0.,0.04767473,-0.
 07405658,0.,0.03364901,0.70092172,0.,0.,0.01097449,0.,0.,-0.06699153,0
 .,0.,-0.00312973,0.,0.,-0.00637209,0.,0.,0.16774918,-0.01233210,0.0049
 8682,0.,-0.02869342,-0.05164791,0.,0.06581537,0.02993198,0.,-0.1415812
 7,0.03311364,0.,-0.06410549,0.04440791,0.,0.73623735,-0.00784515,0.010
 00799,0.,-0.04456509,-0.07382234,0.,0.10555507,-0.03200646,0.,-0.04670
 604,-0.38387961,0.,-0.02657106,0.09059191,0.,-0.04600169,0.72715159,0.
 ,0.,0.00472876,0.,0.,-0.00848540,0.,0.,0.00311093,0.,0.,-0.06181352,0.
 ,0.,0.00879787,0.,0.,0.15207744,0.01065071,-0.00690405,0.,0.05890835,0
 .10396414,0.,-0.11109901,0.00221617,0.,0.04749716,-0.09105953,0.,-0.29
 754199,0.04908347,0.,-0.29096456,-0.04066873,0.,0.67342939,-0.00200970
 ,-0.00774462,0.,0.02037577,-0.04896901,0.,0.01531261,0.00495243,0.,-0.
 03324824,-0.02044240,0.,0.13847490,-0.20163542,0.,-0.12276548,-0.18118
 662,0.,-0.00229750,0.78830210,0.,0.,-0.00133780,0.,0.,0.02392940,0.,0.
 ,-0.01005850,0.,0.,0.00853674,0.,0.,-0.07325785,0.,0.,-0.06710706,0.,0
 .,0.12963752,-0.47988105,0.14325358,0.,-0.00101683,-0.00406017,0.,-0.0
 0240608,0.01034592,0.,0.00260708,-0.00240275,0.,-0.00061961,-0.0016101
 9,0.,0.00035118,0.00144543,0.,-0.00118722,-0.00061623,0.,0.48203186,0.
 09266462,-0.07926234,0.,0.00203684,0.00725218,0.,0.05334169,-0.0260643
 3,0.,-0.00199297,-0.00702926,0.,-0.00058873,-0.00210075,0.,0.00245911,
 0.00076193,0.,-0.00154586,0.00101210,0.,-0.14616717,0.10530893,0.,0.,-
 0.01078448,0.,0.,-0.00344883,0.,0.,0.00129170,0.,0.,0.00331328,0.,0.,-
 0.00072804,0.,0.,0.00138879,0.,0.,0.00051771,0.,0.,0.00974985,0.001523
 75,-0.00039218,0.,-0.00564661,0.00275827,0.,-0.01522668,-0.01924973,0.
 ,-0.27853850,-0.12855489,0.,0.00040477,0.00230506,0.,0.00566303,0.0024
 8497,0.,0.00219010,0.00068323,0.,0.00010906,-0.00003516,0.,0.28878820,
 -0.00059027,0.00079819,0.,0.00501921,-0.00026936,0.,0.01296489,0.01178
 460,0.,-0.13065200,-0.13668799,0.,0.00046155,-0.00152554,0.,-0.0276627
 7,-0.00862601,0.,0.00115163,-0.00513430,0.,-0.00024937,0.00009623,0.,0
 .14048173,0.13877693,0.,0.,-0.00204645,0.,0.,0.00568162,0.,0.,0.002326
 33,0.,0.,-0.03504715,0.,0.,-0.00015103,0.,0.,0.00249677,0.,0.,0.008845
 52,0.,0.,-0.00066275,0.,0.,0.02467235,-0.00015390,-0.00030118,0.,0.005
 90104,-0.00374694,0.,0.00304747,0.00156832,0.,0.00035444,0.00094889,0.
 ,-0.30077994,-0.10343002,0.,-0.00355168,0.00370131,0.,-0.01570006,-0.0
 1373654,0.,0.00005205,0.00014648,0.,-0.00005182,-0.00004469,0.,0.31128
 311,-0.00111346,-0.00108962,0.,-0.03110673,-0.02281796,0.,-0.00102730,
 -0.00446104,0.,0.00014513,-0.00072285,0.,-0.10130790,-0.10179699,0.,0.
 00338973,-0.00149562,0.,0.01588195,0.01165820,0.,-0.00005898,0.0002855
 6,0.,-0.00015452,0.00012117,0.,0.11517162,0.11940451,0.,0.,0.00027920,
 0.,0.,-0.00281438,0.,0.,0.01052197,0.,0.,-0.00059797,0.,0.,-0.04476927
 ,0.,0.,0.00787435,0.,0.,0.00829890,0.,0.,-0.00025142,0.,0.,-0.00165282
 ,0.,0.,0.02756121,0.00000930,0.00024173,0.,0.00042956,-0.00072611,0.,0
 .00182694,-0.00128534,0.,0.00501177,-0.00280175,0.,-0.00418100,-0.0037
 4250,0.,-0.27088487,0.12792106,0.,-0.01567656,0.01719781,0.,0.00006214
 ,-0.00007808,0.,0.00061898,0.00042738,0.,-0.00096642,0.00086222,0.,0.2
 8276067,0.00171802,-0.00079090,0.,-0.00066488,-0.00088723,0.,-0.000932
 93,-0.00520716,0.,0.02786090,-0.00937036,0.,-0.00357961,-0.00045916,0.
 ,0.12709415,-0.13951144,0.,-0.01335353,0.01252773,0.,0.00001215,-0.000
 42410,0.,-0.00054242,0.00108614,0.,-0.00071880,0.00045785,0.,-0.137649
 38,0.14198389,0.,0.,-0.00048558,0.,0.,-0.00310520,0.,0.,0.01019691,0.,
 0.,0.00609925,0.,0.,0.00758023,0.,0.,-0.04472360,0.,0.,0.00585137,0.,0
 .,-0.00038098,0.,0.,-0.00488981,0.,0.,-0.00062280,0.,0.,0.02823479,0.0
 0073830,0.00006525,0.,-0.00375097,0.00460860,0.,-0.00298644,-0.0002529
 8,0.,-0.00452789,-0.00213811,0.,0.00834232,0.02668410,0.,0.00404646,-0
 .02875008,0.,-0.06050633,-0.01737064,0.,-0.00010257,-0.00024078,0.,0.0
 0016571,-0.00130729,0.,0.00056570,-0.00068177,0.,0.00098948,0.00075635
 ,0.,0.05702623,-0.00019999,0.00010259,0.,0.00327003,-0.00095952,0.,0.0
 0050719,0.00086999,0.,-0.00255183,0.00076292,0.,-0.00627704,-0.0111751
 8,0.,0.00269453,-0.00798533,0.,-0.01646816,-0.35334020,0.,0.00010778,0
 .00016386,0.,0.00021563,-0.00042006,0.,0.00044157,0.00045679,0.,-0.000
 36705,0.00059474,0.,0.01862734,0.37092941,0.,0.,-0.00140461,0.,0.,0.00
 823251,0.,0.,0.00061821,0.,0.,0.00658032,0.,0.,0.00029777,0.,0.,0.0016
 5467,0.,0.,-0.03385595,0.,0.,-0.00000482,0.,0.,0.00042743,0.,0.,-0.003
 82697,0.,0.,-0.00375458,0.,0.,0.02503602\\-0.00005065,-0.00000188,0.,-
 0.00019145,-0.00012473,0.,0.00026779,-0.00004938,0.,-0.00009260,0.0001
 2321,0.,0.00002016,0.00015683,0.,-0.00011534,-0.00007974,0.,0.00014310
 ,-0.00003017,0.,-0.00003512,-0.00001647,0.,-0.00000438,-0.00000163,0.,
 0.00001701,-0.00002209,0.,0.00002576,0.00003794,0.,0.00001575,0.000008
 11,0.\\\@


            ARSENIC

 FOR SMELTER FUMES HAVE I BEEN NAMED,
    I AM AN EVIL POISONOUS SMOKE...
 BUT WHEN FROM POISON I AM FREED,
    THROUGH ART AND SLEIGHT OF HAND,
 THEN CAN I CURE BOTH MAN AND BEAST,
    FROM DIRE DISEASE OFTTIMES DIRECT THEM;
 BUT PREPARE ME CORRECTLY, AND TAKE GREAT CARE
    THAT YOU FAITHFULLY KEEP WATCHFUL GUARD OVER ME;
 FOR ELSE I AM POISON, AND POISON REMAIN,
    THAT PIERCES THE HEART OF MANY A ONE.

 ATTRIBUTED TO THE PROBABLY MYTHICAL 15TH
 CENTURY MONK, BASILIUS VALENTINUS
 Job cpu time:       0 days  0 hours 48 minutes 45.2 seconds.
 File lengths (MBytes):  RWF=     80 Int=      0 D2E=      0 Chk=      7 Scr=      1
 Normal termination of Gaussian 09 at Fri Aug 27 00:15:01 2021.
