 Entering Gaussian System, Link 0=g09
 AtFile(1): pc-2.gbs
            -H     0
            S    4   1.00
                  0.754230D+02           0.240650D-02
                  0.113500D+02           0.184870D-01
                  0.259930D+01           0.897420D-01
                  0.735130D+00           0.281110D+00
            S    1   1.00
                  0.231670D+00           0.100000D+01
            S    1   1.00
                  0.741470D-01           0.100000D+01
            P    1   1.00
                  0.160000D+01           0.100000D+01
            P    1   1.00
                  0.450000D+00           0.100000D+01
            D    1   1.00
                  0.125000D+01           0.100000D+01
            ****
            -C     0
            S    7   1.00
                  0.785710D+04           0.568250D-03
                  0.117870D+04           0.439150D-02
                  0.268320D+03           0.225040D-01
                  0.759480D+02           0.866530D-01
                  0.245590D+02           0.244050D+00
                  0.862120D+01           0.441480D+00
                  0.312780D+01           0.353320D+00
            S    7   1.00
                  0.117870D+04          -0.594920D-06
                  0.268320D+03          -0.627480D-04
                  0.759480D+02          -0.757730D-03
                  0.245590D+02          -0.733080D-02
                  0.862120D+01          -0.389320D-01
                  0.312780D+01          -0.889080D-01
                  0.822020D+00           0.216890D+00
            S    1   1.00
                  0.330170D+00           0.100000D+01
            S    1   1.00
                  0.114630D+00           0.100000D+01
            P    4   1.00
                  0.337750D+02           0.602940D-02
                  0.767660D+01           0.432280D-01
                  0.223570D+01           0.163010D+00
                  0.764470D+00           0.365040D+00
            P    1   1.00
                  0.262320D+00           0.100000D+01
            P    1   1.00
                  0.846380D-01           0.100000D+01
            D    1   1.00
                  0.140000D+01           0.100000D+01
            D    1   1.00
                  0.450000D+00           0.100000D+01
            F    1   1.00
                  0.950000D+00           0.100000D+01
            ****
            -N     0
            S    7   1.00
                  0.111010D+05           0.545700D-03
                  0.166530D+04           0.421810D-02
                  0.379080D+03           0.216450D-01
                  0.107300D+03           0.837760D-01
                  0.347470D+02           0.238810D+00
                  0.122490D+02           0.439940D+00
                  0.447430D+01           0.363640D+00
            S    7   1.00
                  0.166530D+04          -0.150060D-05
                  0.379080D+03          -0.587530D-04
                  0.107300D+03          -0.774530D-03
                  0.347470D+02          -0.721610D-02
                  0.122490D+02          -0.393380D-01
                  0.447430D+01          -0.906110D-01
                  0.124040D+01           0.198820D+00
            S    1   1.00
                  0.487430D+00           0.100000D+01
            S    1   1.00
                  0.164840D+00           0.100000D+01
            P    4   1.00
                  0.479340D+02           0.617060D-02
                  0.109990D+02           0.442600D-01
                  0.324720D+01           0.168250D+00
                  0.111140D+01           0.368480D+00
            P    1   1.00
                  0.379880D+00           0.100000D+01
            P    1   1.00
                  0.120680D+00           0.100000D+01
            D    1   1.00
                  0.180000D+01           0.100000D+01
            D    1   1.00
                  0.550000D+00           0.100000D+01
            F    1   1.00
                  0.102000D+01           0.100000D+01
            ****
            -O     0
            S    7   1.00
                  0.147820D+05           0.535190D-03
                  0.221730D+04           0.413750D-02
                  0.504740D+03           0.212450D-01
                  0.142870D+03           0.824530D-01
                  0.463000D+02           0.236710D+00
                  0.163370D+02           0.440390D+00
                  0.598280D+01           0.364650D+00
            S    7   1.00
                  0.221730D+04          -0.192750D-05
                  0.504740D+03          -0.579640D-04
                  0.142870D+03          -0.794940D-03
                  0.463000D+02          -0.731250D-02
                  0.163370D+02          -0.405740D-01
                  0.598280D+01          -0.915940D-01
                  0.167180D+01           0.209400D+00
            S    1   1.00
                  0.646620D+00           0.100000D+01
            S    1   1.00
                  0.216690D+00           0.100000D+01
            P    4   1.00
                  0.604240D+02           0.689490D-02
                  0.139350D+02           0.490050D-01
                  0.415310D+01           0.182550D+00
                  0.141580D+01           0.376330D+00
            P    1   1.00
                  0.475490D+00           0.100000D+01
            P    1   1.00
                  0.145290D+00           0.100000D+01
            D    1   1.00
                  0.220000D+01           0.100000D+01
            D    1   1.00
                  0.650000D+00           0.100000D+01
            F    1   1.00
                  0.110000D+01           0.100000D+01
            ****
 Initial command:
 /public3/home/sc51754/softwares/g09e01/l1.exe "./Gau-12167.inp" -scrdir="./"
 Entering Link 1 = /public3/home/sc51754/softwares/g09e01/l1.exe PID=     12168.
  
 Copyright (c) 1988,1990,1992,1993,1995,1998,2003,2009,2015,
            Gaussian, Inc.  All Rights Reserved.
  
 This is part of the Gaussian(R) 09 program.  It is based on
 the Gaussian(R) 03 system (copyright 2003, Gaussian, Inc.),
 the Gaussian(R) 98 system (copyright 1998, Gaussian, Inc.),
 the Gaussian(R) 94 system (copyright 1995, Gaussian, Inc.),
 the Gaussian 92(TM) system (copyright 1992, Gaussian, Inc.),
 the Gaussian 90(TM) system (copyright 1990, Gaussian, Inc.),
 the Gaussian 88(TM) system (copyright 1988, Gaussian, Inc.),
 the Gaussian 86(TM) system (copyright 1986, Carnegie Mellon
 University), and the Gaussian 82(TM) system (copyright 1983,
 Carnegie Mellon University). Gaussian is a federally registered
 trademark of Gaussian, Inc.
  
 This software contains proprietary and confidential information,
 including trade secrets, belonging to Gaussian, Inc.
  
 This software is provided under written license and may be
 used, copied, transmitted, or stored only in accord with that
 written license.
  
 The following legend is applicable only to US Government
 contracts under FAR:
  
                    RESTRICTED RIGHTS LEGEND
  
 Use, reproduction and disclosure by the US Government is
 subject to restrictions as set forth in subparagraphs (a)
 and (c) of the Commercial Computer Software - Restricted
 Rights clause in FAR 52.227-19.
  
 Gaussian, Inc.
 340 Quinnipiac St., Bldg. 40, Wallingford CT 06492
  
  
 ---------------------------------------------------------------
 Warning -- This program may not be used in any manner that
 competes with the business of Gaussian, Inc. or will provide
 assistance to any competitor of Gaussian, Inc.  The licensee
 of this program is prohibited from giving any competitor of
 Gaussian, Inc. access to this program.  By using this program,
 the user acknowledges that Gaussian, Inc. is engaged in the
 business of creating and licensing software in the field of
 computational chemistry and represents and warrants to the
 licensee that it is not a competitor of Gaussian, Inc. and that
 it will not use this program in any manner prohibited above.
 ---------------------------------------------------------------
  

 Cite this work as:
 Gaussian 09, Revision E.01,
 M. J. Frisch, G. W. Trucks, H. B. Schlegel, G. E. Scuseria, 
 M. A. Robb, J. R. Cheeseman, G. Scalmani, V. Barone, B. Mennucci, 
 G. A. Petersson, H. Nakatsuji, M. Caricato, X. Li, H. P. Hratchian, 
 A. F. Izmaylov, J. Bloino, G. Zheng, J. L. Sonnenberg, M. Hada, 
 M. Ehara, K. Toyota, R. Fukuda, J. Hasegawa, M. Ishida, T. Nakajima, 
 Y. Honda, O. Kitao, H. Nakai, T. Vreven, J. A. Montgomery, Jr., 
 J. E. Peralta, F. Ogliaro, M. Bearpark, J. J. Heyd, E. Brothers, 
 K. N. Kudin, V. N. Staroverov, T. Keith, R. Kobayashi, J. Normand, 
 K. Raghavachari, A. Rendell, J. C. Burant, S. S. Iyengar, J. Tomasi, 
 M. Cossi, N. Rega, J. M. Millam, M. Klene, J. E. Knox, J. B. Cross, 
 V. Bakken, C. Adamo, J. Jaramillo, R. Gomperts, R. E. Stratmann, 
 O. Yazyev, A. J. Austin, R. Cammi, C. Pomelli, J. W. Ochterski, 
 R. L. Martin, K. Morokuma, V. G. Zakrzewski, G. A. Voth, 
 P. Salvador, J. J. Dannenberg, S. Dapprich, A. D. Daniels, 
 O. Farkas, J. B. Foresman, J. V. Ortiz, J. Cioslowski, 
 and D. J. Fox, Gaussian, Inc., Wallingford CT, 2013.
 
 ******************************************
 Gaussian 09:  EM64L-G09RevE.01 30-Nov-2015
                27-Aug-2021 
 ******************************************
 %nprocshared=64
 Will use up to   64 processors via shared memory.
 %mem=128GB
 %chk=HY_H2O_BLYP_PC2_OPT_FREQ.chk
 --------------------
 #p opt freq BLYP/gen
 --------------------
 1/14=-1,18=20,19=15,26=3,38=1/1,3;
 2/9=110,12=2,17=6,18=5,40=1/2;
 3/5=7,11=2,16=1,25=1,30=1,71=1,74=402/1,2,3;
 4//1;
 5/5=2,38=5/2;
 6/7=2,8=2,9=2,10=2,28=1/1;
 7//1,2,3,16;
 1/14=-1,18=20,19=15,26=3/3(2);
 2/9=110/2;
 99//99;
 2/9=110/2;
 3/5=7,6=1,11=2,16=1,25=1,30=1,71=1,74=402,82=7/1,2,3;
 4/5=5,16=3,69=1/1;
 5/5=2,38=5/2;
 7//1,2,3,16;
 1/14=-1,18=20,19=15,26=3/3(-5);
 2/9=110/2;
 6/7=2,8=2,9=2,10=2,19=2,28=1/1;
 99/9=1/99;
 Leave Link    1 at Fri Aug 27 00:14:04 2021, MaxMem= 17179869184 cpu:         7.5
 (Enter /public3/home/sc51754/softwares/g09e01/l101.exe)
 ------------------------
 HY_H2O_BLYP_PC2_OPT_FREQ
 ------------------------
 Symbolic Z-matrix:
 Charge =  0 Multiplicity = 1
 O                     1.216     1.44855  -0.00262 
 N                     0.30594  -0.66619  -0.00547 
 C                     0.13701   0.65516  -0.00009 
 C                    -1.12976   1.25518   0.00826 
 C                    -0.78318  -1.4465   -0.00563 
 C                    -2.23812   0.43549   0.00911 
 C                    -2.07199  -0.951     0.00173 
 H                     2.03022   0.90023  -0.0153 
 H                    -1.20631   2.3321    0.01208 
 H                    -0.59906  -2.51382  -0.01294 
 H                    -3.22982   0.86768   0.01456 
 H                    -2.91795  -1.62195   0.00074 
 O                     3.09571  -0.58722  -0.08503 
 H                     3.59397  -0.87925   0.68253 
 H                     2.20982  -1.00228  -0.02248 
 
 Add virtual bond connecting atoms O13        and H8         Dist= 3.46D+00.
 Add virtual bond connecting atoms H15        and N2         Dist= 3.65D+00.
 Add virtual bond connecting atoms H15        and H8         Dist= 3.61D+00.
 Add atom     13 valence  3 ND=      2 dihedral       8     13     14     15
 NAtoms=     15 NQM=       15 NQMF=       0 NMMI=      0 NMMIF=      0
                NMic=       0 NMicF=      0.
                    Isotopes and Nuclear Properties:
 (Nuclear quadrupole moments (NQMom) in fm**2, nuclear magnetic moments (NMagM)
  in nuclear magnetons)

  Atom         1           2           3           4           5           6           7           8           9          10
 IAtWgt=          16          14          12          12          12          12          12           1           1           1
 AtmWgt=  15.9949146  14.0030740  12.0000000  12.0000000  12.0000000  12.0000000  12.0000000   1.0078250   1.0078250   1.0078250
 NucSpn=           0           2           0           0           0           0           0           1           1           1
 AtZEff=   0.0000000   0.0000000   0.0000000   0.0000000   0.0000000   0.0000000   0.0000000   0.0000000   0.0000000   0.0000000
 NQMom=    0.0000000   2.0440000   0.0000000   0.0000000   0.0000000   0.0000000   0.0000000   0.0000000   0.0000000   0.0000000
 NMagM=    0.0000000   0.4037610   0.0000000   0.0000000   0.0000000   0.0000000   0.0000000   2.7928460   2.7928460   2.7928460
 AtZNuc=   8.0000000   7.0000000   6.0000000   6.0000000   6.0000000   6.0000000   6.0000000   1.0000000   1.0000000   1.0000000

  Atom        11          12          13          14          15
 IAtWgt=           1           1          16           1           1
 AtmWgt=   1.0078250   1.0078250  15.9949146   1.0078250   1.0078250
 NucSpn=           1           1           0           1           1
 AtZEff=   0.0000000   0.0000000   0.0000000   0.0000000   0.0000000
 NQMom=    0.0000000   0.0000000   0.0000000   0.0000000   0.0000000
 NMagM=    2.7928460   2.7928460   0.0000000   2.7928460   2.7928460
 AtZNuc=   1.0000000   1.0000000   8.0000000   1.0000000   1.0000000
 Leave Link  101 at Fri Aug 27 00:14:05 2021, MaxMem= 17179869184 cpu:         7.7
 (Enter /public3/home/sc51754/softwares/g09e01/l103.exe)

 GradGradGradGradGradGradGradGradGradGradGradGradGradGradGradGradGradGrad
 Berny optimization.
 Initialization pass.
                           ----------------------------
                           !    Initial Parameters    !
                           ! (Angstroms and Degrees)  !
 --------------------------                            --------------------------
 ! Name  Definition              Value          Derivative Info.                !
 --------------------------------------------------------------------------------
 ! R1    R(1,3)                  1.3393         estimate D2E/DX2                !
 ! R2    R(1,8)                  0.9817         estimate D2E/DX2                !
 ! R3    R(2,3)                  1.3321         estimate D2E/DX2                !
 ! R4    R(2,5)                  1.3398         estimate D2E/DX2                !
 ! R5    R(2,15)                 1.9334         estimate D2E/DX2                !
 ! R6    R(3,4)                  1.4017         estimate D2E/DX2                !
 ! R7    R(4,6)                  1.3785         estimate D2E/DX2                !
 ! R8    R(4,9)                  1.0796         estimate D2E/DX2                !
 ! R9    R(5,7)                  1.3808         estimate D2E/DX2                !
 ! R10   R(5,10)                 1.0831         estimate D2E/DX2                !
 ! R11   R(6,7)                  1.3964         estimate D2E/DX2                !
 ! R12   R(6,11)                 1.0818         estimate D2E/DX2                !
 ! R13   R(7,12)                 1.0797         estimate D2E/DX2                !
 ! R14   R(8,13)                 1.831          estimate D2E/DX2                !
 ! R15   R(8,15)                 1.911          estimate D2E/DX2                !
 ! R16   R(13,14)                0.9606         estimate D2E/DX2                !
 ! R17   R(13,15)                0.9803         estimate D2E/DX2                !
 ! A1    A(3,1,8)              109.7141         estimate D2E/DX2                !
 ! A2    A(3,2,5)              118.3342         estimate D2E/DX2                !
 ! A3    A(3,2,15)             107.2978         estimate D2E/DX2                !
 ! A4    A(5,2,15)             134.3668         estimate D2E/DX2                !
 ! A5    A(1,3,2)              119.0414         estimate D2E/DX2                !
 ! A6    A(1,3,4)              118.3271         estimate D2E/DX2                !
 ! A7    A(2,3,4)              122.6315         estimate D2E/DX2                !
 ! A8    A(3,4,6)              118.1694         estimate D2E/DX2                !
 ! A9    A(3,4,9)              119.4119         estimate D2E/DX2                !
 ! A10   A(6,4,9)              122.4186         estimate D2E/DX2                !
 ! A11   A(2,5,7)              123.3496         estimate D2E/DX2                !
 ! A12   A(2,5,10)             115.832          estimate D2E/DX2                !
 ! A13   A(7,5,10)             120.8184         estimate D2E/DX2                !
 ! A14   A(4,6,7)              119.6513         estimate D2E/DX2                !
 ! A15   A(4,6,11)             119.9667         estimate D2E/DX2                !
 ! A16   A(7,6,11)             120.382          estimate D2E/DX2                !
 ! A17   A(5,7,6)              117.8639         estimate D2E/DX2                !
 ! A18   A(5,7,12)             120.5506         estimate D2E/DX2                !
 ! A19   A(6,7,12)             121.5855         estimate D2E/DX2                !
 ! A20   A(1,8,13)             159.5294         estimate D2E/DX2                !
 ! A21   A(1,8,15)             129.3503         estimate D2E/DX2                !
 ! A22   A(8,13,14)            121.2243         estimate D2E/DX2                !
 ! A23   A(14,13,15)           106.8012         estimate D2E/DX2                !
 ! A24   A(2,15,8)              74.5948         estimate D2E/DX2                !
 ! A25   A(2,15,13)            144.7717         estimate D2E/DX2                !
 ! D1    D(8,1,3,2)              0.4232         estimate D2E/DX2                !
 ! D2    D(8,1,3,4)           -179.5823         estimate D2E/DX2                !
 ! D3    D(3,1,8,13)             4.1107         estimate D2E/DX2                !
 ! D4    D(3,1,8,15)            -0.4785         estimate D2E/DX2                !
 ! D5    D(5,2,3,1)           -179.8646         estimate D2E/DX2                !
 ! D6    D(5,2,3,4)              0.1411         estimate D2E/DX2                !
 ! D7    D(15,2,3,1)            -0.2046         estimate D2E/DX2                !
 ! D8    D(15,2,3,4)           179.8011         estimate D2E/DX2                !
 ! D9    D(3,2,5,7)             -0.1121         estimate D2E/DX2                !
 ! D10   D(3,2,5,10)           179.8324         estimate D2E/DX2                !
 ! D11   D(15,2,5,7)          -179.6581         estimate D2E/DX2                !
 ! D12   D(15,2,5,10)            0.2865         estimate D2E/DX2                !
 ! D13   D(3,2,15,8)            -0.0003         estimate D2E/DX2                !
 ! D14   D(3,2,15,13)           -5.7168         estimate D2E/DX2                !
 ! D15   D(5,2,15,8)           179.5811         estimate D2E/DX2                !
 ! D16   D(5,2,15,13)          173.8646         estimate D2E/DX2                !
 ! D17   D(1,3,4,6)            179.9187         estimate D2E/DX2                !
 ! D18   D(1,3,4,9)              0.0211         estimate D2E/DX2                !
 ! D19   D(2,3,4,6)             -0.0869         estimate D2E/DX2                !
 ! D20   D(2,3,4,9)           -179.9845         estimate D2E/DX2                !
 ! D21   D(3,4,6,7)             -0.0001         estimate D2E/DX2                !
 ! D22   D(3,4,6,11)          -179.9445         estimate D2E/DX2                !
 ! D23   D(9,4,6,7)            179.8942         estimate D2E/DX2                !
 ! D24   D(9,4,6,11)            -0.0502         estimate D2E/DX2                !
 ! D25   D(2,5,7,6)              0.0291         estimate D2E/DX2                !
 ! D26   D(2,5,7,12)           179.968          estimate D2E/DX2                !
 ! D27   D(10,5,7,6)          -179.9128         estimate D2E/DX2                !
 ! D28   D(10,5,7,12)            0.0261         estimate D2E/DX2                !
 ! D29   D(4,6,7,5)              0.0272         estimate D2E/DX2                !
 ! D30   D(4,6,7,12)          -179.911          estimate D2E/DX2                !
 ! D31   D(11,6,7,5)           179.9714         estimate D2E/DX2                !
 ! D32   D(11,6,7,12)            0.0332         estimate D2E/DX2                !
 ! D33   D(1,8,13,14)         -110.3582         estimate D2E/DX2                !
 ! D34   D(1,8,15,2)             0.3164         estimate D2E/DX2                !
 ! D35   D(8,13,14,15)          87.5843         estimate D2E/DX2                !
 ! D36   D(14,13,15,2)         125.4771         estimate D2E/DX2                !
 --------------------------------------------------------------------------------
 Trust Radius=3.00D-01 FncErr=1.00D-07 GrdErr=1.00D-06
 Number of steps in this run=     88 maximum allowed number of steps=    100.
 GradGradGradGradGradGradGradGradGradGradGradGradGradGradGradGradGradGrad

 Leave Link  103 at Fri Aug 27 00:14:05 2021, MaxMem= 17179869184 cpu:         0.1
 (Enter /public3/home/sc51754/softwares/g09e01/l202.exe)
                          Input orientation:                          
 ---------------------------------------------------------------------
 Center     Atomic      Atomic             Coordinates (Angstroms)
 Number     Number       Type             X           Y           Z
 ---------------------------------------------------------------------
      1          8           0        1.216003    1.448553   -0.002617
      2          7           0        0.305942   -0.666194   -0.005465
      3          6           0        0.137014    0.655155   -0.000094
      4          6           0       -1.129757    1.255183    0.008257
      5          6           0       -0.783175   -1.446498   -0.005634
      6          6           0       -2.238124    0.435485    0.009108
      7          6           0       -2.071986   -0.950998    0.001732
      8          1           0        2.030216    0.900227   -0.015295
      9          1           0       -1.206308    2.332099    0.012077
     10          1           0       -0.599059   -2.513820   -0.012944
     11          1           0       -3.229823    0.867678    0.014558
     12          1           0       -2.917952   -1.621952    0.000735
     13          8           0        3.095711   -0.587217   -0.085025
     14          1           0        3.593966   -0.879251    0.682533
     15          1           0        2.209819   -1.002278   -0.022484
 ---------------------------------------------------------------------
                    Distance matrix (angstroms):
                    1          2          3          4          5
     1  O    0.000000
     2  N    2.302254   0.000000
     3  C    1.339292   1.332114   0.000000
     4  C    2.353742   2.398564   1.401718   0.000000
     5  C    3.518244   1.339795   2.294281   2.723856   0.000000
     6  C    3.599644   2.772396   2.385292   1.378544   2.378856
     7  C    4.070471   2.394934   2.731192   2.398973   1.380800
     8  H    0.981715   2.329569   1.909059   3.179934   3.663657
     9  H    2.578461   3.358120   2.148675   1.079640   3.802256
    10  H    4.358320   2.057378   3.253363   3.806241   1.083111
    11  H    4.483646   3.854192   3.373570   2.135527   3.367774
    12  H    5.149524   3.362589   3.810254   3.387566   2.141984
    13  O    2.772085   2.792020   3.210076   4.610609   3.973717
    14  H    3.397471   3.365982   3.843293   5.227238   4.467069
    15  H    2.644738   1.933388   2.654073   4.031109   3.025827
                    6          7          8          9         10
     6  C    0.000000
     7  C    1.396421   0.000000
     8  H    4.293636   4.500598   0.000000
     9  H    2.159120   3.395325   3.539222   0.000000
    10  H    3.374229   2.147590   4.309154   4.883883   0.000000
    11  H    1.081798   2.155999   5.260224   2.497829   4.284414
    12  H    2.166860   1.079740   5.553918   4.308639   2.484528
    13  O    5.431812   5.181212   1.831019   5.199923   4.167532
    14  H    6.016253   5.707158   2.469579   5.814199   4.553786
    15  H    4.674651   4.282181   1.910977   4.773802   3.189772
                   11         12         13         14         15
    11  H    0.000000
    12  H    2.509126   0.000000
    13  O    6.491457   6.102637   0.000000
    14  H    7.075454   6.589501   0.960566   0.000000
    15  H    5.752201   5.165130   0.980302   1.558219   0.000000
 Stoichiometry    C5H7NO2
 Framework group  C1[X(C5H7NO2)]
 Deg. of freedom    39
 Full point group                 C1      NOp   1
 Largest Abelian subgroup         C1      NOp   1
 Largest concise Abelian subgroup C1      NOp   1
                         Standard orientation:                         
 ---------------------------------------------------------------------
 Center     Atomic      Atomic             Coordinates (Angstroms)
 Number     Number       Type             X           Y           Z
 ---------------------------------------------------------------------
      1          8           0        1.216003    1.448553   -0.002617
      2          7           0        0.305942   -0.666194   -0.005465
      3          6           0        0.137014    0.655155   -0.000094
      4          6           0       -1.129757    1.255183    0.008257
      5          6           0       -0.783175   -1.446498   -0.005634
      6          6           0       -2.238124    0.435485    0.009108
      7          6           0       -2.071986   -0.950998    0.001732
      8          1           0        2.030216    0.900227   -0.015295
      9          1           0       -1.206308    2.332099    0.012077
     10          1           0       -0.599059   -2.513820   -0.012944
     11          1           0       -3.229823    0.867678    0.014558
     12          1           0       -2.917952   -1.621952    0.000735
     13          8           0        3.095711   -0.587217   -0.085025
     14          1           0        3.593966   -0.879251    0.682533
     15          1           0        2.209819   -1.002278   -0.022484
 ---------------------------------------------------------------------
 Rotational constants (GHZ):      4.0123302      1.4179596      1.0501753
 Leave Link  202 at Fri Aug 27 00:14:05 2021, MaxMem= 17179869184 cpu:         6.0
 (Enter /public3/home/sc51754/softwares/g09e01/l301.exe)
 General basis read from cards:  (5D, 7F)
 Centers:       8      9     10     11     12     14     15
 S 4 1.00
     Exponent=  7.5423000000D+01 Coefficients=  2.4065000000D-03
     Exponent=  1.1350000000D+01 Coefficients=  1.8487000000D-02
     Exponent=  2.5993000000D+00 Coefficients=  8.9742000000D-02
     Exponent=  7.3513000000D-01 Coefficients=  2.8111000000D-01
 S 1 1.00
     Exponent=  2.3167000000D-01 Coefficients=  1.0000000000D+00
 S 1 1.00
     Exponent=  7.4147000000D-02 Coefficients=  1.0000000000D+00
 P 1 1.00
     Exponent=  1.6000000000D+00 Coefficients=  1.0000000000D+00
 P 1 1.00
     Exponent=  4.5000000000D-01 Coefficients=  1.0000000000D+00
 D 1 1.00
     Exponent=  1.2500000000D+00 Coefficients=  1.0000000000D+00
 ****
 Centers:       3      4      5      6      7
 S 7 1.00
     Exponent=  7.8571000000D+03 Coefficients=  5.6825000000D-04
     Exponent=  1.1787000000D+03 Coefficients=  4.3915000000D-03
     Exponent=  2.6832000000D+02 Coefficients=  2.2504000000D-02
     Exponent=  7.5948000000D+01 Coefficients=  8.6653000000D-02
     Exponent=  2.4559000000D+01 Coefficients=  2.4405000000D-01
     Exponent=  8.6212000000D+00 Coefficients=  4.4148000000D-01
     Exponent=  3.1278000000D+00 Coefficients=  3.5332000000D-01
 S 7 1.00
     Exponent=  1.1787000000D+03 Coefficients= -5.9492000000D-07
     Exponent=  2.6832000000D+02 Coefficients= -6.2748000000D-05
     Exponent=  7.5948000000D+01 Coefficients= -7.5773000000D-04
     Exponent=  2.4559000000D+01 Coefficients= -7.3308000000D-03
     Exponent=  8.6212000000D+00 Coefficients= -3.8932000000D-02
     Exponent=  3.1278000000D+00 Coefficients= -8.8908000000D-02
     Exponent=  8.2202000000D-01 Coefficients=  2.1689000000D-01
 S 1 1.00
     Exponent=  3.3017000000D-01 Coefficients=  1.0000000000D+00
 S 1 1.00
     Exponent=  1.1463000000D-01 Coefficients=  1.0000000000D+00
 P 4 1.00
     Exponent=  3.3775000000D+01 Coefficients=  6.0294000000D-03
     Exponent=  7.6766000000D+00 Coefficients=  4.3228000000D-02
     Exponent=  2.2357000000D+00 Coefficients=  1.6301000000D-01
     Exponent=  7.6447000000D-01 Coefficients=  3.6504000000D-01
 P 1 1.00
     Exponent=  2.6232000000D-01 Coefficients=  1.0000000000D+00
 P 1 1.00
     Exponent=  8.4638000000D-02 Coefficients=  1.0000000000D+00
 D 1 1.00
     Exponent=  1.4000000000D+00 Coefficients=  1.0000000000D+00
 D 1 1.00
     Exponent=  4.5000000000D-01 Coefficients=  1.0000000000D+00
 F 1 1.00
     Exponent=  9.5000000000D-01 Coefficients=  1.0000000000D+00
 ****
 Centers:       2
 S 7 1.00
     Exponent=  1.1101000000D+04 Coefficients=  5.4570000000D-04
     Exponent=  1.6653000000D+03 Coefficients=  4.2181000000D-03
     Exponent=  3.7908000000D+02 Coefficients=  2.1645000000D-02
     Exponent=  1.0730000000D+02 Coefficients=  8.3776000000D-02
     Exponent=  3.4747000000D+01 Coefficients=  2.3881000000D-01
     Exponent=  1.2249000000D+01 Coefficients=  4.3994000000D-01
     Exponent=  4.4743000000D+00 Coefficients=  3.6364000000D-01
 S 7 1.00
     Exponent=  1.6653000000D+03 Coefficients= -1.5006000000D-06
     Exponent=  3.7908000000D+02 Coefficients= -5.8753000000D-05
     Exponent=  1.0730000000D+02 Coefficients= -7.7453000000D-04
     Exponent=  3.4747000000D+01 Coefficients= -7.2161000000D-03
     Exponent=  1.2249000000D+01 Coefficients= -3.9338000000D-02
     Exponent=  4.4743000000D+00 Coefficients= -9.0611000000D-02
     Exponent=  1.2404000000D+00 Coefficients=  1.9882000000D-01
 S 1 1.00
     Exponent=  4.8743000000D-01 Coefficients=  1.0000000000D+00
 S 1 1.00
     Exponent=  1.6484000000D-01 Coefficients=  1.0000000000D+00
 P 4 1.00
     Exponent=  4.7934000000D+01 Coefficients=  6.1706000000D-03
     Exponent=  1.0999000000D+01 Coefficients=  4.4260000000D-02
     Exponent=  3.2472000000D+00 Coefficients=  1.6825000000D-01
     Exponent=  1.1114000000D+00 Coefficients=  3.6848000000D-01
 P 1 1.00
     Exponent=  3.7988000000D-01 Coefficients=  1.0000000000D+00
 P 1 1.00
     Exponent=  1.2068000000D-01 Coefficients=  1.0000000000D+00
 D 1 1.00
     Exponent=  1.8000000000D+00 Coefficients=  1.0000000000D+00
 D 1 1.00
     Exponent=  5.5000000000D-01 Coefficients=  1.0000000000D+00
 F 1 1.00
     Exponent=  1.0200000000D+00 Coefficients=  1.0000000000D+00
 ****
 Centers:       1     13
 S 7 1.00
     Exponent=  1.4782000000D+04 Coefficients=  5.3519000000D-04
     Exponent=  2.2173000000D+03 Coefficients=  4.1375000000D-03
     Exponent=  5.0474000000D+02 Coefficients=  2.1245000000D-02
     Exponent=  1.4287000000D+02 Coefficients=  8.2453000000D-02
     Exponent=  4.6300000000D+01 Coefficients=  2.3671000000D-01
     Exponent=  1.6337000000D+01 Coefficients=  4.4039000000D-01
     Exponent=  5.9828000000D+00 Coefficients=  3.6465000000D-01
 S 7 1.00
     Exponent=  2.2173000000D+03 Coefficients= -1.9275000000D-06
     Exponent=  5.0474000000D+02 Coefficients= -5.7964000000D-05
     Exponent=  1.4287000000D+02 Coefficients= -7.9494000000D-04
     Exponent=  4.6300000000D+01 Coefficients= -7.3125000000D-03
     Exponent=  1.6337000000D+01 Coefficients= -4.0574000000D-02
     Exponent=  5.9828000000D+00 Coefficients= -9.1594000000D-02
     Exponent=  1.6718000000D+00 Coefficients=  2.0940000000D-01
 S 1 1.00
     Exponent=  6.4662000000D-01 Coefficients=  1.0000000000D+00
 S 1 1.00
     Exponent=  2.1669000000D-01 Coefficients=  1.0000000000D+00
 P 4 1.00
     Exponent=  6.0424000000D+01 Coefficients=  6.8949000000D-03
     Exponent=  1.3935000000D+01 Coefficients=  4.9005000000D-02
     Exponent=  4.1531000000D+00 Coefficients=  1.8255000000D-01
     Exponent=  1.4158000000D+00 Coefficients=  3.7633000000D-01
 P 1 1.00
     Exponent=  4.7549000000D-01 Coefficients=  1.0000000000D+00
 P 1 1.00
     Exponent=  1.4529000000D-01 Coefficients=  1.0000000000D+00
 D 1 1.00
     Exponent=  2.2000000000D+00 Coefficients=  1.0000000000D+00
 D 1 1.00
     Exponent=  6.5000000000D-01 Coefficients=  1.0000000000D+00
 F 1 1.00
     Exponent=  1.1000000000D+00 Coefficients=  1.0000000000D+00
 ****
 Ernie: Thresh=  0.10000D-02 Tol=  0.10000D-05 Strict=F.
 Ernie:  8 primitive shells out of 263 were deleted.
 There are   385 symmetry adapted cartesian basis functions of A   symmetry.
 There are   338 symmetry adapted basis functions of A   symmetry.
   338 basis functions,   566 primitive gaussians,   385 cartesian basis functions
    30 alpha electrons       30 beta electrons
       nuclear repulsion energy       357.6226221683 Hartrees.
 IExCor=  402 DFT=T Ex=B Corr=LYP ExCW=0 ScaHFX=  0.000000
 ScaDFX=  1.000000  1.000000  1.000000  1.000000 ScalE2=  1.000000  1.000000
 IRadAn=      0 IRanWt=     -1 IRanGd=            0 ICorTp=0 IEmpDi=  4
 NAtoms=   15 NActive=   15 NUniq=   15 SFac= 1.00D+00 NAtFMM=   60 NAOKFM=F Big=F
 Integral buffers will be    131072 words long.
 Raffenetti 2 integral format.
 Two-electron integral symmetry is turned on.
 Leave Link  301 at Fri Aug 27 00:14:05 2021, MaxMem= 17179869184 cpu:         1.4
 (Enter /public3/home/sc51754/softwares/g09e01/l302.exe)
 NPDir=0 NMtPBC=     1 NCelOv=     1 NCel=       1 NClECP=     1 NCelD=      1
         NCelK=      1 NCelE2=     1 NClLst=     1 CellRange=     0.0.
 One-electron integrals computed using PRISM.
 NBasis=   338 RedAO= T EigKep=  1.46D-04  NBF=   338
 NBsUse=   338 1.00D-06 EigRej= -1.00D+00 NBFU=   338
 Precomputing XC quadrature grid using
 IXCGrd= 4 IRadAn=           0 IRanWt=          -1 IRanGd=           0 AccXCQ= 0.00D+00.
 Generated NRdTot=       0 NPtTot=           0 NUsed=           0 NTot=          32
 NSgBfM=   384   384   384   384   385 MxSgAt=    15 MxSgA2=    15.
 Leave Link  302 at Fri Aug 27 00:14:06 2021, MaxMem= 17179869184 cpu:        52.0
 (Enter /public3/home/sc51754/softwares/g09e01/l303.exe)
 DipDrv:  MaxL=1.
 Leave Link  303 at Fri Aug 27 00:14:06 2021, MaxMem= 17179869184 cpu:        10.4
 (Enter /public3/home/sc51754/softwares/g09e01/l401.exe)
 ExpMin= 7.41D-02 ExpMax= 1.48D+04 ExpMxC= 5.05D+02 IAcc=2 IRadAn=         4 AccDes= 0.00D+00
 Harris functional with IExCor=  402 and IRadAn=       4 diagonalized for initial guess.
 HarFok:  IExCor=  402 AccDes= 0.00D+00 IRadAn=         4 IDoV= 1 UseB2=F ITyADJ=14
 ICtDFT=  3500011 ScaDFX=  1.000000  1.000000  1.000000  1.000000
 FoFCou: FMM=F IPFlag=           0 FMFlag=      100000 FMFlg1=           0
         NFxFlg=           0 DoJE=T BraDBF=F KetDBF=T FulRan=T
         wScrn=  0.000000 ICntrl=     500 IOpCl=  0 I1Cent=   200000004 NGrid=           0
         NMat0=    1 NMatS0=      1 NMatT0=    0 NMatD0=    1 NMtDS0=    0 NMtDT0=    0
 Petite list used in FoFCou.
 Harris En= -400.184772173998    
 JPrj=0 DoOrth=F DoCkMO=F.
 Leave Link  401 at Fri Aug 27 00:14:07 2021, MaxMem= 17179869184 cpu:        55.2
 (Enter /public3/home/sc51754/softwares/g09e01/l502.exe)
 Closed shell SCF:
 Using DIIS extrapolation, IDIIS=  1040.
 Integral symmetry usage will be decided dynamically.
 Keep J ints in memory in canonical form, NReq=1670404686.
 IVT=      490665 IEndB=      490665 NGot= 17179869184 MDV= 15538220534
 LenX= 15538220534 LenY= 15538071868
 Requested convergence on RMS density matrix=1.00D-08 within 128 cycles.
 Requested convergence on MAX density matrix=1.00D-06.
 Requested convergence on             energy=1.00D-06.
 No special actions if energy rises.
 FoFCou: FMM=F IPFlag=           0 FMFlag=           0 FMFlg1=           0
         NFxFlg=           0 DoJE=F BraDBF=F KetDBF=F FulRan=T
         wScrn=  0.000000 ICntrl=     600 IOpCl=  0 I1Cent=           0 NGrid=           0
         NMat0=    1 NMatS0=  57291 NMatT0=    0 NMatD0=    1 NMtDS0=    0 NMtDT0=    0
 Symmetry not used in FoFCou.
 Integral accuracy reduced to 1.0D-05 until final iterations.

 Cycle   1  Pass 0  IDiag  1:
 E= -399.786945371961    
 DIIS: error= 2.54D-02 at cycle   1 NSaved=   1.
 NSaved= 1 IEnMin= 1 EnMin= -399.786945371961     IErMin= 1 ErrMin= 2.54D-02
 ErrMax= 2.54D-02  0.00D+00 EMaxC= 1.00D-01 BMatC= 2.81D-01 BMatP= 2.81D-01
 IDIUse=3 WtCom= 7.46D-01 WtEn= 2.54D-01
 Coeff-Com:  0.100D+01
 Coeff-En:   0.100D+01
 Coeff:      0.100D+01
 Gap=     0.142 Goal=   None    Shift=    0.000
 GapD=    0.142 DampG=1.000 DampE=0.500 DampFc=0.5000 IDamp=-1.
 Damping current iteration by 5.00D-01
 RMSDP=3.31D-03 MaxDP=1.27D-01              OVMax= 2.40D-01

 Cycle   2  Pass 0  IDiag  1:
 E= -399.819956214242     Delta-E=       -0.033010842280 Rises=F Damp=T
 DIIS: error= 1.03D-02 at cycle   2 NSaved=   2.
 NSaved= 2 IEnMin= 2 EnMin= -399.819956214242     IErMin= 2 ErrMin= 1.03D-02
 ErrMax= 1.03D-02  0.00D+00 EMaxC= 1.00D-01 BMatC= 5.36D-02 BMatP= 2.81D-01
 IDIUse=3 WtCom= 8.97D-01 WtEn= 1.03D-01
 Coeff-Com:  0.282D+00 0.718D+00
 Coeff-En:   0.440D+00 0.560D+00
 Coeff:      0.299D+00 0.701D+00
 Gap=     0.237 Goal=   None    Shift=    0.000
 RMSDP=9.50D-04 MaxDP=3.75D-02 DE=-3.30D-02 OVMax= 1.85D-01

 Cycle   3  Pass 0  IDiag  1:
 E= -400.007211594422     Delta-E=       -0.187255380180 Rises=F Damp=F
 DIIS: error= 7.24D-03 at cycle   3 NSaved=   3.
 NSaved= 3 IEnMin= 3 EnMin= -400.007211594422     IErMin= 3 ErrMin= 7.24D-03
 ErrMax= 7.24D-03  0.00D+00 EMaxC= 1.00D-01 BMatC= 1.83D-02 BMatP= 5.36D-02
 IDIUse=3 WtCom= 9.28D-01 WtEn= 7.24D-02
 Coeff-Com:  0.136D+00 0.418D+00 0.446D+00
 Coeff-En:   0.000D+00 0.000D+00 0.100D+01
 Coeff:      0.126D+00 0.387D+00 0.486D+00
 Gap=     0.149 Goal=   None    Shift=    0.000
 RMSDP=4.58D-04 MaxDP=2.24D-02 DE=-1.87D-01 OVMax= 6.23D-02

 Cycle   4  Pass 0  IDiag  1:
 E= -400.018722763177     Delta-E=       -0.011511168755 Rises=F Damp=F
 DIIS: error= 5.32D-03 at cycle   4 NSaved=   4.
 NSaved= 4 IEnMin= 4 EnMin= -400.018722763177     IErMin= 4 ErrMin= 5.32D-03
 ErrMax= 5.32D-03  0.00D+00 EMaxC= 1.00D-01 BMatC= 5.61D-03 BMatP= 1.83D-02
 IDIUse=3 WtCom= 9.47D-01 WtEn= 5.32D-02
 Coeff-Com:  0.435D-01 0.164D+00 0.349D+00 0.443D+00
 Coeff-En:   0.000D+00 0.000D+00 0.281D+00 0.719D+00
 Coeff:      0.412D-01 0.156D+00 0.345D+00 0.458D+00
 Gap=     0.148 Goal=   None    Shift=    0.000
 RMSDP=2.00D-04 MaxDP=1.23D-02 DE=-1.15D-02 OVMax= 3.67D-02

 Cycle   5  Pass 0  IDiag  1:
 E= -400.023262142792     Delta-E=       -0.004539379614 Rises=F Damp=F
 DIIS: error= 1.75D-03 at cycle   5 NSaved=   5.
 NSaved= 5 IEnMin= 5 EnMin= -400.023262142792     IErMin= 5 ErrMin= 1.75D-03
 ErrMax= 1.75D-03  0.00D+00 EMaxC= 1.00D-01 BMatC= 8.34D-04 BMatP= 5.61D-03
 IDIUse=3 WtCom= 9.82D-01 WtEn= 1.75D-02
 Coeff-Com:  0.132D-01 0.647D-01 0.192D+00 0.331D+00 0.399D+00
 Coeff-En:   0.000D+00 0.000D+00 0.000D+00 0.144D+00 0.856D+00
 Coeff:      0.130D-01 0.636D-01 0.189D+00 0.328D+00 0.407D+00
 Gap=     0.148 Goal=   None    Shift=    0.000
 RMSDP=7.25D-05 MaxDP=3.96D-03 DE=-4.54D-03 OVMax= 1.31D-02

 Cycle   6  Pass 0  IDiag  1:
 E= -400.024050568526     Delta-E=       -0.000788425734 Rises=F Damp=F
 DIIS: error= 3.52D-04 at cycle   6 NSaved=   6.
 NSaved= 6 IEnMin= 6 EnMin= -400.024050568526     IErMin= 6 ErrMin= 3.52D-04
 ErrMax= 3.52D-04  0.00D+00 EMaxC= 1.00D-01 BMatC= 4.88D-05 BMatP= 8.34D-04
 IDIUse=3 WtCom= 9.96D-01 WtEn= 3.52D-03
 Coeff-Com:  0.177D-03 0.101D-01 0.525D-01 0.114D+00 0.241D+00 0.582D+00
 Coeff-En:   0.000D+00 0.000D+00 0.000D+00 0.000D+00 0.294D-01 0.971D+00
 Coeff:      0.176D-03 0.101D-01 0.524D-01 0.114D+00 0.240D+00 0.584D+00
 Gap=     0.148 Goal=   None    Shift=    0.000
 RMSDP=1.82D-05 MaxDP=7.35D-04 DE=-7.88D-04 OVMax= 3.28D-03

 Cycle   7  Pass 0  IDiag  1:
 E= -400.024087029721     Delta-E=       -0.000036461196 Rises=F Damp=F
 DIIS: error= 1.74D-04 at cycle   7 NSaved=   7.
 NSaved= 7 IEnMin= 7 EnMin= -400.024087029721     IErMin= 7 ErrMin= 1.74D-04
 ErrMax= 1.74D-04  0.00D+00 EMaxC= 1.00D-01 BMatC= 7.64D-06 BMatP= 4.88D-05
 IDIUse=3 WtCom= 9.98D-01 WtEn= 1.74D-03
 Coeff-Com: -0.240D-03 0.430D-02 0.268D-01 0.601D-01 0.141D+00 0.396D+00
 Coeff-Com:  0.372D+00
 Coeff-En:   0.000D+00 0.000D+00 0.000D+00 0.000D+00 0.000D+00 0.938D-01
 Coeff-En:   0.906D+00
 Coeff:     -0.239D-03 0.429D-02 0.267D-01 0.600D-01 0.141D+00 0.395D+00
 Coeff:      0.373D+00
 Gap=     0.148 Goal=   None    Shift=    0.000
 RMSDP=6.99D-06 MaxDP=3.44D-04 DE=-3.65D-05 OVMax= 1.41D-03

 Initial convergence to 1.0D-05 achieved.  Increase integral accuracy.
 Cycle   8  Pass 1  IDiag  1:
 E= -400.024125633321     Delta-E=       -0.000038603599 Rises=F Damp=F
 DIIS: error= 4.71D-05 at cycle   1 NSaved=   1.
 NSaved= 1 IEnMin= 1 EnMin= -400.024125633321     IErMin= 1 ErrMin= 4.71D-05
 ErrMax= 4.71D-05  0.00D+00 EMaxC= 1.00D-01 BMatC= 7.83D-07 BMatP= 7.83D-07
 IDIUse=1 WtCom= 1.00D+00 WtEn= 0.00D+00
 Coeff-Com:  0.100D+01
 Coeff:      0.100D+01
 Gap=     0.148 Goal=   None    Shift=    0.000
 RMSDP=6.99D-06 MaxDP=3.44D-04 DE=-3.86D-05 OVMax= 1.38D-03

 Cycle   9  Pass 1  IDiag  1:
 E= -400.024122686522     Delta-E=        0.000002946799 Rises=F Damp=F
 DIIS: error= 1.38D-04 at cycle   2 NSaved=   2.
 NSaved= 2 IEnMin= 1 EnMin= -400.024125633321     IErMin= 1 ErrMin= 4.71D-05
 ErrMax= 1.38D-04  0.00D+00 EMaxC= 1.00D-01 BMatC= 3.76D-06 BMatP= 7.83D-07
 IDIUse=3 WtCom= 4.60D-01 WtEn= 5.40D-01
 Coeff-Com:  0.703D+00 0.297D+00
 Coeff-En:   0.788D+00 0.212D+00
 Coeff:      0.749D+00 0.251D+00
 Gap=     0.148 Goal=   None    Shift=    0.000
 RMSDP=4.17D-06 MaxDP=1.64D-04 DE= 2.95D-06 OVMax= 1.01D-03

 Cycle  10  Pass 1  IDiag  1:
 E= -400.024126430978     Delta-E=       -0.000003744456 Rises=F Damp=F
 DIIS: error= 6.49D-06 at cycle   3 NSaved=   3.
 NSaved= 3 IEnMin= 3 EnMin= -400.024126430978     IErMin= 3 ErrMin= 6.49D-06
 ErrMax= 6.49D-06  0.00D+00 EMaxC= 1.00D-01 BMatC= 2.68D-08 BMatP= 7.83D-07
 IDIUse=1 WtCom= 1.00D+00 WtEn= 0.00D+00
 Coeff-Com:  0.128D+00 0.873D-02 0.863D+00
 Coeff:      0.128D+00 0.873D-02 0.863D+00
 Gap=     0.148 Goal=   None    Shift=    0.000
 RMSDP=5.90D-07 MaxDP=2.96D-05 DE=-3.74D-06 OVMax= 5.86D-05

 Cycle  11  Pass 1  IDiag  1:
 E= -400.024126420958     Delta-E=        0.000000010020 Rises=F Damp=F
 DIIS: error= 8.04D-06 at cycle   4 NSaved=   4.
 NSaved= 4 IEnMin= 3 EnMin= -400.024126430978     IErMin= 3 ErrMin= 6.49D-06
 ErrMax= 8.04D-06  0.00D+00 EMaxC= 1.00D-01 BMatC= 3.65D-08 BMatP= 2.68D-08
 IDIUse=1 WtCom= 1.00D+00 WtEn= 0.00D+00
 Coeff-Com:  0.182D-01-0.268D-01 0.604D+00 0.405D+00
 Coeff:      0.182D-01-0.268D-01 0.604D+00 0.405D+00
 Gap=     0.148 Goal=   None    Shift=    0.000
 RMSDP=4.32D-07 MaxDP=2.30D-05 DE= 1.00D-08 OVMax= 6.61D-05

 Cycle  12  Pass 1  IDiag  1:
 E= -400.024126448944     Delta-E=       -0.000000027986 Rises=F Damp=F
 DIIS: error= 3.47D-06 at cycle   5 NSaved=   5.
 NSaved= 5 IEnMin= 5 EnMin= -400.024126448944     IErMin= 5 ErrMin= 3.47D-06
 ErrMax= 3.47D-06  0.00D+00 EMaxC= 1.00D-01 BMatC= 1.97D-09 BMatP= 2.68D-08
 IDIUse=1 WtCom= 1.00D+00 WtEn= 0.00D+00
 Coeff-Com: -0.507D-03-0.188D-01 0.284D+00 0.249D+00 0.486D+00
 Coeff:     -0.507D-03-0.188D-01 0.284D+00 0.249D+00 0.486D+00
 Gap=     0.148 Goal=   None    Shift=    0.000
 RMSDP=1.45D-07 MaxDP=5.61D-06 DE=-2.80D-08 OVMax= 2.89D-05

 Cycle  13  Pass 1  IDiag  1:
 E= -400.024126450535     Delta-E=       -0.000000001591 Rises=F Damp=F
 DIIS: error= 1.84D-06 at cycle   6 NSaved=   6.
 NSaved= 6 IEnMin= 6 EnMin= -400.024126450535     IErMin= 6 ErrMin= 1.84D-06
 ErrMax= 1.84D-06  0.00D+00 EMaxC= 1.00D-01 BMatC= 5.25D-10 BMatP= 1.97D-09
 IDIUse=1 WtCom= 1.00D+00 WtEn= 0.00D+00
 Coeff-Com: -0.212D-02-0.122D-01 0.164D+00 0.154D+00 0.367D+00 0.329D+00
 Coeff:     -0.212D-02-0.122D-01 0.164D+00 0.154D+00 0.367D+00 0.329D+00
 Gap=     0.148 Goal=   None    Shift=    0.000
 RMSDP=5.11D-08 MaxDP=1.92D-06 DE=-1.59D-09 OVMax= 8.90D-06

 Cycle  14  Pass 1  IDiag  1:
 E= -400.024126451081     Delta-E=       -0.000000000546 Rises=F Damp=F
 DIIS: error= 8.80D-08 at cycle   7 NSaved=   7.
 NSaved= 7 IEnMin= 7 EnMin= -400.024126451081     IErMin= 7 ErrMin= 8.80D-08
 ErrMax= 8.80D-08  0.00D+00 EMaxC= 1.00D-01 BMatC= 3.53D-12 BMatP= 5.25D-10
 IDIUse=1 WtCom= 1.00D+00 WtEn= 0.00D+00
 Coeff-Com: -0.589D-03-0.273D-02 0.337D-01 0.336D-01 0.956D-01 0.121D+00
 Coeff-Com:  0.720D+00
 Coeff:     -0.589D-03-0.273D-02 0.337D-01 0.336D-01 0.956D-01 0.121D+00
 Coeff:      0.720D+00
 Gap=     0.148 Goal=   None    Shift=    0.000
 RMSDP=6.36D-09 MaxDP=1.81D-07 DE=-5.46D-10 OVMax= 5.48D-07

 SCF Done:  E(RB-LYP) =  -400.024126451     A.U. after   14 cycles
            NFock= 14  Conv=0.64D-08     -V/T= 2.0023
 KE= 3.990891292012D+02 PE=-1.651724281574D+03 EE= 4.949884037530D+02
 Leave Link  502 at Fri Aug 27 00:14:30 2021, MaxMem= 17179869184 cpu:       307.5
 (Enter /public3/home/sc51754/softwares/g09e01/l601.exe)
 Copying SCF densities to generalized density rwf, IOpCl= 0 IROHF=0.

 **********************************************************************

            Population analysis using the SCF density.

 **********************************************************************

 Orbital symmetries:
       Occupied  (A) (A) (A) (A) (A) (A) (A) (A) (A) (A) (A) (A)
                 (A) (A) (A) (A) (A) (A) (A) (A) (A) (A) (A) (A)
                 (A) (A) (A) (A) (A) (A)
       Virtual   (A) (A) (A) (A) (A) (A) (A) (A) (A) (A) (A) (A)
                 (A) (A) (A) (A) (A) (A) (A) (A) (A) (A) (A) (A)
                 (A) (A) (A) (A) (A) (A) (A) (A) (A) (A) (A) (A)
                 (A) (A) (A) (A) (A) (A) (A) (A) (A) (A) (A) (A)
                 (A) (A) (A) (A) (A) (A) (A) (A) (A) (A) (A) (A)
                 (A) (A) (A) (A) (A) (A) (A) (A) (A) (A) (A) (A)
                 (A) (A) (A) (A) (A) (A) (A) (A) (A) (A) (A) (A)
                 (A) (A) (A) (A) (A) (A) (A) (A) (A) (A) (A) (A)
                 (A) (A) (A) (A) (A) (A) (A) (A) (A) (A) (A) (A)
                 (A) (A) (A) (A) (A) (A) (A) (A) (A) (A) (A) (A)
                 (A) (A) (A) (A) (A) (A) (A) (A) (A) (A) (A) (A)
                 (A) (A) (A) (A) (A) (A) (A) (A) (A) (A) (A) (A)
                 (A) (A) (A) (A) (A) (A) (A) (A) (A) (A) (A) (A)
                 (A) (A) (A) (A) (A) (A) (A) (A) (A) (A) (A) (A)
                 (A) (A) (A) (A) (A) (A) (A) (A) (A) (A) (A) (A)
                 (A) (A) (A) (A) (A) (A) (A) (A) (A) (A) (A) (A)
                 (A) (A) (A) (A) (A) (A) (A) (A) (A) (A) (A) (A)
                 (A) (A) (A) (A) (A) (A) (A) (A) (A) (A) (A) (A)
                 (A) (A) (A) (A) (A) (A) (A) (A) (A) (A) (A) (A)
                 (A) (A) (A) (A) (A) (A) (A) (A) (A) (A) (A) (A)
                 (A) (A) (A) (A) (A) (A) (A) (A) (A) (A) (A) (A)
                 (A) (A) (A) (A) (A) (A) (A) (A) (A) (A) (A) (A)
                 (A) (A) (A) (A) (A) (A) (A) (A) (A) (A) (A) (A)
                 (A) (A) (A) (A) (A) (A) (A) (A) (A) (A) (A) (A)
                 (A) (A) (A) (A) (A) (A) (A) (A) (A) (A) (A) (A)
                 (A) (A) (A) (A) (A) (A) (A) (A)
 The electronic state is 1-A.
 Alpha  occ. eigenvalues --  -18.79511 -18.77410 -14.01143 -10.00519  -9.95192
 Alpha  occ. eigenvalues --   -9.93233  -9.91981  -9.91713  -0.97828  -0.91796
 Alpha  occ. eigenvalues --   -0.85837  -0.73330  -0.68601  -0.58670  -0.56989
 Alpha  occ. eigenvalues --   -0.50156  -0.48486  -0.46039  -0.43421  -0.40089
 Alpha  occ. eigenvalues --   -0.39094  -0.36695  -0.35270  -0.33923  -0.31984
 Alpha  occ. eigenvalues --   -0.31169  -0.26829  -0.26435  -0.23969  -0.21196
 Alpha virt. eigenvalues --   -0.06407  -0.03691  -0.00749   0.00598   0.02573
 Alpha virt. eigenvalues --    0.04342   0.05660   0.07743   0.08995   0.09855
 Alpha virt. eigenvalues --    0.12038   0.13305   0.14591   0.16343   0.16639
 Alpha virt. eigenvalues --    0.16985   0.17969   0.18659   0.20708   0.21922
 Alpha virt. eigenvalues --    0.23359   0.23465   0.24926   0.25639   0.25962
 Alpha virt. eigenvalues --    0.27089   0.27577   0.28287   0.29484   0.29887
 Alpha virt. eigenvalues --    0.31722   0.32766   0.33471   0.33712   0.35691
 Alpha virt. eigenvalues --    0.38419   0.39253   0.40796   0.41328   0.43824
 Alpha virt. eigenvalues --    0.46419   0.48366   0.49398   0.50541   0.51244
 Alpha virt. eigenvalues --    0.55298   0.56513   0.58211   0.59299   0.60764
 Alpha virt. eigenvalues --    0.60996   0.63763   0.65455   0.69084   0.70281
 Alpha virt. eigenvalues --    0.73180   0.74562   0.76826   0.77464   0.80669
 Alpha virt. eigenvalues --    0.84459   0.86170   0.87318   0.88166   0.89693
 Alpha virt. eigenvalues --    0.90947   0.93012   0.93476   0.94532   0.97384
 Alpha virt. eigenvalues --    0.98468   1.03715   1.04260   1.05216   1.07574
 Alpha virt. eigenvalues --    1.09200   1.09425   1.10258   1.11900   1.12321
 Alpha virt. eigenvalues --    1.14655   1.16670   1.17978   1.19921   1.21023
 Alpha virt. eigenvalues --    1.22066   1.22881   1.26034   1.26466   1.28648
 Alpha virt. eigenvalues --    1.35852   1.35994   1.38698   1.38968   1.43843
 Alpha virt. eigenvalues --    1.44268   1.45827   1.46882   1.49028   1.50619
 Alpha virt. eigenvalues --    1.52348   1.53501   1.55668   1.56559   1.59530
 Alpha virt. eigenvalues --    1.60978   1.62028   1.64524   1.64671   1.68042
 Alpha virt. eigenvalues --    1.70759   1.74571   1.76217   1.79315   1.80478
 Alpha virt. eigenvalues --    1.80881   1.82076   1.83460   1.84593   1.89230
 Alpha virt. eigenvalues --    1.91136   1.91831   1.94518   1.97446   2.01431
 Alpha virt. eigenvalues --    2.04460   2.06836   2.07898   2.09542   2.10850
 Alpha virt. eigenvalues --    2.12109   2.16190   2.17261   2.18907   2.21088
 Alpha virt. eigenvalues --    2.24502   2.30850   2.33033   2.42265   2.55072
 Alpha virt. eigenvalues --    2.61984   2.71281   2.79620   2.87633   2.87955
 Alpha virt. eigenvalues --    2.90032   2.94323   3.07923   3.10137   3.13183
 Alpha virt. eigenvalues --    3.16157   3.18019   3.19191   3.23393   3.27233
 Alpha virt. eigenvalues --    3.29265   3.29939   3.30651   3.33776   3.34259
 Alpha virt. eigenvalues --    3.37412   3.39680   3.41610   3.44563   3.49364
 Alpha virt. eigenvalues --    3.50444   3.52250   3.53460   3.54511   3.55688
 Alpha virt. eigenvalues --    3.60238   3.60844   3.62137   3.65081   3.66468
 Alpha virt. eigenvalues --    3.70248   3.71575   3.72586   3.75187   3.79229
 Alpha virt. eigenvalues --    3.82152   3.83822   3.85270   3.86453   3.89068
 Alpha virt. eigenvalues --    3.91495   3.93287   3.96511   3.97620   3.98132
 Alpha virt. eigenvalues --    3.99724   4.01030   4.01792   4.04716   4.08542
 Alpha virt. eigenvalues --    4.09186   4.09671   4.10392   4.12012   4.14149
 Alpha virt. eigenvalues --    4.14618   4.17112   4.19716   4.21016   4.22311
 Alpha virt. eigenvalues --    4.22936   4.23761   4.24674   4.26335   4.30137
 Alpha virt. eigenvalues --    4.31081   4.32124   4.32808   4.35300   4.35691
 Alpha virt. eigenvalues --    4.36965   4.37379   4.38920   4.39552   4.42477
 Alpha virt. eigenvalues --    4.43389   4.44179   4.45485   4.47992   4.50239
 Alpha virt. eigenvalues --    4.51737   4.53379   4.56458   4.57521   4.58158
 Alpha virt. eigenvalues --    4.60319   4.64903   4.67944   4.68802   4.73585
 Alpha virt. eigenvalues --    4.75744   4.79410   4.80650   4.80816   4.82068
 Alpha virt. eigenvalues --    4.83158   4.88188   4.88620   4.92036   4.93766
 Alpha virt. eigenvalues --    4.96937   5.01488   5.01734   5.05390   5.10646
 Alpha virt. eigenvalues --    5.10896   5.14676   5.14880   5.20382   5.23868
 Alpha virt. eigenvalues --    5.25584   5.26038   5.29774   5.32086   5.33094
 Alpha virt. eigenvalues --    5.34348   5.37252   5.37833   5.45701   5.46882
 Alpha virt. eigenvalues --    5.53348   5.54458   5.57778   5.59492   5.68121
 Alpha virt. eigenvalues --    5.69783   5.73786   5.75220   5.83571   5.88010
 Alpha virt. eigenvalues --    5.92721   5.94932   5.96675   5.97302   6.01236
 Alpha virt. eigenvalues --    6.09328   6.12722   6.13777   6.15053   6.18946
 Alpha virt. eigenvalues --    6.19760   6.21377   6.26839   6.31766   6.38432
 Alpha virt. eigenvalues --    6.41772   6.49832   6.53534   6.60465   6.77960
 Alpha virt. eigenvalues --    6.82575   6.85867   7.04699   7.22177   7.31660
 Alpha virt. eigenvalues --    9.19695  12.03560  12.58971  15.35759  15.38545
 Alpha virt. eigenvalues --   17.23078  18.48379  22.11135
          Condensed to atoms (all electrons):
               1          2          3          4          5          6
     1  O    7.864764  -0.093943   0.332983  -0.076854   0.005495   0.009907
     2  N   -0.093943   6.730140   0.433499  -0.029530   0.490262  -0.031700
     3  C    0.332983   0.433499   4.515905   0.489101  -0.069781  -0.052667
     4  C   -0.076854  -0.029530   0.489101   4.927326  -0.040903   0.496792
     5  C    0.005495   0.490262  -0.069781  -0.040903   4.677599  -0.067786
     6  C    0.009907  -0.031700  -0.052667   0.496792  -0.067786   4.800891
     7  C   -0.000710  -0.045270  -0.053212  -0.050040   0.489954   0.465592
     8  H    0.341553   0.004446  -0.026505   0.007552  -0.000679  -0.001088
     9  H    0.005764   0.007519  -0.044978   0.434292  -0.002337  -0.041900
    10  H   -0.000531  -0.046439   0.008146  -0.004014   0.450385   0.010519
    11  H   -0.000384  -0.001922   0.010263  -0.045408   0.010288   0.436376
    12  H    0.000069   0.007757  -0.000683   0.008499  -0.034639  -0.046494
    13  O   -0.028890  -0.043803  -0.005469   0.001221  -0.002262   0.000147
    14  H    0.001405   0.004245   0.000294   0.000172   0.000292  -0.000028
    15  H    0.000037   0.039276  -0.005977   0.001271   0.001997  -0.000505
               7          8          9         10         11         12
     1  O   -0.000710   0.341553   0.005764  -0.000531  -0.000384   0.000069
     2  N   -0.045270   0.004446   0.007519  -0.046439  -0.001922   0.007757
     3  C   -0.053212  -0.026505  -0.044978   0.008146   0.010263  -0.000683
     4  C   -0.050040   0.007552   0.434292  -0.004014  -0.045408   0.008499
     5  C    0.489954  -0.000679  -0.002337   0.450385   0.010288  -0.034639
     6  C    0.465592  -0.001088  -0.041900   0.010519   0.436376  -0.046494
     7  C    4.987695   0.000452   0.010351  -0.077730  -0.050764   0.427674
     8  H    0.000452   0.418054  -0.000250  -0.000129   0.000015  -0.000010
     9  H    0.010351  -0.000250   0.584979   0.000256  -0.010022  -0.000010
    10  H   -0.077730  -0.000129   0.000256   0.616374  -0.000274  -0.005049
    11  H   -0.050764   0.000015  -0.010022  -0.000274   0.604813  -0.009293
    12  H    0.427674  -0.000010  -0.000010  -0.005049  -0.009293   0.603204
    13  O   -0.000461   0.066326   0.000018   0.000422  -0.000007   0.000015
    14  H    0.000102  -0.004542  -0.000005  -0.000027   0.000001  -0.000002
    15  H    0.001956  -0.010756  -0.000080  -0.001445   0.000033  -0.000062
              13         14         15
     1  O   -0.028890   0.001405   0.000037
     2  N   -0.043803   0.004245   0.039276
     3  C   -0.005469   0.000294  -0.005977
     4  C    0.001221   0.000172   0.001271
     5  C   -0.002262   0.000292   0.001997
     6  C    0.000147  -0.000028  -0.000505
     7  C   -0.000461   0.000102   0.001956
     8  H    0.066326  -0.004542  -0.010756
     9  H    0.000018  -0.000005  -0.000080
    10  H    0.000422  -0.000027  -0.001445
    11  H   -0.000007   0.000001   0.000033
    12  H    0.000015  -0.000002  -0.000062
    13  O    7.736737   0.347947   0.339274
    14  H    0.347947   0.474358  -0.024175
    15  H    0.339274  -0.024175   0.437577
 Mulliken charges:
               1
     1  O   -0.360663
     2  N   -0.424537
     3  C    0.469082
     4  C   -0.119476
     5  C    0.092114
     6  C    0.021943
     7  C   -0.105589
     8  H    0.205560
     9  H    0.056403
    10  H    0.049535
    11  H    0.056283
    12  H    0.049023
    13  O   -0.411217
    14  H    0.199963
    15  H    0.221577
 Sum of Mulliken charges =  -0.00000
 Mulliken charges with hydrogens summed into heavy atoms:
               1
     1  O   -0.155103
     2  N   -0.424537
     3  C    0.469082
     4  C   -0.063073
     5  C    0.141649
     6  C    0.078226
     7  C   -0.056567
    13  O    0.010323
 Electronic spatial extent (au):  <R**2>=           1071.3502
 Charge=             -0.0000 electrons
 Dipole moment (field-independent basis, Debye):
    X=             -1.7385    Y=             -1.2404    Z=              1.3208  Tot=              2.5110
 Quadrupole moment (field-independent basis, Debye-Ang):
   XX=            -43.1758   YY=            -45.7961   ZZ=            -49.6271
   XY=             -2.6760   XZ=              5.2642   YZ=             -1.3299
 Traceless Quadrupole moment (field-independent basis, Debye-Ang):
   XX=              3.0239   YY=              0.4036   ZZ=             -3.4275
   XY=             -2.6760   XZ=              5.2642   YZ=             -1.3299
 Octapole moment (field-independent basis, Debye-Ang**2):
  XXX=             12.4928  YYY=             -7.0778  ZZZ=              1.0397  XYY=             -0.1929
  XXY=             -4.0999  XXZ=             19.9456  XZZ=             12.3096  YZZ=              0.4192
  YYZ=              1.2685  XYZ=             -5.0968
 Hexadecapole moment (field-independent basis, Debye-Ang**3):
 XXXX=           -860.1945 YYYY=           -366.0433 ZZZZ=            -55.7637 XXXY=            -20.5311
 XXXZ=             75.3562 YYYX=            -12.9833 YYYZ=             -1.5592 ZZZX=              4.9212
 ZZZY=             -1.3890 XXYY=           -206.5586 XXZZ=           -170.1106 YYZZ=            -78.2046
 XXYZ=            -18.4144 YYXZ=              5.2158 ZZXY=             -3.6683
 N-N= 3.576226221683D+02 E-N=-1.651724298626D+03  KE= 3.990891292012D+02
 No NMR shielding tensors so no spin-rotation constants.
 Leave Link  601 at Fri Aug 27 00:14:31 2021, MaxMem= 17179869184 cpu:        46.0
 (Enter /public3/home/sc51754/softwares/g09e01/l701.exe)
 Compute integral first derivatives.
 ... and contract with generalized density number  0.
 Leave Link  701 at Fri Aug 27 00:14:32 2021, MaxMem= 17179869184 cpu:        57.0
 (Enter /public3/home/sc51754/softwares/g09e01/l702.exe)
 L702 exits ... SP integral derivatives will be done elsewhere.
 Leave Link  702 at Fri Aug 27 00:14:32 2021, MaxMem= 17179869184 cpu:         0.3
 (Enter /public3/home/sc51754/softwares/g09e01/l703.exe)
 Compute integral first derivatives, UseDBF=F ICtDFT=           0.
 Integral derivatives from FoFJK, PRISM(SPDF).
 Calling FoFJK, ICntrl=      2527 FMM=F ISym2X=0 I1Cent= 0 IOpClX= 0 NMat=1 NMatS=1 NMatT=0.
 FoFJK:  IHMeth= 1 ICntrl=    2527 DoSepK=F KAlg= 0 I1Cent=   0 FoldK=F
 IRaf=         0 NMat=   1 IRICut=       1 DoRegI=T DoRafI=F ISym2E= 0.
 FoFCou: FMM=F IPFlag=           0 FMFlag=      100000 FMFlg1=         800
         NFxFlg=           0 DoJE=F BraDBF=F KetDBF=F FulRan=T
         wScrn=  0.000000 ICntrl=    2527 IOpCl=  0 I1Cent=           0 NGrid=           0
         NMat0=    1 NMatS0=      1 NMatT0=    0 NMatD0=    1 NMtDS0=    0 NMtDT0=    0
 Symmetry not used in FoFCou.
 Leave Link  703 at Fri Aug 27 00:14:35 2021, MaxMem= 17179869184 cpu:       188.3
 (Enter /public3/home/sc51754/softwares/g09e01/l716.exe)
 Dipole        =-6.83972427D-01-4.88003616D-01 5.19632510D-01
 ***** Axes restored to original set *****
 -------------------------------------------------------------------
 Center     Atomic                   Forces (Hartrees/Bohr)
 Number     Number              X              Y              Z
 -------------------------------------------------------------------
      1        8           0.001536792    0.013754307    0.000018664
      2        7           0.009484426   -0.007310699    0.000010019
      3        6          -0.001680094    0.003505009    0.000066101
      4        6          -0.000679127    0.004698298    0.000010185
      5        6          -0.000665859   -0.006670857   -0.000029513
      6        6          -0.005183959    0.001362697    0.000047407
      7        6          -0.004545636   -0.002093246   -0.000004346
      8        1           0.008453882   -0.005658618   -0.000002333
      9        1          -0.000428888    0.004567489    0.000013745
     10        1           0.000771299   -0.004730527   -0.000029523
     11        1          -0.004136835    0.001797272    0.000019051
     12        1          -0.003645533   -0.002838327   -0.000003954
     13        8           0.004502284    0.006718210   -0.008201416
     14        1           0.004800296   -0.002823637    0.007504095
     15        1          -0.008583049   -0.004277372    0.000581818
 -------------------------------------------------------------------
 Cartesian Forces:  Max     0.013754307 RMS     0.004649514
 Leave Link  716 at Fri Aug 27 00:14:35 2021, MaxMem= 17179869184 cpu:         0.3
 (Enter /public3/home/sc51754/softwares/g09e01/l103.exe)

 GradGradGradGradGradGradGradGradGradGradGradGradGradGradGradGradGradGrad
 Berny optimization.
 FormGI is forming the generalized inverse of G from B-inverse, IUseBI=4.
 Internal  Forces:  Max     0.012794180 RMS     0.003985540
 Search for a local minimum.
 Step number   1 out of a maximum of   88
 All quantities printed in internal units (Hartrees-Bohrs-Radians)
 RMS Force = .39855D-02 SwitMx=.10000D-02 MixMth= 1
 Mixed Optimization -- RFO/linear search
 Second derivative matrix not updated -- first step.
 ITU=  0
     Eigenvalues ---    0.00525   0.00832   0.01684   0.02094   0.02184
     Eigenvalues ---    0.02225   0.02239   0.02286   0.02319   0.02409
     Eigenvalues ---    0.02460   0.05224   0.06028   0.06507   0.08515
     Eigenvalues ---    0.13089   0.16000   0.16000   0.16000   0.16000
     Eigenvalues ---    0.19207   0.20418   0.22000   0.22270   0.23481
     Eigenvalues ---    0.35621   0.35778   0.36026   0.36038   0.41939
     Eigenvalues ---    0.43696   0.46841   0.47322   0.48462   0.48884
     Eigenvalues ---    0.52273   0.55339   0.55352   0.56565
 RFO step:  Lambda=-2.50387336D-03 EMin= 5.24515301D-03
 Linear search not attempted -- first point.
 Iteration  1 RMS(Cart)=  0.01463513 RMS(Int)=  0.00001365
 Iteration  2 RMS(Cart)=  0.00000957 RMS(Int)=  0.00000517
 Iteration  3 RMS(Cart)=  0.00000000 RMS(Int)=  0.00000517
 ITry= 1 IFail=0 DXMaxC= 4.43D-02 DCOld= 1.00D+10 DXMaxT= 3.00D-01 DXLimC= 3.00D+00 Rises=F
 Variable       Old X    -DE/DX   Delta X   Delta X   Delta X     New X
                                 (Linear)    (Quad)   (Total)
    R1        2.53090   0.01106   0.00000   0.02161   0.02161   2.55251
    R2        1.85517   0.01068   0.00000   0.02066   0.02066   1.87583
    R3        2.51733   0.01279   0.00000   0.02422   0.02423   2.54156
    R4        2.53185   0.01157   0.00000   0.02056   0.02056   2.55240
    R5        3.65357   0.00115   0.00000   0.01222   0.01222   3.66579
    R6        2.64886   0.00972   0.00000   0.02160   0.02161   2.67047
    R7        2.60507   0.01025   0.00000   0.02015   0.02015   2.62522
    R8        2.04022   0.00459   0.00000   0.01264   0.01264   2.05286
    R9        2.60933   0.01029   0.00000   0.02070   0.02070   2.63003
   R10        2.04678   0.00479   0.00000   0.01336   0.01336   2.06014
   R11        2.63885   0.00941   0.00000   0.01944   0.01944   2.65829
   R12        2.04430   0.00451   0.00000   0.01252   0.01252   2.05682
   R13        2.04041   0.00462   0.00000   0.01274   0.01274   2.05315
   R14        3.46012  -0.00045   0.00000   0.00601   0.00600   3.46612
   R15        3.61122   0.00266   0.00000   0.01478   0.01479   3.62602
   R16        1.81521   0.00934   0.00000   0.01681   0.01681   1.83201
   R17        1.85250   0.00952   0.00000   0.01914   0.01914   1.87164
    A1        1.91487  -0.00200   0.00000  -0.00369  -0.00368   1.91119
    A2        2.06532  -0.00000   0.00000   0.00278   0.00279   2.06811
    A3        1.87270  -0.00043   0.00000  -0.00239  -0.00239   1.87031
    A4        2.34514   0.00043   0.00000  -0.00040  -0.00041   2.34474
    A5        2.07766  -0.00138   0.00000   0.00084   0.00084   2.07851
    A6        2.06520   0.00208   0.00000   0.00310   0.00310   2.06829
    A7        2.14032  -0.00070   0.00000  -0.00394  -0.00394   2.13638
    A8        2.06244   0.00032   0.00000   0.00159   0.00159   2.06404
    A9        2.08413  -0.00005   0.00000  -0.00014  -0.00014   2.08399
   A10        2.13661  -0.00027   0.00000  -0.00145  -0.00145   2.13515
   A11        2.15286  -0.00079   0.00000  -0.00216  -0.00216   2.15070
   A12        2.02165   0.00044   0.00000   0.00135   0.00135   2.02300
   A13        2.10868   0.00035   0.00000   0.00081   0.00081   2.10948
   A14        2.08831   0.00058   0.00000   0.00052   0.00052   2.08882
   A15        2.09381  -0.00028   0.00000  -0.00022  -0.00022   2.09360
   A16        2.10106  -0.00030   0.00000  -0.00030  -0.00030   2.10076
   A17        2.05711   0.00059   0.00000   0.00120   0.00120   2.05831
   A18        2.10400  -0.00025   0.00000  -0.00035  -0.00035   2.10366
   A19        2.12207  -0.00034   0.00000  -0.00086  -0.00085   2.12122
   A20        2.78431   0.00216   0.00000   0.00245   0.00245   2.78676
   A21        2.25759  -0.00040   0.00000  -0.00134  -0.00133   2.25626
   A22        2.11576  -0.00007   0.00000  -0.00052  -0.00051   2.11525
   A23        1.86403  -0.00001   0.00000  -0.00059  -0.00058   1.86345
   A24        1.30192   0.00420   0.00000   0.00658   0.00656   1.30848
   A25        2.52674   0.00174   0.00000   0.00099   0.00100   2.52775
    D1        0.00739   0.00006   0.00000  -0.00030  -0.00029   0.00709
    D2       -3.13430   0.00007   0.00000   0.00007   0.00007  -3.13423
    D3        0.07175   0.00024   0.00000   0.00254   0.00254   0.07428
    D4       -0.00835  -0.00015   0.00000   0.00098   0.00097  -0.00738
    D5       -3.13923   0.00001   0.00000   0.00026   0.00026  -3.13897
    D6        0.00246   0.00000   0.00000  -0.00012  -0.00012   0.00234
    D7       -0.00357   0.00002   0.00000  -0.00038  -0.00037  -0.00394
    D8        3.13812   0.00001   0.00000  -0.00076  -0.00075   3.13737
    D9       -0.00196   0.00000   0.00000   0.00001   0.00001  -0.00195
   D10        3.13867   0.00000   0.00000  -0.00020  -0.00020   3.13847
   D11       -3.13562  -0.00000   0.00000   0.00086   0.00086  -3.13476
   D12        0.00500  -0.00000   0.00000   0.00066   0.00066   0.00566
   D13       -0.00000  -0.00006   0.00000   0.00052   0.00052   0.00052
   D14       -0.09978   0.00004   0.00000   0.00163   0.00162  -0.09815
   D15        3.13428  -0.00005   0.00000  -0.00025  -0.00025   3.13404
   D16        3.03451   0.00005   0.00000   0.00086   0.00086   3.03537
   D17        3.14017  -0.00001   0.00000  -0.00015  -0.00015   3.14002
   D18        0.00037  -0.00001   0.00000  -0.00018  -0.00018   0.00018
   D19       -0.00152  -0.00000   0.00000   0.00023   0.00023  -0.00129
   D20       -3.14132   0.00000   0.00000   0.00020   0.00019  -3.14113
   D21       -0.00000  -0.00000   0.00000  -0.00022  -0.00022  -0.00022
   D22       -3.14062   0.00000   0.00000   0.00002   0.00002  -3.14060
   D23        3.13975  -0.00001   0.00000  -0.00018  -0.00018   3.13956
   D24       -0.00088  -0.00000   0.00000   0.00006   0.00006  -0.00082
   D25        0.00051  -0.00001   0.00000  -0.00001  -0.00001   0.00049
   D26        3.14103  -0.00000   0.00000  -0.00007  -0.00007   3.14096
   D27       -3.14007  -0.00000   0.00000   0.00020   0.00020  -3.13987
   D28        0.00046  -0.00000   0.00000   0.00014   0.00014   0.00060
   D29        0.00048   0.00001   0.00000   0.00012   0.00012   0.00060
   D30       -3.14004   0.00000   0.00000   0.00018   0.00018  -3.13986
   D31        3.14109   0.00000   0.00000  -0.00012  -0.00012   3.14097
   D32        0.00058  -0.00000   0.00000  -0.00006  -0.00006   0.00052
   D33       -1.92611  -0.00002   0.00000  -0.00210  -0.00210  -1.92822
   D34        0.00552   0.00014   0.00000  -0.00098  -0.00098   0.00454
   D35        1.52863  -0.00013   0.00000   0.00168   0.00166   1.53030
   D36        2.18999   0.00002   0.00000  -0.00082  -0.00082   2.18917
         Item               Value     Threshold  Converged?
 Maximum Force            0.012794     0.000450     NO 
 RMS     Force            0.003986     0.000300     NO 
 Maximum Displacement     0.044298     0.001800     NO 
 RMS     Displacement     0.014635     0.001200     NO 
 Predicted change in Energy=-1.258643D-03
 Lowest energy point so far.  Saving SCF results.
 GradGradGradGradGradGradGradGradGradGradGradGradGradGradGradGradGradGrad

 Leave Link  103 at Fri Aug 27 00:14:36 2021, MaxMem= 17179869184 cpu:        48.9
 (Enter /public3/home/sc51754/softwares/g09e01/l202.exe)
                          Input orientation:                          
 ---------------------------------------------------------------------
 Center     Atomic      Atomic             Coordinates (Angstroms)
 Number     Number       Type             X           Y           Z
 ---------------------------------------------------------------------
      1          8           0        1.230363    1.462560   -0.002967
      2          7           0        0.309542   -0.670940   -0.005609
      3          6           0        0.141394    0.663431   -0.000153
      4          6           0       -1.137001    1.265624    0.008119
      5          6           0       -0.787643   -1.458662   -0.005829
      6          6           0       -2.253492    0.438979    0.009060
      7          6           0       -2.086091   -0.957713    0.001585
      8          1           0        2.051061    0.904312   -0.015720
      9          1           0       -1.216191    2.349056    0.011832
     10          1           0       -0.602718   -2.533018   -0.013406
     11          1           0       -3.251406    0.873494    0.014420
     12          1           0       -2.937894   -1.632152    0.000486
     13          8           0        3.115182   -0.587962   -0.086595
     14          1           0        3.617408   -0.883809    0.688064
     15          1           0        2.219974   -1.007027   -0.023843
 ---------------------------------------------------------------------
                    Distance matrix (angstroms):
                    1          2          3          4          5
     1  O    0.000000
     2  N    2.323734   0.000000
     3  C    1.350729   1.344935   0.000000
     4  C    2.375567   2.417221   1.413152   0.000000
     5  C    3.550478   1.350675   2.316554   2.746631   0.000000
     6  C    3.631131   2.793077   2.405399   1.389208   2.397911
     7  C    4.105680   2.412747   2.754959   2.417446   1.391752
     8  H    0.992647   2.348278   1.924862   3.208559   3.693506
     9  H    2.602253   3.383570   2.164373   1.086328   3.831799
    10  H    4.396014   2.073551   3.281945   3.836093   1.090181
    11  H    4.520349   3.881498   3.399328   2.150469   3.392564
    12  H    5.191496   3.386711   3.840797   3.411801   2.157248
    13  O    2.786428   2.808035   3.227518   4.639592   3.999586
    14  H    3.417741   3.386513   3.866557   5.261823   4.496267
    15  H    2.660569   1.939855   2.666737   4.054040   3.041391
                    6          7          8          9         10
     6  C    0.000000
     7  C    1.406707   0.000000
     8  H    4.329703   4.536901   0.000000
     9  H    2.173567   3.419291   3.572532   0.000000
    10  H    3.399754   2.163841   4.342555   4.920532   0.000000
    11  H    1.088423   2.170585   5.302642   2.513839   4.315165
    12  H    2.181299   1.086480   5.596748   4.337558   2.502959
    13  O    5.466848   5.215145   1.834192   5.234172   4.196591
    14  H    6.056259   5.745139   2.479139   5.854262   4.584911
    15  H    4.701480   4.306422   1.918806   4.803311   3.208791
                   11         12         13         14         15
    11  H    0.000000
    12  H    2.525222   0.000000
    13  O    6.532955   6.143098   0.000000
    14  H    7.121974   6.633609   0.969459   0.000000
    15  H    5.785656   5.195669   0.990430   1.573155   0.000000
 Stoichiometry    C5H7NO2
 Framework group  C1[X(C5H7NO2)]
 Deg. of freedom    39
 Full point group                 C1      NOp   1
 RotChk:  IX=0 Diff= 2.30D-03
 Largest Abelian subgroup         C1      NOp   1
 Largest concise Abelian subgroup C1      NOp   1
                         Standard orientation:                         
 ---------------------------------------------------------------------
 Center     Atomic      Atomic             Coordinates (Angstroms)
 Number     Number       Type             X           Y           Z
 ---------------------------------------------------------------------
      1          8           0        1.231497    1.459210   -0.002680
      2          7           0        0.307209   -0.672791   -0.005322
      3          6           0        0.141230    0.661852    0.000134
      4          6           0       -1.136184    1.266123    0.008406
      5          6           0       -0.791256   -1.458728   -0.005542
      6          6           0       -2.254018    0.441294    0.009347
      7          6           0       -2.088888   -0.955668    0.001872
      8          1           0        2.051287    0.899628   -0.015433
      9          1           0       -1.213613    2.349682    0.012119
     10          1           0       -0.608077   -2.533383   -0.013118
     11          1           0       -3.251224    0.877431    0.014707
     12          1           0       -2.941786   -1.628722    0.000773
     13          8           0        3.112980   -0.594374   -0.086308
     14          1           0        3.614724   -0.891037    0.688351
     15          1           0        2.217092   -1.011983   -0.023556
 ---------------------------------------------------------------------
 Rotational constants (GHZ):      3.9478825      1.3984722      1.0351162
 Leave Link  202 at Fri Aug 27 00:14:36 2021, MaxMem= 17179869184 cpu:         6.0
 (Enter /public3/home/sc51754/softwares/g09e01/l301.exe)
 Basis read from rwf:  (5D, 7F)
 No pseudopotential information found on rwf file.
 There are   385 symmetry adapted cartesian basis functions of A   symmetry.
 There are   338 symmetry adapted basis functions of A   symmetry.
   338 basis functions,   566 primitive gaussians,   385 cartesian basis functions
    30 alpha electrons       30 beta electrons
       nuclear repulsion energy       354.8656383300 Hartrees.
 IExCor=  402 DFT=T Ex=B Corr=LYP ExCW=0 ScaHFX=  0.000000
 ScaDFX=  1.000000  1.000000  1.000000  1.000000 ScalE2=  1.000000  1.000000
 IRadAn=      0 IRanWt=     -1 IRanGd=            0 ICorTp=0 IEmpDi=  4
 NAtoms=   15 NActive=   15 NUniq=   15 SFac= 1.00D+00 NAtFMM=   60 NAOKFM=F Big=F
 Integral buffers will be    131072 words long.
 Raffenetti 2 integral format.
 Two-electron integral symmetry is turned on.
 No density basis found on file   724.
 Leave Link  301 at Fri Aug 27 00:14:37 2021, MaxMem= 17179869184 cpu:         2.3
 (Enter /public3/home/sc51754/softwares/g09e01/l302.exe)
 NPDir=0 NMtPBC=     1 NCelOv=     1 NCel=       1 NClECP=     1 NCelD=      1
         NCelK=      1 NCelE2=     1 NClLst=     1 CellRange=     0.0.
 One-electron integrals computed using PRISM.
 NBasis=   338 RedAO= T EigKep=  1.53D-04  NBF=   338
 NBsUse=   338 1.00D-06 EigRej= -1.00D+00 NBFU=   338
 Precomputing XC quadrature grid using
 IXCGrd= 4 IRadAn=           0 IRanWt=          -1 IRanGd=           0 AccXCQ= 0.00D+00.
 Generated NRdTot=       0 NPtTot=           0 NUsed=           0 NTot=          32
 NSgBfM=   384   384   384   384   385 MxSgAt=    15 MxSgA2=    15.
 Leave Link  302 at Fri Aug 27 00:14:38 2021, MaxMem= 17179869184 cpu:        53.6
 (Enter /public3/home/sc51754/softwares/g09e01/l303.exe)
 DipDrv:  MaxL=1.
 Leave Link  303 at Fri Aug 27 00:14:38 2021, MaxMem= 17179869184 cpu:        11.3
 (Enter /public3/home/sc51754/softwares/g09e01/l401.exe)
 Initial guess from the checkpoint file:  "HY_H2O_BLYP_PC2_OPT_FREQ.chk"
 B after Tr=     0.000000   -0.000000    0.000000
         Rot=    1.000000   -0.000022   -0.000052    0.000752 Ang=  -0.09 deg.
 Guess basis will be translated and rotated to current coordinates.
 JPrj=2 DoOrth=T DoCkMO=T.
 Generating alternative initial guess.
 ExpMin= 7.41D-02 ExpMax= 1.48D+04 ExpMxC= 5.05D+02 IAcc=2 IRadAn=         4 AccDes= 0.00D+00
 Harris functional with IExCor=  402 and IRadAn=       4 diagonalized for initial guess.
 HarFok:  IExCor=  402 AccDes= 0.00D+00 IRadAn=         4 IDoV= 1 UseB2=F ITyADJ=14
 ICtDFT=  3500011 ScaDFX=  1.000000  1.000000  1.000000  1.000000
 FoFCou: FMM=F IPFlag=           0 FMFlag=      100000 FMFlg1=           0
         NFxFlg=           0 DoJE=T BraDBF=F KetDBF=T FulRan=T
         wScrn=  0.000000 ICntrl=     500 IOpCl=  0 I1Cent=   200000004 NGrid=           0
         NMat0=    1 NMatS0=      1 NMatT0=    0 NMatD0=    1 NMtDS0=    0 NMtDT0=    0
 Petite list used in FoFCou.
 Harris En= -400.176333442163    
 Leave Link  401 at Fri Aug 27 00:14:39 2021, MaxMem= 17179869184 cpu:        82.2
 (Enter /public3/home/sc51754/softwares/g09e01/l502.exe)
 Closed shell SCF:
 Using DIIS extrapolation, IDIIS=  1040.
 Integral symmetry usage will be decided dynamically.
 Keep J ints in memory in canonical form, NReq=1670404686.
 IVT=      490665 IEndB=      490665 NGot= 17179869184 MDV= 15538220534
 LenX= 15538220534 LenY= 15538071868
 Requested convergence on RMS density matrix=1.00D-08 within 128 cycles.
 Requested convergence on MAX density matrix=1.00D-06.
 Requested convergence on             energy=1.00D-06.
 No special actions if energy rises.
 FoFCou: FMM=F IPFlag=           0 FMFlag=           0 FMFlg1=           0
         NFxFlg=           0 DoJE=F BraDBF=F KetDBF=F FulRan=T
         wScrn=  0.000000 ICntrl=     600 IOpCl=  0 I1Cent=           0 NGrid=           0
         NMat0=    1 NMatS0=  57291 NMatT0=    0 NMatD0=    1 NMtDS0=    0 NMtDT0=    0
 Symmetry not used in FoFCou.
 Integral accuracy reduced to 1.0D-05 until final iterations.

 Cycle   1  Pass 0  IDiag  1:
 E= -400.025058297655    
 DIIS: error= 8.30D-04 at cycle   1 NSaved=   1.
 NSaved= 1 IEnMin= 1 EnMin= -400.025058297655     IErMin= 1 ErrMin= 8.30D-04
 ErrMax= 8.30D-04  0.00D+00 EMaxC= 1.00D-01 BMatC= 3.77D-04 BMatP= 3.77D-04
 IDIUse=3 WtCom= 9.92D-01 WtEn= 8.30D-03
 Coeff-Com:  0.100D+01
 Coeff-En:   0.100D+01
 Coeff:      0.100D+01
 Gap=     0.550 Goal=   None    Shift=    0.000
 RMSDP=6.62D-05 MaxDP=2.32D-03              OVMax= 4.38D-03

 Cycle   2  Pass 0  IDiag  1:
 E= -400.025297831845     Delta-E=       -0.000239534190 Rises=F Damp=F
 DIIS: error= 4.70D-04 at cycle   2 NSaved=   2.
 NSaved= 2 IEnMin= 2 EnMin= -400.025297831845     IErMin= 2 ErrMin= 4.70D-04
 ErrMax= 4.70D-04  0.00D+00 EMaxC= 1.00D-01 BMatC= 8.10D-05 BMatP= 3.77D-04
 IDIUse=3 WtCom= 9.95D-01 WtEn= 4.70D-03
 Coeff-Com:  0.259D+00 0.741D+00
 Coeff-En:   0.000D+00 0.100D+01
 Coeff:      0.258D+00 0.742D+00
 Gap=     0.145 Goal=   None    Shift=    0.000
 RMSDP=3.92D-05 MaxDP=2.23D-03 DE=-2.40D-04 OVMax= 3.58D-03

 Cycle   3  Pass 0  IDiag  1:
 E= -400.025302077303     Delta-E=       -0.000004245458 Rises=F Damp=F
 DIIS: error= 4.29D-04 at cycle   3 NSaved=   3.
 NSaved= 3 IEnMin= 3 EnMin= -400.025302077303     IErMin= 3 ErrMin= 4.29D-04
 ErrMax= 4.29D-04  0.00D+00 EMaxC= 1.00D-01 BMatC= 7.42D-05 BMatP= 8.10D-05
 IDIUse=3 WtCom= 9.96D-01 WtEn= 4.29D-03
 Coeff-Com:  0.525D-01 0.485D+00 0.462D+00
 Coeff-En:   0.000D+00 0.487D+00 0.513D+00
 Coeff:      0.523D-01 0.485D+00 0.463D+00
 Gap=     0.146 Goal=   None    Shift=    0.000
 RMSDP=2.31D-05 MaxDP=1.43D-03 DE=-4.25D-06 OVMax= 3.27D-03

 Cycle   4  Pass 0  IDiag  1:
 E= -400.025360070522     Delta-E=       -0.000057993219 Rises=F Damp=F
 DIIS: error= 1.78D-04 at cycle   4 NSaved=   4.
 NSaved= 4 IEnMin= 4 EnMin= -400.025360070522     IErMin= 4 ErrMin= 1.78D-04
 ErrMax= 1.78D-04  0.00D+00 EMaxC= 1.00D-01 BMatC= 1.19D-05 BMatP= 7.42D-05
 IDIUse=3 WtCom= 9.98D-01 WtEn= 1.78D-03
 Coeff-Com:  0.186D-01 0.293D+00 0.339D+00 0.350D+00
 Coeff-En:   0.000D+00 0.000D+00 0.106D+00 0.894D+00
 Coeff:      0.186D-01 0.293D+00 0.338D+00 0.351D+00
 Gap=     0.145 Goal=   None    Shift=    0.000
 RMSDP=7.90D-06 MaxDP=5.10D-04 DE=-5.80D-05 OVMax= 1.44D-03

 Initial convergence to 1.0D-05 achieved.  Increase integral accuracy.
 Cycle   5  Pass 1  IDiag  1:
[...]
 ! A13   A(7,5,10)             120.9425         -DE/DX =    0.0                 !
 ! A14   A(4,6,7)              119.6576         -DE/DX =    0.0                 !
 ! A15   A(4,6,11)             119.9452         -DE/DX =    0.0                 !
 ! A16   A(7,6,11)             120.3971         -DE/DX =    0.0                 !
 ! A17   A(5,7,6)              117.9716         -DE/DX =    0.0                 !
 ! A18   A(5,7,12)             120.5014         -DE/DX =    0.0                 !
 ! A19   A(6,7,12)             121.5269         -DE/DX =    0.0                 !
 ! A20   A(1,8,13)             160.0574         -DE/DX =    0.0                 !
 ! A21   A(1,8,15)             129.3297         -DE/DX =    0.0                 !
 ! A22   A(8,13,14)            119.1047         -DE/DX =    0.0                 !
 ! A23   A(14,13,15)           106.2376         -DE/DX =    0.0                 !
 ! A24   A(2,15,8)              75.4709         -DE/DX =    0.0                 !
 ! A25   A(2,15,13)            145.0535         -DE/DX =    0.0                 !
 ! D1    D(8,1,3,2)              0.4439         -DE/DX =    0.0                 !
 ! D2    D(8,1,3,4)           -179.5309         -DE/DX =    0.0                 !
 ! D3    D(3,1,8,13)             4.8969         -DE/DX =    0.0                 !
 ! D4    D(3,1,8,15)            -0.0587         -DE/DX =    0.0                 !
 ! D5    D(5,2,3,1)           -179.8322         -DE/DX =    0.0                 !
 ! D6    D(5,2,3,4)              0.1415         -DE/DX =    0.0                 !
 ! D7    D(15,2,3,1)            -0.5723         -DE/DX =    0.0                 !
 ! D8    D(15,2,3,4)           179.4014         -DE/DX =    0.0                 !
 ! D9    D(3,2,5,7)             -0.1158         -DE/DX =    0.0                 !
 ! D10   D(3,2,5,10)           179.827          -DE/DX =    0.0                 !
 ! D11   D(15,2,5,7)          -179.1206         -DE/DX =    0.0                 !
 ! D12   D(15,2,5,10)            0.8223         -DE/DX =    0.0                 !
 ! D13   D(3,2,15,8)             0.3706         -DE/DX =    0.0                 !
 ! D14   D(3,2,15,13)           -4.6868         -DE/DX =    0.0                 !
 ! D15   D(5,2,15,8)           179.4524         -DE/DX =    0.0                 !
 ! D16   D(5,2,15,13)          174.395          -DE/DX =    0.0                 !
 ! D17   D(1,3,4,6)            179.8922         -DE/DX =    0.0                 !
 ! D18   D(1,3,4,9)              0.0007         -DE/DX =    0.0                 !
 ! D19   D(2,3,4,6)             -0.0816         -DE/DX =    0.0                 !
 ! D20   D(2,3,4,9)           -179.9732         -DE/DX =    0.0                 !
 ! D21   D(3,4,6,7)             -0.0082         -DE/DX =    0.0                 !
 ! D22   D(3,4,6,11)          -179.9374         -DE/DX =    0.0                 !
 ! D23   D(9,4,6,7)            179.8801         -DE/DX =    0.0                 !
 ! D24   D(9,4,6,11)            -0.0492         -DE/DX =    0.0                 !
 ! D25   D(2,5,7,6)              0.0302         -DE/DX =    0.0                 !
 ! D26   D(2,5,7,12)           179.967          -DE/DX =    0.0                 !
 ! D27   D(10,5,7,6)          -179.9097         -DE/DX =    0.0                 !
 ! D28   D(10,5,7,12)            0.0271         -DE/DX =    0.0                 !
 ! D29   D(4,6,7,5)              0.0324         -DE/DX =    0.0                 !
 ! D30   D(4,6,7,12)          -179.9037         -DE/DX =    0.0                 !
 ! D31   D(11,6,7,5)           179.9613         -DE/DX =    0.0                 !
 ! D32   D(11,6,7,12)            0.0251         -DE/DX =    0.0                 !
 ! D33   D(1,8,13,14)         -110.3063         -DE/DX =    0.0                 !
 ! D34   D(1,8,15,2)            -0.2091         -DE/DX =    0.0                 !
 ! D35   D(8,13,14,15)          86.7794         -DE/DX =    0.0                 !
 ! D36   D(14,13,15,2)         122.6764         -DE/DX =    0.0                 !
 --------------------------------------------------------------------------------
 GradGradGradGradGradGradGradGradGradGradGradGradGradGradGradGradGradGrad

 Leave Link  103 at Fri Aug 27 00:19:42 2021, MaxMem= 17179869184 cpu:        74.4
 (Enter /public3/home/sc51754/softwares/g09e01/l9999.exe)
 1\1\GINC-S1512\Freq\RBLYP\Gen\C5H7N1O2\SC51754\27-Aug-2021\0\\#P Geom=
 AllCheck Guess=TCheck SCRF=Check GenChk RBLYP/ChkBas Freq\\HY_H2O_BLYP
 _PC2_OPT_FREQ\\0,1\O,1.2345093374,1.4601230402,-0.0021957219\N,0.31484
 27533,-0.676326603,-0.0053236454\C,0.1439097286,0.6598196349,0.0007089
 649\C,-1.1319070136,1.2634843889,0.0094368807\C,-0.7861222741,-1.46019
 62121,-0.0057893511\C,-2.2492364349,0.4386029112,0.0100938244\C,-2.083
 3171661,-0.9572593478,0.0019850946\H,2.0540849366,0.8939960735,-0.0161
 281118\H,-1.2095340926,2.3469859744,0.0135802741\H,-0.6015881894,-2.53
 41902739,-0.0137239766\H,-3.246353428,0.8745954592,0.0156994137\H,-2.9
 358934707,-1.6307215434,0.0006980969\O,3.1082650146,-0.5848083183,-0.0
 945337646\H,3.5909326821,-0.8632113605,0.7002256938\H,2.2098946169,-1.
 0047218233,-0.0352916718\\Version=EM64L-G09RevE.01\State=1-A\HF=-400.0
 254464\RMSD=4.365e-09\RMSF=6.425e-06\ZeroPoint=0.1146869\Thermal=0.122
 6998\Dipole=-0.7208607,-0.4940307,0.5283938\DipoleDeriv=-1.4756948,-0.
 4604438,-0.0026185,-0.3829929,-0.6280896,0.0015994,-0.0059497,0.003779
 4,-0.3203265,-0.8360995,0.1044099,-0.0003344,-0.3546177,-0.5508352,-0.
 0004669,-0.0110058,0.0036465,-0.2239808,1.4103823,0.6848052,-0.0023079
 ,0.5648758,0.6040674,-0.0021694,-0.0048285,-0.0021676,0.1716778,-0.480
 2491,-0.3420153,-0.0010585,0.1069494,0.0320017,0.0001919,0.0051417,-0.
 0002832,-0.1340508,0.4626762,-0.2063429,-0.0020717,0.2169988,0.3211609
 ,0.0066219,-0.0014403,0.0050281,-0.0234945,0.2337045,0.0774746,-0.0008
 483,0.0445178,0.3654047,0.0020933,-0.0007013,0.0018824,-0.0931655,-0.1
 822279,0.2602423,0.0007096,0.0427212,-0.3038665,-0.0013549,0.0033228,-
 0.0011292,-0.147512,0.7534866,-0.1523878,0.0003749,-0.3454025,0.368156
 8,-0.0073494,0.0002019,-0.011441,0.2562838,0.0642813,0.007613,0.000002
 ,0.0131995,-0.0538443,-0.0007515,0.0007698,-0.0004602,0.1429748,0.0548
 36,0.0266806,-0.0001118,-0.0184272,-0.1102673,-0.0013588,-0.0010576,-0
 .0009681,0.1073954,-0.0626655,0.0621101,0.0008035,0.064187,0.0524631,-
 0.0005757,0.0001466,-0.0005517,0.1219177,-0.0353976,-0.0771716,-0.0002
 262,-0.0760347,-0.00032,-0.0004487,-0.0001065,-0.000722,0.1462065,-1.1
 585663,0.1585697,0.001516,0.1532228,-0.5597826,-0.1164362,0.0572644,-0
 .0970046,-0.3603642,0.3022868,-0.0129457,-0.0150535,0.0143152,0.262476
 3,0.072197,-0.0474337,0.0593318,0.165881,0.9492471,-0.1305982,0.021224
 8,-0.0435124,0.2012747,0.048208,0.0056761,0.0410595,0.1905574\Polar=10
 5.1141172,2.3834699,88.6061974,1.068043,-0.1289567,45.871044\PG=C01 [X
 (C5H7N1O2)]\NImag=0\\0.54700078,-0.04711822,0.37750385,-0.00594216,0.0
 0317966,0.03713590,0.01224907,-0.04771731,-0.00003367,0.44450984,-0.02
 310429,-0.05801926,-0.00026111,0.10409400,0.55619460,0.00003965,0.0000
 0027,0.00627846,-0.00051905,0.00198674,0.08452998,-0.22831623,-0.06188
 448,0.00149474,-0.14399144,0.02301612,0.00017500,0.68039835,-0.0965048
 8,-0.15705371,0.00042264,0.04145776,-0.26539409,-0.00106770,0.00588454
 ,0.61026450,0.00056727,-0.00046637,-0.04708694,0.00049464,-0.00083594,
 -0.06491788,-0.00264039,0.00190118,0.17124935,-0.06173726,0.00584375,0
 .00027261,0.02380704,0.06812420,0.00036475,-0.22642881,0.03774099,0.00
 090066,0.62233465,-0.02879622,0.01601733,0.00021779,0.03071564,-0.0289
 7505,-0.00032941,0.09510362,-0.15043657,-0.00083613,0.02884296,0.71875
 441,0.00039629,0.00017967,0.00842633,-0.00007181,-0.00041880,0.0164981
 9,0.00115041,-0.00075440,-0.07005397,-0.00207408,0.00229482,0.11397801
 ,-0.00769182,0.00811122,0.00002766,-0.24054352,-0.08277636,0.00040663,
 0.04036277,-0.07071259,-0.00051981,-0.05691322,-0.00116444,0.00020639,
 0.61713380,0.00078056,0.00035390,-0.00006189,-0.09697653,-0.17652243,-
 0.00029200,-0.02761524,-0.06720638,-0.00012832,-0.00856549,-0.00006615
 ,0.00002840,-0.03536416,0.70726287,0.00008150,-0.00003826,0.00929458,0
 .00010442,-0.00050124,-0.05684143,-0.00034871,-0.00004117,-0.00359980,
 0.00015219,0.00005111,-0.00409633,-0.00193067,0.00364028,0.14256995,0.
 00238347,0.00309909,0.00006926,-0.00707933,-0.01977149,-0.00013086,-0.
 05448490,0.00478015,0.00028616,-0.26394670,-0.12835425,0.00023135,0.01
 481090,0.03587623,0.00020348,0.70092727,0.01451636,-0.00514984,-0.0000
 3711,-0.02726408,-0.05157011,-0.00014559,-0.03731765,0.06272950,0.0004
 3025,-0.07885174,-0.19923085,-0.00026319,0.07781715,-0.01551869,-0.000
 41841,-0.02086980,0.62612110,0.00005936,-0.00003364,0.00399930,-0.0000
 8599,-0.00014657,-0.00653181,0.00004989,0.00028593,0.00171755,0.000407
 06,-0.00014767,-0.05337439,0.00034743,-0.00023169,0.00741392,-0.002243
 75,0.00252389,0.13236498,0.00281020,-0.00546478,-0.00001634,-0.0660123
 2,-0.04710333,0.00004398,-0.02511807,0.04079935,0.00022162,0.03759826,
 -0.02531135,-0.00020466,-0.28303993,0.09888502,0.00136898,-0.12263794,
 -0.00528746,0.00019396,0.67918208,-0.00999561,0.00028847,-0.00001046,0
 .00139155,0.05030249,0.00021246,0.02931953,-0.03619760,-0.00027841,-0.
 05572517,-0.03636607,0.00002162,0.04285114,-0.15328037,-0.00074673,0.0
 4806184,-0.29457532,-0.00145718,0.04920655,0.64197030,-0.00004531,0.00
 003509,-0.00136871,0.00019445,0.00033500,0.01960027,0.00021509,-0.0003
 1805,-0.00763707,-0.00036745,-0.00015663,0.00647954,0.00106012,-0.0009
 1847,-0.06196906,0.00044185,-0.00132588,-0.05813281,-0.00166293,0.0029
 1398,0.11303325,-0.24997492,0.13720041,0.00391131,0.00158689,0.0089700
 0,-0.00010850,-0.05042705,0.00478327,0.00048681,0.00299675,-0.00268396
 ,-0.00002689,0.00025845,0.00046037,-0.00002413,-0.00151951,-0.00072032
 ,0.00002578,0.00048341,0.00164251,0.00002576,0.28987136,0.17274647,-0.
 16802470,-0.00361270,0.00199355,-0.00249077,0.00004497,-0.01765355,0.0
 2472486,0.00046823,-0.00769816,-0.00401104,0.00002977,-0.00154565,-0.0
 0166631,-0.00002434,0.00028042,0.00316230,-0.00001869,0.00097125,-0.00
 188901,-0.00000772,-0.13820077,0.15516383,0.00539727,-0.00364485,-0.01
 729557,-0.00013991,0.00005725,-0.00257094,-0.00021567,-0.00013077,-0.0
 0116994,0.00006991,-0.00002413,0.00366941,0.00002445,-0.00000449,-0.00
 063914,-0.00003794,-0.00003629,0.00153770,-0.00001800,0.00002304,0.000
 35889,-0.00456114,0.00467634,0.02337759,0.00164683,-0.00050146,-0.0000
 1663,-0.00569819,0.00447838,0.00005481,0.00389298,0.02719795,0.0000847
 9,-0.05713881,0.02113819,0.00020184,-0.00186387,-0.00125363,-0.0000006
 8,0.00652786,-0.02551431,-0.00011298,-0.00353753,-0.00244177,0.0000367
 4,-0.00016096,0.00010277,-0.00001168,0.05434671,-0.00055751,0.00109830
 ,0.00001682,0.00276000,0.00006527,-0.00003567,-0.00282327,-0.01073144,
 -0.00002236,0.02284671,-0.32358114,-0.00114280,0.00048716,0.00097451,0
 .00001025,0.00279569,-0.01262412,-0.00006497,-0.00336094,0.00104679,-0
 .00000569,0.00024546,-0.00005196,0.00000385,-0.02234778,0.34345234,-0.
 00001865,-0.00000579,-0.00165390,0.00007729,-0.00006947,0.00529937,-0.
 00005160,-0.00015575,0.00193792,0.00022502,-0.00105032,-0.03159230,0.0
 0002754,0.00002058,-0.00037260,-0.00001857,0.00000624,0.00169257,0.000
 01530,-0.00002284,0.00818214,-0.00000731,0.00000883,-0.00065660,-0.000
 21257,0.00123546,0.02248064,-0.00029545,-0.00122338,0.00000205,0.00168
 166,-0.03216661,-0.00022074,-0.00246610,-0.00352256,0.00002797,-0.0005
 5129,-0.00069568,-0.00000279,-0.06504509,0.05486720,0.00042444,-0.0053
 2792,0.00121170,0.00005136,0.00047383,0.02770985,0.00019616,0.00041384
 ,-0.00015267,-0.00000283,0.00018794,-0.00001447,-0.00000743,0.07037425
 ,-0.00024082,-0.00105213,-0.00000227,-0.00738686,-0.02096696,-0.000089
 36,-0.00218024,0.00169019,-0.00007856,-0.00000767,0.00043511,0.0000100
 3,0.05363576,-0.30140509,-0.00193538,0.00245218,0.00080122,-0.00005907
 ,-0.00014666,-0.00699958,-0.00008542,0.00035202,-0.00000426,-0.0000046
 3,0.00009829,-0.00011304,0.00001136,-0.04684025,0.32771295,-0.00000580
 ,-0.00000149,0.00043022,-0.00000367,0.00008743,-0.00343759,0.00005652,
 -0.00002466,0.00926864,-0.00000848,0.00001465,-0.00065734,0.00038692,-
 0.00210425,-0.03756411,0.00004720,-0.00002169,0.00699280,0.00004190,-0
 .00015840,0.00597418,-0.00000674,-0.00000309,-0.00017612,-0.00000911,0
 .00000418,-0.00157236,-0.00043007,0.00220007,0.02441341,-0.00159692,0.
 00074733,0.00001597,0.00020372,-0.00056031,-0.00001336,-0.00096706,-0.
 00383719,0.00001442,-0.01866878,0.01149663,0.00013111,0.00175903,0.000
 65917,0.00001632,-0.27738089,0.09640990,0.00130856,0.00044665,-0.00025
 042,0.00000877,0.00001006,-0.00040004,-0.00000630,0.00107022,-0.000190
 36,-0.00002201,-0.00010428,-0.00014194,-0.00000186,0.29466212,-0.00090
 316,0.00058476,0.00001275,-0.00070979,-0.00023583,0.00001463,-0.003207
 26,-0.00170085,-0.00003602,-0.01734736,0.01098498,0.00008475,-0.000393
 97,-0.00611508,-0.00006936,0.09699450,-0.09915568,-0.00063048,0.028732
 43,-0.00669372,-0.00015114,-0.00019719,-0.00020990,0.00000101,0.000515
 75,0.00085372,0.00002039,0.00150673,-0.00044979,-0.00000340,-0.1043967
 9,0.10098869,-0.00001329,-0.00001268,-0.00029019,-0.00000050,0.0000147
 0,-0.00287669,0.00003272,-0.00002188,0.00930788,0.00001827,0.00001232,
 0.00456320,0.00001527,-0.00008054,0.00686390,0.00127144,-0.00061641,-0
 .03822518,0.00016964,-0.00006826,0.00421513,-0.00000238,-0.00000092,-0
 .00043431,-0.00002025,0.00001522,-0.00433393,0.00000601,-0.00000050,-0
 .00036152,-0.00145087,0.00073068,0.02483859,0.00029486,-0.00040022,-0.
 00000419,-0.00492669,0.00247416,0.00005738,-0.00031685,0.00203667,0.00
 000883,0.00114038,0.00140799,0.00001720,-0.01627198,-0.02094457,-0.000
 08100,0.00717388,0.00445562,0.00000790,-0.22156377,-0.13036289,-0.0001
 4947,0.00005410,0.00023016,-0.00000387,0.00024411,0.00038102,0.0000011
 5,0.00065105,0.00036306,-0.00000889,0.00064621,-0.00053745,-0.00001366
 ,0.23275692,-0.00031314,0.00039995,0.00000928,0.00304792,0.00057108,-0
 .00005673,0.00131321,-0.00122404,-0.00001223,0.00231202,-0.00457441,-0
 .00006895,0.00984990,0.01052186,0.00003545,-0.02499925,-0.01367986,-0.
 00000633,-0.13088469,-0.15801184,-0.00034464,0.00003118,-0.00011622,0.
 00000146,-0.00124216,-0.00052520,0.00000019,-0.00057208,0.00047969,0.0
 0002529,0.00034456,0.00109112,0.00002420,0.14113992,0.16495455,-0.0000
 1279,-0.00000018,-0.00124698,0.00006681,-0.00005482,0.00771538,0.00000
 961,-0.00000582,0.00030292,0.00003538,-0.00005531,0.00598128,0.0001104
 4,0.00014892,-0.00090290,-0.00015337,-0.00008144,0.00063864,-0.0001867
 9,-0.00039342,-0.02921118,0.00000358,-0.00000133,-0.00002761,-0.000008
 07,-0.00000573,0.00056972,-0.00001601,0.00002818,-0.00314393,-0.000009
 51,0.00002680,-0.00322736,0.00016352,0.00039146,0.02248334,-0.00722650
 ,0.01049613,0.00009281,-0.01833678,-0.00295614,-0.00076288,-0.00100409
 ,-0.00192663,0.00013137,-0.00036660,0.00075431,0.00011804,-0.00050435,
 0.00600813,0.00004017,-0.00017272,-0.00023375,-0.00001840,-0.00188431,
 -0.00091035,0.00010384,-0.00195817,-0.00642048,-0.00007398,-0.00034914
 ,0.00025169,0.00000053,-0.00021224,-0.00068110,-0.00005622,-0.00018652
 ,0.00002325,-0.00001658,-0.00064311,0.00010542,0.00000849,0.48704138,0
 .02012963,-0.00528873,0.00169480,-0.00178442,0.00714004,-0.00035069,-0
 .01083960,-0.00997845,-0.00004834,0.00333987,0.00202463,-0.00014500,0.
 00097151,0.00071842,-0.00002043,-0.00046746,-0.00155077,-0.00002110,-0
 .00046287,0.00112735,0.00002132,-0.01040423,0.00375071,-0.00531652,-0.
 00049599,0.00020328,-0.00000463,0.00027464,0.00008813,-0.00000868,0.00
 014497,0.00008407,0.00002035,-0.00007547,0.00009140,0.00000487,0.08924
 643,0.15119086,-0.00192551,0.00236757,0.00472157,-0.00158913,0.0001522
 1,0.00591752,0.00013010,-0.00037933,-0.00049291,0.00000828,0.00003252,
 -0.00069020,0.00005492,-0.00012629,0.00016926,-0.00001120,-0.00007567,
 0.00006647,-0.00001260,0.00009348,-0.00054682,0.00124866,-0.00307287,-
 0.00894994,0.00000955,-0.00000496,0.00001749,0.00003197,0.00002008,0.0
 0018402,0.00001132,0.00000413,0.00008676,-0.00000049,-0.00000763,-0.00
 006221,0.16899186,-0.14514561,0.36851751,0.00095419,0.00044276,0.00056
 778,-0.00177090,-0.00061838,0.00187197,-0.00070627,-0.00051125,-0.0002
 5486,0.00015326,0.00006216,-0.00021518,-0.00048551,0.00026823,0.000024
 32,-0.00000695,-0.00005192,0.00002917,-0.00003187,-0.00010877,-0.00018
 268,-0.00149085,0.00047304,-0.00111321,0.00000242,0.00001342,-0.000000
 68,-0.00004994,-0.00004021,0.00006376,0.00001951,-0.00000370,0.0000296
 4,-0.00002333,0.00001844,-0.00001583,-0.14063968,0.03974954,-0.1661050
 5,0.15919630,0.00224029,-0.00214825,-0.00148613,-0.00112496,0.00034678
 ,0.00033238,-0.00019401,-0.00055518,0.00004312,0.00010951,0.00009334,0
 .00009242,0.00006599,0.00033643,-0.00000585,0.00001199,-0.00002626,0.0
 0001361,-0.00007917,-0.00004877,-0.00000591,-0.00120542,0.00291010,0.0
 0417935,-0.00002069,0.00001113,0.00000401,-0.00004781,-0.00006728,-0.0
 0001951,0.00001105,0.00000024,-0.00001482,-0.00002869,0.00000384,0.000
 00048,0.06399390,-0.05770660,0.12767187,-0.05445982,0.05252541,0.00237
 745,-0.00190968,-0.00017813,0.00123028,-0.00004797,-0.00002381,-0.0005
 4049,-0.00017276,0.00002365,0.00013862,0.00000890,-0.00000726,-0.00002
 700,-0.00000698,0.00001083,0.00000785,-0.00000732,-0.00000426,0.000055
 87,0.00000050,-0.00000960,-0.00188629,0.00273471,0.00034307,-0.0000023
 1,0.00000317,0.00000713,-0.00002255,0.00001130,0.00001640,0.00000579,-
 0.00000214,0.00000618,0.00001703,0.00000815,0.00000633,-0.20678209,0.1
 1159858,-0.32805853,0.20058651,-0.11470064,0.32916076,-0.01050030,-0.0
 0163084,-0.00044120,0.00432095,-0.00209994,-0.00125877,0.00957277,0.01
 233444,0.00019054,-0.00227888,-0.00251560,0.00014279,-0.00196566,-0.00
 708530,-0.00003064,0.00073349,0.00170031,-0.00001934,0.00283131,-0.000
 38799,0.00012506,0.00985660,-0.00472635,0.00069291,0.00082941,-0.00048
 682,-0.00000800,0.00026974,0.00076444,-0.00006544,0.00008694,-0.000076
 00,-0.00002545,0.00078423,-0.00015125,0.00000453,-0.31355716,-0.129326
 54,-0.00084269,-0.01512039,-0.00927218,0.00484132,0.31413694,-0.002879
 45,0.00049004,-0.00008209,-0.00249647,-0.01044578,-0.00022429,0.009078
 28,0.00106923,-0.00010010,-0.00096442,-0.00106851,0.00005167,-0.001832
 66,0.00161252,0.00006407,0.00011016,0.00026739,-0.00000604,-0.00049336
 ,-0.00067311,0.00001414,-0.00027333,-0.01124765,0.00021938,0.00028647,
 -0.00007846,0.00000175,-0.00033462,-0.00014918,0.00001355,-0.00003655,
 -0.00002673,-0.00000147,-0.00013930,0.00001808,-0.00000266,-0.15775081
 ,-0.09189433,0.01847050,0.01476645,0.00432507,0.00248218,0.14295961,0.
 10780141,-0.00095526,0.00035068,-0.00116595,0.00027585,-0.00029743,-0.
 00863901,0.00048278,0.00046253,0.00115058,-0.00014276,-0.00003250,0.00
 087584,-0.00019028,0.00011673,-0.00033708,0.00003710,0.00006863,-0.000
 15550,-0.00000994,-0.00012939,0.00103184,0.00092145,-0.00122120,0.0026
 3351,0.00000656,-0.00000676,-0.00000529,-0.00003752,-0.00002584,-0.000
 36670,-0.00000834,-0.00000261,-0.00013246,-0.00001142,0.00000105,0.000
 12455,0.03822304,0.03772109,-0.04087997,-0.03528565,-0.01610438,-0.001
 29275,-0.00330562,-0.02090060,0.04715840\\0.00001981,0.00000718,-0.000
 00151,0.00000855,0.00000552,0.00000892,-0.00001041,-0.00001510,0.00000
 175,-0.00000162,0.00000087,-0.00000119,-0.00001163,-0.00000321,-0.0000
 0438,-0.00000336,0.00000288,-0.00000094,0.00000258,0.00000256,-0.00000
 126,-0.00001202,-0.00000087,0.00000210,0.00000342,-0.00000001,0.000000
 78,-0.00000117,-0.00000064,0.00000154,0.00000082,0.00000054,0.00000008
 ,0.00000126,-0.00000190,-0.00000052,-0.00000228,-0.00000777,0.00001210
 ,-0.00000094,0.00000065,-0.00000641,0.00000699,0.00000930,-0.00001107\
 \\@


 GROWING OLD ISN'T SO BAD -- WHEN YOU CONSIDER THE ALTERNATIVE.

                     -- MAURICE CHEVALIER
 Job cpu time:       0 days  0 hours 56 minutes 18.6 seconds.
 File lengths (MBytes):  RWF=    137 Int=      0 D2E=      0 Chk=      9 Scr=      1
 Normal termination of Gaussian 09 at Fri Aug 27 00:19:43 2021.
