 Entering Gaussian System, Link 0=g09
 AtFile(1): pc-2.gbs
            -H     0
            S    4   1.00
                  0.754230D+02           0.240650D-02
                  0.113500D+02           0.184870D-01
                  0.259930D+01           0.897420D-01
                  0.735130D+00           0.281110D+00
            S    1   1.00
                  0.231670D+00           0.100000D+01
            S    1   1.00
                  0.741470D-01           0.100000D+01
            P    1   1.00
                  0.160000D+01           0.100000D+01
            P    1   1.00
                  0.450000D+00           0.100000D+01
            D    1   1.00
                  0.125000D+01           0.100000D+01
            ****
            -C     0
            S    7   1.00
                  0.785710D+04           0.568250D-03
                  0.117870D+04           0.439150D-02
                  0.268320D+03           0.225040D-01
                  0.759480D+02           0.866530D-01
                  0.245590D+02           0.244050D+00
                  0.862120D+01           0.441480D+00
                  0.312780D+01           0.353320D+00
            S    7   1.00
                  0.117870D+04          -0.594920D-06
                  0.268320D+03          -0.627480D-04
                  0.759480D+02          -0.757730D-03
                  0.245590D+02          -0.733080D-02
                  0.862120D+01          -0.389320D-01
                  0.312780D+01          -0.889080D-01
                  0.822020D+00           0.216890D+00
            S    1   1.00
                  0.330170D+00           0.100000D+01
            S    1   1.00
                  0.114630D+00           0.100000D+01
            P    4   1.00
                  0.337750D+02           0.602940D-02
                  0.767660D+01           0.432280D-01
                  0.223570D+01           0.163010D+00
                  0.764470D+00           0.365040D+00
            P    1   1.00
                  0.262320D+00           0.100000D+01
            P    1   1.00
                  0.846380D-01           0.100000D+01
            D    1   1.00
                  0.140000D+01           0.100000D+01
            D    1   1.00
                  0.450000D+00           0.100000D+01
            F    1   1.00
                  0.950000D+00           0.100000D+01
            ****
            -N     0
            S    7   1.00
                  0.111010D+05           0.545700D-03
                  0.166530D+04           0.421810D-02
                  0.379080D+03           0.216450D-01
                  0.107300D+03           0.837760D-01
                  0.347470D+02           0.238810D+00
                  0.122490D+02           0.439940D+00
                  0.447430D+01           0.363640D+00
            S    7   1.00
                  0.166530D+04          -0.150060D-05
                  0.379080D+03          -0.587530D-04
                  0.107300D+03          -0.774530D-03
                  0.347470D+02          -0.721610D-02
                  0.122490D+02          -0.393380D-01
                  0.447430D+01          -0.906110D-01
                  0.124040D+01           0.198820D+00
            S    1   1.00
                  0.487430D+00           0.100000D+01
            S    1   1.00
                  0.164840D+00           0.100000D+01
            P    4   1.00
                  0.479340D+02           0.617060D-02
                  0.109990D+02           0.442600D-01
                  0.324720D+01           0.168250D+00
                  0.111140D+01           0.368480D+00
            P    1   1.00
                  0.379880D+00           0.100000D+01
            P    1   1.00
                  0.120680D+00           0.100000D+01
            D    1   1.00
                  0.180000D+01           0.100000D+01
            D    1   1.00
                  0.550000D+00           0.100000D+01
            F    1   1.00
                  0.102000D+01           0.100000D+01
            ****
            -O     0
            S    7   1.00
                  0.147820D+05           0.535190D-03
                  0.221730D+04           0.413750D-02
                  0.504740D+03           0.212450D-01
                  0.142870D+03           0.824530D-01
                  0.463000D+02           0.236710D+00
                  0.163370D+02           0.440390D+00
                  0.598280D+01           0.364650D+00
            S    7   1.00
                  0.221730D+04          -0.192750D-05
                  0.504740D+03          -0.579640D-04
                  0.142870D+03          -0.794940D-03
                  0.463000D+02          -0.731250D-02
                  0.163370D+02          -0.405740D-01
                  0.598280D+01          -0.915940D-01
                  0.167180D+01           0.209400D+00
            S    1   1.00
                  0.646620D+00           0.100000D+01
            S    1   1.00
                  0.216690D+00           0.100000D+01
            P    4   1.00
                  0.604240D+02           0.689490D-02
                  0.139350D+02           0.490050D-01
                  0.415310D+01           0.182550D+00
                  0.141580D+01           0.376330D+00
            P    1   1.00
                  0.475490D+00           0.100000D+01
            P    1   1.00
                  0.145290D+00           0.100000D+01
            D    1   1.00
                  0.220000D+01           0.100000D+01
            D    1   1.00
                  0.650000D+00           0.100000D+01
            F    1   1.00
                  0.110000D+01           0.100000D+01
            ****
 Initial command:
 /public3/home/sc51754/softwares/g09e01/l1.exe "./Gau-48194.inp" -scrdir="./"
 Entering Link 1 = /public3/home/sc51754/softwares/g09e01/l1.exe PID=     48195.
  
 Copyright (c) 1988,1990,1992,1993,1995,1998,2003,2009,2015,
            Gaussian, Inc.  All Rights Reserved.
  
 This is part of the Gaussian(R) 09 program.  It is based on
 the Gaussian(R) 03 system (copyright 2003, Gaussian, Inc.),
 the Gaussian(R) 98 system (copyright 1998, Gaussian, Inc.),
 the Gaussian(R) 94 system (copyright 1995, Gaussian, Inc.),
 the Gaussian 92(TM) system (copyright 1992, Gaussian, Inc.),
 the Gaussian 90(TM) system (copyright 1990, Gaussian, Inc.),
 the Gaussian 88(TM) system (copyright 1988, Gaussian, Inc.),
 the Gaussian 86(TM) system (copyright 1986, Carnegie Mellon
 University), and the Gaussian 82(TM) system (copyright 1983,
 Carnegie Mellon University). Gaussian is a federally registered
 trademark of Gaussian, Inc.
  
 This software contains proprietary and confidential information,
 including trade secrets, belonging to Gaussian, Inc.
  
 This software is provided under written license and may be
 used, copied, transmitted, or stored only in accord with that
 written license.
  
 The following legend is applicable only to US Government
 contracts under FAR:
  
                    RESTRICTED RIGHTS LEGEND
  
 Use, reproduction and disclosure by the US Government is
 subject to restrictions as set forth in subparagraphs (a)
 and (c) of the Commercial Computer Software - Restricted
 Rights clause in FAR 52.227-19.
  
 Gaussian, Inc.
 340 Quinnipiac St., Bldg. 40, Wallingford CT 06492
  
  
 ---------------------------------------------------------------
 Warning -- This program may not be used in any manner that
 competes with the business of Gaussian, Inc. or will provide
 assistance to any competitor of Gaussian, Inc.  The licensee
 of this program is prohibited from giving any competitor of
 Gaussian, Inc. access to this program.  By using this program,
 the user acknowledges that Gaussian, Inc. is engaged in the
 business of creating and licensing software in the field of
 computational chemistry and represents and warrants to the
 licensee that it is not a competitor of Gaussian, Inc. and that
 it will not use this program in any manner prohibited above.
 ---------------------------------------------------------------
  

 Cite this work as:
 Gaussian 09, Revision E.01,
 M. J. Frisch, G. W. Trucks, H. B. Schlegel, G. E. Scuseria, 
 M. A. Robb, J. R. Cheeseman, G. Scalmani, V. Barone, B. Mennucci, 
 G. A. Petersson, H. Nakatsuji, M. Caricato, X. Li, H. P. Hratchian, 
 A. F. Izmaylov, J. Bloino, G. Zheng, J. L. Sonnenberg, M. Hada, 
 M. Ehara, K. Toyota, R. Fukuda, J. Hasegawa, M. Ishida, T. Nakajima, 
 Y. Honda, O. Kitao, H. Nakai, T. Vreven, J. A. Montgomery, Jr., 
 J. E. Peralta, F. Ogliaro, M. Bearpark, J. J. Heyd, E. Brothers, 
 K. N. Kudin, V. N. Staroverov, T. Keith, R. Kobayashi, J. Normand, 
 K. Raghavachari, A. Rendell, J. C. Burant, S. S. Iyengar, J. Tomasi, 
 M. Cossi, N. Rega, J. M. Millam, M. Klene, J. E. Knox, J. B. Cross, 
 V. Bakken, C. Adamo, J. Jaramillo, R. Gomperts, R. E. Stratmann, 
 O. Yazyev, A. J. Austin, R. Cammi, C. Pomelli, J. W. Ochterski, 
 R. L. Martin, K. Morokuma, V. G. Zakrzewski, G. A. Voth, 
 P. Salvador, J. J. Dannenberg, S. Dapprich, A. D. Daniels, 
 O. Farkas, J. B. Foresman, J. V. Ortiz, J. Cioslowski, 
 and D. J. Fox, Gaussian, Inc., Wallingford CT, 2013.
 
 ******************************************
 Gaussian 09:  EM64L-G09RevE.01 30-Nov-2015
                27-Aug-2021 
 ******************************************
 %nprocshared=64
 Will use up to   64 processors via shared memory.
 %mem=128GB
 %chk=PY_H2O_BLYP_PC2_OPT_FREQ.chk
 --------------------
 #p opt freq BLYP/gen
 --------------------
 1/14=-1,18=20,19=15,26=3,38=1/1,3;
 2/9=110,12=2,17=6,18=5,40=1/2;
 3/5=7,11=2,16=1,25=1,30=1,71=1,74=402/1,2,3;
 4//1;
 5/5=2,38=5/2;
 6/7=2,8=2,9=2,10=2,28=1/1;
 7//1,2,3,16;
 1/14=-1,18=20,19=15,26=3/3(2);
 2/9=110/2;
 99//99;
 2/9=110/2;
 3/5=7,6=1,11=2,16=1,25=1,30=1,71=1,74=402,82=7/1,2,3;
 4/5=5,16=3,69=1/1;
 5/5=2,38=5/2;
 7//1,2,3,16;
 1/14=-1,18=20,19=15,26=3/3(-5);
 2/9=110/2;
 6/7=2,8=2,9=2,10=2,19=2,28=1/1;
 99/9=1/99;
 Leave Link    1 at Fri Aug 27 00:15:59 2021, MaxMem= 17179869184 cpu:         5.0
 (Enter /public3/home/sc51754/softwares/g09e01/l101.exe)
 ------------------------
 PY_H2O_BLYP_PC2_OPT_FREQ
 ------------------------
 Symbolic Z-matrix:
 Charge =  0 Multiplicity = 1
 O                     1.26148   1.38785   0.00541 
 N                     0.24943  -0.65888   0.01158 
 C                     0.21021   0.736     0.00592 
 C                    -1.11959   1.28763   0.00047 
 C                    -0.84358  -1.46082   0.0067 
 C                    -2.21816   0.48191  -0.00352 
 C                    -2.09559  -0.93059  -0.00106 
 H                     2.7014    0.27314  -0.04162 
 H                    -1.19683   2.36437  -0.00254 
 H                    -0.64999  -2.52343   0.00862 
 H                    -3.20534   0.92605  -0.00928 
 H                    -2.96087  -1.57362  -0.00584 
 O                     3.10667  -0.61979  -0.08598 
 H                     3.83344  -0.62425   0.54074 
 H                     1.18728  -1.05929   0.02234 
 
 Add virtual bond connecting atoms H8         and O1         Dist= 3.44D+00.
 Add virtual bond connecting atoms O13        and H15        Dist= 3.73D+00.
 NAtoms=     15 NQM=       15 NQMF=       0 NMMI=      0 NMMIF=      0
                NMic=       0 NMicF=      0.
                    Isotopes and Nuclear Properties:
 (Nuclear quadrupole moments (NQMom) in fm**2, nuclear magnetic moments (NMagM)
  in nuclear magnetons)

  Atom         1           2           3           4           5           6           7           8           9          10
 IAtWgt=          16          14          12          12          12          12          12           1           1           1
 AtmWgt=  15.9949146  14.0030740  12.0000000  12.0000000  12.0000000  12.0000000  12.0000000   1.0078250   1.0078250   1.0078250
 NucSpn=           0           2           0           0           0           0           0           1           1           1
 AtZEff=   0.0000000   0.0000000   0.0000000   0.0000000   0.0000000   0.0000000   0.0000000   0.0000000   0.0000000   0.0000000
 NQMom=    0.0000000   2.0440000   0.0000000   0.0000000   0.0000000   0.0000000   0.0000000   0.0000000   0.0000000   0.0000000
 NMagM=    0.0000000   0.4037610   0.0000000   0.0000000   0.0000000   0.0000000   0.0000000   2.7928460   2.7928460   2.7928460
 AtZNuc=   8.0000000   7.0000000   6.0000000   6.0000000   6.0000000   6.0000000   6.0000000   1.0000000   1.0000000   1.0000000

  Atom        11          12          13          14          15
 IAtWgt=           1           1          16           1           1
 AtmWgt=   1.0078250   1.0078250  15.9949146   1.0078250   1.0078250
 NucSpn=           1           1           0           1           1
 AtZEff=   0.0000000   0.0000000   0.0000000   0.0000000   0.0000000
 NQMom=    0.0000000   0.0000000   0.0000000   0.0000000   0.0000000
 NMagM=    2.7928460   2.7928460   0.0000000   2.7928460   2.7928460
 AtZNuc=   1.0000000   1.0000000   8.0000000   1.0000000   1.0000000
 Leave Link  101 at Fri Aug 27 00:15:59 2021, MaxMem= 17179869184 cpu:         9.0
 (Enter /public3/home/sc51754/softwares/g09e01/l103.exe)

 GradGradGradGradGradGradGradGradGradGradGradGradGradGradGradGradGradGrad
 Berny optimization.
 Initialization pass.
                           ----------------------------
                           !    Initial Parameters    !
                           ! (Angstroms and Degrees)  !
 --------------------------                            --------------------------
 ! Name  Definition              Value          Derivative Info.                !
 --------------------------------------------------------------------------------
 ! R1    R(1,3)                  1.237          estimate D2E/DX2                !
 ! R2    R(1,8)                  1.8216         estimate D2E/DX2                !
 ! R3    R(2,3)                  1.3954         estimate D2E/DX2                !
 ! R4    R(2,5)                  1.3556         estimate D2E/DX2                !
 ! R5    R(2,15)                 1.0198         estimate D2E/DX2                !
 ! R6    R(3,4)                  1.4397         estimate D2E/DX2                !
 ! R7    R(4,6)                  1.3624         estimate D2E/DX2                !
 ! R8    R(4,9)                  1.0795         estimate D2E/DX2                !
 ! R9    R(5,7)                  1.3597         estimate D2E/DX2                !
 ! R10   R(5,10)                 1.0801         estimate D2E/DX2                !
 ! R11   R(6,7)                  1.4178         estimate D2E/DX2                !
 ! R12   R(6,11)                 1.0825         estimate D2E/DX2                !
 ! R13   R(7,12)                 1.0781         estimate D2E/DX2                !
 ! R14   R(8,13)                 0.9816         estimate D2E/DX2                !
 ! R15   R(13,14)                0.9597         estimate D2E/DX2                !
 ! R16   R(13,15)                1.972          estimate D2E/DX2                !
 ! A1    A(3,1,8)              110.4468         estimate D2E/DX2                !
 ! A2    A(3,2,5)              124.6558         estimate D2E/DX2                !
 ! A3    A(3,2,15)             114.7312         estimate D2E/DX2                !
 ! A4    A(5,2,15)             120.6129         estimate D2E/DX2                !
 ! A5    A(1,3,2)              120.1911         estimate D2E/DX2                !
 ! A6    A(1,3,4)              125.6683         estimate D2E/DX2                !
 ! A7    A(2,3,4)              114.1406         estimate D2E/DX2                !
 ! A8    A(3,4,6)              121.2133         estimate D2E/DX2                !
 ! A9    A(3,4,9)              116.6328         estimate D2E/DX2                !
 ! A10   A(6,4,9)              122.1537         estimate D2E/DX2                !
 ! A11   A(2,5,7)              120.7801         estimate D2E/DX2                !
 ! A12   A(2,5,10)             115.9423         estimate D2E/DX2                !
 ! A13   A(7,5,10)             123.2776         estimate D2E/DX2                !
 ! A14   A(4,6,7)              121.2972         estimate D2E/DX2                !
 ! A15   A(4,6,11)             119.5197         estimate D2E/DX2                !
 ! A16   A(7,6,11)             119.1831         estimate D2E/DX2                !
 ! A17   A(5,7,6)              117.9124         estimate D2E/DX2                !
 ! A18   A(5,7,12)             120.4308         estimate D2E/DX2                !
 ! A19   A(6,7,12)             121.6568         estimate D2E/DX2                !
 ! A20   A(1,8,13)             152.1528         estimate D2E/DX2                !
 ! A21   A(8,13,14)            106.7015         estimate D2E/DX2                !
 ! A22   A(8,13,15)             78.3702         estimate D2E/DX2                !
 ! A23   A(14,13,15)           134.4412         estimate D2E/DX2                !
 ! A24   A(2,15,13)            143.8035         estimate D2E/DX2                !
 ! D1    D(8,1,3,2)              1.8252         estimate D2E/DX2                !
 ! D2    D(8,1,3,4)           -178.1461         estimate D2E/DX2                !
 ! D3    D(3,1,8,13)             2.218          estimate D2E/DX2                !
 ! D4    D(5,2,3,1)           -179.6964         estimate D2E/DX2                !
 ! D5    D(5,2,3,4)              0.278          estimate D2E/DX2                !
 ! D6    D(15,2,3,1)             0.4507         estimate D2E/DX2                !
 ! D7    D(15,2,3,4)          -179.5749         estimate D2E/DX2                !
 ! D8    D(3,2,5,7)             -0.1672         estimate D2E/DX2                !
 ! D9    D(3,2,5,10)           179.7881         estimate D2E/DX2                !
 ! D10   D(15,2,5,7)           179.6776         estimate D2E/DX2                !
 ! D11   D(15,2,5,10)           -0.3671         estimate D2E/DX2                !
 ! D12   D(3,2,15,13)           -6.1898         estimate D2E/DX2                !
 ! D13   D(5,2,15,13)          173.9508         estimate D2E/DX2                !
 ! D14   D(1,3,4,6)            179.7501         estimate D2E/DX2                !
 ! D15   D(1,3,4,9)             -0.1145         estimate D2E/DX2                !
 ! D16   D(2,3,4,6)             -0.2227         estimate D2E/DX2                !
 ! D17   D(2,3,4,9)            179.9126         estimate D2E/DX2                !
 ! D18   D(3,4,6,7)              0.0669         estimate D2E/DX2                !
 ! D19   D(3,4,6,11)          -179.8963         estimate D2E/DX2                !
 ! D20   D(9,4,6,7)            179.924          estimate D2E/DX2                !
 ! D21   D(9,4,6,11)            -0.0392         estimate D2E/DX2                !
 ! D22   D(2,5,7,6)             -0.0156         estimate D2E/DX2                !
 ! D23   D(2,5,7,12)           179.9426         estimate D2E/DX2                !
 ! D24   D(10,5,7,6)          -179.9675         estimate D2E/DX2                !
 ! D25   D(10,5,7,12)           -0.0093         estimate D2E/DX2                !
 ! D26   D(4,6,7,5)              0.0605         estimate D2E/DX2                !
 ! D27   D(4,6,7,12)          -179.8972         estimate D2E/DX2                !
 ! D28   D(11,6,7,5)          -179.9762         estimate D2E/DX2                !
 ! D29   D(11,6,7,12)            0.0661         estimate D2E/DX2                !
 ! D30   D(1,8,13,14)         -137.6226         estimate D2E/DX2                !
 ! D31   D(1,8,13,15)           -4.4198         estimate D2E/DX2                !
 ! D32   D(8,13,15,2)            7.3388         estimate D2E/DX2                !
 ! D33   D(14,13,15,2)         109.4095         estimate D2E/DX2                !
 --------------------------------------------------------------------------------
 Trust Radius=3.00D-01 FncErr=1.00D-07 GrdErr=1.00D-06
 Number of steps in this run=     83 maximum allowed number of steps=    100.
 GradGradGradGradGradGradGradGradGradGradGradGradGradGradGradGradGradGrad

 Leave Link  103 at Fri Aug 27 00:15:59 2021, MaxMem= 17179869184 cpu:         0.2
 (Enter /public3/home/sc51754/softwares/g09e01/l202.exe)
                          Input orientation:                          
 ---------------------------------------------------------------------
 Center     Atomic      Atomic             Coordinates (Angstroms)
 Number     Number       Type             X           Y           Z
 ---------------------------------------------------------------------
      1          8           0        1.261476    1.387852    0.005408
      2          7           0        0.249425   -0.658880    0.011581
      3          6           0        0.210209    0.735997    0.005920
      4          6           0       -1.119592    1.287625    0.000474
      5          6           0       -0.843575   -1.460822    0.006702
      6          6           0       -2.218160    0.481905   -0.003521
      7          6           0       -2.095586   -0.930593   -0.001061
      8          1           0        2.701404    0.273138   -0.041623
      9          1           0       -1.196826    2.364370   -0.002539
     10          1           0       -0.649991   -2.523426    0.008616
     11          1           0       -3.205344    0.926047   -0.009282
     12          1           0       -2.960874   -1.573618   -0.005843
     13          8           0        3.106669   -0.619787   -0.085978
     14          1           0        3.833439   -0.624251    0.540740
     15          1           0        1.187279   -1.059291    0.022340
 ---------------------------------------------------------------------
                    Distance matrix (angstroms):
                    1          2          3          4          5
     1  O    0.000000
     2  N    2.283286   0.000000
     3  C    1.236963   1.395440   0.000000
     4  C    2.383182   2.379751   1.439685   0.000000
     5  C    3.542059   1.355649   2.436488   2.762279   0.000000
     6  C    3.595648   2.718565   2.441645   1.362370   2.379869
     7  C    4.079840   2.360734   2.845042   2.423439   1.359682
     8  H    1.821590   2.623679   2.534275   3.953602   3.946622
     9  H    2.645165   3.351400   2.152073   1.079516   3.841480
    10  H    4.353368   2.070142   3.371022   3.839883   1.080095
    11  H    4.490653   3.801034   3.420870   2.116883   3.357879
    12  H    5.157390   3.338124   3.923038   3.402509   2.120339
    13  O    2.728315   2.859176   3.199387   4.637561   4.039846
    14  H    3.309098   3.623033   3.906930   5.336635   4.781162
    15  H    2.448326   1.019811   2.044014   3.290919   2.070227
                    6          7          8          9         10
     6  C    0.000000
     7  C    1.417809   0.000000
     8  H    4.924139   4.945880   0.000000
     9  H    2.141681   3.415341   4.423910   0.000000
    10  H    3.389884   2.151036   4.365220   4.918303   0.000000
    11  H    1.082510   2.163040   5.942811   2.470418   4.292903
    12  H    2.185590   1.078066   5.955937   4.315046   2.498504
    13  O    5.438228   5.212223   0.981592   5.237578   4.212515
    14  H    6.175893   5.961605   1.557548   5.876272   4.898078
    15  H    3.738043   3.285470   2.017928   4.172053   2.349349
                   11         12         13         14         15
    11  H    0.000000
    12  H    2.511594   0.000000
    13  O    6.498999   6.142580   0.000000
    14  H    7.228445   6.882059   0.959682   0.000000
    15  H    4.820550   4.180012   1.972043   2.731330   0.000000
 Stoichiometry    C5H7NO2
 Framework group  C1[X(C5H7NO2)]
 Deg. of freedom    39
 Full point group                 C1      NOp   1
 Largest Abelian subgroup         C1      NOp   1
 Largest concise Abelian subgroup C1      NOp   1
                         Standard orientation:                         
 ---------------------------------------------------------------------
 Center     Atomic      Atomic             Coordinates (Angstroms)
 Number     Number       Type             X           Y           Z
 ---------------------------------------------------------------------
      1          8           0        1.261476    1.387852    0.005408
      2          7           0        0.249425   -0.658880    0.011581
      3          6           0        0.210209    0.735997    0.005920
      4          6           0       -1.119592    1.287625    0.000474
      5          6           0       -0.843575   -1.460822    0.006702
      6          6           0       -2.218160    0.481905   -0.003521
      7          6           0       -2.095586   -0.930593   -0.001061
      8          1           0        2.701404    0.273138   -0.041623
      9          1           0       -1.196826    2.364370   -0.002539
     10          1           0       -0.649991   -2.523426    0.008616
     11          1           0       -3.205344    0.926047   -0.009282
     12          1           0       -2.960874   -1.573618   -0.005843
     13          8           0        3.106669   -0.619787   -0.085978
     14          1           0        3.833439   -0.624251    0.540740
     15          1           0        1.187279   -1.059291    0.022340
 ---------------------------------------------------------------------
 Rotational constants (GHZ):      4.0248921      1.3974909      1.0390436
 Leave Link  202 at Fri Aug 27 00:15:59 2021, MaxMem= 17179869184 cpu:         3.0
 (Enter /public3/home/sc51754/softwares/g09e01/l301.exe)
 General basis read from cards:  (5D, 7F)
 Centers:       8      9     10     11     12     14     15
 S 4 1.00
     Exponent=  7.5423000000D+01 Coefficients=  2.4065000000D-03
     Exponent=  1.1350000000D+01 Coefficients=  1.8487000000D-02
     Exponent=  2.5993000000D+00 Coefficients=  8.9742000000D-02
     Exponent=  7.3513000000D-01 Coefficients=  2.8111000000D-01
 S 1 1.00
     Exponent=  2.3167000000D-01 Coefficients=  1.0000000000D+00
 S 1 1.00
     Exponent=  7.4147000000D-02 Coefficients=  1.0000000000D+00
 P 1 1.00
     Exponent=  1.6000000000D+00 Coefficients=  1.0000000000D+00
 P 1 1.00
     Exponent=  4.5000000000D-01 Coefficients=  1.0000000000D+00
 D 1 1.00
     Exponent=  1.2500000000D+00 Coefficients=  1.0000000000D+00
 ****
 Centers:       3      4      5      6      7
 S 7 1.00
     Exponent=  7.8571000000D+03 Coefficients=  5.6825000000D-04
     Exponent=  1.1787000000D+03 Coefficients=  4.3915000000D-03
     Exponent=  2.6832000000D+02 Coefficients=  2.2504000000D-02
     Exponent=  7.5948000000D+01 Coefficients=  8.6653000000D-02
     Exponent=  2.4559000000D+01 Coefficients=  2.4405000000D-01
     Exponent=  8.6212000000D+00 Coefficients=  4.4148000000D-01
     Exponent=  3.1278000000D+00 Coefficients=  3.5332000000D-01
 S 7 1.00
     Exponent=  1.1787000000D+03 Coefficients= -5.9492000000D-07
     Exponent=  2.6832000000D+02 Coefficients= -6.2748000000D-05
     Exponent=  7.5948000000D+01 Coefficients= -7.5773000000D-04
     Exponent=  2.4559000000D+01 Coefficients= -7.3308000000D-03
     Exponent=  8.6212000000D+00 Coefficients= -3.8932000000D-02
     Exponent=  3.1278000000D+00 Coefficients= -8.8908000000D-02
     Exponent=  8.2202000000D-01 Coefficients=  2.1689000000D-01
 S 1 1.00
     Exponent=  3.3017000000D-01 Coefficients=  1.0000000000D+00
 S 1 1.00
     Exponent=  1.1463000000D-01 Coefficients=  1.0000000000D+00
 P 4 1.00
     Exponent=  3.3775000000D+01 Coefficients=  6.0294000000D-03
     Exponent=  7.6766000000D+00 Coefficients=  4.3228000000D-02
     Exponent=  2.2357000000D+00 Coefficients=  1.6301000000D-01
     Exponent=  7.6447000000D-01 Coefficients=  3.6504000000D-01
 P 1 1.00
     Exponent=  2.6232000000D-01 Coefficients=  1.0000000000D+00
 P 1 1.00
     Exponent=  8.4638000000D-02 Coefficients=  1.0000000000D+00
 D 1 1.00
     Exponent=  1.4000000000D+00 Coefficients=  1.0000000000D+00
 D 1 1.00
     Exponent=  4.5000000000D-01 Coefficients=  1.0000000000D+00
 F 1 1.00
     Exponent=  9.5000000000D-01 Coefficients=  1.0000000000D+00
 ****
 Centers:       2
 S 7 1.00
     Exponent=  1.1101000000D+04 Coefficients=  5.4570000000D-04
     Exponent=  1.6653000000D+03 Coefficients=  4.2181000000D-03
     Exponent=  3.7908000000D+02 Coefficients=  2.1645000000D-02
     Exponent=  1.0730000000D+02 Coefficients=  8.3776000000D-02
     Exponent=  3.4747000000D+01 Coefficients=  2.3881000000D-01
     Exponent=  1.2249000000D+01 Coefficients=  4.3994000000D-01
     Exponent=  4.4743000000D+00 Coefficients=  3.6364000000D-01
 S 7 1.00
     Exponent=  1.6653000000D+03 Coefficients= -1.5006000000D-06
     Exponent=  3.7908000000D+02 Coefficients= -5.8753000000D-05
     Exponent=  1.0730000000D+02 Coefficients= -7.7453000000D-04
     Exponent=  3.4747000000D+01 Coefficients= -7.2161000000D-03
     Exponent=  1.2249000000D+01 Coefficients= -3.9338000000D-02
     Exponent=  4.4743000000D+00 Coefficients= -9.0611000000D-02
     Exponent=  1.2404000000D+00 Coefficients=  1.9882000000D-01
 S 1 1.00
     Exponent=  4.8743000000D-01 Coefficients=  1.0000000000D+00
 S 1 1.00
     Exponent=  1.6484000000D-01 Coefficients=  1.0000000000D+00
 P 4 1.00
     Exponent=  4.7934000000D+01 Coefficients=  6.1706000000D-03
     Exponent=  1.0999000000D+01 Coefficients=  4.4260000000D-02
     Exponent=  3.2472000000D+00 Coefficients=  1.6825000000D-01
     Exponent=  1.1114000000D+00 Coefficients=  3.6848000000D-01
 P 1 1.00
     Exponent=  3.7988000000D-01 Coefficients=  1.0000000000D+00
 P 1 1.00
     Exponent=  1.2068000000D-01 Coefficients=  1.0000000000D+00
 D 1 1.00
     Exponent=  1.8000000000D+00 Coefficients=  1.0000000000D+00
 D 1 1.00
     Exponent=  5.5000000000D-01 Coefficients=  1.0000000000D+00
 F 1 1.00
     Exponent=  1.0200000000D+00 Coefficients=  1.0000000000D+00
 ****
 Centers:       1     13
 S 7 1.00
     Exponent=  1.4782000000D+04 Coefficients=  5.3519000000D-04
     Exponent=  2.2173000000D+03 Coefficients=  4.1375000000D-03
     Exponent=  5.0474000000D+02 Coefficients=  2.1245000000D-02
     Exponent=  1.4287000000D+02 Coefficients=  8.2453000000D-02
     Exponent=  4.6300000000D+01 Coefficients=  2.3671000000D-01
     Exponent=  1.6337000000D+01 Coefficients=  4.4039000000D-01
     Exponent=  5.9828000000D+00 Coefficients=  3.6465000000D-01
 S 7 1.00
     Exponent=  2.2173000000D+03 Coefficients= -1.9275000000D-06
     Exponent=  5.0474000000D+02 Coefficients= -5.7964000000D-05
     Exponent=  1.4287000000D+02 Coefficients= -7.9494000000D-04
     Exponent=  4.6300000000D+01 Coefficients= -7.3125000000D-03
     Exponent=  1.6337000000D+01 Coefficients= -4.0574000000D-02
     Exponent=  5.9828000000D+00 Coefficients= -9.1594000000D-02
     Exponent=  1.6718000000D+00 Coefficients=  2.0940000000D-01
 S 1 1.00
     Exponent=  6.4662000000D-01 Coefficients=  1.0000000000D+00
 S 1 1.00
     Exponent=  2.1669000000D-01 Coefficients=  1.0000000000D+00
 P 4 1.00
     Exponent=  6.0424000000D+01 Coefficients=  6.8949000000D-03
     Exponent=  1.3935000000D+01 Coefficients=  4.9005000000D-02
     Exponent=  4.1531000000D+00 Coefficients=  1.8255000000D-01
     Exponent=  1.4158000000D+00 Coefficients=  3.7633000000D-01
 P 1 1.00
     Exponent=  4.7549000000D-01 Coefficients=  1.0000000000D+00
 P 1 1.00
     Exponent=  1.4529000000D-01 Coefficients=  1.0000000000D+00
 D 1 1.00
     Exponent=  2.2000000000D+00 Coefficients=  1.0000000000D+00
 D 1 1.00
     Exponent=  6.5000000000D-01 Coefficients=  1.0000000000D+00
 F 1 1.00
     Exponent=  1.1000000000D+00 Coefficients=  1.0000000000D+00
 ****
 Ernie: Thresh=  0.10000D-02 Tol=  0.10000D-05 Strict=F.
 Ernie:  8 primitive shells out of 263 were deleted.
 There are   385 symmetry adapted cartesian basis functions of A   symmetry.
 There are   338 symmetry adapted basis functions of A   symmetry.
   338 basis functions,   566 primitive gaussians,   385 cartesian basis functions
    30 alpha electrons       30 beta electrons
       nuclear repulsion energy       356.8539014902 Hartrees.
 IExCor=  402 DFT=T Ex=B Corr=LYP ExCW=0 ScaHFX=  0.000000
 ScaDFX=  1.000000  1.000000  1.000000  1.000000 ScalE2=  1.000000  1.000000
 IRadAn=      0 IRanWt=     -1 IRanGd=            0 ICorTp=0 IEmpDi=  4
 NAtoms=   15 NActive=   15 NUniq=   15 SFac= 1.00D+00 NAtFMM=   60 NAOKFM=F Big=F
 Integral buffers will be    131072 words long.
 Raffenetti 2 integral format.
 Two-electron integral symmetry is turned on.
 Leave Link  301 at Fri Aug 27 00:16:00 2021, MaxMem= 17179869184 cpu:         1.8
 (Enter /public3/home/sc51754/softwares/g09e01/l302.exe)
 NPDir=0 NMtPBC=     1 NCelOv=     1 NCel=       1 NClECP=     1 NCelD=      1
         NCelK=      1 NCelE2=     1 NClLst=     1 CellRange=     0.0.
 One-electron integrals computed using PRISM.
 NBasis=   338 RedAO= T EigKep=  1.57D-04  NBF=   338
 NBsUse=   338 1.00D-06 EigRej= -1.00D+00 NBFU=   338
 Precomputing XC quadrature grid using
 IXCGrd= 4 IRadAn=           0 IRanWt=          -1 IRanGd=           0 AccXCQ= 0.00D+00.
 Generated NRdTot=       0 NPtTot=           0 NUsed=           0 NTot=          32
 NSgBfM=   385   385   385   385   385 MxSgAt=    15 MxSgA2=    15.
 Leave Link  302 at Fri Aug 27 00:16:00 2021, MaxMem= 17179869184 cpu:        44.5
 (Enter /public3/home/sc51754/softwares/g09e01/l303.exe)
 DipDrv:  MaxL=1.
 Leave Link  303 at Fri Aug 27 00:16:01 2021, MaxMem= 17179869184 cpu:         8.6
 (Enter /public3/home/sc51754/softwares/g09e01/l401.exe)
 ExpMin= 7.41D-02 ExpMax= 1.48D+04 ExpMxC= 5.05D+02 IAcc=2 IRadAn=         4 AccDes= 0.00D+00
 Harris functional with IExCor=  402 and IRadAn=       4 diagonalized for initial guess.
 HarFok:  IExCor=  402 AccDes= 0.00D+00 IRadAn=         4 IDoV= 1 UseB2=F ITyADJ=14
 ICtDFT=  3500011 ScaDFX=  1.000000  1.000000  1.000000  1.000000
 FoFCou: FMM=F IPFlag=           0 FMFlag=      100000 FMFlg1=           0
         NFxFlg=           0 DoJE=T BraDBF=F KetDBF=T FulRan=T
         wScrn=  0.000000 ICntrl=     500 IOpCl=  0 I1Cent=   200000004 NGrid=           0
         NMat0=    1 NMatS0=      1 NMatT0=    0 NMatD0=    1 NMtDS0=    0 NMtDT0=    0
 Petite list used in FoFCou.
 Harris En= -400.202621339576    
 JPrj=0 DoOrth=F DoCkMO=F.
 Leave Link  401 at Fri Aug 27 00:16:02 2021, MaxMem= 17179869184 cpu:        58.3
 (Enter /public3/home/sc51754/softwares/g09e01/l502.exe)
 Closed shell SCF:
 Using DIIS extrapolation, IDIIS=  1040.
 Integral symmetry usage will be decided dynamically.
 Keep J ints in memory in canonical form, NReq=1670404686.
 IVT=      490665 IEndB=      490665 NGot= 17179869184 MDV= 15538220534
 LenX= 15538220534 LenY= 15538071868
 Requested convergence on RMS density matrix=1.00D-08 within 128 cycles.
 Requested convergence on MAX density matrix=1.00D-06.
 Requested convergence on             energy=1.00D-06.
 No special actions if energy rises.
 FoFCou: FMM=F IPFlag=           0 FMFlag=           0 FMFlg1=           0
         NFxFlg=           0 DoJE=F BraDBF=F KetDBF=F FulRan=T
         wScrn=  0.000000 ICntrl=     600 IOpCl=  0 I1Cent=           0 NGrid=           0
         NMat0=    1 NMatS0=  57291 NMatT0=    0 NMatD0=    1 NMtDS0=    0 NMtDT0=    0
 Symmetry not used in FoFCou.
 Integral accuracy reduced to 1.0D-05 until final iterations.

 Cycle   1  Pass 0  IDiag  1:
 E= -399.759546197131    
 DIIS: error= 2.82D-02 at cycle   1 NSaved=   1.
 NSaved= 1 IEnMin= 1 EnMin= -399.759546197131     IErMin= 1 ErrMin= 2.82D-02
 ErrMax= 2.82D-02  0.00D+00 EMaxC= 1.00D-01 BMatC= 3.21D-01 BMatP= 3.21D-01
 IDIUse=3 WtCom= 7.18D-01 WtEn= 2.82D-01
 Coeff-Com:  0.100D+01
 Coeff-En:   0.100D+01
 Coeff:      0.100D+01
 Gap=     0.093 Goal=   None    Shift=    0.000
 GapD=    0.093 DampG=0.500 DampE=0.500 DampFc=0.2500 IDamp=-1.
 Damping current iteration by 2.50D-01
 RMSDP=4.97D-03 MaxDP=1.92D-01              OVMax= 4.85D-01

 Cycle   2  Pass 0  IDiag  1:
 E= -399.841111477076     Delta-E=       -0.081565279945 Rises=F Damp=T
 DIIS: error= 1.07D-02 at cycle   2 NSaved=   2.
 NSaved= 2 IEnMin= 2 EnMin= -399.841111477076     IErMin= 2 ErrMin= 1.07D-02
 ErrMax= 1.07D-02  0.00D+00 EMaxC= 1.00D-01 BMatC= 3.62D-02 BMatP= 3.21D-01
 IDIUse=3 WtCom= 8.93D-01 WtEn= 1.07D-01
 Coeff-Com: -0.237D+00 0.124D+01
 Coeff-En:   0.135D+00 0.865D+00
 Coeff:     -0.197D+00 0.120D+01
 Gap=     0.172 Goal=   None    Shift=    0.000
 RMSDP=1.19D-03 MaxDP=4.90D-02 DE=-8.16D-02 OVMax= 4.58D-01

 Cycle   3  Pass 0  IDiag  1:
 E= -399.928949169019     Delta-E=       -0.087837691943 Rises=F Damp=F
 DIIS: error= 1.96D-02 at cycle   3 NSaved=   3.
 NSaved= 3 IEnMin= 3 EnMin= -399.928949169019     IErMin= 2 ErrMin= 1.07D-02
 ErrMax= 1.96D-02  0.00D+00 EMaxC= 1.00D-01 BMatC= 1.05D-01 BMatP= 3.62D-02
 IDIUse=2 WtCom= 0.00D+00 WtEn= 1.00D+00
 EnCoef did     6 forward-backward iterations
 Coeff-En:   0.302D-01 0.139D+00 0.831D+00
 Coeff:      0.302D-01 0.139D+00 0.831D+00
 Gap=     0.090 Goal=   None    Shift=    0.000
 RMSDP=3.79D-03 MaxDP=1.97D-01 DE=-8.78D-02 OVMax= 9.18D-01

 Cycle   4  Pass 0  IDiag  1:
 E= -397.095186052912     Delta-E=        2.833763116106 Rises=F Damp=F
 DIIS: error= 9.84D-02 at cycle   4 NSaved=   4.
 NSaved= 4 IEnMin= 3 EnMin= -399.928949169019     IErMin= 2 ErrMin= 1.07D-02
 ErrMax= 9.84D-02  0.00D+00 EMaxC= 1.00D-01 BMatC= 2.08D+00 BMatP= 3.62D-02
 IDIUse=2 WtCom= 0.00D+00 WtEn= 1.00D+00
 EnCoef did     1 forward-backward iterations
 Coeff-En:   0.223D-01 0.000D+00 0.908D+00 0.699D-01
 Coeff:      0.223D-01 0.000D+00 0.908D+00 0.699D-01
 Gap=    -0.064 Goal=   None    Shift=    0.000
 RMSDP=3.35D-03 MaxDP=1.47D-01 DE= 2.83D+00 OVMax= 9.96D-01

 Cycle   5  Pass 0  IDiag  1:
 E= -399.725262862676     Delta-E=       -2.630076809764 Rises=F Damp=F
 DIIS: error= 3.89D-02 at cycle   5 NSaved=   5.
 NSaved= 5 IEnMin= 3 EnMin= -399.928949169019     IErMin= 2 ErrMin= 1.07D-02
 ErrMax= 3.89D-02  0.00D+00 EMaxC= 1.00D-01 BMatC= 3.46D-01 BMatP= 3.62D-02
 IDIUse=2 WtCom= 0.00D+00 WtEn= 1.00D+00
 Coeff-En:   0.000D+00 0.000D+00 0.684D+00 0.000D+00 0.316D+00
 Coeff:      0.000D+00 0.000D+00 0.684D+00 0.000D+00 0.316D+00
 Gap=     0.109 Goal=   None    Shift=    0.000
 RMSDP=1.05D-03 MaxDP=6.42D-02 DE=-2.63D+00 OVMax= 2.75D-01

 Cycle   6  Pass 0  IDiag  1:
 E= -400.008441389935     Delta-E=       -0.283178527260 Rises=F Damp=F
 DIIS: error= 8.01D-03 at cycle   6 NSaved=   6.
 NSaved= 6 IEnMin= 6 EnMin= -400.008441389935     IErMin= 6 ErrMin= 8.01D-03
 ErrMax= 8.01D-03  0.00D+00 EMaxC= 1.00D-01 BMatC= 1.93D-02 BMatP= 3.62D-02
 IDIUse=3 WtCom= 9.20D-01 WtEn= 8.01D-02
 Coeff-Com: -0.606D-01 0.236D+00 0.368D+00-0.862D-02 0.118D+00 0.347D+00
 Coeff-En:   0.000D+00 0.000D+00 0.206D+00 0.000D+00 0.000D+00 0.794D+00
 Coeff:     -0.558D-01 0.217D+00 0.355D+00-0.793D-02 0.108D+00 0.383D+00
 Gap=     0.146 Goal=   None    Shift=    0.000
 RMSDP=3.93D-04 MaxDP=1.95D-02 DE=-2.83D-01 OVMax= 9.10D-02

 Cycle   7  Pass 0  IDiag  1:
 E= -400.026239363790     Delta-E=       -0.017797973854 Rises=F Damp=F
 DIIS: error= 3.15D-03 at cycle   7 NSaved=   7.
 NSaved= 7 IEnMin= 7 EnMin= -400.026239363790     IErMin= 7 ErrMin= 3.15D-03
 ErrMax= 3.15D-03  0.00D+00 EMaxC= 1.00D-01 BMatC= 2.00D-03 BMatP= 1.93D-02
 IDIUse=3 WtCom= 9.69D-01 WtEn= 3.15D-02
 Coeff-Com: -0.370D-01 0.790D-01 0.108D+00-0.971D-03-0.141D-01 0.289D+00
 Coeff-Com:  0.576D+00
 Coeff-En:   0.000D+00 0.000D+00 0.000D+00 0.000D+00 0.000D+00 0.552D-01
 Coeff-En:   0.945D+00
 Coeff:     -0.358D-01 0.765D-01 0.105D+00-0.940D-03-0.136D-01 0.282D+00
 Coeff:      0.587D+00
 Gap=     0.123 Goal=   None    Shift=    0.000
 RMSDP=1.30D-04 MaxDP=5.90D-03 DE=-1.78D-02 OVMax= 3.22D-02

 Cycle   8  Pass 0  IDiag  1:
 E= -400.028013645833     Delta-E=       -0.001774282043 Rises=F Damp=F
 DIIS: error= 1.19D-03 at cycle   8 NSaved=   8.
 NSaved= 8 IEnMin= 8 EnMin= -400.028013645833     IErMin= 8 ErrMin= 1.19D-03
 ErrMax= 1.19D-03  0.00D+00 EMaxC= 1.00D-01 BMatC= 3.22D-04 BMatP= 2.00D-03
 IDIUse=3 WtCom= 9.88D-01 WtEn= 1.19D-02
 Coeff-Com: -0.238D-01 0.449D-01 0.450D-01-0.410D-03-0.195D-01 0.168D+00
 Coeff-Com:  0.418D+00 0.368D+00
 Coeff-En:   0.000D+00 0.000D+00 0.000D+00 0.000D+00 0.000D+00 0.000D+00
 Coeff-En:   0.149D+00 0.851D+00
 Coeff:     -0.235D-01 0.444D-01 0.445D-01-0.405D-03-0.193D-01 0.166D+00
 Coeff:      0.415D+00 0.373D+00
 Gap=     0.124 Goal=   None    Shift=    0.000
 RMSDP=4.08D-05 MaxDP=2.40D-03 DE=-1.77D-03 OVMax= 7.55D-03

 Cycle   9  Pass 0  IDiag  1:
 E= -400.028341501433     Delta-E=       -0.000327855600 Rises=F Damp=F
 DIIS: error= 1.30D-04 at cycle   9 NSaved=   9.
 NSaved= 9 IEnMin= 9 EnMin= -400.028341501433     IErMin= 9 ErrMin= 1.30D-04
 ErrMax= 1.30D-04  0.00D+00 EMaxC= 1.00D-01 BMatC= 3.08D-06 BMatP= 3.22D-04
 IDIUse=3 WtCom= 9.99D-01 WtEn= 1.30D-03
 Coeff-Com: -0.624D-02 0.110D-01 0.116D-01-0.124D-03-0.529D-02 0.433D-01
 Coeff-Com:  0.119D+00 0.144D+00 0.683D+00
 Coeff-En:   0.000D+00 0.000D+00 0.000D+00 0.000D+00 0.000D+00 0.000D+00
 Coeff-En:   0.000D+00 0.000D+00 0.100D+01
 Coeff:     -0.624D-02 0.109D-01 0.116D-01-0.124D-03-0.528D-02 0.432D-01
 Coeff:      0.119D+00 0.144D+00 0.683D+00
 Gap=     0.123 Goal=   None    Shift=    0.000
 RMSDP=6.48D-06 MaxDP=4.06D-04 DE=-3.28D-04 OVMax= 1.21D-03

 Initial convergence to 1.0D-05 achieved.  Increase integral accuracy.
 Cycle  10  Pass 1  IDiag  1:
 E= -400.028387073976     Delta-E=       -0.000045572542 Rises=F Damp=F
 DIIS: error= 1.49D-04 at cycle   1 NSaved=   1.
 NSaved= 1 IEnMin= 1 EnMin= -400.028387073976     IErMin= 1 ErrMin= 1.49D-04
 ErrMax= 1.49D-04  0.00D+00 EMaxC= 1.00D-01 BMatC= 2.42D-06 BMatP= 2.42D-06
 IDIUse=3 WtCom= 9.99D-01 WtEn= 1.49D-03
 Coeff-Com:  0.100D+01
 Coeff-En:   0.100D+01
 Coeff:      0.100D+01
 Gap=     0.124 Goal=   None    Shift=    0.000
 RMSDP=6.48D-06 MaxDP=4.06D-04 DE=-4.56D-05 OVMax= 2.36D-03

 Cycle  11  Pass 1  IDiag  1:
 E= -400.028375692578     Delta-E=        0.000011381398 Rises=F Damp=F
 DIIS: error= 3.92D-04 at cycle   2 NSaved=   2.
 NSaved= 2 IEnMin= 1 EnMin= -400.028387073976     IErMin= 1 ErrMin= 1.49D-04
 ErrMax= 3.92D-04  0.00D+00 EMaxC= 1.00D-01 BMatC= 1.33D-05 BMatP= 2.42D-06
 IDIUse=3 WtCom= 3.36D-01 WtEn= 6.64D-01
 Coeff-Com:  0.706D+00 0.294D+00
 Coeff-En:   0.791D+00 0.209D+00
 Coeff:      0.763D+00 0.237D+00
 Gap=     0.123 Goal=   None    Shift=    0.000
 RMSDP=6.73D-06 MaxDP=4.76D-04 DE= 1.14D-05 OVMax= 1.45D-03

 Cycle  12  Pass 1  IDiag  1:
 E= -400.028389239043     Delta-E=       -0.000013546465 Rises=F Damp=F
 DIIS: error= 5.29D-05 at cycle   3 NSaved=   3.
 NSaved= 3 IEnMin= 3 EnMin= -400.028389239043     IErMin= 3 ErrMin= 5.29D-05
 ErrMax= 5.29D-05  0.00D+00 EMaxC= 1.00D-01 BMatC= 4.25D-07 BMatP= 2.42D-06
 IDIUse=1 WtCom= 1.00D+00 WtEn= 0.00D+00
 Coeff-Com:  0.339D+00 0.397D-01 0.621D+00
 Coeff:      0.339D+00 0.397D-01 0.621D+00
 Gap=     0.123 Goal=   None    Shift=    0.000
 RMSDP=1.58D-06 MaxDP=1.06D-04 DE=-1.35D-05 OVMax= 2.48D-04

 Cycle  13  Pass 1  IDiag  1:
 E= -400.028389626336     Delta-E=       -0.000000387294 Rises=F Damp=F
 DIIS: error= 1.02D-05 at cycle   4 NSaved=   4.
 NSaved= 4 IEnMin= 4 EnMin= -400.028389626336     IErMin= 4 ErrMin= 1.02D-05
 ErrMax= 1.02D-05  0.00D+00 EMaxC= 1.00D-01 BMatC= 3.64D-08 BMatP= 4.25D-07
 IDIUse=1 WtCom= 1.00D+00 WtEn= 0.00D+00
 Coeff-Com:  0.154D-01-0.607D-01 0.410D+00 0.636D+00
 Coeff:      0.154D-01-0.607D-01 0.410D+00 0.636D+00
 Gap=     0.123 Goal=   None    Shift=    0.000
 RMSDP=4.77D-07 MaxDP=3.47D-05 DE=-3.87D-07 OVMax= 1.05D-04

 Cycle  14  Pass 1  IDiag  1:
 E= -400.028389654859     Delta-E=       -0.000000028522 Rises=F Damp=F
 DIIS: error= 4.36D-06 at cycle   5 NSaved=   5.
 NSaved= 5 IEnMin= 5 EnMin= -400.028389654859     IErMin= 5 ErrMin= 4.36D-06
 ErrMax= 4.36D-06  0.00D+00 EMaxC= 1.00D-01 BMatC= 6.53D-09 BMatP= 3.64D-08
 IDIUse=1 WtCom= 1.00D+00 WtEn= 0.00D+00
 Coeff-Com: -0.263D-02-0.467D-01 0.277D+00 0.458D+00 0.314D+00
 Coeff:     -0.263D-02-0.467D-01 0.277D+00 0.458D+00 0.314D+00
 Gap=     0.123 Goal=   None    Shift=    0.000
 RMSDP=1.96D-07 MaxDP=1.18D-05 DE=-2.85D-08 OVMax= 4.70D-05

 Cycle  15  Pass 1  IDiag  1:
 E= -400.028389659932     Delta-E=       -0.000000005073 Rises=F Damp=F
 DIIS: error= 1.56D-06 at cycle   6 NSaved=   6.
 NSaved= 6 IEnMin= 6 EnMin= -400.028389659932     IErMin= 6 ErrMin= 1.56D-06
 ErrMax= 1.56D-06  0.00D+00 EMaxC= 1.00D-01 BMatC= 4.92D-10 BMatP= 6.53D-09
 IDIUse=1 WtCom= 1.00D+00 WtEn= 0.00D+00
 Coeff-Com: -0.297D-02-0.247D-01 0.142D+00 0.240D+00 0.235D+00 0.411D+00
 Coeff:     -0.297D-02-0.247D-01 0.142D+00 0.240D+00 0.235D+00 0.411D+00
 Gap=     0.123 Goal=   None    Shift=    0.000
 RMSDP=6.63D-08 MaxDP=3.58D-06 DE=-5.07D-09 OVMax= 1.39D-05

 Cycle  16  Pass 1  IDiag  1:
 E= -400.028389660389     Delta-E=       -0.000000000457 Rises=F Damp=F
 DIIS: error= 2.91D-07 at cycle   7 NSaved=   7.
 NSaved= 7 IEnMin= 7 EnMin= -400.028389660389     IErMin= 7 ErrMin= 2.91D-07
 ErrMax= 2.91D-07  0.00D+00 EMaxC= 1.00D-01 BMatC= 2.91D-11 BMatP= 4.92D-10
 IDIUse=1 WtCom= 1.00D+00 WtEn= 0.00D+00
 Coeff-Com: -0.174D-02-0.115D-01 0.655D-01 0.111D+00 0.122D+00 0.257D+00
 Coeff-Com:  0.459D+00
 Coeff:     -0.174D-02-0.115D-01 0.655D-01 0.111D+00 0.122D+00 0.257D+00
 Coeff:      0.459D+00
 Gap=     0.123 Goal=   None    Shift=    0.000
 RMSDP=1.32D-08 MaxDP=6.58D-07 DE=-4.57D-10 OVMax= 1.43D-06

 Cycle  17  Pass 1  IDiag  1:
 E= -400.028389660405     Delta-E=       -0.000000000016 Rises=F Damp=F
 DIIS: error= 7.50D-08 at cycle   8 NSaved=   8.
 NSaved= 8 IEnMin= 8 EnMin= -400.028389660405     IErMin= 8 ErrMin= 7.50D-08
 ErrMax= 7.50D-08  0.00D+00 EMaxC= 1.00D-01 BMatC= 1.70D-12 BMatP= 2.91D-11
 IDIUse=1 WtCom= 1.00D+00 WtEn= 0.00D+00
 Coeff-Com: -0.561D-03-0.355D-02 0.205D-01 0.348D-01 0.406D-01 0.975D-01
 Coeff-Com:  0.243D+00 0.568D+00
 Coeff:     -0.561D-03-0.355D-02 0.205D-01 0.348D-01 0.406D-01 0.975D-01
 Coeff:      0.243D+00 0.568D+00
 Gap=     0.123 Goal=   None    Shift=    0.000
 RMSDP=4.20D-09 MaxDP=2.15D-07 DE=-1.58D-11 OVMax= 8.79D-07

 SCF Done:  E(RB-LYP) =  -400.028389660     A.U. after   17 cycles
            NFock= 17  Conv=0.42D-08     -V/T= 2.0023
 KE= 3.990981464449D+02 PE=-1.650151193727D+03 EE= 4.941707561310D+02
 Leave Link  502 at Fri Aug 27 00:16:28 2021, MaxMem= 17179869184 cpu:       338.7
 (Enter /public3/home/sc51754/softwares/g09e01/l601.exe)
 Copying SCF densities to generalized density rwf, IOpCl= 0 IROHF=0.

 **********************************************************************

            Population analysis using the SCF density.

 **********************************************************************

 Orbital symmetries:
       Occupied  (A) (A) (A) (A) (A) (A) (A) (A) (A) (A) (A) (A)
                 (A) (A) (A) (A) (A) (A) (A) (A) (A) (A) (A) (A)
                 (A) (A) (A) (A) (A) (A)
       Virtual   (A) (A) (A) (A) (A) (A) (A) (A) (A) (A) (A) (A)
                 (A) (A) (A) (A) (A) (A) (A) (A) (A) (A) (A) (A)
                 (A) (A) (A) (A) (A) (A) (A) (A) (A) (A) (A) (A)
                 (A) (A) (A) (A) (A) (A) (A) (A) (A) (A) (A) (A)
                 (A) (A) (A) (A) (A) (A) (A) (A) (A) (A) (A) (A)
                 (A) (A) (A) (A) (A) (A) (A) (A) (A) (A) (A) (A)
                 (A) (A) (A) (A) (A) (A) (A) (A) (A) (A) (A) (A)
                 (A) (A) (A) (A) (A) (A) (A) (A) (A) (A) (A) (A)
                 (A) (A) (A) (A) (A) (A) (A) (A) (A) (A) (A) (A)
                 (A) (A) (A) (A) (A) (A) (A) (A) (A) (A) (A) (A)
                 (A) (A) (A) (A) (A) (A) (A) (A) (A) (A) (A) (A)
                 (A) (A) (A) (A) (A) (A) (A) (A) (A) (A) (A) (A)
                 (A) (A) (A) (A) (A) (A) (A) (A) (A) (A) (A) (A)
                 (A) (A) (A) (A) (A) (A) (A) (A) (A) (A) (A) (A)
                 (A) (A) (A) (A) (A) (A) (A) (A) (A) (A) (A) (A)
                 (A) (A) (A) (A) (A) (A) (A) (A) (A) (A) (A) (A)
                 (A) (A) (A) (A) (A) (A) (A) (A) (A) (A) (A) (A)
                 (A) (A) (A) (A) (A) (A) (A) (A) (A) (A) (A) (A)
                 (A) (A) (A) (A) (A) (A) (A) (A) (A) (A) (A) (A)
                 (A) (A) (A) (A) (A) (A) (A) (A) (A) (A) (A) (A)
                 (A) (A) (A) (A) (A) (A) (A) (A) (A) (A) (A) (A)
                 (A) (A) (A) (A) (A) (A) (A) (A) (A) (A) (A) (A)
                 (A) (A) (A) (A) (A) (A) (A) (A) (A) (A) (A) (A)
                 (A) (A) (A) (A) (A) (A) (A) (A) (A) (A) (A) (A)
                 (A) (A) (A) (A) (A) (A) (A) (A) (A) (A) (A) (A)
                 (A) (A) (A) (A) (A) (A) (A) (A)
 The electronic state is 1-A.
 Alpha  occ. eigenvalues --  -18.76109 -18.73827 -14.06250 -10.00879  -9.97246
 Alpha  occ. eigenvalues --   -9.93745  -9.92364  -9.92056  -0.94879  -0.90421
 Alpha  occ. eigenvalues --   -0.87510  -0.74628  -0.68947  -0.59429  -0.57900
 Alpha  occ. eigenvalues --   -0.50990  -0.47283  -0.45640  -0.43471  -0.41711
 Alpha  occ. eigenvalues --   -0.39775  -0.38447  -0.34861  -0.33879  -0.32178
 Alpha  occ. eigenvalues --   -0.31020  -0.27948  -0.25449  -0.21950  -0.20121
 Alpha virt. eigenvalues --   -0.07778  -0.03117  -0.00795   0.00627   0.02048
 Alpha virt. eigenvalues --    0.03783   0.05904   0.07997   0.08029   0.09780
 Alpha virt. eigenvalues --    0.11560   0.12598   0.14022   0.15563   0.16126
 Alpha virt. eigenvalues --    0.16525   0.17787   0.18399   0.19847   0.22213
 Alpha virt. eigenvalues --    0.23459   0.23682   0.24306   0.24860   0.25341
 Alpha virt. eigenvalues --    0.26892   0.27268   0.28247   0.30116   0.30526
 Alpha virt. eigenvalues --    0.31274   0.31756   0.33606   0.35567   0.36416
 Alpha virt. eigenvalues --    0.37845   0.39108   0.41262   0.42113   0.44929
 Alpha virt. eigenvalues --    0.46392   0.47598   0.49092   0.50489   0.52443
 Alpha virt. eigenvalues --    0.52936   0.56546   0.57667   0.59166   0.59655
 Alpha virt. eigenvalues --    0.61940   0.63797   0.66953   0.70242   0.71592
 Alpha virt. eigenvalues --    0.71958   0.74292   0.76730   0.77791   0.80309
 Alpha virt. eigenvalues --    0.82527   0.84851   0.87347   0.87930   0.88299
 Alpha virt. eigenvalues --    0.90128   0.92612   0.94468   0.96648   0.99534
 Alpha virt. eigenvalues --    1.01267   1.02803   1.04788   1.05481   1.07641
 Alpha virt. eigenvalues --    1.08968   1.09831   1.11898   1.12384   1.12844
 Alpha virt. eigenvalues --    1.15225   1.16815   1.17929   1.18358   1.19786
 Alpha virt. eigenvalues --    1.21242   1.22509   1.26347   1.27551   1.32525
 Alpha virt. eigenvalues --    1.33912   1.34746   1.36346   1.39059   1.40261
 Alpha virt. eigenvalues --    1.41753   1.42540   1.43073   1.43898   1.47809
 Alpha virt. eigenvalues --    1.50743   1.52655   1.55320   1.59013   1.59281
 Alpha virt. eigenvalues --    1.60482   1.62716   1.63225   1.66883   1.67157
 Alpha virt. eigenvalues --    1.72147   1.72809   1.74924   1.79153   1.79865
 Alpha virt. eigenvalues --    1.81850   1.82532   1.83937   1.86565   1.90126
 Alpha virt. eigenvalues --    1.93515   1.93926   1.95386   1.98834   1.99417
 Alpha virt. eigenvalues --    2.02472   2.04599   2.07312   2.08769   2.13321
 Alpha virt. eigenvalues --    2.13584   2.14337   2.16638   2.19716   2.22676
 Alpha virt. eigenvalues --    2.24376   2.32625   2.40385   2.44080   2.54101
 Alpha virt. eigenvalues --    2.59877   2.78280   2.80217   2.83294   2.85682
 Alpha virt. eigenvalues --    2.86682   2.91963   3.08826   3.09343   3.12391
 Alpha virt. eigenvalues --    3.14132   3.16340   3.16373   3.20030   3.23275
 Alpha virt. eigenvalues --    3.23862   3.26829   3.30140   3.32715   3.34137
 Alpha virt. eigenvalues --    3.36564   3.38832   3.42039   3.45962   3.46691
 Alpha virt. eigenvalues --    3.48571   3.50490   3.54494   3.55558   3.57709
 Alpha virt. eigenvalues --    3.58952   3.59501   3.62856   3.63112   3.67361
 Alpha virt. eigenvalues --    3.70699   3.74949   3.77813   3.81026   3.81325
 Alpha virt. eigenvalues --    3.84244   3.85818   3.86856   3.88171   3.90982
 Alpha virt. eigenvalues --    3.93879   3.95068   3.96862   3.98699   3.99416
 Alpha virt. eigenvalues --    4.00535   4.01660   4.04598   4.05167   4.06887
 Alpha virt. eigenvalues --    4.08487   4.09294   4.11864   4.12632   4.13879
 Alpha virt. eigenvalues --    4.15597   4.16188   4.18018   4.18491   4.20260
 Alpha virt. eigenvalues --    4.20809   4.23188   4.23622   4.25084   4.25528
 Alpha virt. eigenvalues --    4.26961   4.28637   4.31561   4.32780   4.35268
 Alpha virt. eigenvalues --    4.36665   4.37961   4.38627   4.39647   4.40673
 Alpha virt. eigenvalues --    4.42414   4.43356   4.45930   4.46579   4.49451
 Alpha virt. eigenvalues --    4.50567   4.50730   4.54537   4.54918   4.57895
 Alpha virt. eigenvalues --    4.60387   4.61701   4.64789   4.69240   4.73841
 Alpha virt. eigenvalues --    4.75840   4.77353   4.78923   4.80323   4.82614
 Alpha virt. eigenvalues --    4.83736   4.86619   4.86893   4.88073   4.89598
 Alpha virt. eigenvalues --    4.93894   4.97527   5.00676   5.04848   5.09496
 Alpha virt. eigenvalues --    5.10782   5.15465   5.16983   5.22465   5.22486
 Alpha virt. eigenvalues --    5.24873   5.25765   5.29232   5.31486   5.33379
 Alpha virt. eigenvalues --    5.37593   5.38458   5.45279   5.47588   5.48977
 Alpha virt. eigenvalues --    5.50077   5.54833   5.58429   5.62126   5.63268
 Alpha virt. eigenvalues --    5.66114   5.71364   5.75852   5.81600   5.86416
 Alpha virt. eigenvalues --    5.87124   5.87384   5.93786   5.98815   5.99529
 Alpha virt. eigenvalues --    6.01796   6.03163   6.10804   6.13845   6.16604
 Alpha virt. eigenvalues --    6.18937   6.22869   6.26531   6.32295   6.40244
 Alpha virt. eigenvalues --    6.40717   6.42505   6.50813   6.67363   6.77918
 Alpha virt. eigenvalues --    6.83757   6.87927   6.99544   7.13531   7.30046
 Alpha virt. eigenvalues --    9.40273  12.18211  13.04233  14.57392  15.24582
 Alpha virt. eigenvalues --   17.79799  18.14484  22.51387
          Condensed to atoms (all electrons):
               1          2          3          4          5          6
     1  O    8.114094  -0.114579   0.547423  -0.084542   0.009715   0.008014
     2  N   -0.114579   6.407721   0.330640  -0.047958   0.379706  -0.018534
     3  C    0.547423   0.330640   4.466543   0.437656  -0.035344  -0.042779
     4  C   -0.084542  -0.047958   0.437656   4.991862  -0.042031   0.508287
     5  C    0.009715   0.379706  -0.035344  -0.042031   4.701614  -0.074035
     6  C    0.008014  -0.018534  -0.042779   0.508287  -0.074035   4.824311
     7  C    0.001123  -0.064395  -0.027619  -0.066359   0.566572   0.435562
     8  H    0.044886   0.002521  -0.005039   0.000808   0.002754  -0.000335
     9  H    0.007910   0.008031  -0.050021   0.438271  -0.000821  -0.041346
    10  H   -0.001006  -0.038516   0.003065  -0.003461   0.431375   0.009979
    11  H   -0.000657  -0.002698   0.009329  -0.039991   0.010845   0.425003
    12  H    0.000034   0.006733  -0.001387   0.008553  -0.038409  -0.043024
    13  O   -0.039784  -0.034147   0.000914   0.000417  -0.006722   0.000057
    14  H    0.004187   0.000509   0.001052   0.000149   0.000081  -0.000019
    15  H    0.001633   0.380518  -0.029548   0.009014  -0.033323  -0.002899
               7          8          9         10         11         12
     1  O    0.001123   0.044886   0.007910  -0.001006  -0.000657   0.000034
     2  N   -0.064395   0.002521   0.008031  -0.038516  -0.002698   0.006733
     3  C   -0.027619  -0.005039  -0.050021   0.003065   0.009329  -0.001387
     4  C   -0.066359   0.000808   0.438271  -0.003461  -0.039991   0.008553
     5  C    0.566572   0.002754  -0.000821   0.431375   0.010845  -0.038409
     6  C    0.435562  -0.000335  -0.041346   0.009979   0.425003  -0.043024
     7  C    4.906612  -0.000110   0.009276  -0.048135  -0.049184   0.435850
     8  H   -0.000110   0.424183   0.000108   0.000220   0.000010  -0.000023
     9  H    0.009276   0.000108   0.581759   0.000399  -0.011537   0.000007
    10  H   -0.048135   0.000220   0.000399   0.607410  -0.000524  -0.006102
    11  H   -0.049184   0.000010  -0.011537  -0.000524   0.610156  -0.008861
    12  H    0.435850  -0.000023   0.000007  -0.006102  -0.008861   0.593331
    13  O   -0.000117   0.339134   0.000061  -0.000921  -0.000006   0.000031
    14  H    0.000039  -0.022978  -0.000012  -0.000083   0.000001   0.000000
    15  H    0.006852  -0.013698  -0.000557  -0.012181   0.000242   0.000128
              13         14         15
     1  O   -0.039784   0.004187   0.001633
     2  N   -0.034147   0.000509   0.380518
     3  C    0.000914   0.001052  -0.029548
     4  C    0.000417   0.000149   0.009014
     5  C   -0.006722   0.000081  -0.033323
     6  C    0.000057  -0.000019  -0.002899
     7  C   -0.000117   0.000039   0.006852
     8  H    0.339134  -0.022978  -0.013698
     9  H    0.000061  -0.000012  -0.000557
    10  H   -0.000921  -0.000083  -0.012181
    11  H   -0.000006   0.000001   0.000242
    12  H    0.000031   0.000000   0.000128
    13  O    7.766724   0.343554   0.066787
    14  H    0.343554   0.483172  -0.004418
    15  H    0.066787  -0.004418   0.469997
 Mulliken charges:
               1
     1  O   -0.498454
     2  N   -0.195551
     3  C    0.395114
     4  C   -0.110676
     5  C    0.128024
     6  C    0.011758
     7  C   -0.105967
     8  H    0.227558
     9  H    0.058472
    10  H    0.058480
    11  H    0.057871
    12  H    0.053137
    13  O   -0.435983
    14  H    0.194765
    15  H    0.161452
 Sum of Mulliken charges =  -0.00000
 Mulliken charges with hydrogens summed into heavy atoms:
               1
     1  O   -0.498454
     2  N   -0.034098
     3  C    0.395114
     4  C   -0.052204
     5  C    0.186504
     6  C    0.069629
     7  C   -0.052830
    13  O   -0.013660
 Electronic spatial extent (au):  <R**2>=           1081.7002
 Charge=             -0.0000 electrons
 Dipole moment (field-independent basis, Debye):
    X=             -2.3774    Y=             -2.1128    Z=              1.0969  Tot=              3.3644
 Quadrupole moment (field-independent basis, Debye-Ang):
   XX=            -42.5513   YY=            -46.5360   ZZ=            -50.0088
   XY=             -1.9960   XZ=              4.6811   YZ=             -0.8642
 Traceless Quadrupole moment (field-independent basis, Debye-Ang):
   XX=              3.8141   YY=             -0.1706   ZZ=             -3.6434
   XY=             -1.9960   XZ=              4.6811   YZ=             -0.8642
 Octapole moment (field-independent basis, Debye-Ang**2):
  XXX=             24.0742  YYY=            -11.3968  ZZZ=              0.7236  XYY=             -6.1264
  XXY=              0.3194  XXZ=             18.4543  XZZ=             11.0011  YZZ=              0.6739
  YYZ=              0.5973  XYZ=             -3.2491
 Hexadecapole moment (field-independent basis, Debye-Ang**3):
 XXXX=           -792.5933 YYYY=           -360.2878 ZZZZ=            -55.7332 XXXY=             -3.9588
 XXXZ=             74.7253 YYYX=            -12.8143 YYYZ=             -0.8457 ZZZX=              3.5487
 ZZZY=             -0.5454 XXYY=           -224.2340 XXZZ=           -177.9808 YYZZ=            -78.5921
 XXYZ=            -12.5023 YYXZ=              2.7780 ZZXY=             -2.0473
 N-N= 3.568539014902D+02 E-N=-1.650151189486D+03  KE= 3.990981464449D+02
 No NMR shielding tensors so no spin-rotation constants.
 Leave Link  601 at Fri Aug 27 00:16:29 2021, MaxMem= 17179869184 cpu:        49.7
 (Enter /public3/home/sc51754/softwares/g09e01/l701.exe)
 Compute integral first derivatives.
 ... and contract with generalized density number  0.
 Leave Link  701 at Fri Aug 27 00:16:30 2021, MaxMem= 17179869184 cpu:        71.8
 (Enter /public3/home/sc51754/softwares/g09e01/l702.exe)
 L702 exits ... SP integral derivatives will be done elsewhere.
 Leave Link  702 at Fri Aug 27 00:16:30 2021, MaxMem= 17179869184 cpu:         0.3
 (Enter /public3/home/sc51754/softwares/g09e01/l703.exe)
 Compute integral first derivatives, UseDBF=F ICtDFT=           0.
 Integral derivatives from FoFJK, PRISM(SPDF).
 Calling FoFJK, ICntrl=      2527 FMM=F ISym2X=0 I1Cent= 0 IOpClX= 0 NMat=1 NMatS=1 NMatT=0.
 FoFJK:  IHMeth= 1 ICntrl=    2527 DoSepK=F KAlg= 0 I1Cent=   0 FoldK=F
 IRaf=         0 NMat=   1 IRICut=       1 DoRegI=T DoRafI=F ISym2E= 0.
 FoFCou: FMM=F IPFlag=           0 FMFlag=      100000 FMFlg1=         800
         NFxFlg=           0 DoJE=F BraDBF=F KetDBF=F FulRan=T
         wScrn=  0.000000 ICntrl=    2527 IOpCl=  0 I1Cent=           0 NGrid=           0
         NMat0=    1 NMatS0=      1 NMatT0=    0 NMatD0=    1 NMtDS0=    0 NMtDT0=    0
 Symmetry not used in FoFCou.
 Leave Link  703 at Fri Aug 27 00:16:33 2021, MaxMem= 17179869184 cpu:       181.0
 (Enter /public3/home/sc51754/softwares/g09e01/l716.exe)
 Dipole        =-9.35324419D-01-8.31256867D-01 4.31537499D-01
 ***** Axes restored to original set *****
 -------------------------------------------------------------------
 Center     Atomic                   Forces (Hartrees/Bohr)
 Number     Number              X              Y              Z
 -------------------------------------------------------------------
      1        8           0.016081787    0.011243923   -0.000036159
      2        7           0.000833336   -0.005118339   -0.000161658
      3        6          -0.008254640    0.001502917    0.000100306
      4        6           0.002173714    0.003978084    0.000008445
      5        6           0.001736769   -0.006963009    0.000085709
      6        6          -0.006407833   -0.001275650   -0.000017597
      7        6          -0.006285965    0.000920019   -0.000056387
      8        1          -0.003436945    0.008344788    0.000420266
      9        1          -0.000262636    0.004508102   -0.000015363
     10        1           0.000852585   -0.004589283   -0.000012687
     11        1          -0.004268789    0.001721619   -0.000033595
     12        1          -0.003705826   -0.002644310   -0.000016906
     13        8          -0.002635748   -0.008727905   -0.006612689
     14        1           0.007013972   -0.000075781    0.006116793
     15        1           0.006566221   -0.002825174    0.000231523
 -------------------------------------------------------------------
 Cartesian Forces:  Max     0.016081787 RMS     0.004871282
 Leave Link  716 at Fri Aug 27 00:16:34 2021, MaxMem= 17179869184 cpu:         0.4
 (Enter /public3/home/sc51754/softwares/g09e01/l103.exe)

 GradGradGradGradGradGradGradGradGradGradGradGradGradGradGradGradGradGrad
 Berny optimization.
 FormGI is forming the generalized inverse of G from B-inverse, IUseBI=4.
 Internal  Forces:  Max     0.018715036 RMS     0.004375580
 Search for a local minimum.
 Step number   1 out of a maximum of   83
 All quantities printed in internal units (Hartrees-Bohrs-Radians)
 RMS Force = .43756D-02 SwitMx=.10000D-02 MixMth= 1
 Mixed Optimization -- RFO/linear search
 Second derivative matrix not updated -- first step.
 ITU=  0
     Eigenvalues ---    0.00646   0.00900   0.01671   0.02019   0.02045
     Eigenvalues ---    0.02138   0.02190   0.02305   0.02392   0.02435
     Eigenvalues ---    0.02516   0.04986   0.06334   0.06909   0.09520
     Eigenvalues ---    0.16000   0.16000   0.16000   0.16000   0.19047
     Eigenvalues ---    0.20437   0.21968   0.22000   0.22256   0.23654
     Eigenvalues ---    0.35693   0.35983   0.36053   0.36229   0.38136
     Eigenvalues ---    0.40185   0.42590   0.44184   0.49041   0.49982
     Eigenvalues ---    0.52121   0.53321   0.55542   0.84771
 RFO step:  Lambda=-2.60855742D-03 EMin= 6.46442552D-03
 Linear search not attempted -- first point.
 Iteration  1 RMS(Cart)=  0.01521723 RMS(Int)=  0.00001196
 Iteration  2 RMS(Cart)=  0.00001268 RMS(Int)=  0.00000425
 Iteration  3 RMS(Cart)=  0.00000000 RMS(Int)=  0.00000425
 ITry= 1 IFail=0 DXMaxC= 4.69D-02 DCOld= 1.00D+10 DXMaxT= 3.00D-01 DXLimC= 3.00D+00 Rises=F
 Variable       Old X    -DE/DX   Delta X   Delta X   Delta X     New X
                                 (Linear)    (Quad)   (Total)
    R1        2.33752   0.01872   0.00000   0.02215   0.02215   2.35967
    R2        3.44231   0.00072   0.00000   0.01359   0.01359   3.45590
    R3        2.63700   0.01318   0.00000   0.03010   0.03011   2.66711
    R4        2.56181   0.01027   0.00000   0.01943   0.01943   2.58124
    R5        1.92716   0.00780   0.00000   0.01673   0.01673   1.94389
    R6        2.72061   0.00804   0.00000   0.02011   0.02011   2.74072
    R7        2.57451   0.01189   0.00000   0.02210   0.02210   2.59661
    R8        2.03999   0.00452   0.00000   0.01244   0.01244   2.05242
    R9        2.56943   0.01205   0.00000   0.02266   0.02266   2.59208
   R10        2.04108   0.00467   0.00000   0.01288   0.01288   2.05396
   R11        2.67927   0.00716   0.00000   0.01609   0.01609   2.69536
   R12        2.04565   0.00460   0.00000   0.01279   0.01279   2.05844
   R13        2.03725   0.00455   0.00000   0.01247   0.01247   2.04972
   R14        1.85494   0.01023   0.00000   0.01930   0.01929   1.87423
   R15        1.81354   0.00930   0.00000   0.01667   0.01667   1.83021
   R16        3.72662   0.00129   0.00000   0.01092   0.01092   3.73754
    A1        1.92766  -0.00282   0.00000  -0.00446  -0.00444   1.92322
    A2        2.17565  -0.00007   0.00000   0.00120   0.00121   2.17687
    A3        2.00244  -0.00076   0.00000  -0.00289  -0.00289   1.99955
    A4        2.10509   0.00083   0.00000   0.00168   0.00167   2.10677
    A5        2.09773  -0.00111   0.00000   0.00165   0.00165   2.09938
    A6        2.19333   0.00175   0.00000   0.00272   0.00271   2.19604
    A7        1.99213  -0.00064   0.00000  -0.00437  -0.00436   1.98777
    A8        2.11557   0.00084   0.00000   0.00337   0.00337   2.11894
    A9        2.03563  -0.00048   0.00000  -0.00207  -0.00207   2.03355
   A10        2.13199  -0.00036   0.00000  -0.00130  -0.00130   2.13069
   A11        2.10801  -0.00080   0.00000  -0.00170  -0.00170   2.10631
   A12        2.02357   0.00038   0.00000   0.00075   0.00075   2.02433
   A13        2.15160   0.00041   0.00000   0.00094   0.00094   2.15254
   A14        2.11704   0.00013   0.00000  -0.00074  -0.00075   2.11628
   A15        2.08601   0.00012   0.00000   0.00150   0.00151   2.08752
   A16        2.08014  -0.00025   0.00000  -0.00076  -0.00076   2.07938
   A17        2.05796   0.00054   0.00000   0.00224   0.00223   2.06019
   A18        2.10191  -0.00018   0.00000  -0.00056  -0.00056   2.10136
   A19        2.12331  -0.00036   0.00000  -0.00168  -0.00168   2.12164
   A20        2.65557   0.00135   0.00000   0.00124   0.00123   2.65680
   A21        1.86229  -0.00101   0.00000  -0.00001  -0.00001   1.86228
   A22        1.36782   0.00254   0.00000   0.00414   0.00413   1.37195
   A23        2.34644  -0.00026   0.00000  -0.00067  -0.00067   2.34577
   A24        2.50984   0.00083   0.00000   0.00027   0.00026   2.51011
    D1        0.03186  -0.00022   0.00000  -0.00106  -0.00106   0.03080
    D2       -3.10924  -0.00014   0.00000   0.00017   0.00017  -3.10906
    D3        0.03871  -0.00014   0.00000   0.00007   0.00007   0.03878
    D4       -3.13629   0.00005   0.00000   0.00036   0.00036  -3.13594
    D5        0.00485  -0.00002   0.00000  -0.00073  -0.00073   0.00412
    D6        0.00787   0.00001   0.00000   0.00147   0.00147   0.00934
    D7       -3.13417  -0.00006   0.00000   0.00038   0.00038  -3.13379
    D8       -0.00292  -0.00000   0.00000   0.00073   0.00073  -0.00219
    D9        3.13789  -0.00002   0.00000   0.00017   0.00017   3.13806
   D10        3.13597   0.00004   0.00000  -0.00045  -0.00046   3.13551
   D11       -0.00641   0.00002   0.00000  -0.00102  -0.00102  -0.00743
   D12       -0.10803   0.00017   0.00000  -0.00168  -0.00168  -0.10971
   D13        3.03601   0.00013   0.00000  -0.00061  -0.00061   3.03540
   D14        3.13723  -0.00005   0.00000  -0.00077  -0.00077   3.13646
   D15       -0.00200  -0.00005   0.00000  -0.00067  -0.00067  -0.00267
   D16       -0.00389   0.00003   0.00000   0.00039   0.00039  -0.00350
   D17        3.14007   0.00003   0.00000   0.00049   0.00049   3.14056
   D18        0.00117  -0.00002   0.00000  -0.00005  -0.00005   0.00111
   D19       -3.13978  -0.00000   0.00000   0.00012   0.00012  -3.13966
   D20        3.14027  -0.00002   0.00000  -0.00016  -0.00016   3.14010
   D21       -0.00068  -0.00000   0.00000   0.00001   0.00001  -0.00067
   D22       -0.00027   0.00001   0.00000  -0.00033  -0.00033  -0.00061
   D23        3.14059   0.00000   0.00000  -0.00026  -0.00026   3.14033
   D24       -3.14103   0.00003   0.00000   0.00027   0.00027  -3.14076
   D25       -0.00016   0.00002   0.00000   0.00034   0.00034   0.00018
   D26        0.00106   0.00000   0.00000   0.00002   0.00002   0.00108
   D27       -3.13980   0.00001   0.00000  -0.00005  -0.00005  -3.13985
   D28       -3.14118  -0.00001   0.00000  -0.00015  -0.00015  -3.14133
   D29        0.00115  -0.00000   0.00000  -0.00022  -0.00022   0.00093
   D30       -2.40197  -0.00015   0.00000  -0.00023  -0.00023  -2.40220
   D31       -0.07714   0.00014   0.00000  -0.00002  -0.00002  -0.07716
   D32        0.12809  -0.00027   0.00000   0.00089   0.00089   0.12898
   D33        1.90956   0.00075   0.00000   0.00484   0.00484   1.91439
         Item               Value     Threshold  Converged?
 Maximum Force            0.018715     0.000450     NO 
 RMS     Force            0.004376     0.000300     NO 
 Maximum Displacement     0.046864     0.001800     NO 
 RMS     Displacement     0.015215     0.001200     NO 
 Predicted change in Energy=-1.311283D-03
 Lowest energy point so far.  Saving SCF results.
 GradGradGradGradGradGradGradGradGradGradGradGradGradGradGradGradGradGrad

 Leave Link  103 at Fri Aug 27 00:16:35 2021, MaxMem= 17179869184 cpu:        69.3
 (Enter /public3/home/sc51754/softwares/g09e01/l202.exe)
                          Input orientation:                          
 ---------------------------------------------------------------------
 Center     Atomic      Atomic             Coordinates (Angstroms)
 Number     Number       Type             X           Y           Z
 ---------------------------------------------------------------------
      1          8           0        1.276561    1.404418    0.004563
      2          7           0        0.253388   -0.664840    0.011173
      3          6           0        0.215560    0.746017    0.005886
      4          6           0       -1.125766    1.297619    0.000375
      5          6           0       -0.847979   -1.472762    0.006660
      6          6           0       -2.234013    0.485322   -0.003620
      7          6           0       -2.110072   -0.935602   -0.001150
      8          1           0        2.717560    0.279364   -0.042577
      9          1           0       -1.204543    2.380849   -0.002806
     10          1           0       -0.654076   -2.542235    0.008329
     11          1           0       -3.227906    0.931049   -0.009547
     12          1           0       -2.981455   -1.581491   -0.005891
     13          8           0        3.124439   -0.624045   -0.086968
     14          1           0        3.858238   -0.630172    0.545096
     15          1           0        1.200017   -1.067224    0.022410
 ---------------------------------------------------------------------
                    Distance matrix (angstroms):
                    1          2          3          4          5
     1  O    0.000000
     2  N    2.308410   0.000000
     3  C    1.248686   1.411373   0.000000
     4  C    2.404703   2.398629   1.450328   0.000000
     5  C    3.576569   1.365931   2.460508   2.784280   0.000000
     6  C    3.628903   2.740484   2.463425   1.374064   2.399019
     7  C    4.116432   2.378951   2.869923   2.440519   1.371671
     8  H    1.828783   2.639423   2.545607   3.976159   3.973090
     9  H    2.666336   3.376682   2.165513   1.086096   3.870084
    10  H    4.393568   2.085213   3.401304   3.868725   1.086910
    11  H    4.529294   3.829712   3.448469   2.133885   3.382694
    12  H    5.200621   3.362253   3.954533   3.425331   2.136281
    13  O    2.745486   2.873018   3.216717   4.665261   4.063151
    14  H    3.331185   3.644341   3.931125   5.371536   4.811274
    15  H    2.472892   1.028663   2.063315   3.316962   2.087822
                    6          7          8          9         10
     6  C    0.000000
     7  C    1.426321   0.000000
     8  H    4.956008   4.978342   0.000000
     9  H    2.157042   3.437853   4.449799   0.000000
    10  H    3.415033   2.168245   4.396810   4.953776   0.000000
    11  H    1.089280   2.175777   5.981166   2.489170   4.323034
    12  H    2.197815   1.084667   5.995239   4.342530   2.517920
    13  O    5.472719   5.244477   0.991801   5.270347   4.238598
    14  H    6.217793   6.001033   1.572820   5.915928   4.930018
    15  H    3.768772   3.312789   2.029892   4.203779   2.369286
                   11         12         13         14         15
    11  H    0.000000
    12  H    2.524600   0.000000
    13  O    6.540382   6.181037   0.000000
    14  H    7.277258   6.927481   0.968506   0.000000
    15  H    4.858047   4.213072   1.977820   2.744149   0.000000
 Stoichiometry    C5H7NO2
 Framework group  C1[X(C5H7NO2)]
 Deg. of freedom    39
 Full point group                 C1      NOp   1
 RotChk:  IX=0 Diff= 1.59D-03
 Largest Abelian subgroup         C1      NOp   1
 Largest concise Abelian subgroup C1      NOp   1
                         Standard orientation:                         
 ---------------------------------------------------------------------
 Center     Atomic      Atomic             Coordinates (Angstroms)
 Number     Number       Type             X           Y           Z
 ---------------------------------------------------------------------
      1          8           0        1.276875    1.401601    0.004848
      2          7           0        0.251372   -0.666503    0.011458
      3          6           0        0.215133    0.744395    0.006171
      4          6           0       -1.125571    1.297507    0.000660
      5          6           0       -0.850904   -1.473185    0.006945
      6          6           0       -2.234732    0.486459   -0.003335
      7          6           0       -2.112392   -0.934603   -0.000865
      8          1           0        2.716606    0.274925   -0.042291
      9          1           0       -1.203128    2.380826   -0.002521
     10          1           0       -0.658205   -2.542875    0.008614
     11          1           0       -3.228123    0.933304   -0.009262
     12          1           0       -2.984501   -1.579511   -0.005606
     13          8           0        3.122467   -0.628942   -0.086683
     14          1           0        3.856259   -0.635895    0.545381
     15          1           0        1.197548   -1.069954    0.022696
 ---------------------------------------------------------------------
 Rotational constants (GHZ):      3.9548083      1.3788455      1.0240901
 Leave Link  202 at Fri Aug 27 00:16:35 2021, MaxMem= 17179869184 cpu:         6.2
 (Enter /public3/home/sc51754/softwares/g09e01/l301.exe)
 Basis read from rwf:  (5D, 7F)
 No pseudopotential information found on rwf file.
 There are   385 symmetry adapted cartesian basis functions of A   symmetry.
 There are   338 symmetry adapted basis functions of A   symmetry.
   338 basis functions,   566 primitive gaussians,   385 cartesian basis functions
    30 alpha electrons       30 beta electrons
       nuclear repulsion energy       354.0430117575 Hartrees.
 IExCor=  402 DFT=T Ex=B Corr=LYP ExCW=0 ScaHFX=  0.000000
 ScaDFX=  1.000000  1.000000  1.000000  1.000000 ScalE2=  1.000000  1.000000
 IRadAn=      0 IRanWt=     -1 IRanGd=            0 ICorTp=0 IEmpDi=  4
 NAtoms=   15 NActive=   15 NUniq=   15 SFac= 1.00D+00 NAtFMM=   60 NAOKFM=F Big=F
 Integral buffers will be    131072 words long.
 Raffenetti 2 integral format.
 Two-electron integral symmetry is turned on.
 No density basis found on file   724.
 Leave Link  301 at Fri Aug 27 00:16:35 2021, MaxMem= 17179869184 cpu:         1.0
 (Enter /public3/home/sc51754/softwares/g09e01/l302.exe)
 NPDir=0 NMtPBC=     1 NCelOv=     1 NCel=       1 NClECP=     1 NCelD=      1
         NCelK=      1 NCelE2=     1 NClLst=     1 CellRange=     0.0.
 One-electron integrals computed using PRISM.
 NBasis=   338 RedAO= T EigKep=  1.66D-04  NBF=   338
 NBsUse=   338 1.00D-06 EigRej= -1.00D+00 NBFU=   338
 Precomputing XC quadrature grid using
 IXCGrd= 4 IRadAn=           0 IRanWt=          -1 IRanGd=           0 AccXCQ= 0.00D+00.
 Generated NRdTot=       0 NPtTot=           0 NUsed=           0 NTot=          32
 NSgBfM=   385   385   385   385   385 MxSgAt=    15 MxSgA2=    15.
 Leave Link  302 at Fri Aug 27 00:16:36 2021, MaxMem= 17179869184 cpu:        45.9
 (Enter /public3/home/sc51754/softwares/g09e01/l303.exe)
 DipDrv:  MaxL=1.
 Leave Link  303 at Fri Aug 27 00:16:37 2021, MaxMem= 17179869184 cpu:        12.3
 (Enter /public3/home/sc51754/softwares/g09e01/l401.exe)
 Initial guess from the checkpoint file:  "PY_H2O_BLYP_PC2_OPT_FREQ.chk"
 B after Tr=     0.000000    0.000000   -0.000000
         Rot=    1.000000    0.000036   -0.000043    0.000619 Ang=   0.07 deg.
 Guess basis will be translated and rotated to current coordinates.
 JPrj=2 DoOrth=T DoCkMO=T.
 Generating alternative initial guess.
 ExpMin= 7.41D-02 ExpMax= 1.48D+04 ExpMxC= 5.05D+02 IAcc=2 IRadAn=         4 AccDes= 0.00D+00
 Harris functional with IExCor=  402 and IRadAn=       4 diagonalized for initial guess.
 HarFok:  IExCor=  402 AccDes= 0.00D+00 IRadAn=         4 IDoV= 1 UseB2=F ITyADJ=14
 ICtDFT=  3500011 ScaDFX=  1.000000  1.000000  1.000000  1.000000
 FoFCou: FMM=F IPFlag=           0 FMFlag=      100000 FMFlg1=           0
         NFxFlg=           0 DoJE=T BraDBF=F KetDBF=T FulRan=T
         wScrn=  0.000000 ICntrl=     500 IOpCl=  0 I1Cent=   200000004 NGrid=           0
         NMat0=    1 NMatS0=      1 NMatT0=    0 NMatD0=    1 NMtDS0=    0 NMtDT0=    0
 Petite list used in FoFCou.
 Harris En= -400.194141509439    
 Leave Link  401 at Fri Aug 27 00:16:38 2021, MaxMem= 17179869184 cpu:        74.2
 (Enter /public3/home/sc51754/softwares/g09e01/l502.exe)
 Closed shell SCF:
 Using DIIS extrapolation, IDIIS=  1040.
 Integral symmetry usage will be decided dynamically.
 Keep J ints in memory in canonical form, NReq=1670404686.
 IVT=      490665 IEndB=      490665 NGot= 17179869184 MDV= 15538220534
 LenX= 15538220534 LenY= 15538071868
 Requested convergence on RMS density matrix=1.00D-08 within 128 cycles.
 Requested convergence on MAX density matrix=1.00D-06.
 Requested convergence on             energy=1.00D-06.
 No special actions if energy rises.
 FoFCou: FMM=F IPFlag=           0 FMFlag=           0 FMFlg1=           0
         NFxFlg=           0 DoJE=F BraDBF=F KetDBF=F FulRan=T
         wScrn=  0.000000 ICntrl=     600 IOpCl=  0 I1Cent=           0 NGrid=           0
         NMat0=    1 NMatS0=  57291 NMatT0=    0 NMatD0=    1 NMtDS0=    0 NMtDT0=    0
 Symmetry not used in FoFCou.
 Integral accuracy reduced to 1.0D-05 until final iterations.

 Cycle   1  Pass 0  IDiag  1:
 E= -400.029341912200    
 DIIS: error= 8.44D-04 at cycle   1 NSaved=   1.
 NSaved= 1 IEnMin= 1 EnMin= -400.029341912200     IErMin= 1 ErrMin= 8.44D-04
 ErrMax= 8.44D-04  0.00D+00 EMaxC= 1.00D-01 BMatC= 3.87D-04 BMatP= 3.87D-04
 IDIUse=3 WtCom= 9.92D-01 WtEn= 8.44D-03
 Coeff-Com:  0.100D+01
 Coeff-En:   0.100D+01
 Coeff:      0.100D+01
 Gap=     0.513 Goal=   None    Shift=    0.000
 RMSDP=6.34D-05 MaxDP=2.24D-03              OVMax= 5.33D-03

 Cycle   2  Pass 0  IDiag  1:
 E= -400.029565158415     Delta-E=       -0.000223246215 Rises=F Damp=F
 DIIS: error= 5.65D-04 at cycle   2 NSaved=   2.
 NSaved= 2 IEnMin= 2 EnMin= -400.029565158415     IErMin= 2 ErrMin= 5.65D-04
 ErrMax= 5.65D-04  0.00D+00 EMaxC= 1.00D-01 BMatC= 1.11D-04 BMatP= 3.87D-04
 IDIUse=3 WtCom= 9.94D-01 WtEn= 5.65D-03
 Coeff-Com:  0.297D+00 0.703D+00
 Coeff-En:   0.000D+00 0.100D+01
 Coeff:      0.296D+00 0.704D+00
 Gap=     0.120 Goal=   None    Shift=    0.000
 RMSDP=4.79D-05 MaxDP=2.72D-03 DE=-2.23D-04 OVMax= 8.45D-03

 Cycle   3  Pass 0  IDiag  1:
[...]
    A5        2.09652  -0.00001   0.00000  -0.00011  -0.00011   2.09640
    A6        2.19819   0.00002   0.00000   0.00017   0.00017   2.19836
    A7        1.98848  -0.00001   0.00000  -0.00006  -0.00006   1.98842
    A8        2.11885  -0.00000   0.00000  -0.00002  -0.00002   2.11883
    A9        2.03481   0.00000   0.00000   0.00002   0.00002   2.03482
   A10        2.12952   0.00000   0.00000   0.00000   0.00000   2.12953
   A11        2.10563  -0.00000   0.00000  -0.00004  -0.00004   2.10560
   A12        2.02409   0.00000   0.00000   0.00005   0.00005   2.02414
   A13        2.15346  -0.00000   0.00000  -0.00001  -0.00001   2.15345
   A14        2.11712   0.00001   0.00000   0.00006   0.00006   2.11718
   A15        2.08594  -0.00000   0.00000  -0.00004  -0.00004   2.08590
   A16        2.08013  -0.00000   0.00000  -0.00002  -0.00002   2.08010
   A17        2.06106   0.00000   0.00000  -0.00000  -0.00000   2.06106
   A18        2.09982   0.00000   0.00000   0.00001   0.00001   2.09982
   A19        2.12231  -0.00000   0.00000  -0.00000  -0.00000   2.12231
   A20        2.65670   0.00003   0.00000   0.00215   0.00215   2.65885
   A21        1.85229   0.00001   0.00000  -0.00013  -0.00013   1.85217
   A22        1.37252  -0.00003   0.00000  -0.00163  -0.00163   1.37089
   A23        2.29600   0.00000   0.00000  -0.00112  -0.00112   2.29488
   A24        2.51656   0.00001   0.00000  -0.00041  -0.00041   2.51616
    D1        0.03475   0.00000   0.00000   0.00018   0.00018   0.03493
    D2       -3.10540   0.00000   0.00000   0.00022   0.00022  -3.10518
    D3        0.02880   0.00000   0.00000  -0.00039  -0.00039   0.02841
    D4       -3.13581  -0.00000   0.00000   0.00001   0.00001  -3.13580
    D5        0.00451  -0.00000   0.00000  -0.00002  -0.00002   0.00449
    D6        0.01026   0.00000   0.00000   0.00007   0.00007   0.01033
    D7       -3.13261   0.00000   0.00000   0.00004   0.00004  -3.13258
    D8       -0.00219   0.00000   0.00000  -0.00000  -0.00000  -0.00220
    D9        3.13769   0.00000   0.00000   0.00001   0.00001   3.13769
   D10        3.13466  -0.00000   0.00000  -0.00006  -0.00006   3.13460
   D11       -0.00865  -0.00000   0.00000  -0.00006  -0.00006  -0.00870
   D12       -0.11910  -0.00000   0.00000  -0.00023  -0.00023  -0.11933
   D13        3.02678  -0.00000   0.00000  -0.00017  -0.00017   3.02661
   D14        3.13626   0.00000   0.00000  -0.00002  -0.00002   3.13624
   D15       -0.00263  -0.00000   0.00000  -0.00003  -0.00003  -0.00267
   D16       -0.00397   0.00000   0.00000   0.00002   0.00002  -0.00395
   D17        3.14033   0.00000   0.00000   0.00000   0.00000   3.14033
   D18        0.00131   0.00000   0.00000   0.00000   0.00000   0.00131
   D19       -3.13932  -0.00000   0.00000  -0.00003  -0.00003  -3.13935
   D20        3.14005   0.00000   0.00000   0.00002   0.00002   3.14007
   D21       -0.00058  -0.00000   0.00000  -0.00001  -0.00001  -0.00058
   D22       -0.00090   0.00000   0.00000   0.00002   0.00002  -0.00088
   D23        3.14014   0.00000   0.00000   0.00000   0.00000   3.14014
   D24       -3.14066   0.00000   0.00000   0.00002   0.00002  -3.14064
   D25        0.00039  -0.00000   0.00000  -0.00000  -0.00000   0.00038
   D26        0.00129  -0.00000   0.00000  -0.00002  -0.00002   0.00126
   D27       -3.13975  -0.00000   0.00000  -0.00000  -0.00000  -3.13975
   D28       -3.14127   0.00000   0.00000   0.00000   0.00000  -3.14126
   D29        0.00088   0.00000   0.00000   0.00002   0.00002   0.00091
   D30       -2.34524   0.00000   0.00000   0.00172   0.00172  -2.34353
   D31       -0.07190  -0.00000   0.00000   0.00021   0.00021  -0.07169
   D32        0.13563   0.00000   0.00000   0.00002   0.00002   0.13565
   D33        1.90834  -0.00001   0.00000  -0.00153  -0.00152   1.90681
         Item               Value     Threshold  Converged?
 Maximum Force            0.000053     0.000450     YES
 RMS     Force            0.000010     0.000300     YES
 Maximum Displacement     0.002818     0.001800     NO 
 RMS     Displacement     0.000569     0.001200     YES
 Predicted change in Energy=-1.050337D-07
 GradGradGradGradGradGradGradGradGradGradGradGradGradGradGradGradGradGrad

 Leave Link  103 at Fri Aug 27 00:21:34 2021, MaxMem= 17179869184 cpu:        46.0
 (Enter /public3/home/sc51754/softwares/g09e01/l9999.exe)
 1\1\GINC-T1413\Freq\RBLYP\Gen\C5H7N1O2\SC51754\27-Aug-2021\0\\#P Geom=
 AllCheck Guess=TCheck SCRF=Check GenChk RBLYP/ChkBas Freq\\PY_H2O_BLYP
 _PC2_OPT_FREQ\\0,1\O,1.2771649356,1.4105413861,0.0017722714\N,0.257136
 8955,-0.6630170639,0.0096255277\C,0.2149974143,0.7512491305,0.00447584
 03\C,-1.1244054142,1.298519709,0.0011636382\C,-0.8424199054,-1.4718493
 632,0.0063899178\C,-2.2312280374,0.4832703827,-0.001650403\C,-2.105327
 5083,-0.9353033676,0.0001674446\H,2.7163379012,0.278575098,-0.05432015
 74\H,-1.2069942322,2.38149145,-0.0016004048\H,-0.6468761252,-2.5408535
 904,0.0073674762\H,-3.2252932084,0.9281591457,-0.0062589909\H,-2.97534
 53551,-1.583125418,-0.0037438994\O,3.1203296759,-0.6278492999,-0.09864
 53137\H,3.8255059378,-0.6412927103,0.5667648841\H,1.2063700258,-1.0622
 494886,0.0204261689\\Version=EM64L-G09RevE.01\State=1-A\HF=-400.029745
 7\RMSD=1.751e-09\RMSF=2.273e-05\ZeroPoint=0.1147633\Thermal=0.1229565\
 Dipole=-0.9646071,-0.8476831,0.4533496\DipoleDeriv=-1.6570829,-0.51383
 84,-0.0046984,-0.4224502,-0.7491486,-0.0025149,-0.0035841,-0.0046083,-
 0.371193,-0.7565252,0.2329177,-0.0008515,-0.580238,-0.4709331,-0.00006
 07,-0.013755,0.0023299,-0.1503544,1.6500737,0.7123355,0.0037023,0.7783
 948,0.7914317,0.0010018,-0.0033401,-0.0057431,0.2039238,-0.6101918,-0.
 3892063,-0.0018961,0.0752968,0.0261813,-0.0007768,0.0040163,-0.0016185
 ,-0.1538232,0.6383779,-0.299981,0.003134,0.2486454,0.1006592,0.0022488
 ,0.0006999,0.0014097,-0.014206,0.2525755,0.0691535,0.0013916,0.1173475
 ,0.5167304,-0.0000956,-0.0001096,-0.001196,-0.0807482,-0.2199087,0.308
 4968,-0.000274,0.0156077,-0.3910364,0.0009553,0.0032161,0.0022584,-0.1
 885329,0.7731583,-0.1479608,-0.023666,-0.4388997,0.3261173,-0.0455181,
 -0.0366397,-0.0304949,0.2198955,0.0589318,-0.0074344,-0.0003937,0.0107
 467,-0.0358298,0.0003655,0.0002418,0.0006571,0.1418559,0.0562462,0.019
 9364,-0.0005249,-0.0015893,-0.0474177,0.0004777,-0.0015058,-0.0004676,
 0.1375319,-0.0744555,0.0649367,-0.0008766,0.0659185,0.050057,0.0003097
 ,-0.0017416,0.0003712,0.1218046,-0.0043529,-0.0623178,-0.0007499,-0.06
 3251,0.0074889,-0.0002012,-0.0009319,-0.0002955,0.1552447,-1.020087,0.
 1125255,0.1090612,0.318936,-0.5568946,0.0923711,0.1367833,0.0513468,-0
 .4580249,0.2375481,0.0012854,-0.085434,-0.0523837,0.2687739,-0.0496683
 ,-0.0944339,-0.0206431,0.212785,0.6756926,-0.1008489,0.002076,-0.07208
 14,0.1638203,0.0011056,0.0110841,0.0066937,0.2238413\Polar=107.4456047
 ,5.8766111,88.7080415,1.0713299,-0.3505091,45.598515\PG=C01 [X(C5H7N1O
 2)]\NImag=0\\0.47884769,0.23573750,0.25728722,-0.00087848,-0.00103948,
 0.03371962,0.01172965,-0.06076024,0.00032525,0.78537581,-0.03889777,-0
 .06133697,0.00028405,-0.01432394,0.57142475,0.00065031,0.00021224,0.01
 583415,0.00477601,-0.00216596,0.07916853,-0.41001497,-0.18328303,0.000
 63194,-0.15578891,0.00953724,-0.00098290,0.77282883,-0.17836950,-0.199
 74479,0.00043307,0.05012138,-0.15515673,0.00016917,0.10568669,0.518928
 77,0.00050681,0.00030216,-0.06512705,-0.00063348,0.00032625,-0.0562493
 9,0.00038562,-0.00093929,0.18037616,-0.06941201,-0.00531650,0.00008545
 ,0.02177341,0.04450299,0.00008136,-0.18482776,0.03785651,-0.00037642,0
 .60767286,-0.02725097,0.01932164,0.00007323,0.03577065,-0.02340720,0.0
 0027087,0.06317670,-0.13818510,0.00011880,0.06407425,0.71474920,0.0000
 1499,0.00029183,0.01823270,-0.00007321,0.00025694,0.00486057,-0.000284
 64,-0.00002152,-0.07061438,0.00119783,-0.00093461,0.10886651,-0.012206
 03,0.01207869,-0.00013219,-0.24542186,-0.05509802,-0.00077538,0.041726
 51,-0.06622810,0.00029996,-0.04214502,-0.00429555,-0.00014747,0.677494
 17,-0.00327271,-0.00183810,0.00003573,-0.09904563,-0.19533567,0.000154
 82,-0.01772038,-0.03669668,-0.00003860,-0.00307003,-0.00091353,-0.0000
 0531,-0.06907375,0.71095186,-0.00005963,0.00009186,0.00513104,-0.00079
 122,0.00003986,-0.04289758,0.00020535,-0.00010881,-0.00301386,-0.00014
 498,-0.00000851,0.00019862,0.00258839,-0.00090166,0.12758646,0.0023719
 2,0.00446619,-0.00002552,-0.00738248,-0.00717860,0.00000431,-0.0426899
 2,-0.00790708,-0.00013154,-0.28980375,-0.14109764,-0.00058919,0.010641
 81,0.03325143,-0.00002633,0.70886053,0.01790776,-0.00382432,0.00001472
 ,-0.03002747,-0.03349439,-0.00008834,-0.02537442,0.05093668,-0.0001456
 0,-0.10177142,-0.21118243,-0.00002795,0.06719589,-0.02274508,0.0002952
 8,0.00416655,0.61273948,-0.00003091,0.00001657,0.00412057,0.00006021,0
 .00002677,-0.00428634,-0.00008326,-0.00008098,-0.00024523,-0.00079644,
 -0.00030397,-0.05125887,-0.00008875,0.00018479,0.00686573,0.00219124,-
 0.00057015,0.13132379,0.00571785,-0.00551865,0.00002407,-0.07237767,-0
 .02681546,-0.00041161,-0.01769534,0.03087915,-0.00007689,0.03028500,-0
 .02482676,0.00011486,-0.32525761,0.11392249,-0.00134931,-0.11670699,-0
 .00942288,-0.00024568,0.72656128,-0.01123643,0.00060357,-0.00002229,0.
 00024236,0.03868767,-0.00009755,0.02068634,-0.02524146,0.00011169,-0.0
 4474626,-0.03639523,-0.00014504,0.07474294,-0.15889980,0.00047953,0.03
 681341,-0.26561681,0.00033720,0.03436797,0.61347584,0.00004340,0.00001
 049,-0.00039675,-0.00035315,-0.00014504,0.01080987,-0.00008615,0.00011
 822,-0.00639608,0.00018969,-0.00007417,0.00646908,-0.00136379,0.000665
 49,-0.05798603,-0.00031464,0.00007228,-0.05626848,0.00290166,-0.000211
 38,0.10661439,0.01431432,-0.00282747,-0.00113225,-0.00200709,0.0057030
 5,-0.00040551,-0.01824732,-0.01150116,0.00022105,0.00462143,0.00153290
 ,0.00016920,0.00030073,0.00001551,-0.00002978,-0.00035922,-0.00220440,
 0.00001423,-0.00007216,0.00164615,0.00003116,0.09485721,-0.01492602,-0
 .01118840,0.00102623,0.00196039,-0.00393679,0.00040620,0.01036530,0.01
 685979,-0.00002291,-0.00539986,-0.00234511,-0.00017846,-0.00191598,-0.
 00217583,-0.00001462,0.00042282,0.00315819,-0.00001926,0.00127346,-0.0
 0201953,-0.00001829,-0.12286293,0.33712247,-0.00000390,0.00003873,-0.0
 0840169,-0.00062627,-0.00017865,-0.00069145,-0.00003905,-0.00004749,0.
 00056603,0.00001723,-0.00000860,0.00115168,0.00009188,0.00019070,-0.00
 020300,-0.00005315,-0.00008469,0.00013933,-0.00013514,0.00004291,0.000
 10282,0.01543800,0.01537346,0.03875893,0.00181460,-0.00202820,-0.00000
 421,-0.00571558,0.00326087,-0.00005227,0.00258024,0.02843264,-0.000071
 65,-0.05599815,0.02305595,-0.00008768,-0.00194788,-0.00086436,-0.00000
 562,0.00575569,-0.02603788,0.00007187,-0.00337105,-0.00225886,-0.00003
 512,-0.00018468,0.00025881,-0.00000772,0.05510276,0.00009844,0.0018013
 8,-0.00000901,0.00242164,-0.00032471,0.00002268,-0.00314912,-0.0098524
 6,0.00004821,0.02496685,-0.32492409,0.00070669,0.00070511,0.00088632,0
 .00000499,0.00273989,-0.01293247,0.00004812,-0.00337014,0.00122852,0.0
 0000814,0.00005906,-0.00008631,0.00000926,-0.02421473,0.34431470,0.000
 02017,-0.00003007,-0.00212768,-0.00003319,0.00000784,0.00474673,-0.000
 02621,0.00012818,0.00237801,-0.00008625,0.00078814,-0.03154950,0.00001
 325,0.00000337,-0.00064204,-0.00001205,-0.00009372,0.00232369,-0.00005
 005,0.00000088,0.00852210,-0.00001524,0.00000721,-0.00002423,0.0001485
 0,-0.00079386,0.02256774,-0.00096612,-0.00215585,0.00001676,0.00455637
 ,-0.03373447,0.00004326,-0.00343137,0.00192433,-0.00004469,-0.00002306
 ,-0.00057726,-0.00000064,-0.06753338,0.05591180,-0.00016785,-0.0053149
 7,0.00088243,-0.00006044,0.00235829,0.02690097,-0.00002452,0.00036372,
 -0.00030671,0.00000719,0.00017308,0.00000892,0.00000444,0.06807395,-0.
 00066973,-0.00186221,0.00002018,0.00024363,-0.02044761,0.00000538,-0.0
 0259431,0.00507636,-0.00005187,0.00028926,0.00054519,-0.00000117,0.050
 29376,-0.31407990,0.00032357,0.00238571,0.00060193,0.00001308,-0.00033
 847,-0.00568621,-0.00001236,0.00033610,-0.00022528,-0.00001276,0.00003
 294,-0.00008602,-0.00000067,-0.04994989,0.33533482,-0.00000974,-0.0000
 1805,-0.00014467,0.00008737,-0.00000946,0.00219037,-0.00002513,-0.0000
 0668,0.00534814,0.00000505,0.00001100,-0.00000289,-0.00022053,0.000164
 93,-0.03432745,-0.00007829,0.00001518,0.00720574,0.00001219,0.00014877
 ,0.00553181,-0.00002442,0.00000473,-0.00003692,0.00000152,-0.00000214,
 -0.00120314,0.00020931,-0.00029791,0.02264413,-0.00213336,0.00035616,0
 .00001656,0.00030337,-0.00027967,0.00000405,0.00015666,-0.00411683,-0.
 00004958,-0.02010999,0.01149046,-0.00013398,0.00140705,0.00048560,-0.0
 0001491,-0.27339062,0.09798097,-0.00104968,0.00101413,-0.00059194,-0.0
 0002498,0.00030519,-0.00028133,-0.00001405,0.00112152,-0.00022430,0.00
 002830,-0.00001364,-0.00009677,0.00000250,0.29095581,-0.00089338,0.000
 52432,0.00000258,-0.00099373,0.00024851,-0.00000497,-0.00261610,-0.002
 47912,0.00000920,-0.01767332,0.01118636,-0.00008140,-0.00033865,-0.006
 15307,0.00000868,0.09822500,-0.10050684,0.00046108,0.02822846,-0.00766
 667,0.00012808,0.00005550,-0.00010348,-0.00000260,0.00034878,0.0008454
 9,-0.00000895,0.00149247,-0.00041953,0.00001128,-0.10531536,0.10324750
 ,-0.00001122,-0.00003474,-0.00198237,0.00001281,-0.00000677,-0.0007933
 8,-0.00003037,0.00001339,0.01093288,-0.00003354,0.00009045,0.00602163,
 -0.00001512,-0.00000236,0.00485239,-0.00110958,0.00043786,-0.03903626,
 -0.00004255,0.00001867,0.00390329,-0.00002357,0.00002308,-0.00015922,0
 .00001693,-0.00002037,-0.00519643,0.00000004,0.00000099,-0.00037489,0.
 00120238,-0.00051385,0.02477154,0.00017130,-0.00026410,0.00000501,-0.0
 0348025,0.00401971,-0.00006478,-0.00004871,0.00104832,-0.00001299,0.00
 079384,0.00126932,-0.00001659,-0.01808849,-0.01928921,-0.00008498,0.00
 691203,0.00402289,0.00002598,-0.23188863,-0.13042911,-0.00090887,0.000
 05199,0.00010547,-0.00002057,0.00019892,0.00029196,-0.00000356,0.00071
 726,0.00020352,0.00002814,0.00055355,-0.00049573,0.00001656,0.24451787
 ,-0.00041579,0.00043879,0.00000030,0.00349315,-0.00029579,0.00003093,0
 .00113150,-0.00113167,-0.00000086,0.00241633,-0.00462155,0.00002079,0.
 01119046,0.01074911,0.00003124,-0.02514172,-0.01273883,-0.00012296,-0.
 13251657,-0.15196211,-0.00056580,0.00006548,-0.00013174,0.00000742,-0.
 00120588,-0.00056406,-0.00000222,-0.00048866,0.00058351,-0.00000298,0.
 00034593,0.00110394,0.00000258,0.14065577,0.15797468,0.00001047,-0.000
 01861,-0.00056562,-0.00007307,0.00001044,0.00710137,-0.00000679,0.0000
 1661,-0.00028297,-0.00001370,0.00001620,0.00412929,-0.00008263,-0.0001
 0938,-0.00130040,0.00006041,0.00004862,-0.00024578,-0.00093901,-0.0005
 9016,-0.02588059,0.00000508,-0.00000219,0.00002146,-0.00000256,0.00000
 458,0.00058078,0.00002497,0.00000268,-0.00418767,0.00001483,-0.0000050
 3,-0.00230949,0.00100789,0.00060913,0.02141128,-0.01154277,0.01071959,
 0.00004880,-0.01224909,-0.00388940,-0.00066938,0.00330616,0.00217084,0
 .00019768,-0.00110775,-0.00019577,0.00009621,0.00129585,0.00411296,-0.
 00005354,-0.00014866,-0.00006967,-0.00003009,-0.00170929,-0.00050233,0
 .00006171,-0.08341318,0.14527689,-0.00139507,-0.00010324,0.00011656,0.
 00001197,-0.00006654,-0.00031544,-0.00001758,-0.00022876,-0.00000457,-
 0.00001394,-0.00035668,0.00009369,0.00001578,0.36094263,0.02200457,-0.
 00207562,0.00043466,-0.00166655,0.00517436,-0.00105569,-0.01020393,-0.
 01334324,0.00010833,0.00406292,0.00209853,-0.00008193,0.00145254,0.000
 94224,-0.00005430,-0.00026572,-0.00235001,0.00000696,-0.00074085,0.001
 61306,0.00002499,0.10715189,-0.33456746,-0.04517690,-0.00027244,0.0000
 8877,-0.00000661,0.00036114,0.00025446,0.00002282,0.00023263,0.0000972
 7,0.00001880,-0.00002632,0.00009050,0.00003139,-0.15033049,0.38371776,
 -0.00080067,0.00111776,0.00546717,-0.00287518,0.00014486,0.00293842,0.
 00037620,-0.00020020,-0.00032096,-0.00010623,0.00007528,-0.00074019,-0
 .00026057,0.00019273,0.00029950,0.00006655,0.00002063,0.00002213,0.000
 00304,-0.00014949,-0.00019998,-0.01592137,-0.01195933,-0.03191695,0.00
 001325,-0.00000671,-0.00000731,-0.00002348,-0.00005862,-0.00000448,0.0
 0001475,0.00000313,0.00009639,-0.00002400,0.00000240,-0.00007958,0.248
 62666,0.03117935,0.26108481,0.00032433,0.00111281,0.00095065,-0.001002
 91,-0.00049904,0.00062862,-0.00045393,-0.00033532,-0.00016583,0.000098
 45,0.00007456,-0.00019006,-0.00021337,0.00033500,0.00005703,-0.0000014
 5,-0.00006593,0.00001310,-0.00006534,-0.00009505,-0.00005054,-0.012826
 42,-0.00545281,-0.01454176,-0.00000167,0.00001574,-0.00000635,-0.00001
 897,-0.00006194,-0.00000636,0.00000853,-0.00000584,0.00002523,-0.00002
 582,0.00001794,-0.00001854,-0.25856156,0.02575152,-0.23176486,0.272351
 10,0.00224920,-0.00188341,-0.00120583,-0.00211766,0.00049748,0.0005220
 9,-0.00084478,-0.00104334,-0.00007960,0.00018848,0.00016822,0.00016505
 ,0.00019458,0.00056402,0.00002205,0.00000661,-0.00012146,0.00000549,-0
 .00025063,-0.00001653,-0.00000407,0.02830590,0.00232361,0.02930005,-0.
 00003462,0.00002236,-0.00000122,-0.00000196,-0.00004263,-0.00003339,0.
 00000309,0.00000438,-0.00002661,-0.00005076,0.00001885,-0.00001646,-0.
 00890121,-0.03814212,-0.02098211,-0.02156695,0.03766045,0.00076465,-0.
 00086365,-0.00000695,0.00268843,-0.00004342,0.00005455,-0.00012964,0.0
 0023072,-0.00002146,0.00003908,-0.00006214,-0.00002786,0.00008016,-0.0
 0033621,-0.00000200,0.00000361,0.00005159,-0.00000178,0.00013845,0.000
 06512,-0.00001323,0.00121097,-0.00432561,-0.00133703,0.00000531,-0.000
 00336,0.00001119,-0.00000015,0.00004996,0.00003058,0.00000081,-0.00000
 273,0.00001052,0.00003890,-0.00000893,0.00000597,-0.24864284,0.0119590
 3,-0.23136932,0.24656164,-0.00623339,0.23260529,-0.00901639,-0.0023168
 9,0.00006817,-0.31831276,0.11369252,-0.00282610,0.01259985,0.01033813,
 -0.00004805,-0.00181750,-0.00220085,-0.00006962,-0.02005247,0.00430128
 ,-0.00012262,0.00125608,0.00281759,0.00000861,0.00320754,-0.00554015,-
 0.00006587,0.00229548,-0.00851748,0.00128238,0.00057544,-0.00046587,0.
 00000626,0.00112538,0.00024163,0.00003597,0.00005058,-0.00001352,0.000
 00595,-0.00002817,0.00035837,-0.00000312,0.00394288,0.00248909,0.00267
 591,0.00038903,0.00282072,-0.00275939,0.32378502,-0.00206516,0.0037769
 0,-0.00004813,0.11468203,-0.12229690,0.00161813,0.03520230,-0.00892701
 ,0.00025410,-0.00038020,-0.00609490,0.00003611,-0.02090390,0.01474413,
 -0.00020917,-0.00088684,-0.00192366,-0.00000273,-0.00487112,-0.0021043
 2,0.00000341,-0.00547558,-0.00268412,0.00054917,0.00152697,-0.00041744
 ,0.00000169,-0.00026725,0.00045312,-0.00000811,0.00001136,0.00007093,-
 0.00000111,-0.00106171,0.00048636,0.00000219,0.00171836,-0.00359852,0.
 00062032,0.00077530,-0.00000989,-0.00047698,-0.11800456,0.12852534,-0.
 00021624,-0.00007705,-0.00375246,-0.00249130,0.00145231,-0.02278644,0.
 00009502,0.00029560,0.00267016,-0.00005812,-0.00005198,0.00426360,0.00
 001279,-0.00019902,-0.00456138,0.00001416,0.00005429,-0.00065827,0.000
 05597,0.00001115,0.00518779,0.00046246,-0.00030024,0.00203022,0.000009
 44,-0.00001721,-0.00037992,0.00001580,0.00001953,-0.00266866,0.0000030
 0,-0.00000449,-0.00073659,0.00001388,-0.00000105,0.00160193,0.00176362
 ,0.00258910,-0.00526965,-0.00149199,-0.00143205,0.00006151,0.00181151,
 -0.00233889,0.02499817\\0.00002200,0.00004711,0.00000207,0.00002349,0.
 00005795,0.00000334,-0.00005665,-0.00008063,-0.00000396,0.00002020,0.0
 0000131,0.00000282,-0.00002460,-0.00000839,0.00000087,-0.00001051,0.00
 000478,0.00000381,0.00001151,-0.00000101,-0.00000269,0.00004861,0.0000
 0093,-0.00000111,0.00000004,-0.00000062,0.00000140,0.00000127,0.000002
 44,-0.00000117,0.00000291,-0.00000023,0.00000051,-0.00000062,0.0000000
 5,-0.00000061,-0.00004989,-0.00000119,0.00000333,0.00000048,-0.0000012
 9,-0.00000234,0.00001175,-0.00002121,-0.00000627\\\@


 My opinions may have changed, but not the fact that I am right.
                       -- Ashleigh Brilliant
 Job cpu time:       0 days  0 hours 57 minutes 29.5 seconds.
 File lengths (MBytes):  RWF=    137 Int=      0 D2E=      0 Chk=      9 Scr=      1
 Normal termination of Gaussian 09 at Fri Aug 27 00:21:34 2021.
