 Entering Gaussian System, Link 0=g09
 AtFile(1): pc-2.gbs
            -H     0
            S    4   1.00
                  0.754230D+02           0.240650D-02
                  0.113500D+02           0.184870D-01
                  0.259930D+01           0.897420D-01
                  0.735130D+00           0.281110D+00
            S    1   1.00
                  0.231670D+00           0.100000D+01
            S    1   1.00
                  0.741470D-01           0.100000D+01
            P    1   1.00
                  0.160000D+01           0.100000D+01
            P    1   1.00
                  0.450000D+00           0.100000D+01
            D    1   1.00
                  0.125000D+01           0.100000D+01
            ****
            -C     0
            S    7   1.00
                  0.785710D+04           0.568250D-03
                  0.117870D+04           0.439150D-02
                  0.268320D+03           0.225040D-01
                  0.759480D+02           0.866530D-01
                  0.245590D+02           0.244050D+00
                  0.862120D+01           0.441480D+00
                  0.312780D+01           0.353320D+00
            S    7   1.00
                  0.117870D+04          -0.594920D-06
                  0.268320D+03          -0.627480D-04
                  0.759480D+02          -0.757730D-03
                  0.245590D+02          -0.733080D-02
                  0.862120D+01          -0.389320D-01
                  0.312780D+01          -0.889080D-01
                  0.822020D+00           0.216890D+00
            S    1   1.00
                  0.330170D+00           0.100000D+01
            S    1   1.00
                  0.114630D+00           0.100000D+01
            P    4   1.00
                  0.337750D+02           0.602940D-02
                  0.767660D+01           0.432280D-01
                  0.223570D+01           0.163010D+00
                  0.764470D+00           0.365040D+00
            P    1   1.00
                  0.262320D+00           0.100000D+01
            P    1   1.00
                  0.846380D-01           0.100000D+01
            D    1   1.00
                  0.140000D+01           0.100000D+01
            D    1   1.00
                  0.450000D+00           0.100000D+01
            F    1   1.00
                  0.950000D+00           0.100000D+01
            ****
            -N     0
            S    7   1.00
                  0.111010D+05           0.545700D-03
                  0.166530D+04           0.421810D-02
                  0.379080D+03           0.216450D-01
                  0.107300D+03           0.837760D-01
                  0.347470D+02           0.238810D+00
                  0.122490D+02           0.439940D+00
                  0.447430D+01           0.363640D+00
            S    7   1.00
                  0.166530D+04          -0.150060D-05
                  0.379080D+03          -0.587530D-04
                  0.107300D+03          -0.774530D-03
                  0.347470D+02          -0.721610D-02
                  0.122490D+02          -0.393380D-01
                  0.447430D+01          -0.906110D-01
                  0.124040D+01           0.198820D+00
            S    1   1.00
                  0.487430D+00           0.100000D+01
            S    1   1.00
                  0.164840D+00           0.100000D+01
            P    4   1.00
                  0.479340D+02           0.617060D-02
                  0.109990D+02           0.442600D-01
                  0.324720D+01           0.168250D+00
                  0.111140D+01           0.368480D+00
            P    1   1.00
                  0.379880D+00           0.100000D+01
            P    1   1.00
                  0.120680D+00           0.100000D+01
            D    1   1.00
                  0.180000D+01           0.100000D+01
            D    1   1.00
                  0.550000D+00           0.100000D+01
            F    1   1.00
                  0.102000D+01           0.100000D+01
            ****
            -O     0
            S    7   1.00
                  0.147820D+05           0.535190D-03
                  0.221730D+04           0.413750D-02
                  0.504740D+03           0.212450D-01
                  0.142870D+03           0.824530D-01
                  0.463000D+02           0.236710D+00
                  0.163370D+02           0.440390D+00
                  0.598280D+01           0.364650D+00
            S    7   1.00
                  0.221730D+04          -0.192750D-05
                  0.504740D+03          -0.579640D-04
                  0.142870D+03          -0.794940D-03
                  0.463000D+02          -0.731250D-02
                  0.163370D+02          -0.405740D-01
                  0.598280D+01          -0.915940D-01
                  0.167180D+01           0.209400D+00
            S    1   1.00
                  0.646620D+00           0.100000D+01
            S    1   1.00
                  0.216690D+00           0.100000D+01
            P    4   1.00
                  0.604240D+02           0.689490D-02
                  0.139350D+02           0.490050D-01
                  0.415310D+01           0.182550D+00
                  0.141580D+01           0.376330D+00
            P    1   1.00
                  0.475490D+00           0.100000D+01
            P    1   1.00
                  0.145290D+00           0.100000D+01
            D    1   1.00
                  0.220000D+01           0.100000D+01
            D    1   1.00
                  0.650000D+00           0.100000D+01
            F    1   1.00
                  0.110000D+01           0.100000D+01
            ****
 Initial command:
 /public3/home/sc51754/softwares/g09e01/l1.exe "./Gau-27420.inp" -scrdir="./"
 Entering Link 1 = /public3/home/sc51754/softwares/g09e01/l1.exe PID=     27422.
  
 Copyright (c) 1988,1990,1992,1993,1995,1998,2003,2009,2015,
            Gaussian, Inc.  All Rights Reserved.
  
 This is part of the Gaussian(R) 09 program.  It is based on
 the Gaussian(R) 03 system (copyright 2003, Gaussian, Inc.),
 the Gaussian(R) 98 system (copyright 1998, Gaussian, Inc.),
 the Gaussian(R) 94 system (copyright 1995, Gaussian, Inc.),
 the Gaussian 92(TM) system (copyright 1992, Gaussian, Inc.),
 the Gaussian 90(TM) system (copyright 1990, Gaussian, Inc.),
 the Gaussian 88(TM) system (copyright 1988, Gaussian, Inc.),
 the Gaussian 86(TM) system (copyright 1986, Carnegie Mellon
 University), and the Gaussian 82(TM) system (copyright 1983,
 Carnegie Mellon University). Gaussian is a federally registered
 trademark of Gaussian, Inc.
  
 This software contains proprietary and confidential information,
 including trade secrets, belonging to Gaussian, Inc.
  
 This software is provided under written license and may be
 used, copied, transmitted, or stored only in accord with that
 written license.
  
 The following legend is applicable only to US Government
 contracts under FAR:
  
                    RESTRICTED RIGHTS LEGEND
  
 Use, reproduction and disclosure by the US Government is
 subject to restrictions as set forth in subparagraphs (a)
 and (c) of the Commercial Computer Software - Restricted
 Rights clause in FAR 52.227-19.
  
 Gaussian, Inc.
 340 Quinnipiac St., Bldg. 40, Wallingford CT 06492
  
  
 ---------------------------------------------------------------
 Warning -- This program may not be used in any manner that
 competes with the business of Gaussian, Inc. or will provide
 assistance to any competitor of Gaussian, Inc.  The licensee
 of this program is prohibited from giving any competitor of
 Gaussian, Inc. access to this program.  By using this program,
 the user acknowledges that Gaussian, Inc. is engaged in the
 business of creating and licensing software in the field of
 computational chemistry and represents and warrants to the
 licensee that it is not a competitor of Gaussian, Inc. and that
 it will not use this program in any manner prohibited above.
 ---------------------------------------------------------------
  

 Cite this work as:
 Gaussian 09, Revision E.01,
 M. J. Frisch, G. W. Trucks, H. B. Schlegel, G. E. Scuseria, 
 M. A. Robb, J. R. Cheeseman, G. Scalmani, V. Barone, B. Mennucci, 
 G. A. Petersson, H. Nakatsuji, M. Caricato, X. Li, H. P. Hratchian, 
 A. F. Izmaylov, J. Bloino, G. Zheng, J. L. Sonnenberg, M. Hada, 
 M. Ehara, K. Toyota, R. Fukuda, J. Hasegawa, M. Ishida, T. Nakajima, 
 Y. Honda, O. Kitao, H. Nakai, T. Vreven, J. A. Montgomery, Jr., 
 J. E. Peralta, F. Ogliaro, M. Bearpark, J. J. Heyd, E. Brothers, 
 K. N. Kudin, V. N. Staroverov, T. Keith, R. Kobayashi, J. Normand, 
 K. Raghavachari, A. Rendell, J. C. Burant, S. S. Iyengar, J. Tomasi, 
 M. Cossi, N. Rega, J. M. Millam, M. Klene, J. E. Knox, J. B. Cross, 
 V. Bakken, C. Adamo, J. Jaramillo, R. Gomperts, R. E. Stratmann, 
 O. Yazyev, A. J. Austin, R. Cammi, C. Pomelli, J. W. Ochterski, 
 R. L. Martin, K. Morokuma, V. G. Zakrzewski, G. A. Voth, 
 P. Salvador, J. J. Dannenberg, S. Dapprich, A. D. Daniels, 
 O. Farkas, J. B. Foresman, J. V. Ortiz, J. Cioslowski, 
 and D. J. Fox, Gaussian, Inc., Wallingford CT, 2013.
 
 ******************************************
 Gaussian 09:  EM64L-G09RevE.01 30-Nov-2015
                28-Aug-2021 
 ******************************************
 %nprocshared=64
 Will use up to   64 processors via shared memory.
 %mem=128GB
 %chk=TST_H2O_BLYP.chk
 ----------------------------------------------------------------------
 #p opt=(calcfc,qst3,maxcycle=200,cartesian) freq gen geom=connectivity
  blyp
 ----------------------------------------------------------------------
 1/5=1,6=200,10=4,14=-1,18=20,26=3,27=203,38=1,57=2/1,3;
 2/9=110,12=2,17=6,18=5,40=1/2;
 3/5=7,11=2,16=1,25=1,30=1,71=2,74=402,140=1/1,2,3;
 4//1;
 5/5=2,38=5/2;
 8/6=4,10=90,11=11/1;
 11/6=1,8=1,9=11,15=111,16=1/1,2,10;
 10/6=1,13=1/2;
 6/7=2,8=2,9=2,10=2,28=1/1;
 7/10=1,18=20,25=1/1,2,3,16;
 1/5=1,6=200,10=4,14=-1,18=20,26=3,27=203/3(2);
 2/9=110/2;
 99//99;
 2/9=110/2;
 3/5=7,6=1,11=2,16=1,25=1,30=1,71=1,74=402,82=7/1,2,3;
 4/5=5,16=3,69=1/1;
 5/5=2,38=5/2;
 7//1,2,3,16;
 1/5=1,6=200,14=-1,18=20,26=3,27=203/3(-5);
 2/9=110/2;
 6/7=2,8=2,9=2,10=2,19=2,28=1/1;
 99/9=1/99;
 Leave Link    1 at Sat Aug 28 23:52:31 2021, MaxMem= 17179869184 cpu:        12.6
 (Enter /public3/home/sc51754/softwares/g09e01/l101.exe)
 ------------------------
 HY_H2O_BLYP_PC2_OPT_FREQ
 ------------------------
 Symbolic Z-matrix:
 Charge =  0 Multiplicity = 1
 O                     1.23694   1.4554   -0.00153 
 N                     0.30963  -0.67774  -0.00342 
 C                     0.14348   0.65902   0.00095 
 C                    -1.13018   1.26726   0.0075 
 C                    -0.79414  -1.45766  -0.00435 
 C                    -2.25046   0.44639   0.00772 
 C                    -2.08953  -0.95007   0.00133 
 H                     2.0545    0.88633  -0.01386 
 H                    -1.20392   2.35104   0.01036 
 H                    -0.61345  -2.53232  -0.01089 
 H                    -3.24601   0.88596   0.01166 
 H                    -2.94452  -1.62047  -0.00024 
 O                     3.10346  -0.59633  -0.0894 
 H                     3.58418  -0.87559   0.70624 
 H                     2.20352  -1.01296  -0.03077 
 
 Add virtual bond connecting atoms O13        and H8         Dist= 3.44D+00.
 Add virtual bond connecting atoms H15        and N2         Dist= 3.63D+00.
 Add virtual bond connecting atoms H15        and H8         Dist= 3.60D+00.
 Add atom     13 valence  3 ND=      2 dihedral       8     13     14     15
 ------------------------
 PY_H2O_BLYP_PC2_OPT_FREQ
 ------------------------
 Symbolic Z-matrix:
 Charge =  0 Multiplicity = 1
 O                     1.27526   1.40782   0.00569 
 N                     0.25449  -0.66538   0.01216 
 C                     0.21286   0.7489    0.00663 
 C                    -1.12634   1.29664   0.00079 
 C                    -0.84534  -1.47382   0.00712 
 C                    -2.23344   0.48178  -0.00385 
 C                    -2.10805  -0.93684  -0.0015 
 H                     2.71414   0.27534  -0.04757 
 H                    -1.20854   2.37964  -0.00236 
 H                    -0.65018  -2.5429    0.00868 
 H                    -3.22734   0.92702  -0.01034 
 H                    -2.97828  -1.58435  -0.00683 
 O                     3.11789  -0.63124  -0.09097 
 H                     3.82186  -0.64479   0.57571 
 H                     1.20356  -1.06494   0.02475 
 
 Add virtual bond connecting atoms H8         and O1         Dist= 3.46D+00.
 Add virtual bond connecting atoms O13        and H15        Dist= 3.72D+00.
 ------------
 TST_H2O_BLYP
 ------------
 Symbolic Z-matrix:
 Charge =  0 Multiplicity = 1
 O                     1.31288   1.45128  -0.0002 
 N                     0.38557  -0.68186  -0.0021 
 C                     0.21942   0.65489   0.00227 
 C                    -1.05423   1.26313   0.00882 
 C                    -0.7182   -1.46178  -0.00302 
 C                    -2.17451   0.44226   0.00904 
 C                    -2.01359  -0.95419   0.00265 
 H                     2.25493   0.61628  -0.03446 
 H                    -1.12798   2.34691   0.01169 
 H                    -0.53751  -2.53644  -0.00957 
 H                    -3.17007   0.88183   0.01298 
 H                    -2.86857  -1.6246    0.00108 
 O                     2.65648  -0.43302  -0.07582 
 H                     3.1372   -0.71229   0.71982 
 H                     1.63011  -0.87625  -0.00863 
 
 NAtoms=     15 NQM=       15 NQMF=       0 NMMI=      0 NMMIF=      0
                NMic=       0 NMicF=      0.
                    Isotopes and Nuclear Properties:
 (Nuclear quadrupole moments (NQMom) in fm**2, nuclear magnetic moments (NMagM)
  in nuclear magnetons)

  Atom         1           2           3           4           5           6           7           8           9          10
 IAtWgt=          16          14          12          12          12          12          12           1           1           1
 AtmWgt=  15.9949146  14.0030740  12.0000000  12.0000000  12.0000000  12.0000000  12.0000000   1.0078250   1.0078250   1.0078250
 NucSpn=           0           2           0           0           0           0           0           1           1           1
 AtZEff=   0.0000000   0.0000000   0.0000000   0.0000000   0.0000000   0.0000000   0.0000000   0.0000000   0.0000000   0.0000000
 NQMom=    0.0000000   2.0440000   0.0000000   0.0000000   0.0000000   0.0000000   0.0000000   0.0000000   0.0000000   0.0000000
 NMagM=    0.0000000   0.4037610   0.0000000   0.0000000   0.0000000   0.0000000   0.0000000   2.7928460   2.7928460   2.7928460
 AtZNuc=   8.0000000   7.0000000   6.0000000   6.0000000   6.0000000   6.0000000   6.0000000   1.0000000   1.0000000   1.0000000

  Atom        11          12          13          14          15
 IAtWgt=           1           1          16           1           1
 AtmWgt=   1.0078250   1.0078250  15.9949146   1.0078250   1.0078250
 NucSpn=           1           1           0           1           1
 AtZEff=   0.0000000   0.0000000   0.0000000   0.0000000   0.0000000
 NQMom=    0.0000000   0.0000000   0.0000000   0.0000000   0.0000000
 NMagM=    2.7928460   2.7928460   0.0000000   2.7928460   2.7928460
 AtZNuc=   1.0000000   1.0000000   8.0000000   1.0000000   1.0000000
 Leave Link  101 at Sat Aug 28 23:52:33 2021, MaxMem= 17179869184 cpu:        31.9
 (Enter /public3/home/sc51754/softwares/g09e01/l103.exe)

 GradGradGradGradGradGradGradGradGradGradGradGradGradGradGradGradGradGrad
 Berny optimization.
 Initialization pass.
                           ----------------------------
                           !    Initial Parameters    !
                           ! (Angstroms and Degrees)  !
 --------------------------                            --------------------------
 ! Name  Definition        TS        Reactant  Product Derivative Info.         !
 --------------------------------------------------------------------------------
 ! R1    R(1,3)             1.3527    1.3527    1.2501 calculate D2E/DX2 analyti!
 ! R2    R(1,8)             1.2593    0.9962    1.8319 calculate D2E/DX2 analyti!
 ! R3    R(2,3)             1.347     1.347     1.4149 calculate D2E/DX2 analyti!
 ! R4    R(2,5)             1.3515    1.3515    1.365  calculate D2E/DX2 analyti!
 ! R5    R(2,15)            1.2596    1.9235    1.0298 calculate D2E/DX2 analyti!
 ! R6    R(3,4)             1.4115    1.4115    1.4469 calculate D2E/DX2 analyti!
 ! R7    R(4,6)             1.3888    1.3888    1.3747 calculate D2E/DX2 analyti!
 ! R8    R(4,9)             1.0863    1.0863    1.0861 calculate D2E/DX2 analyti!
 ! R9    R(5,7)             1.3913    1.3913    1.3722 calculate D2E/DX2 analyti!
 ! R10   R(5,10)            1.0898    1.0898    1.0867 calculate D2E/DX2 analyti!
 ! R11   R(6,7)             1.4057    1.4057    1.4242 calculate D2E/DX2 analyti!
 ! R12   R(6,11)            1.0883    1.0883    1.0891 calculate D2E/DX2 analyti!
 ! R13   R(7,12)            1.0865    1.0865    1.0847 calculate D2E/DX2 analyti!
 ! R14   R(8,13)            1.1243    1.8178    0.9934 calculate D2E/DX2 analyti!
 ! R15   R(8,15)            1.6182    1.9052    2.0207 calculate D2E/DX2 analyti!
 ! R16   R(13,14)           0.9706    0.9706    0.9697 calculate D2E/DX2 analyti!
 ! R17   R(13,15)           1.12      0.9934    1.9662 calculate D2E/DX2 analyti!
 ! A1    A(3,1,8)         102.3792  109.0929  109.9797 calculate D2E/DX2 analyti!
 ! A2    A(3,2,5)         118.1598  118.1598  124.6305 calculate D2E/DX2 analyti!
 ! A3    A(3,2,15)        105.9633  107.1233  114.5183 calculate D2E/DX2 analyti!
 ! A4    A(5,2,15)        135.8765  134.7112  120.8507 calculate D2E/DX2 analyti!
 ! A5    A(1,3,2)         118.9807  118.9807  120.1216 calculate D2E/DX2 analyti!
 ! A6    A(1,3,4)         118.4066  118.4066  125.9468 calculate D2E/DX2 analyti!
 ! A7    A(2,3,4)         122.6127  122.6127  113.9315 calculate D2E/DX2 analyti!
 ! A8    A(3,4,6)         118.2409  118.2409  121.4014 calculate D2E/DX2 analyti!
 ! A9    A(3,4,9)         119.4202  119.4202  116.5858 calculate D2E/DX2 analyti!
 ! A10   A(6,4,9)         122.3388  122.3388  122.0126 calculate D2E/DX2 analyti!
 ! A11   A(2,5,7)         123.3571  123.3571  120.644  calculate D2E/DX2 analyti!
 ! A12   A(2,5,10)        115.7003  115.7003  115.9719 calculate D2E/DX2 analyti!
 ! A13   A(7,5,10)        120.9425  120.9425  123.3841 calculate D2E/DX2 analyti!
 ! A14   A(4,6,7)         119.6577  119.6577  121.3021 calculate D2E/DX2 analyti!
 ! A15   A(4,6,11)        119.9452  119.9452  119.5154 calculate D2E/DX2 analyti!
 ! A16   A(7,6,11)        120.3971  120.3971  119.1825 calculate D2E/DX2 analyti!
 ! A17   A(5,7,6)         117.9716  117.9716  118.09   calculate D2E/DX2 analyti!
 ! A18   A(5,7,12)        120.5014  120.5014  120.3107 calculate D2E/DX2 analyti!
 ! A19   A(6,7,12)        121.5269  121.5269  121.5992 calculate D2E/DX2 analyti!
 ! A20   A(1,8,13)        152.5024  160.0573  152.2176 calculate D2E/DX2 analyti!
 ! A21   A(1,8,15)        108.8009  129.3297   79.7369 calculate D2E/DX2 analyti!
 ! A22   A(8,13,14)       114.5358  119.1047  106.1285 calculate D2E/DX2 analyti!
 ! A23   A(8,13,15)        92.2834   79.4473   78.6393 calculate D2E/DX2 analyti!
 ! A24   A(14,13,15)      106.9074  106.2376  131.5511 calculate D2E/DX2 analyti!
 ! A25   A(2,15,8)        103.8412   75.4709  115.5397 calculate D2E/DX2 analyti!
 ! A26   A(2,15,13)       147.6345  145.0535  144.1885 calculate D2E/DX2 analyti!
 ! D1    D(8,1,3,2)         1.3026    0.4439    1.9913 calculate D2E/DX2 analyti!
 ! D2    D(8,1,3,4)      -178.6722 -179.5309 -177.9261 calculate D2E/DX2 analyti!
 ! D3    D(3,1,8,13)        1.336     4.897     1.6501 calculate D2E/DX2 analyti!
 ! D4    D(3,1,8,15)       -1.7327   -0.0587   -2.3436 calculate D2E/DX2 analyti!
 ! D5    D(5,2,3,1)      -179.8322 -179.8322 -179.6687 calculate D2E/DX2 analyti!
 ! D6    D(5,2,3,4)         0.1415    0.1415    0.2582 calculate D2E/DX2 analyti!
 ! D7    D(15,2,3,1)       -0.0329   -0.5723    0.5875 calculate D2E/DX2 analyti!
 ! D8    D(15,2,3,4)      179.9408  179.4014 -179.4856 calculate D2E/DX2 analyti!
 ! D9    D(3,2,5,7)        -0.1158   -0.1158   -0.1257 calculate D2E/DX2 analyti!
 ! D10   D(3,2,5,10)      179.827   179.827   179.7762 calculate D2E/DX2 analyti!
 ! D11   D(15,2,5,7)     -179.8386 -179.1206  179.6028 calculate D2E/DX2 analyti!
 ! D12   D(15,2,5,10)       0.1042    0.8222   -0.4953 calculate D2E/DX2 analyti!
 ! D13   D(3,2,15,8)       -0.9774    0.3706   -2.6819 calculate D2E/DX2 analyti!
 ! D14   D(3,2,15,13)      -6.072    -4.6869   -6.8237 calculate D2E/DX2 analyti!
 ! D15   D(5,2,15,8)      178.7684  179.4525  177.5637 calculate D2E/DX2 analyti!
 ! D16   D(5,2,15,13)     173.6738  174.395   173.4219 calculate D2E/DX2 analyti!
 ! D17   D(1,3,4,6)       179.8922  179.8922  179.6945 calculate D2E/DX2 analyti!
 ! D18   D(1,3,4,9)         0.0007    0.0007   -0.1507 calculate D2E/DX2 analyti!
 ! D19   D(2,3,4,6)        -0.0816   -0.0816   -0.2273 calculate D2E/DX2 analyti!
 ! D20   D(2,3,4,9)      -179.9731 -179.9731  179.9274 calculate D2E/DX2 analyti!
 ! D21   D(3,4,6,7)        -0.0081   -0.0081    0.0749 calculate D2E/DX2 analyti!
 ! D22   D(3,4,6,11)     -179.9373 -179.9373 -179.8699 calculate D2E/DX2 analyti!
 ! D23   D(9,4,6,7)       179.88    179.88    179.9116 calculate D2E/DX2 analyti!
 ! D24   D(9,4,6,11)       -0.0492   -0.0492   -0.0331 calculate D2E/DX2 analyti!
 ! D25   D(2,5,7,6)         0.0302    0.0302   -0.0519 calculate D2E/DX2 analyti!
 ! D26   D(2,5,7,12)      179.967   179.967   179.9165 calculate D2E/DX2 analyti!
 ! D27   D(10,5,7,6)     -179.9098 -179.9098 -179.9463 calculate D2E/DX2 analyti!
 ! D28   D(10,5,7,12)       0.0271    0.0271    0.0221 calculate D2E/DX2 analyti!
 ! D29   D(4,6,7,5)         0.0324    0.0324    0.0738 calculate D2E/DX2 analyti!
 ! D30   D(4,6,7,12)     -179.9038 -179.9038 -179.8942 calculate D2E/DX2 analyti!
 ! D31   D(11,6,7,5)      179.9613  179.9613 -179.9813 calculate D2E/DX2 analyti!
 ! D32   D(11,6,7,12)       0.0251    0.0251    0.0507 calculate D2E/DX2 analyti!
 ! D33   D(1,8,13,14)    -113.9665 -110.3064 -134.3725 calculate D2E/DX2 analyti!
 ! D34   D(1,8,13,15)      -4.2024   -7.4899   -4.1197 calculate D2E/DX2 analyti!
 ! D35   D(1,8,15,2)        1.8783   -0.2091    3.0803 calculate D2E/DX2 analyti!
 ! D36   D(8,13,14,15)    100.6337   86.7793   88.9855 calculate D2E/DX2 analyti!
 ! D37   D(8,13,15,2)       7.1348    5.2199    7.7711 calculate D2E/DX2 analyti!
 ! D38   D(14,13,15,2)    123.6533  122.6765  109.3395 calculate D2E/DX2 analyti!
 --------------------------------------------------------------------------------
 Trust Radius=3.00D-01 FncErr=1.00D-07 GrdErr=1.00D-06
 Number of steps in this run=    100 maximum allowed number of steps=    100.
 Search for a saddle point of order  1.
 GradGradGradGradGradGradGradGradGradGradGradGradGradGradGradGradGradGrad

 Leave Link  103 at Sat Aug 28 23:52:33 2021, MaxMem= 17179869184 cpu:         6.3
 (Enter /public3/home/sc51754/softwares/g09e01/l202.exe)
                          Input orientation:                          
 ---------------------------------------------------------------------
 Center     Atomic      Atomic             Coordinates (Angstroms)
 Number     Number       Type             X           Y           Z
 ---------------------------------------------------------------------
      1          8           0        1.312885    1.451277   -0.000200
      2          7           0        0.385569   -0.681865   -0.002098
      3          6           0        0.219420    0.654891    0.002274
      4          6           0       -1.054234    1.263134    0.008820
      5          6           0       -0.718198   -1.461784   -0.003024
      6          6           0       -2.174513    0.442263    0.009041
      7          6           0       -2.013590   -0.954193    0.002652
      8          1           0        2.254930    0.616279   -0.034462
      9          1           0       -1.127980    2.346911    0.011689
     10          1           0       -0.537506   -2.536440   -0.009567
     11          1           0       -3.170067    0.881832    0.012980
     12          1           0       -2.868573   -1.624596    0.001081
     13          8           0        2.656475   -0.433025   -0.075821
     14          1           0        3.137195   -0.712286    0.719818
     15          1           0        1.630106   -0.876254   -0.008627
 ---------------------------------------------------------------------
                    Distance matrix (angstroms):
                    1          2          3          4          5
     1  O    0.000000
     2  N    2.325987   0.000000
     3  C    1.352739   1.347049   0.000000
     4  C    2.374601   2.419953   1.411452   0.000000
     5  C    3.551229   1.351509   2.315053   2.745585   0.000000
     6  C    3.630446   2.796034   2.403367   1.388832   2.397164
     7  C    4.105086   2.414570   2.752360   2.415976   1.391302
     8  H    1.259303   2.276124   2.036208   3.372071   3.627510
     9  H    2.600024   3.385927   2.162986   1.086287   3.830704
    10  H    4.396126   2.071611   3.279889   3.834594   1.089760
    11  H    4.518993   3.884318   3.397093   2.149920   3.391822
    12  H    5.190914   3.387948   3.838198   3.410406   2.156534
    13  O    2.315502   2.285689   2.670000   4.080868   3.528749
    14  H    2.920195   2.844914   3.301130   4.687844   3.993533
    15  H    2.349064   1.259644   2.081961   3.432633   2.420209
                    6          7          8          9         10
     6  C    0.000000
     7  C    1.405712   0.000000
     8  H    4.433074   4.548409   0.000000
     9  H    2.173229   3.417846   3.800171   0.000000
    10  H    3.398942   2.163904   4.211646   4.918966   0.000000
    11  H    1.088285   2.169916   5.431700   2.513280   4.314565
    12  H    2.180296   1.086480   5.592233   4.336202   2.503087
    13  O    4.910375   4.699711   1.124272   4.696574   3.824953
    14  H    5.482010   5.206096   1.764204   5.296400   4.166890
    15  H    4.026653   3.644548   1.618248   4.242198   2.730342
                   11         12         13         14         15
    11  H    0.000000
    12  H    2.524524   0.000000
    13  O    5.973720   5.652603   0.000000
    14  H    6.543882   6.117038   0.970629   0.000000
    15  H    5.112045   4.560508   1.120000   1.681914   0.000000
 Stoichiometry    C5H7NO2
 Framework group  C1[X(C5H7NO2)]
 Deg. of freedom    39
 Full point group                 C1      NOp   1
 Largest Abelian subgroup         C1      NOp   1
 Largest concise Abelian subgroup C1      NOp   1
                         Standard orientation:                         
 ---------------------------------------------------------------------
 Center     Atomic      Atomic             Coordinates (Angstroms)
 Number     Number       Type             X           Y           Z
 ---------------------------------------------------------------------
      1          8           0        1.425132    1.331918   -0.003732
      2          7           0        0.344601   -0.727852   -0.006997
      3          6           0        0.276466    0.617457   -0.000377
      4          6           0       -0.949386    1.317020    0.009423
      5          6           0       -0.813145   -1.425133   -0.006999
      6          6           0       -2.126586    0.580099    0.010539
      7          6           0       -2.068024   -0.824365    0.001825
      8          1           0        2.303662    0.430450   -0.040960
      9          1           0       -0.943831    2.403283    0.014001
     10          1           0       -0.711380   -2.510099   -0.015437
     11          1           0       -3.087395    1.091147    0.016969
     12          1           0       -2.969657   -1.430579    0.000874
     13          8           0        2.627480   -0.645294   -0.084588
     14          1           0        3.087929   -0.960153    0.709749
     15          1           0        1.571619   -1.012541   -0.016126
 ---------------------------------------------------------------------
 Rotational constants (GHZ):      4.1250046      1.6416498      1.1776367
 Leave Link  202 at Sat Aug 28 23:52:34 2021, MaxMem= 17179869184 cpu:         5.2
 (Enter /public3/home/sc51754/softwares/g09e01/l301.exe)
 General basis read from cards:  (5D, 7F)
 Centers:       8      9     10     11     12     14     15
 S 4 1.00
     Exponent=  7.5423000000D+01 Coefficients=  2.4065000000D-03
     Exponent=  1.1350000000D+01 Coefficients=  1.8487000000D-02
     Exponent=  2.5993000000D+00 Coefficients=  8.9742000000D-02
     Exponent=  7.3513000000D-01 Coefficients=  2.8111000000D-01
 S 1 1.00
     Exponent=  2.3167000000D-01 Coefficients=  1.0000000000D+00
 S 1 1.00
     Exponent=  7.4147000000D-02 Coefficients=  1.0000000000D+00
 P 1 1.00
     Exponent=  1.6000000000D+00 Coefficients=  1.0000000000D+00
 P 1 1.00
     Exponent=  4.5000000000D-01 Coefficients=  1.0000000000D+00
 D 1 1.00
     Exponent=  1.2500000000D+00 Coefficients=  1.0000000000D+00
 ****
 Centers:       3      4      5      6      7
 S 7 1.00
     Exponent=  7.8571000000D+03 Coefficients=  5.6825000000D-04
     Exponent=  1.1787000000D+03 Coefficients=  4.3915000000D-03
     Exponent=  2.6832000000D+02 Coefficients=  2.2504000000D-02
     Exponent=  7.5948000000D+01 Coefficients=  8.6653000000D-02
     Exponent=  2.4559000000D+01 Coefficients=  2.4405000000D-01
     Exponent=  8.6212000000D+00 Coefficients=  4.4148000000D-01
     Exponent=  3.1278000000D+00 Coefficients=  3.5332000000D-01
 S 7 1.00
     Exponent=  1.1787000000D+03 Coefficients= -5.9492000000D-07
     Exponent=  2.6832000000D+02 Coefficients= -6.2748000000D-05
     Exponent=  7.5948000000D+01 Coefficients= -7.5773000000D-04
     Exponent=  2.4559000000D+01 Coefficients= -7.3308000000D-03
     Exponent=  8.6212000000D+00 Coefficients= -3.8932000000D-02
     Exponent=  3.1278000000D+00 Coefficients= -8.8908000000D-02
     Exponent=  8.2202000000D-01 Coefficients=  2.1689000000D-01
 S 1 1.00
     Exponent=  3.3017000000D-01 Coefficients=  1.0000000000D+00
 S 1 1.00
     Exponent=  1.1463000000D-01 Coefficients=  1.0000000000D+00
 P 4 1.00
     Exponent=  3.3775000000D+01 Coefficients=  6.0294000000D-03
     Exponent=  7.6766000000D+00 Coefficients=  4.3228000000D-02
     Exponent=  2.2357000000D+00 Coefficients=  1.6301000000D-01
     Exponent=  7.6447000000D-01 Coefficients=  3.6504000000D-01
 P 1 1.00
     Exponent=  2.6232000000D-01 Coefficients=  1.0000000000D+00
 P 1 1.00
     Exponent=  8.4638000000D-02 Coefficients=  1.0000000000D+00
 D 1 1.00
     Exponent=  1.4000000000D+00 Coefficients=  1.0000000000D+00
 D 1 1.00
     Exponent=  4.5000000000D-01 Coefficients=  1.0000000000D+00
 F 1 1.00
     Exponent=  9.5000000000D-01 Coefficients=  1.0000000000D+00
 ****
 Centers:       2
 S 7 1.00
     Exponent=  1.1101000000D+04 Coefficients=  5.4570000000D-04
     Exponent=  1.6653000000D+03 Coefficients=  4.2181000000D-03
     Exponent=  3.7908000000D+02 Coefficients=  2.1645000000D-02
     Exponent=  1.0730000000D+02 Coefficients=  8.3776000000D-02
     Exponent=  3.4747000000D+01 Coefficients=  2.3881000000D-01
     Exponent=  1.2249000000D+01 Coefficients=  4.3994000000D-01
     Exponent=  4.4743000000D+00 Coefficients=  3.6364000000D-01
 S 7 1.00
     Exponent=  1.6653000000D+03 Coefficients= -1.5006000000D-06
     Exponent=  3.7908000000D+02 Coefficients= -5.8753000000D-05
     Exponent=  1.0730000000D+02 Coefficients= -7.7453000000D-04
     Exponent=  3.4747000000D+01 Coefficients= -7.2161000000D-03
     Exponent=  1.2249000000D+01 Coefficients= -3.9338000000D-02
     Exponent=  4.4743000000D+00 Coefficients= -9.0611000000D-02
     Exponent=  1.2404000000D+00 Coefficients=  1.9882000000D-01
 S 1 1.00
     Exponent=  4.8743000000D-01 Coefficients=  1.0000000000D+00
 S 1 1.00
     Exponent=  1.6484000000D-01 Coefficients=  1.0000000000D+00
 P 4 1.00
     Exponent=  4.7934000000D+01 Coefficients=  6.1706000000D-03
     Exponent=  1.0999000000D+01 Coefficients=  4.4260000000D-02
     Exponent=  3.2472000000D+00 Coefficients=  1.6825000000D-01
     Exponent=  1.1114000000D+00 Coefficients=  3.6848000000D-01
 P 1 1.00
     Exponent=  3.7988000000D-01 Coefficients=  1.0000000000D+00
 P 1 1.00
     Exponent=  1.2068000000D-01 Coefficients=  1.0000000000D+00
 D 1 1.00
     Exponent=  1.8000000000D+00 Coefficients=  1.0000000000D+00
 D 1 1.00
     Exponent=  5.5000000000D-01 Coefficients=  1.0000000000D+00
 F 1 1.00
     Exponent=  1.0200000000D+00 Coefficients=  1.0000000000D+00
 ****
 Centers:       1     13
 S 7 1.00
     Exponent=  1.4782000000D+04 Coefficients=  5.3519000000D-04
     Exponent=  2.2173000000D+03 Coefficients=  4.1375000000D-03
     Exponent=  5.0474000000D+02 Coefficients=  2.1245000000D-02
     Exponent=  1.4287000000D+02 Coefficients=  8.2453000000D-02
     Exponent=  4.6300000000D+01 Coefficients=  2.3671000000D-01
     Exponent=  1.6337000000D+01 Coefficients=  4.4039000000D-01
     Exponent=  5.9828000000D+00 Coefficients=  3.6465000000D-01
 S 7 1.00
     Exponent=  2.2173000000D+03 Coefficients= -1.9275000000D-06
     Exponent=  5.0474000000D+02 Coefficients= -5.7964000000D-05
     Exponent=  1.4287000000D+02 Coefficients= -7.9494000000D-04
     Exponent=  4.6300000000D+01 Coefficients= -7.3125000000D-03
     Exponent=  1.6337000000D+01 Coefficients= -4.0574000000D-02
     Exponent=  5.9828000000D+00 Coefficients= -9.1594000000D-02
     Exponent=  1.6718000000D+00 Coefficients=  2.0940000000D-01
 S 1 1.00
     Exponent=  6.4662000000D-01 Coefficients=  1.0000000000D+00
 S 1 1.00
     Exponent=  2.1669000000D-01 Coefficients=  1.0000000000D+00
 P 4 1.00
     Exponent=  6.0424000000D+01 Coefficients=  6.8949000000D-03
     Exponent=  1.3935000000D+01 Coefficients=  4.9005000000D-02
     Exponent=  4.1531000000D+00 Coefficients=  1.8255000000D-01
     Exponent=  1.4158000000D+00 Coefficients=  3.7633000000D-01
 P 1 1.00
     Exponent=  4.7549000000D-01 Coefficients=  1.0000000000D+00
 P 1 1.00
     Exponent=  1.4529000000D-01 Coefficients=  1.0000000000D+00
 D 1 1.00
     Exponent=  2.2000000000D+00 Coefficients=  1.0000000000D+00
 D 1 1.00
     Exponent=  6.5000000000D-01 Coefficients=  1.0000000000D+00
 F 1 1.00
     Exponent=  1.1000000000D+00 Coefficients=  1.0000000000D+00
 ****
 Ernie: Thresh=  0.10000D-02 Tol=  0.10000D-05 Strict=F.
 Ernie:  8 primitive shells out of 263 were deleted.
 There are   385 symmetry adapted cartesian basis functions of A   symmetry.
 There are   338 symmetry adapted basis functions of A   symmetry.
   338 basis functions,   566 primitive gaussians,   385 cartesian basis functions
    30 alpha electrons       30 beta electrons
       nuclear repulsion energy       367.5808199704 Hartrees.
 IExCor=  402 DFT=T Ex=B Corr=LYP ExCW=0 ScaHFX=  0.000000
 ScaDFX=  1.000000  1.000000  1.000000  1.000000 ScalE2=  1.000000  1.000000
 IRadAn=      0 IRanWt=     -1 IRanGd=            0 ICorTp=0 IEmpDi=  4
 NAtoms=   15 NActive=   15 NUniq=   15 SFac= 1.00D+00 NAtFMM=   60 NAOKFM=F Big=F
 Integral buffers will be    131072 words long.
 Raffenetti 2 integral format.
 Two-electron integral symmetry is turned on.
 Leave Link  301 at Sat Aug 28 23:52:35 2021, MaxMem= 17179869184 cpu:        21.5
 (Enter /public3/home/sc51754/softwares/g09e01/l302.exe)
 NPDir=0 NMtPBC=     1 NCelOv=     1 NCel=       1 NClECP=     1 NCelD=      1
         NCelK=      1 NCelE2=     1 NClLst=     1 CellRange=     0.0.
 One-electron integrals computed using PRISM.
 NBasis=   338 RedAO= T EigKep=  1.55D-04  NBF=   338
 NBsUse=   338 1.00D-06 EigRej= -1.00D+00 NBFU=   338
 Precomputing XC quadrature grid using
 IXCGrd= 4 IRadAn=           0 IRanWt=          -1 IRanGd=           0 AccXCQ= 0.00D+00.
 Generated NRdTot=       0 NPtTot=           0 NUsed=           0 NTot=          32
 NSgBfM=   385   385   385   385   385 MxSgAt=    15 MxSgA2=    15.
 Leave Link  302 at Sat Aug 28 23:52:38 2021, MaxMem= 17179869184 cpu:        80.9
 (Enter /public3/home/sc51754/softwares/g09e01/l303.exe)
 DipDrv:  MaxL=1.
 Leave Link  303 at Sat Aug 28 23:52:39 2021, MaxMem= 17179869184 cpu:        13.0
 (Enter /public3/home/sc51754/softwares/g09e01/l401.exe)
 ExpMin= 7.41D-02 ExpMax= 1.48D+04 ExpMxC= 5.05D+02 IAcc=2 IRadAn=         4 AccDes= 0.00D+00
 Harris functional with IExCor=  402 and IRadAn=       4 diagonalized for initial guess.
 HarFok:  IExCor=  402 AccDes= 0.00D+00 IRadAn=         4 IDoV= 1 UseB2=F ITyADJ=14
 ICtDFT=  3500011 ScaDFX=  1.000000  1.000000  1.000000  1.000000
 FoFCou: FMM=F IPFlag=           0 FMFlag=      100000 FMFlg1=           0
         NFxFlg=           0 DoJE=T BraDBF=F KetDBF=T FulRan=T
         wScrn=  0.000000 ICntrl=     500 IOpCl=  0 I1Cent=   200000004 NGrid=           0
         NMat0=    1 NMatS0=      1 NMatT0=    0 NMatD0=    1 NMtDS0=    0 NMtDT0=    0
 Petite list used in FoFCou.
 Harris En= -400.146929450715    
 JPrj=0 DoOrth=F DoCkMO=F.
 Leave Link  401 at Sat Aug 28 23:52:41 2021, MaxMem= 17179869184 cpu:        70.0
 (Enter /public3/home/sc51754/softwares/g09e01/l502.exe)
 Closed shell SCF:
 Using DIIS extrapolation, IDIIS=  1040.
 Integral symmetry usage will be decided dynamically.
 Keep J ints in memory in canonical form, NReq=1670404686.
 IVT=      490665 IEndB=      490665 NGot= 17179869184 MDV= 15538220534
 LenX= 15538220534 LenY= 15538071868
 Requested convergence on RMS density matrix=1.00D-08 within 128 cycles.
 Requested convergence on MAX density matrix=1.00D-06.
 Requested convergence on             energy=1.00D-06.
 No special actions if energy rises.
 FoFCou: FMM=F IPFlag=           0 FMFlag=           0 FMFlg1=           0
         NFxFlg=           0 DoJE=F BraDBF=F KetDBF=F FulRan=T
         wScrn=  0.000000 ICntrl=     600 IOpCl=  0 I1Cent=           0 NGrid=           0
         NMat0=    1 NMatS0=  57291 NMatT0=    0 NMatD0=    1 NMtDS0=    0 NMtDT0=    0
 Symmetry not used in FoFCou.
 Integral accuracy reduced to 1.0D-05 until final iterations.

 Cycle   1  Pass 0  IDiag  1:
 E= -399.762130568768    
 DIIS: error= 2.36D-02 at cycle   1 NSaved=   1.
 NSaved= 1 IEnMin= 1 EnMin= -399.762130568768     IErMin= 1 ErrMin= 2.36D-02
 ErrMax= 2.36D-02  0.00D+00 EMaxC= 1.00D-01 BMatC= 2.74D-01 BMatP= 2.74D-01
 IDIUse=3 WtCom= 7.64D-01 WtEn= 2.36D-01
 Coeff-Com:  0.100D+01
 Coeff-En:   0.100D+01
 Coeff:      0.100D+01
 Gap=     0.094 Goal=   None    Shift=    0.000
 GapD=    0.094 DampG=0.500 DampE=0.500 DampFc=0.2500 IDamp=-1.
 Damping current iteration by 2.50D-01
 RMSDP=4.31D-03 MaxDP=1.51D-01              OVMax= 4.13D-01

 Cycle   2  Pass 0  IDiag  1:
 E= -399.833952157431     Delta-E=       -0.071821588663 Rises=F Damp=T
 DIIS: error= 1.14D-02 at cycle   2 NSaved=   2.
 NSaved= 2 IEnMin= 2 EnMin= -399.833952157431     IErMin= 2 ErrMin= 1.14D-02
 ErrMax= 1.14D-02  0.00D+00 EMaxC= 1.00D-01 BMatC= 3.53D-02 BMatP= 2.74D-01
 IDIUse=3 WtCom= 8.86D-01 WtEn= 1.14D-01
 Coeff-Com: -0.289D+00 0.129D+01
 Coeff-En:   0.836D-01 0.916D+00
 Coeff:     -0.246D+00 0.125D+01
 Gap=     0.189 Goal=   None    Shift=    0.000
 RMSDP=1.13D-03 MaxDP=4.56D-02 DE=-7.18D-02 OVMax= 3.70D-01

 Cycle   3  Pass 0  IDiag  1:
 E= -399.901652978557     Delta-E=       -0.067700821126 Rises=F Damp=F
 DIIS: error= 1.16D-02 at cycle   3 NSaved=   3.
 NSaved= 3 IEnMin= 3 EnMin= -399.901652978557     IErMin= 2 ErrMin= 1.14D-02
 ErrMax= 1.16D-02  0.00D+00 EMaxC= 1.00D-01 BMatC= 9.92D-02 BMatP= 3.53D-02
 IDIUse=2 WtCom= 0.00D+00 WtEn= 1.00D+00
 EnCoef did     5 forward-backward iterations
 Coeff-En:   0.415D-02 0.216D+00 0.780D+00
 Coeff:      0.415D-02 0.216D+00 0.780D+00
 Gap=     0.095 Goal=   None    Shift=    0.000
 RMSDP=2.56D-03 MaxDP=1.57D-01 DE=-6.77D-02 OVMax= 6.08D-01

 Cycle   4  Pass 0  IDiag  1:
 E= -399.253053870418     Delta-E=        0.648599108139 Rises=F Damp=F
 DIIS: error= 4.47D-02 at cycle   4 NSaved=   4.
 NSaved= 4 IEnMin= 3 EnMin= -399.901652978557     IErMin= 2 ErrMin= 1.14D-02
 ErrMax= 4.47D-02  0.00D+00 EMaxC= 1.00D-01 BMatC= 7.98D-01 BMatP= 3.53D-02
 IDIUse=2 WtCom= 0.00D+00 WtEn= 1.00D+00
 Coeff-En:   0.000D+00 0.000D+00 0.814D+00 0.186D+00
 Coeff:      0.000D+00 0.000D+00 0.814D+00 0.186D+00
 Gap=     0.109 Goal=   None    Shift=    0.000
 RMSDP=1.58D-03 MaxDP=9.72D-02 DE= 6.49D-01 OVMax= 4.09D-01

 Cycle   5  Pass 0  IDiag  1:
 E= -399.931311967797     Delta-E=       -0.678258097379 Rises=F Damp=F
 DIIS: error= 9.87D-03 at cycle   5 NSaved=   5.
 NSaved= 5 IEnMin= 5 EnMin= -399.931311967797     IErMin= 5 ErrMin= 9.87D-03
 ErrMax= 9.87D-03  0.00D+00 EMaxC= 1.00D-01 BMatC= 6.75D-02 BMatP= 3.53D-02
 IDIUse=3 WtCom= 9.14D-02 WtEn= 9.09D-01
 Coeff-Com: -0.130D+00 0.343D+00 0.389D+00-0.227D-01 0.421D+00
 Coeff-En:   0.000D+00 0.000D+00 0.432D+00 0.000D+00 0.568D+00
 Coeff:     -0.119D-01 0.314D-01 0.428D+00-0.207D-02 0.554D+00
 Gap=     0.127 Goal=   None    Shift=    0.000
 RMSDP=6.35D-04 MaxDP=3.58D-02 DE=-6.78D-01 OVMax= 1.44D-01

 Cycle   6  Pass 0  IDiag  1:
 E= -399.989811227512     Delta-E=       -0.058499259715 Rises=F Damp=F
 DIIS: error= 3.56D-03 at cycle   6 NSaved=   6.
 NSaved= 6 IEnMin= 6 EnMin= -399.989811227512     IErMin= 6 ErrMin= 3.56D-03
 ErrMax= 3.56D-03  0.00D+00 EMaxC= 1.00D-01 BMatC= 3.91D-03 BMatP= 3.53D-02
 IDIUse=3 WtCom= 9.64D-01 WtEn= 3.56D-02
 Coeff-Com: -0.358D-01 0.699D-01 0.213D+00-0.365D-01 0.382D+00 0.408D+00
 Coeff-En:   0.000D+00 0.000D+00 0.000D+00 0.000D+00 0.115D-02 0.999D+00
 Coeff:     -0.345D-01 0.674D-01 0.205D+00-0.352D-01 0.368D+00 0.429D+00
 Gap=     0.124 Goal=   None    Shift=    0.000
 RMSDP=1.60D-04 MaxDP=9.46D-03 DE=-5.85D-02 OVMax= 2.67D-02

 Cycle   7  Pass 0  IDiag  1:
 E= -399.992913840387     Delta-E=       -0.003102612875 Rises=F Damp=F
 DIIS: error= 1.16D-03 at cycle   7 NSaved=   7.
 NSaved= 7 IEnMin= 7 EnMin= -399.992913840387     IErMin= 7 ErrMin= 1.16D-03
 ErrMax= 1.16D-03  0.00D+00 EMaxC= 1.00D-01 BMatC= 4.30D-04 BMatP= 3.91D-03
 IDIUse=3 WtCom= 9.88D-01 WtEn= 1.16D-02
 Coeff-Com: -0.143D-01 0.301D-01 0.102D+00-0.225D-01 0.187D+00 0.279D+00
 Coeff-Com:  0.439D+00
 Coeff-En:   0.000D+00 0.000D+00 0.000D+00 0.000D+00 0.000D+00 0.101D+00
 Coeff-En:   0.899D+00
 Coeff:     -0.142D-01 0.298D-01 0.101D+00-0.223D-01 0.185D+00 0.277D+00
 Coeff:      0.445D+00
 Gap=     0.124 Goal=   None    Shift=    0.000
 RMSDP=5.59D-05 MaxDP=2.95D-03 DE=-3.10D-03 OVMax= 1.31D-02

 Cycle   8  Pass 0  IDiag  1:
 E= -399.993286795237     Delta-E=       -0.000372954850 Rises=F Damp=F
 DIIS: error= 4.37D-04 at cycle   8 NSaved=   8.
 NSaved= 8 IEnMin= 8 EnMin= -399.993286795237     IErMin= 8 ErrMin= 4.37D-04
 ErrMax= 4.37D-04  0.00D+00 EMaxC= 1.00D-01 BMatC= 6.77D-05 BMatP= 4.30D-04
 IDIUse=3 WtCom= 9.96D-01 WtEn= 4.37D-03
 Coeff-Com:  0.276D-02 0.769D-03 0.202D-01-0.383D-02 0.183D-01 0.749D-01
 Coeff-Com:  0.310D+00 0.577D+00
 Coeff-En:   0.000D+00 0.000D+00 0.000D+00 0.000D+00 0.000D+00 0.000D+00
 Coeff-En:   0.675D-01 0.932D+00
 Coeff:      0.275D-02 0.766D-03 0.201D-01-0.381D-02 0.182D-01 0.746D-01
 Coeff:      0.309D+00 0.578D+00
 Gap=     0.125 Goal=   None    Shift=    0.000
 RMSDP=2.25D-05 MaxDP=1.19D-03 DE=-3.73D-04 OVMax= 5.52D-03

 Cycle   9  Pass 0  IDiag  1:
 E= -399.993343987111     Delta-E=       -0.000057191874 Rises=F Damp=F
 DIIS: error= 2.16D-04 at cycle   9 NSaved=   9.
 NSaved= 9 IEnMin= 9 EnMin= -399.993343987111     IErMin= 9 ErrMin= 2.16D-04
 ErrMax= 2.16D-04  0.00D+00 EMaxC= 1.00D-01 BMatC= 8.12D-06 BMatP= 6.77D-05
 IDIUse=3 WtCom= 9.98D-01 WtEn= 2.16D-03
 Coeff-Com:  0.471D-02-0.618D-02 0.674D-02-0.925D-03 0.112D-02 0.372D-01
 Coeff-Com:  0.178D+00 0.387D+00 0.392D+00
 Coeff-En:   0.000D+00 0.000D+00 0.000D+00 0.000D+00 0.000D+00 0.000D+00
 Coeff-En:   0.000D+00 0.430D-01 0.957D+00
 Coeff:      0.470D-02-0.617D-02 0.672D-02-0.923D-03 0.112D-02 0.371D-01
 Coeff:      0.178D+00 0.386D+00 0.393D+00
 Gap=     0.125 Goal=   None    Shift=    0.000
 RMSDP=6.91D-06 MaxDP=4.94D-04 DE=-5.72D-05 OVMax= 1.39D-03

 Initial convergence to 1.0D-05 achieved.  Increase integral accuracy.
 Cycle  10  Pass 1  IDiag  1:
 E= -399.993264417956     Delta-E=        0.000079569156 Rises=F Damp=F
 DIIS: error= 4.45D-05 at cycle   1 NSaved=   1.
 NSaved= 1 IEnMin= 1 EnMin= -399.993264417956     IErMin= 1 ErrMin= 4.45D-05
 ErrMax= 4.45D-05  0.00D+00 EMaxC= 1.00D-01 BMatC= 5.09D-07 BMatP= 5.09D-07
 IDIUse=1 WtCom= 1.00D+00 WtEn= 0.00D+00
 Coeff-Com:  0.100D+01
 Coeff:      0.100D+01
 Gap=     0.125 Goal=   None    Shift=    0.000
 RMSDP=6.91D-06 MaxDP=4.94D-04 DE= 7.96D-05 OVMax= 5.34D-04

 Cycle  11  Pass 1  IDiag  1:
 E= -399.993264231568     Delta-E=        0.000000186387 Rises=F Damp=F
 DIIS: error= 3.92D-05 at cycle   2 NSaved=   2.
 NSaved= 2 IEnMin= 1 EnMin= -399.993264417956     IErMin= 2 ErrMin= 3.92D-05
 ErrMax= 3.92D-05  0.00D+00 EMaxC= 1.00D-01 BMatC= 1.04D-06 BMatP= 5.09D-07
 IDIUse=1 WtCom= 1.00D+00 WtEn= 0.00D+00
 Coeff-Com:  0.612D+00 0.388D+00
 Coeff:      0.612D+00 0.388D+00
 Gap=     0.125 Goal=   None    Shift=    0.000
 RMSDP=2.65D-06 MaxDP=1.72D-04 DE= 1.86D-07 OVMax= 3.89D-04

 Cycle  12  Pass 1  IDiag  1:
 E= -399.993264879965     Delta-E=       -0.000000648396 Rises=F Damp=F
 DIIS: error= 1.73D-05 at cycle   3 NSaved=   3.
 NSaved= 3 IEnMin= 3 EnMin= -399.993264879965     IErMin= 3 ErrMin= 1.73D-05
 ErrMax= 1.73D-05  0.00D+00 EMaxC= 1.00D-01 BMatC= 2.18D-07 BMatP= 5.09D-07
 IDIUse=1 WtCom= 1.00D+00 WtEn= 0.00D+00
 Coeff-Com:  0.971D-01 0.301D+00 0.602D+00
 Coeff:      0.971D-01 0.301D+00 0.602D+00
 Gap=     0.125 Goal=   None    Shift=    0.000
 RMSDP=1.27D-06 MaxDP=8.04D-05 DE=-6.48D-07 OVMax= 2.37D-04

 Cycle  13  Pass 1  IDiag  1:
 E= -399.993264997180     Delta-E=       -0.000000117215 Rises=F Damp=F
 DIIS: error= 1.02D-05 at cycle   4 NSaved=   4.
 NSaved= 4 IEnMin= 4 EnMin= -399.993264997180     IErMin= 4 ErrMin= 1.02D-05
 ErrMax= 1.02D-05  0.00D+00 EMaxC= 1.00D-01 BMatC= 5.51D-08 BMatP= 2.18D-07
 IDIUse=1 WtCom= 1.00D+00 WtEn= 0.00D+00
 Coeff-Com:  0.591D-02 0.173D+00 0.445D+00 0.377D+00
 Coeff:      0.591D-02 0.173D+00 0.445D+00 0.377D+00
 Gap=     0.125 Goal=   None    Shift=    0.000
 RMSDP=6.06D-07 MaxDP=3.61D-05 DE=-1.17D-07 OVMax= 1.31D-04

 Cycle  14  Pass 1  IDiag  1:
 E= -399.993265047184     Delta-E=       -0.000000050005 Rises=F Damp=F
 DIIS: error= 4.74D-06 at cycle   5 NSaved=   5.
 NSaved= 5 IEnMin= 5 EnMin= -399.993265047184     IErMin= 5 ErrMin= 4.74D-06
 ErrMax= 4.74D-06  0.00D+00 EMaxC= 1.00D-01 BMatC= 3.95D-09 BMatP= 5.51D-08
 IDIUse=1 WtCom= 1.00D+00 WtEn= 0.00D+00
 Coeff-Com: -0.291D-02 0.985D-01 0.268D+00 0.261D+00 0.376D+00
 Coeff:     -0.291D-02 0.985D-01 0.268D+00 0.261D+00 0.376D+00
 Gap=     0.125 Goal=   None    Shift=    0.000
 RMSDP=1.82D-07 MaxDP=9.92D-06 DE=-5.00D-08 OVMax= 4.22D-05

 Cycle  15  Pass 1  IDiag  1:
 E= -399.993265051044     Delta-E=       -0.000000003860 Rises=F Damp=F
 DIIS: error= 1.14D-06 at cycle   6 NSaved=   6.
 NSaved= 6 IEnMin= 6 EnMin= -399.993265051044     IErMin= 6 ErrMin= 1.14D-06
 ErrMax= 1.14D-06  0.00D+00 EMaxC= 1.00D-01 BMatC= 2.86D-10 BMatP= 3.95D-09
 IDIUse=1 WtCom= 1.00D+00 WtEn= 0.00D+00
 Coeff-Com: -0.247D-02 0.465D-01 0.130D+00 0.132D+00 0.258D+00 0.436D+00
 Coeff:     -0.247D-02 0.465D-01 0.130D+00 0.132D+00 0.258D+00 0.436D+00
 Gap=     0.125 Goal=   None    Shift=    0.000
 RMSDP=5.06D-08 MaxDP=2.65D-06 DE=-3.86D-09 OVMax= 1.09D-05

 Cycle  16  Pass 1  IDiag  1:
 E= -399.993265051375     Delta-E=       -0.000000000330 Rises=F Damp=F
 DIIS: error= 2.28D-07 at cycle   7 NSaved=   7.
 NSaved= 7 IEnMin= 7 EnMin= -399.993265051375     IErMin= 7 ErrMin= 2.28D-07
 ErrMax= 2.28D-07  0.00D+00 EMaxC= 1.00D-01 BMatC= 1.82D-11 BMatP= 2.86D-10
 IDIUse=1 WtCom= 1.00D+00 WtEn= 0.00D+00
 Coeff-Com: -0.126D-02 0.214D-01 0.603D-01 0.622D-01 0.133D+00 0.271D+00
 Coeff-Com:  0.453D+00
 Coeff:     -0.126D-02 0.214D-01 0.603D-01 0.622D-01 0.133D+00 0.271D+00
 Coeff:      0.453D+00
 Gap=     0.125 Goal=   None    Shift=    0.000
 RMSDP=1.02D-08 MaxDP=7.75D-07 DE=-3.30D-10 OVMax= 1.31D-06

 Cycle  17  Pass 1  IDiag  1:
 E= -399.993265051388     Delta-E=       -0.000000000014 Rises=F Damp=F
 DIIS: error= 3.59D-08 at cycle   8 NSaved=   8.
 NSaved= 8 IEnMin= 8 EnMin= -399.993265051388     IErMin= 8 ErrMin= 3.59D-08
 ErrMax= 3.59D-08  0.00D+00 EMaxC= 1.00D-01 BMatC= 6.37D-13 BMatP= 1.82D-11
 IDIUse=1 WtCom= 1.00D+00 WtEn= 0.00D+00
 Coeff-Com: -0.243D-03 0.378D-02 0.105D-01 0.114D-01 0.260D-01 0.664D-01
 Coeff-Com:  0.194D+00 0.688D+00
 Coeff:     -0.243D-03 0.378D-02 0.105D-01 0.114D-01 0.260D-01 0.664D-01
 Coeff:      0.194D+00 0.688D+00
 Gap=     0.125 Goal=   None    Shift=    0.000
 RMSDP=2.43D-09 MaxDP=1.42D-07 DE=-1.38D-11 OVMax= 3.09D-07

 SCF Done:  E(RB-LYP) =  -399.993265051     A.U. after   17 cycles
            NFock= 17  Conv=0.24D-08     -V/T= 2.0022
 KE= 3.990974206228D+02 PE=-1.671836959137D+03 EE= 5.051654534924D+02
 Leave Link  502 at Sat Aug 28 23:53:13 2021, MaxMem= 17179869184 cpu:       430.1
 (Enter /public3/home/sc51754/softwares/g09e01/l801.exe)
 Range of M.O.s used for correlation:     1   338
 NBasis=   338 NAE=    30 NBE=    30 NFC=     0 NFV=     0
 NROrb=    338 NOA=    30 NOB=    30 NVA=   308 NVB=   308

 **** Warning!!: The largest alpha MO coefficient is  0.14695939D+02

 Leave Link  801 at Sat Aug 28 23:53:14 2021, MaxMem= 17179869184 cpu:         6.1
 (Enter /public3/home/sc51754/softwares/g09e01/l1101.exe)
 Using compressed storage, NAtomX=    15.
 Will process     16 centers per pass.
 Leave Link 1101 at Sat Aug 28 23:53:17 2021, MaxMem= 17179869184 cpu:        74.8
 (Enter /public3/home/sc51754/softwares/g09e01/l1102.exe)
 Symmetrizing basis deriv contribution to polar:
 IMax=3 JMax=2 DiffMx= 0.00D+00
 Leave Link 1102 at Sat Aug 28 23:53:18 2021, MaxMem= 17179869184 cpu:        22.7
 (Enter /public3/home/sc51754/softwares/g09e01/l1110.exe)
 Forming Gx(P) for the SCF density, NAtomX=    15.
 Integral derivatives from FoFJK, PRISM(SPDF).
 Do as many integral derivatives as possible in FoFJK.
 G2DrvN: MDV=   17179868960.
 G2DrvN: will do    16 centers at a time, making    1 passes.
 Calling FoFCou, ICntrl=  3507 FMM=F I1Cent=   0 AccDes= 0.00D+00.
 FoFJK:  IHMeth= 1 ICntrl=    3507 DoSepK=F KAlg= 0 I1Cent=   0 FoldK=F
 IRaf=         0 NMat=   1 IRICut=       1 DoRegI=T DoRafI=F ISym2E= 0.
 FoFCou: FMM=F IPFlag=           0 FMFlag=      100000 FMFlg1=           0
         NFxFlg=           0 DoJE=F BraDBF=F KetDBF=F FulRan=T
         wScrn=  0.000000 ICntrl=    3507 IOpCl=  0 I1Cent=           0 NGrid=           0
         NMat0=    1 NMatS0=      1 NMatT0=    0 NMatD0=    1 NMtDS0=    0 NMtDT0=    0
 Symmetry not used in FoFCou.
 End of G2Drv F.D. properties file   721 does not exist.
 End of G2Drv F.D. properties file   722 does not exist.
 End of G2Drv F.D. properties file   788 does not exist.
 Leave Link 1110 at Sat Aug 28 23:53:30 2021, MaxMem= 17179869184 cpu:       689.3
 (Enter /public3/home/sc51754/softwares/g09e01/l1002.exe)
 Minotr:  Closed shell wavefunction.
          IDoAtm=111111111111111
          Direct CPHF calculation.
          Differentiating once with respect to nuclear coordinates.
          Requested convergence is 1.0D-08 RMS, and 1.0D-07 maximum.
          Secondary convergence is 1.0D-12 RMS, and 1.0D-12 maximum.
          NewPWx=T KeepS1=F KeepF1=F KeepIn=T MapXYZ=F SortEE=F KeepMc=T.
          MDV=   17179868692 using IRadAn=       2.
 Generate precomputed XC quadrature information.
 Keep J ints in memory in canonical form, NReq=1669919891.
 FoFCou: FMM=F IPFlag=           0 FMFlag=           0 FMFlg1=           0
         NFxFlg=           0 DoJE=F BraDBF=F KetDBF=F FulRan=T
         wScrn=  0.000000 ICntrl=     600 IOpCl=  0 I1Cent=           0 NGrid=           0
         NMat0=    1 NMatS0=  57291 NMatT0=    0 NMatD0=    1 NMtDS0=    0 NMtDT0=    0
 Symmetry not used in FoFCou.
          Solving linear equations simultaneously, MaxMat=       0.
          There are    48 degrees of freedom in the 1st order CPHF.  IDoFFX=6 NUNeed=     0.
     42 vectors produced by pass  0 Test12= 1.92D-14 2.08D-09 XBig12= 1.74D-01 1.40D-01.
 AX will form    42 AO Fock derivatives at one time.
     42 vectors produced by pass  1 Test12= 1.92D-14 2.08D-09 XBig12= 8.06D-02 6.79D-02.
     42 vectors produced by pass  2 Test12= 1.92D-14 2.08D-09 XBig12= 4.22D-04 2.59D-03.
     42 vectors produced by pass  3 Test12= 1.92D-14 2.08D-09 XBig12= 9.65D-07 7.55D-05.
     42 vectors produced by pass  4 Test12= 1.92D-14 2.08D-09 XBig12= 8.25D-10 2.80D-06.
     18 vectors produced by pass  5 Test12= 1.92D-14 2.08D-09 XBig12= 2.35D-13 3.97D-08.
      5 vectors produced by pass  6 Test12= 1.92D-14 2.08D-09 XBig12= 6.04D-16 3.54D-09.
 InvSVY:  IOpt=1 It=  1 EMax= 1.33D-15
 Solved reduced A of dimension   233 with    42 vectors.
 End of Minotr F.D. properties file   721 does not exist.
 End of Minotr F.D. properties file   722 does not exist.
 End of Minotr F.D. properties file   788 does not exist.
 Leave Link 1002 at Sat Aug 28 23:53:48 2021, MaxMem= 17179869184 cpu:      1080.8
 (Enter /public3/home/sc51754/softwares/g09e01/l601.exe)
 Copying SCF densities to generalized density rwf, IOpCl= 0 IROHF=0.

 **********************************************************************

            Population analysis using the SCF density.

 **********************************************************************

 Orbital symmetries:
       Occupied  (A) (A) (A) (A) (A) (A) (A) (A) (A) (A) (A) (A)
                 (A) (A) (A) (A) (A) (A) (A) (A) (A) (A) (A) (A)
                 (A) (A) (A) (A) (A) (A)
       Virtual   (A) (A) (A) (A) (A) (A) (A) (A) (A) (A) (A) (A)
                 (A) (A) (A) (A) (A) (A) (A) (A) (A) (A) (A) (A)
                 (A) (A) (A) (A) (A) (A) (A) (A) (A) (A) (A) (A)
                 (A) (A) (A) (A) (A) (A) (A) (A) (A) (A) (A) (A)
                 (A) (A) (A) (A) (A) (A) (A) (A) (A) (A) (A) (A)
                 (A) (A) (A) (A) (A) (A) (A) (A) (A) (A) (A) (A)
                 (A) (A) (A) (A) (A) (A) (A) (A) (A) (A) (A) (A)
                 (A) (A) (A) (A) (A) (A) (A) (A) (A) (A) (A) (A)
                 (A) (A) (A) (A) (A) (A) (A) (A) (A) (A) (A) (A)
                 (A) (A) (A) (A) (A) (A) (A) (A) (A) (A) (A) (A)
                 (A) (A) (A) (A) (A) (A) (A) (A) (A) (A) (A) (A)
                 (A) (A) (A) (A) (A) (A) (A) (A) (A) (A) (A) (A)
                 (A) (A) (A) (A) (A) (A) (A) (A) (A) (A) (A) (A)
                 (A) (A) (A) (A) (A) (A) (A) (A) (A) (A) (A) (A)
                 (A) (A) (A) (A) (A) (A) (A) (A) (A) (A) (A) (A)
                 (A) (A) (A) (A) (A) (A) (A) (A) (A) (A) (A) (A)
                 (A) (A) (A) (A) (A) (A) (A) (A) (A) (A) (A) (A)
                 (A) (A) (A) (A) (A) (A) (A) (A) (A) (A) (A) (A)
                 (A) (A) (A) (A) (A) (A) (A) (A) (A) (A) (A) (A)
                 (A) (A) (A) (A) (A) (A) (A) (A) (A) (A) (A) (A)
                 (A) (A) (A) (A) (A) (A) (A) (A) (A) (A) (A) (A)
                 (A) (A) (A) (A) (A) (A) (A) (A) (A) (A) (A) (A)
                 (A) (A) (A) (A) (A) (A) (A) (A) (A) (A) (A) (A)
                 (A) (A) (A) (A) (A) (A) (A) (A) (A) (A) (A) (A)
                 (A) (A) (A) (A) (A) (A) (A) (A) (A) (A) (A) (A)
                 (A) (A) (A) (A) (A) (A) (A) (A)
 The electronic state is 1-A.
 Alpha  occ. eigenvalues --  -18.78018 -18.74014 -14.02711  -9.99959  -9.96322
 Alpha  occ. eigenvalues --   -9.93517  -9.92193  -9.91936  -0.95883  -0.90228
 Alpha  occ. eigenvalues --   -0.85144  -0.73472  -0.67781  -0.58965  -0.55931
 Alpha  occ. eigenvalues --   -0.50896  -0.48910  -0.44693  -0.43086  -0.41291
 Alpha  occ. eigenvalues --   -0.38732  -0.37935  -0.35220  -0.33698  -0.31997
 Alpha  occ. eigenvalues --   -0.28990  -0.26884  -0.26026  -0.22489  -0.19659
 Alpha virt. eigenvalues --   -0.07161  -0.03529  -0.01031   0.00508   0.02446
 Alpha virt. eigenvalues --    0.04198   0.06203   0.08316   0.08718   0.10184
 Alpha virt. eigenvalues --    0.12252   0.13361   0.14724   0.15678   0.16301
 Alpha virt. eigenvalues --    0.16978   0.18246   0.18787   0.20922   0.22166
 Alpha virt. eigenvalues --    0.23597   0.24724   0.25670   0.25722   0.27089
 Alpha virt. eigenvalues --    0.27281   0.28028   0.28256   0.30011   0.30505
 Alpha virt. eigenvalues --    0.31996   0.32850   0.34743   0.35483   0.36664
 Alpha virt. eigenvalues --    0.38276   0.40084   0.40736   0.41613   0.43597
 Alpha virt. eigenvalues --    0.46837   0.48737   0.49645   0.51073   0.53061
 Alpha virt. eigenvalues --    0.54239   0.57135   0.57775   0.59653   0.60211
 Alpha virt. eigenvalues --    0.60638   0.62524   0.64713   0.68105   0.70555
 Alpha virt. eigenvalues --    0.72838   0.74967   0.76870   0.78291   0.80446
 Alpha virt. eigenvalues --    0.83925   0.86526   0.87211   0.88584   0.89259
 Alpha virt. eigenvalues --    0.91531   0.92670   0.95546   0.97698   1.01254
 Alpha virt. eigenvalues --    1.02330   1.04236   1.05609   1.07598   1.09250
 Alpha virt. eigenvalues --    1.09875   1.10765   1.11548   1.12942   1.15403
 Alpha virt. eigenvalues --    1.16524   1.18401   1.19701   1.20741   1.21168
 Alpha virt. eigenvalues --    1.24450   1.25658   1.27659   1.31529   1.35683
 Alpha virt. eigenvalues --    1.36824   1.39235   1.41588   1.42629   1.43656
 Alpha virt. eigenvalues --    1.45044   1.46987   1.48562   1.52267   1.52839
 Alpha virt. eigenvalues --    1.54550   1.55485   1.58010   1.60759   1.62211
 Alpha virt. eigenvalues --    1.63052   1.64664   1.66514   1.69448   1.71270
 Alpha virt. eigenvalues --    1.75159   1.77298   1.78435   1.79623   1.80871
 Alpha virt. eigenvalues --    1.82204   1.83273   1.87675   1.91063   1.93580
 Alpha virt. eigenvalues --    1.94972   1.97717   1.98536   2.00322   2.02697
 Alpha virt. eigenvalues --    2.04176   2.08433   2.09252   2.12344   2.13441
 Alpha virt. eigenvalues --    2.15075   2.18071   2.19857   2.21085   2.25025
 Alpha virt. eigenvalues --    2.26702   2.36886   2.48416   2.54060   2.64736
 Alpha virt. eigenvalues --    2.74503   2.78120   2.80675   2.85500   2.87488
 Alpha virt. eigenvalues --    3.02483   3.05401   3.06837   3.08327   3.11999
 Alpha virt. eigenvalues --    3.14736   3.15861   3.18073   3.22305   3.23932
 Alpha virt. eigenvalues --    3.26217   3.27506   3.32490   3.33704   3.35683
 Alpha virt. eigenvalues --    3.36253   3.40071   3.40684   3.46881   3.48259
 Alpha virt. eigenvalues --    3.48963   3.51440   3.52095   3.54696   3.54920
 Alpha virt. eigenvalues --    3.55274   3.59523   3.61191   3.63912   3.68136
 Alpha virt. eigenvalues --    3.69511   3.69753   3.75296   3.78397   3.80982
 Alpha virt. eigenvalues --    3.84804   3.85147   3.88157   3.89048   3.94321
 Alpha virt. eigenvalues --    3.94928   3.97405   3.97638   3.98239   4.00250
 Alpha virt. eigenvalues --    4.01595   4.02087   4.04821   4.05416   4.07063
 Alpha virt. eigenvalues --    4.08188   4.10134   4.11208   4.12643   4.13372
 Alpha virt. eigenvalues --    4.14464   4.15888   4.17971   4.18916   4.22014
 Alpha virt. eigenvalues --    4.22669   4.23503   4.24893   4.25532   4.26062
 Alpha virt. eigenvalues --    4.27832   4.30907   4.32151   4.32709   4.34992
 Alpha virt. eigenvalues --    4.36425   4.37107   4.38145   4.39034   4.40709
 Alpha virt. eigenvalues --    4.42381   4.42990   4.46727   4.46989   4.49658
 Alpha virt. eigenvalues --    4.52876   4.53812   4.56226   4.58984   4.65072
 Alpha virt. eigenvalues --    4.66417   4.68495   4.70879   4.74262   4.75164
 Alpha virt. eigenvalues --    4.77080   4.79351   4.82862   4.83370   4.86873
 Alpha virt. eigenvalues --    4.90686   4.92170   4.94156   4.95831   5.00904
 Alpha virt. eigenvalues --    5.02961   5.05317   5.07772   5.10591   5.13569
 Alpha virt. eigenvalues --    5.15195   5.18236   5.21338   5.23718   5.25417
 Alpha virt. eigenvalues --    5.26046   5.30554   5.31039   5.31831   5.35791
 Alpha virt. eigenvalues --    5.38733   5.40590   5.42629   5.44802   5.47153
 Alpha virt. eigenvalues --    5.49796   5.52129   5.52749   5.58394   5.63414
 Alpha virt. eigenvalues --    5.63915   5.69582   5.70212   5.81871   5.85854
 Alpha virt. eigenvalues --    5.89249   5.92141   5.98753   5.99338   6.03723
 Alpha virt. eigenvalues --    6.13749   6.14840   6.19664   6.22958   6.30268
 Alpha virt. eigenvalues --    6.33640   6.35295   6.39742   6.46409   6.47786
 Alpha virt. eigenvalues --    6.54107   6.56446   6.62035   6.70951   6.92335
 Alpha virt. eigenvalues --    6.96054   7.00932   7.11018   7.34916   7.67670
 Alpha virt. eigenvalues --    9.18734  11.88733  12.90667  15.05326  16.67925
 Alpha virt. eigenvalues --   18.23526  18.30187  22.34715
          Condensed to atoms (all electrons):
               1          2          3          4          5          6
     1  O    8.234293  -0.100020   0.395113  -0.079916   0.006100   0.009161
     2  N   -0.100020   6.783860   0.370024  -0.023974   0.441350  -0.026573
     3  C    0.395113   0.370024   4.532359   0.494214  -0.062966  -0.056061
     4  C   -0.079916  -0.023974   0.494214   4.910774  -0.045430   0.495389
     5  C    0.006100   0.441350  -0.062966  -0.045430   4.691655  -0.066107
     6  C    0.009161  -0.026573  -0.056061   0.495389  -0.066107   4.828161
     7  C    0.000607  -0.046086  -0.035158  -0.059075   0.518818   0.452860
     8  H    0.199959   0.006300  -0.015349   0.004844  -0.000419  -0.001148
     9  H    0.007170   0.007855  -0.047663   0.437954  -0.001341  -0.042224
    10  H   -0.000855  -0.048396   0.004816  -0.002538   0.442753   0.009784
    11  H   -0.000630  -0.001813   0.011208  -0.041399   0.009782   0.428666
    12  H    0.000062   0.006411  -0.001848   0.009007  -0.035088  -0.045127
    13  O   -0.143326  -0.183780  -0.003612  -0.000089  -0.002376   0.000598
    14  H    0.009169   0.009316   0.001618   0.000506  -0.000369  -0.000103
    15  H    0.007237   0.169241  -0.019117   0.002523  -0.005544  -0.001643
               7          8          9         10         11         12
     1  O    0.000607   0.199959   0.007170  -0.000855  -0.000630   0.000062
     2  N   -0.046086   0.006300   0.007855  -0.048396  -0.001813   0.006411
     3  C   -0.035158  -0.015349  -0.047663   0.004816   0.011208  -0.001848
     4  C   -0.059075   0.004844   0.437954  -0.002538  -0.041399   0.009007
     5  C    0.518818  -0.000419  -0.001341   0.442753   0.009782  -0.035088
     6  C    0.452860  -0.001148  -0.042224   0.009784   0.428666  -0.045127
     7  C    4.954577   0.000589   0.009100  -0.064429  -0.051049   0.429122
     8  H    0.000589   0.353126   0.000315   0.000057   0.000017  -0.000033
     9  H    0.009100   0.000315   0.574725   0.000330  -0.009563  -0.000005
    10  H   -0.064429   0.000057   0.000330   0.616746  -0.000359  -0.004923
    11  H   -0.051049   0.000017  -0.009563  -0.000359   0.606261  -0.009193
    12  H    0.429122  -0.000033  -0.000005  -0.004923  -0.009193   0.598327
    13  O   -0.002072   0.211540   0.000419   0.000781  -0.000032   0.000080
    14  H    0.000307  -0.012307  -0.000067  -0.000327   0.000007  -0.000012
    15  H    0.002387  -0.020452  -0.000388  -0.004722   0.000142  -0.000017
              13         14         15
     1  O   -0.143326   0.009169   0.007237
     2  N   -0.183780   0.009316   0.169241
     3  C   -0.003612   0.001618  -0.019117
     4  C   -0.000089   0.000506   0.002523
     5  C   -0.002376  -0.000369  -0.005544
     6  C    0.000598  -0.000103  -0.001643
     7  C   -0.002072   0.000307   0.002387
     8  H    0.211540  -0.012307  -0.020452
     9  H    0.000419  -0.000067  -0.000388
    10  H    0.000781  -0.000327  -0.004722
    11  H   -0.000032   0.000007   0.000142
    12  H    0.000080  -0.000012  -0.000017
    13  O    7.931443   0.333818   0.244865
    14  H    0.333818   0.471716  -0.012798
    15  H    0.244865  -0.012798   0.383213
 Mulliken charges:
               1
     1  O   -0.544124
     2  N   -0.363715
     3  C    0.432423
     4  C   -0.102790
     5  C    0.109181
     6  C    0.014367
     7  C   -0.110496
     8  H    0.272961
     9  H    0.063381
    10  H    0.051282
    11  H    0.057952
    12  H    0.053236
    13  O   -0.388258
    14  H    0.199526
    15  H    0.255073
 Sum of Mulliken charges =  -0.00000
 Mulliken charges with hydrogens summed into heavy atoms:
               1
     1  O   -0.544124
     2  N   -0.363715
     3  C    0.432423
     4  C   -0.039409
     5  C    0.160463
     6  C    0.072319
     7  C   -0.057260
    13  O    0.339302
 APT charges:
               1
     1  O   -0.390918
     2  N   -0.348197
     3  C    0.034944
     4  C   -0.488435
     5  C   -0.401073
     6  C   -0.391146
     7  C   -0.449626
     8  H    0.265315
     9  H    0.461382
    10  H    0.438174
    11  H    0.577823
    12  H    0.592328
    13  O   -0.732070
    14  H    0.646527
    15  H    0.184971
 Sum of APT charges =  -0.00000
 APT charges with hydrogens summed into heavy atoms:
               1
     1  O   -0.390918
     2  N   -0.348197
     3  C    0.034944
     4  C   -0.027053
     5  C    0.037102
     6  C    0.186677
     7  C    0.142702
    13  O    0.364743
 Electronic spatial extent (au):  <R**2>=            968.5010
 Charge=             -0.0000 electrons
 Dipole moment (field-independent basis, Debye):
    X=             -1.7599    Y=             -2.3211    Z=              1.3129  Tot=              3.1951
 Quadrupole moment (field-independent basis, Debye-Ang):
   XX=            -43.1842   YY=            -46.4532   ZZ=            -49.6102
   XY=             -4.6310   XZ=              4.5772   YZ=             -1.5160
 Traceless Quadrupole moment (field-independent basis, Debye-Ang):
   XX=              3.2317   YY=             -0.0374   ZZ=             -3.1943
   XY=             -4.6310   XZ=              4.5772   YZ=             -1.5160
 Octapole moment (field-independent basis, Debye-Ang**2):
  XXX=             13.2880  YYY=             -9.9135  ZZZ=              1.0412  XYY=             -3.4634
  XXY=             -6.7819  XXZ=             14.9772  XZZ=             12.2257  YZZ=             -0.7860
  YYZ=              1.5512  XYZ=             -5.0466
 Hexadecapole moment (field-independent basis, Debye-Ang**3):
 XXXX=           -751.3230 YYYY=           -356.2888 ZZZZ=            -56.0459 XXXY=            -19.7339
 XXXZ=             49.0897 YYYX=            -18.4631 YYYZ=             -1.9020 ZZZX=              4.4256
 ZZZY=             -1.6144 XXYY=           -194.3138 XXZZ=           -151.1541 YYZZ=            -77.4275
 XXYZ=            -15.5936 YYXZ=              5.4191 ZZXY=             -4.5508
 N-N= 3.675808199704D+02 E-N=-1.671836965149D+03  KE= 3.990974206228D+02
  Exact polarizability:   0.000   0.000   0.000   0.000   0.000   0.000
 Approx polarizability: 207.410  17.132 186.070   1.747  -1.073  77.840
 No NMR shielding tensors so no spin-rotation constants.
 Leave Link  601 at Sat Aug 28 23:53:50 2021, MaxMem= 17179869184 cpu:        68.8
 (Enter /public3/home/sc51754/softwares/g09e01/l701.exe)
 Compute integral second derivatives.
 ... and contract with generalized density number  0.
 Leave Link  701 at Sat Aug 28 23:53:54 2021, MaxMem= 17179869184 cpu:       127.6
 (Enter /public3/home/sc51754/softwares/g09e01/l702.exe)
 L702 exits ... SP integral derivatives will be done elsewhere.
 Leave Link  702 at Sat Aug 28 23:53:54 2021, MaxMem= 17179869184 cpu:         2.0
 (Enter /public3/home/sc51754/softwares/g09e01/l703.exe)
 Compute integral second derivatives, UseDBF=F ICtDFT=           0.
 Integral derivatives from FoFJK, PRISM(SPDF).
 Calling FoFJK, ICntrl=    100547 FMM=F ISym2X=0 I1Cent= 0 IOpClX= 0 NMat=1 NMatS=1 NMatT=0.
 FoFJK:  IHMeth= 1 ICntrl=  100547 DoSepK=F KAlg= 0 I1Cent=   0 FoldK=F
 IRaf=         0 NMat=   1 IRICut=       1 DoRegI=T DoRafI=F ISym2E= 0.
 FoFCou: FMM=F IPFlag=           0 FMFlag=      100000 FMFlg1=         800
         NFxFlg=           0 DoJE=F BraDBF=F KetDBF=F FulRan=T
         wScrn=  0.000000 ICntrl=  100547 IOpCl=  0 I1Cent=           0 NGrid=           0
         NMat0=    1 NMatS0=      1 NMatT0=    0 NMatD0=    1 NMtDS0=    0 NMtDT0=    0
 Symmetry not used in FoFCou.
 Leave Link  703 at Sat Aug 28 23:54:14 2021, MaxMem= 17179869184 cpu:      1192.2
 (Enter /public3/home/sc51754/softwares/g09e01/l716.exe)
 Dipole        =-6.92383684D-01-9.13203027D-01 5.16550202D-01
 Polarizability= 0.00000000D+00 0.00000000D+00 0.00000000D+00
                 0.00000000D+00 0.00000000D+00 0.00000000D+00
 ***** Axes restored to original set *****
 -------------------------------------------------------------------
 Center     Atomic                   Forces (Hartrees/Bohr)
 Number     Number              X              Y              Z
 -------------------------------------------------------------------
      1        8          -0.026071622   -0.014563713   -0.001077996
      2        7          -0.039939000   -0.012322281    0.000918852
      3        6           0.035135121    0.053307782    0.000235713
      4        6          -0.015520565   -0.007559178    0.000130210
      5        6          -0.008273119   -0.009550130    0.000031035
      6        6           0.002616571    0.008643074    0.000006265
      7        6           0.005576537   -0.006323827   -0.000020269
      8        1          -0.011981849    0.019028084    0.004279540
      9        1           0.001735110   -0.001062383   -0.000002554
     10        1          -0.000091973    0.000268788   -0.000066452
     11        1          -0.000550453   -0.000251259   -0.000024939
     12        1           0.000929924   -0.000385106   -0.000015278
     13        8           0.059552262   -0.026142781   -0.001297483
     14        1           0.005876091    0.003748913    0.000118486
     15        1          -0.008993035   -0.006835984   -0.003215129
 -------------------------------------------------------------------
 Cartesian Forces:  Max     0.059552262 RMS     0.016516038
 FormGI is forming the generalized inverse of G from B-inverse, IUseBI=4.
 Leave Link  716 at Sat Aug 28 23:54:14 2021, MaxMem= 17179869184 cpu:        21.8
 (Enter /public3/home/sc51754/softwares/g09e01/l103.exe)

 GradGradGradGradGradGradGradGradGradGradGradGradGradGradGradGradGradGrad
 Berny optimization.
 Red2BG is reusing G-inverse.
 Internal  Forces:  Max     0.032590488 RMS     0.008551969
 Search for a saddle point.
 Step number   1 out of a maximum of  100
 All quantities printed in internal units (Hartrees-Bohrs-Radians)
 Second derivative matrix not updated -- analytic derivatives used.
 ITU=  0
 LST/QST climbing along tangent vector
     Eigenvalues ---   -0.00309   0.00198   0.00398   0.00542   0.01054
     Eigenvalues ---    0.01162   0.01586   0.01736   0.01986   0.02204
     Eigenvalues ---    0.02562   0.02884   0.03166   0.04426   0.04675
     Eigenvalues ---    0.05293   0.06931   0.09997   0.10519   0.11643
     Eigenvalues ---    0.12568   0.14480   0.18623   0.19288   0.20627
     Eigenvalues ---    0.22605   0.25814   0.27934   0.31502   0.33456
     Eigenvalues ---    0.34084   0.34563   0.34767   0.38577   0.40017
     Eigenvalues ---    0.42489   0.44512   0.49496   0.496911000.00000
     Eigenvalues --- 1000.000001000.000001000.000001000.000001000.00000
     Eigenvalues --- 1000.000001000.000001000.000001000.000001000.00000
     Eigenvalues --- 1000.000001000.000001000.000001000.000001000.00000
     Eigenvalues --- 1000.000001000.000001000.000001000.000001000.00000
     Eigenvalues --- 1000.000001000.000001000.000001000.000001000.00000
     Eigenvalues --- 1000.000001000.000001000.000001000.000001000.00000
     Eigenvalues --- 1000.000001000.000001000.000001000.000001000.00000
     Eigenvalues --- 1000.000001000.000001000.000001000.000001000.00000
     Eigenvalues --- 1000.00000
 Eigenvectors required to have negative eigenvalues:
                          R5        R17       R14       R2        A21
   1                    0.48832  -0.47012   0.46221  -0.41549   0.24170
                          A25       A24       D33       A22       A4
   1                   -0.21867  -0.11085   0.09766   0.07571   0.06311
 QST in optimization variable space.
                        Tangent   TS vect  // Eig F  Eigenval
   1         R1        -0.05448   0.05448   0.00279  -0.00309
   2         R2         0.41549  -0.41549   0.00015   0.00198
   3         R3         0.03096  -0.03096   0.00015   0.00398
   4         R4         0.00692  -0.00692   0.00017   0.00542
   5         R5        -0.48832   0.48832  -0.00102   0.01054
   6         R6         0.01597  -0.01597  -0.00036   0.01162
   7         R7        -0.00723   0.00723   0.00001   0.01586
   8         R8        -0.00008   0.00008  -0.00001   0.01736
   9         R9        -0.00836   0.00836   0.00002   0.01986
  10         R10       -0.00140   0.00140  -0.00006   0.02204
  11         R11        0.00841  -0.00841  -0.00004   0.02562
  12         R12        0.00037  -0.00037  -0.00012   0.02884
  13         R13       -0.00082   0.00082   0.00015   0.03166
  14         R14       -0.46221   0.46221   0.00275   0.04426
  15         R15        0.01793  -0.01793   0.00351   0.04675
  16         R16       -0.00045   0.00045   0.00385   0.05293
  17         R17        0.47012  -0.47012   0.00240   0.06931
  18         A1        -0.01706   0.01706  -0.00023   0.09997
  19         A2         0.02459  -0.02459   0.00102   0.10519
  20         A3         0.03854  -0.03854  -0.00073   0.11643
  21         A4        -0.06311   0.06311   0.00027   0.12568
  22         A5         0.00096  -0.00096  -0.01003   0.14480
  23         A6         0.03424  -0.03424  -0.00838   0.18623
  24         A7        -0.03520   0.03520  -0.00840   0.19288
  25         A8         0.01279  -0.01279   0.00165   0.20627
  26         A9        -0.01177   0.01177   0.01094   0.22605
  27         A10       -0.00102   0.00102  -0.02481   0.25814
  28         A11       -0.01010   0.01010  -0.01661   0.27934
  29         A12        0.00040  -0.00040  -0.00236   0.31502
  30         A13        0.00970  -0.00970  -0.00103   0.33456
  31         A14        0.00664  -0.00664  -0.00034   0.34084
  32         A15       -0.00164   0.00164  -0.00012   0.34563
  33         A16       -0.00500   0.00500   0.00028   0.34767
  34         A17        0.00127  -0.00127  -0.00810   0.38577
  35         A18       -0.00120   0.00120  -0.00146   0.40017
  36         A19       -0.00007   0.00007   0.00788   0.42489
  37         A20       -0.03480   0.03480   0.00205   0.44512
  38         A21       -0.24170   0.24170   0.00086   0.49496
  39         A22       -0.07571   0.07571   0.00622   0.49691
  40         A23        0.00912  -0.00912  -0.000001000.00000
  41         A24        0.11085  -0.11085  -0.000001000.00000
  42         A25        0.21867  -0.21867  -0.000001000.00000
  43         A26        0.00288  -0.00288   0.000001000.00000
  44         D1         0.00774  -0.00774   0.000001000.00000
  45         D2         0.00754  -0.00754   0.000001000.00000
  46         D3        -0.01332   0.01332   0.000001000.00000
  47         D4        -0.00935   0.00935   0.000001000.00000
  48         D5         0.00056  -0.00056  -0.000001000.00000
  49         D6         0.00078  -0.00078  -0.000001000.00000
  50         D7         0.00436  -0.00436   0.000001000.00000
  51         D8         0.00459  -0.00459   0.000001000.00000
  52         D9        -0.00025   0.00025   0.000001000.00000
  53         D10       -0.00044   0.00044  -0.000001000.00000
  54         D11       -0.00587   0.00587   0.000001000.00000
  55         D12       -0.00606   0.00606   0.000001000.00000
  56         D13       -0.01561   0.01561   0.000001000.00000
  57         D14       -0.00776   0.00776   0.000001000.00000
  58         D15       -0.01045   0.01045   0.000001000.00000
  59         D16       -0.00260   0.00260   0.000001000.00000
  60         D17       -0.00060   0.00060   0.000001000.00000
  61         D18       -0.00042   0.00042   0.000001000.00000
  62         D19       -0.00082   0.00082  -0.000001000.00000
  63         D20       -0.00063   0.00063  -0.000001000.00000
  64         D21        0.00033  -0.00033  -0.000001000.00000
  65         D22        0.00029  -0.00029  -0.000001000.00000
  66         D23        0.00013  -0.00013  -0.000001000.00000
  67         D24        0.00009  -0.00009  -0.000001000.00000
  68         D25       -0.00026   0.00026   0.000001000.00000
  69         D26       -0.00017   0.00017  -0.000001000.00000
  70         D27       -0.00006   0.00006  -0.000001000.00000
  71         D28        0.00003  -0.00003  -0.000001000.00000
  72         D29        0.00019  -0.00019  -0.000001000.00000
  73         D30        0.00010  -0.00010  -0.000001000.00000
  74         D31        0.00024  -0.00024   0.000001000.00000
  75         D32        0.00015  -0.00015   0.000001000.00000
  76         D33       -0.09766   0.09766  -0.000001000.00000
  77         D34        0.01525  -0.01525   0.000001000.00000
  78         D35        0.01698  -0.01698  -0.000001000.00000
  79         D36        0.03856  -0.03856  -0.000001000.00000
  80         D37        0.01025  -0.01025  -0.000001000.00000
  81         D38       -0.04523   0.04523  -0.000001000.00000
 RFO step:  Lambda0=1.645511901D-03 Lambda=-6.42778995D-03.
 Linear search not attempted -- option 19 set.
 Maximum step size (   0.300) exceeded in Quadratic search.
    -- Step size scaled by   0.489
 Iteration  1 RMS(Cart)=  0.02584349 RMS(Int)=  0.00123679
 Iteration  2 RMS(Cart)=  0.00071014 RMS(Int)=  0.00045135
 Iteration  3 RMS(Cart)=  0.00000154 RMS(Int)=  0.00045135
 Iteration  4 RMS(Cart)=  0.00000000 RMS(Int)=  0.00045135
 ITry= 1 IFail=0 DXMaxC= 1.49D-01 DCOld= 1.00D+10 DXMaxT= 3.00D-01 DXLimC= 3.00D+00 Rises=F
 Variable       Old X    -DE/DX   Delta X   Delta X   Delta X     New X
                                 (Linear)    (Quad)   (Total)
    R1        2.55631  -0.02352   0.00000  -0.04211  -0.04253   2.51378
    R2        2.37974   0.01313   0.00000   0.11413   0.11443   2.49417
    R3        2.54555   0.02333   0.00000   0.02289   0.02232   2.56787
    R4        2.55398   0.00583   0.00000   0.00242   0.00240   2.55639
    R5        2.38038   0.03259   0.00000  -0.12880  -0.12880   2.25159
    R6        2.66726   0.00768   0.00000   0.01078   0.01078   2.67804
    R7        2.62451  -0.00161   0.00000  -0.00478  -0.00476   2.61975
    R8        2.05278  -0.00118   0.00000  -0.00008  -0.00008   2.05271
    R9        2.62918  -0.00623   0.00000  -0.00587  -0.00587   2.62331
   R10        2.05935  -0.00028   0.00000  -0.00088  -0.00088   2.05847
   R11        2.65641   0.00758   0.00000   0.00588   0.00589   2.66230
   R12        2.05656   0.00040   0.00000   0.00033   0.00033   2.05689
   R13        2.05315  -0.00049   0.00000  -0.00062  -0.00062   2.05253
   R14        2.12457   0.02454   0.00000  -0.09683  -0.09774   2.02683
   R15        3.05805   0.01038   0.00000   0.00779   0.01014   3.06818
   R16        1.83422   0.00193   0.00000   0.00001   0.00001   1.83423
   R17        2.11649   0.03165   0.00000   0.17832   0.17674   2.29323
    A1        1.78685   0.01244   0.00000   0.00723   0.00727   1.79413
    A2        2.06228   0.00796   0.00000   0.02017   0.02024   2.08252
    A3        1.84941  -0.00598   0.00000   0.01073   0.01042   1.85983
    A4        2.37149  -0.00198   0.00000  -0.03089  -0.03066   2.34083
    A5        2.07660   0.00226   0.00000  -0.00316  -0.00377   2.07283
    A6        2.06659   0.01167   0.00000   0.03020   0.03057   2.09716
    A7        2.14000  -0.01393   0.00000  -0.02704  -0.02680   2.11320
    A8        2.06369   0.00393   0.00000   0.00899   0.00893   2.07262
    A9        2.08428  -0.00367   0.00000  -0.00847  -0.00844   2.07584
   A10        2.13521  -0.00026   0.00000  -0.00053  -0.00049   2.13472
   A11        2.15299  -0.00360   0.00000  -0.00810  -0.00821   2.14478
[...]
 ! A16   A(7,6,11)             119.7238         -DE/DX =    0.0                 !
 ! A17   A(5,7,6)              118.0286         -DE/DX =    0.0                 !
 ! A18   A(5,7,12)             120.442          -DE/DX =    0.0                 !
 ! A19   A(6,7,12)             121.5292         -DE/DX =    0.0                 !
 ! A20   A(1,8,13)             157.9341         -DE/DX =    0.0                 !
 ! A21   A(1,8,15)             109.0255         -DE/DX =    0.0                 !
 ! A22   A(8,13,14)            111.7865         -DE/DX =    0.0                 !
 ! A23   A(8,13,15)             81.6693         -DE/DX =    0.0                 !
 ! A24   A(14,13,15)           113.2731         -DE/DX =    0.0                 !
 ! A25   A(2,15,8)             101.0294         -DE/DX =    0.0                 !
 ! A26   A(2,15,13)            149.9881         -DE/DX =    0.0                 !
 ! D1    D(8,1,3,2)             -0.1573         -DE/DX =    0.0                 !
 ! D2    D(8,1,3,4)            179.9285         -DE/DX =    0.0                 !
 ! D3    D(3,1,8,13)             6.52           -DE/DX =    0.0                 !
 ! D4    D(3,1,8,15)            -0.4827         -DE/DX =    0.0                 !
 ! D5    D(5,2,3,1)           -179.8245         -DE/DX =    0.0                 !
 ! D6    D(5,2,3,4)              0.0937         -DE/DX =    0.0                 !
 ! D7    D(15,2,3,1)             0.9015         -DE/DX =    0.0                 !
 ! D8    D(15,2,3,4)          -179.1802         -DE/DX =    0.0                 !
 ! D9    D(3,2,5,7)             -0.0445         -DE/DX =    0.0                 !
 ! D10   D(3,2,5,10)           179.7696         -DE/DX =    0.0                 !
 ! D11   D(15,2,5,7)           179.0179         -DE/DX =    0.0                 !
 ! D12   D(15,2,5,10)           -1.1679         -DE/DX =    0.0                 !
 ! D13   D(3,2,15,8)            -0.9797         -DE/DX =    0.0                 !
 ! D14   D(3,2,15,13)           -7.7841         -DE/DX =    0.0                 !
 ! D15   D(5,2,15,8)           179.8536         -DE/DX =    0.0                 !
 ! D16   D(5,2,15,13)          173.0492         -DE/DX =    0.0                 !
 ! D17   D(1,3,4,6)            179.8167         -DE/DX =    0.0                 !
 ! D18   D(1,3,4,9)             -0.0434         -DE/DX =    0.0                 !
 ! D19   D(2,3,4,6)             -0.0968         -DE/DX =    0.0                 !
 ! D20   D(2,3,4,9)           -179.9569         -DE/DX =    0.0                 !
 ! D21   D(3,4,6,7)              0.0525         -DE/DX =    0.0                 !
 ! D22   D(3,4,6,11)          -179.8879         -DE/DX =    0.0                 !
 ! D23   D(9,4,6,7)            179.907          -DE/DX =    0.0                 !
 ! D24   D(9,4,6,11)            -0.0334         -DE/DX =    0.0                 !
 ! D25   D(2,5,7,6)             -0.0026         -DE/DX =    0.0                 !
 ! D26   D(2,5,7,12)           179.8797         -DE/DX =    0.0                 !
 ! D27   D(10,5,7,6)          -179.805          -DE/DX =    0.0                 !
 ! D28   D(10,5,7,12)            0.0773         -DE/DX =    0.0                 !
 ! D29   D(4,6,7,5)             -0.0027         -DE/DX =    0.0                 !
 ! D30   D(4,6,7,12)          -179.8837         -DE/DX =    0.0                 !
 ! D31   D(11,6,7,5)           179.9376         -DE/DX =    0.0                 !
 ! D32   D(11,6,7,12)            0.0566         -DE/DX =    0.0                 !
 ! D33   D(1,8,13,14)         -120.5788         -DE/DX =    0.0                 !
 ! D34   D(1,8,13,15)           -8.7696         -DE/DX =    0.0                 !
 ! D35   D(1,8,15,2)             1.0152         -DE/DX =    0.0                 !
 ! D36   D(8,13,14,15)          90.1183         -DE/DX =    0.0                 !
 ! D37   D(8,13,15,2)            8.8342         -DE/DX =    0.0                 !
 ! D38   D(14,13,15,2)         119.0373         -DE/DX =    0.0                 !
 --------------------------------------------------------------------------------
 GradGradGradGradGradGradGradGradGradGradGradGradGradGradGradGradGradGrad

 Leave Link  103 at Sun Aug 29 00:00:03 2021, MaxMem= 17179869184 cpu:        13.7
 (Enter /public3/home/sc51754/softwares/g09e01/l9999.exe)
 1\1\GINC-R2203\Freq\RBLYP\Gen\C5H7N1O2\SC51754\29-Aug-2021\0\\#P Geom=
 AllCheck Guess=TCheck SCRF=Check GenChk RBLYP/ChkBas Freq\\HY_H2O_BLYP
 _PC2_OPT_FREQ\\0,1\O,1.315797999,1.4229420471,-0.0071812319\N,0.343107
 299,-0.6608786313,-0.0089262944\C,0.2205460608,0.7107543363,-0.0025284
 449\C,-1.0821820668,1.2808154651,0.0069649938\C,-0.7423882872,-1.46774
 69623,-0.0082562082\C,-2.1866117233,0.4464781728,0.0074698363\C,-2.029
 0340047,-0.9576904524,-0.0002086393\H,2.2133491618,0.631587338,-0.0133
 972908\H,-1.1727214517,2.3630520514,0.0112613634\H,-0.5409611677,-2.53
 71721654,-0.0175842185\H,-3.186289231,0.8774186093,0.0128649709\H,-2.8
 852750109,-1.6250312039,-0.0017984983\O,2.7845755952,-0.5065818058,-0.
 0728455083\H,3.3006941998,-0.6930255767,0.7281351033\H,1.5793080077,-0
 .9087748222,0.0005909968\\Version=EM64L-G09RevE.01\State=1-A\HF=-400.0
 08168\RMSD=5.368e-09\RMSF=1.925e-05\ZeroPoint=0.1089662\Thermal=0.1157
 276\Dipole=-1.1177923,-0.6594129,0.5319448\DipoleDeriv=-1.79429,-0.284
 1764,-0.0115644,-0.1516027,-0.7965128,0.0038552,-0.0149006,0.0045836,-
 0.314429,-1.2423518,0.1613852,-0.0052976,-0.445472,-0.4406918,-0.00153
 73,-0.0466139,0.0010939,-0.1404729,1.5367936,0.6737348,0.0008511,0.647
 2628,0.5694568,0.0015639,-0.0079513,-0.0044947,0.1766071,-0.5624513,-0
 .3864805,-0.0026531,0.0956845,0.0497622,-0.0002289,0.0133352,-0.000152
 1,-0.1479897,0.540449,-0.2571592,-0.0027068,0.286884,0.2362536,0.00850
 6,0.0019297,0.0067178,-0.0084453,0.2523243,0.0906872,-0.0006405,0.0760
 826,0.4552361,0.0027864,-0.0025912,0.0013851,-0.0804154,-0.2204358,0.2
 917649,0.000524,0.0261936,-0.3661731,-0.0019537,0.0097229,-0.0015881,-
 0.1706784,1.0807879,-0.4058493,0.0021207,-0.9172381,0.6781809,-0.03296
 79,-0.0087415,-0.0216731,0.1952025,0.0602579,-0.0024148,0.000031,0.013
 9528,-0.0382851,-0.0007006,0.0004208,-0.000757,0.1432768,0.0585668,0.0
 259676,-0.0003234,-0.0158345,-0.0720595,-0.0013289,-0.0047716,-0.00175
 87,0.1235247,-0.0643197,0.0623472,0.0006601,0.0636331,0.0556022,-0.000
 6002,-0.0013539,0.0000523,0.1218873,-0.0247469,-0.0689959,-0.0004097,-
 0.0681878,0.0051426,-0.0005688,-0.0002632,-0.0004734,0.1506071,-1.6885
 269,0.2069917,0.0283158,0.3303625,-0.7428404,-0.0148153,0.109484,-0.03
 32446,-0.346531,0.2574317,0.0050398,-0.0392929,-0.0065449,0.2563961,0.
 0166506,-0.0709992,0.0294018,0.133608,1.8105113,-0.1128421,0.0303858,0
 .0648241,0.1505321,0.0213396,0.0232938,0.0209072,0.1642482\Polar=110.9
 360895,3.2598573,88.6319226,1.4536198,-0.2836467,45.4411012\PG=C01 [X(
 C5H7N1O2)]\NImag=1\\0.39984804,0.12239996,0.31413372,-0.00193032,-0.00
 117044,0.04976295,0.02388922,-0.05477177,0.00044291,0.56083851,-0.0359
 5186,-0.05481215,-0.00024914,0.10709882,0.55572877,0.00128619,-0.00041
 714,0.01225962,0.00050066,0.00170231,0.09493788,-0.28498297,-0.1139649
 4,0.00113975,-0.16365975,0.01570808,-0.00116875,0.72826315,-0.11506873
 ,-0.17970839,0.00118118,0.03632776,-0.21270037,-0.00114363,0.03029701,
 0.56876945,0.00056068,0.00030700,-0.05951182,0.00016178,-0.00085451,-0
 .06638922,-0.00188921,0.00128059,0.17987828,-0.06823199,0.00423265,0.0
 0043168,0.02499415,0.05698870,0.00066202,-0.21533278,0.04296323,0.0006
 2205,0.61672028,-0.02814027,0.01936645,0.00012731,0.03502571,-0.025197
 18,-0.00025062,0.08292949,-0.14748367,-0.00082699,0.03724195,0.7187556
 8,0.00043283,0.00053901,0.01173584,-0.00030463,-0.00050283,0.01110366,
 0.00121266,-0.00093019,-0.06970796,-0.00214220,0.00238108,0.11171295,-
 0.01228488,0.01119382,-0.00003166,-0.24547100,-0.07839205,0.00049595,0
 .04589010,-0.06740094,-0.00047517,-0.05165067,-0.00309762,0.00023416,0
 .64454402,-0.00323748,-0.00022334,-0.00016169,-0.09605756,-0.19264459,
 -0.00003363,-0.02176993,-0.05317574,-0.00000627,-0.00792880,-0.0004405
 7,0.00010772,-0.04598240,0.71216341,-0.00003261,0.00005276,0.00748732,
 0.00013601,-0.00029189,-0.05055420,-0.00028955,-0.00000922,-0.00252015
 ,0.00012946,0.00007522,-0.00250763,-0.00222154,0.00393774,0.13643026,0
 .00387914,0.00334772,-0.00003930,-0.00792433,-0.01376474,-0.00028910,-
 0.05051017,-0.00208521,0.00027416,-0.26998779,-0.13295331,0.00035948,0
 .01262258,0.03519170,0.00023656,0.70254251,0.01906006,-0.00614321,-0.0
 0003795,-0.03088652,-0.04431819,-0.00018441,-0.03423925,0.05692350,0.0
 0051568,-0.08697473,-0.20588923,-0.00031502,0.07440318,-0.01644598,-0.
 00044475,-0.01071963,0.61971683,0.00009462,-0.00007123,0.00437404,-0.0
 0004454,-0.00012587,-0.00561926,0.00000663,0.00028258,0.00051732,0.000
 43834,-0.00019127,-0.05232830,0.00037458,-0.00026019,0.00693445,-0.002
 17690,0.00231924,0.13291652,0.00561962,-0.00569369,0.00002420,-0.07276
 574,-0.03960958,0.00011157,-0.02325152,0.03617807,0.00023664,0.0358673
 6,-0.02432173,-0.00028011,-0.29966106,0.10416916,0.00144885,-0.1209996
 6,-0.00678760,0.00015705,0.69799517,-0.01322740,0.00158966,0.00001706,
 0.00102657,0.04495271,0.00029447,0.02757232,-0.03060637,-0.00029349,-0
 .05122623,-0.03684142,-0.00001154,0.05406852,-0.15498689,-0.00085544,0
 .04469495,-0.28204800,-0.00122127,0.04488520,0.63017388,-0.00018891,0.
 00014228,-0.00092861,0.00009799,0.00032261,0.01524826,0.00033214,-0.00
 035439,-0.00694499,-0.00042578,-0.00017808,0.00639943,0.00109737,-0.00
 091923,-0.06013854,0.00047655,-0.00115230,-0.05725575,-0.00172592,0.00
 282064,0.10982381,-0.00703208,-0.00708710,-0.00121817,-0.01516560,0.01
 288627,-0.00127258,-0.06030837,-0.01827666,0.00038753,0.01045787,0.001
 64042,0.00011658,0.00171996,0.00323801,0.00003592,-0.00191763,-0.00468
 308,-0.00001737,-0.00123620,0.00373982,0.00018432,0.06756021,-0.025279
 41,-0.05107292,0.00070653,0.01545414,-0.01185776,0.00145485,0.02013209
 ,0.04493190,-0.00008729,-0.01593482,-0.00626774,-0.00010059,-0.0035120
 5,-0.00530017,-0.00011431,0.00163511,0.00769595,0.00003442,0.00300322,
 -0.00503937,-0.00020382,0.05034221,0.04270911,0.00152737,-0.00153084,-
 0.03279837,-0.00089456,0.00007838,-0.00137917,-0.00057252,-0.00039992,
 0.00083066,0.00023433,0.00002288,0.00353459,-0.00002194,0.00011484,-0.
 00071138,-0.00005673,-0.00011553,0.00093399,-0.00010255,0.00004984,0.0
 0030477,0.00466316,0.00424933,0.06236968,0.00229380,-0.00149573,-0.000
 02141,-0.00602595,0.00387157,0.00002141,0.00274183,0.02810951,0.000092
 63,-0.05717410,0.02459169,0.00024662,-0.00185065,-0.00100665,-0.000003
 66,0.00645292,-0.02552521,-0.00011810,-0.00342822,-0.00236736,0.000039
 77,-0.00073768,0.00086271,-0.00002819,0.05507256,-0.00039904,0.0014381
 8,0.00001718,0.00268024,-0.00011142,-0.00001539,-0.00239254,-0.0099771
 0,-0.00000532,0.02640740,-0.32433243,-0.00123315,0.00053296,0.00086102
 ,0.00000846,0.00286273,-0.01286903,-0.00005089,-0.00332204,0.00107705,
 -0.00000473,0.00047002,-0.00038935,0.00001110,-0.02624827,0.34389536,-
 0.00002569,-0.00001021,-0.00212432,0.00007798,-0.00002099,0.00511710,0
 .00001424,-0.00015645,0.00225488,0.00021028,-0.00110667,-0.03137617,0.
 00000848,0.00000756,-0.00050348,-0.00001334,0.00001175,0.00176006,0.00
 002329,-0.00004332,0.00821788,-0.00001331,0.00000984,-0.00035203,-0.00
 025029,0.00130210,0.02247787,-0.00086941,-0.00150534,-0.00000181,0.004
 25253,-0.03255395,-0.00024161,-0.00305706,-0.00107922,0.00003957,-0.00
 036383,-0.00065416,0.00000366,-0.06800911,0.05788081,0.00054059,-0.005
 35040,0.00107534,0.00004853,0.00131845,0.02711138,0.00022663,0.0008212
 7,-0.00075218,0.00001047,0.00017697,0.00000204,-0.00000962,0.07001418,
 -0.00041256,-0.00137521,0.00000687,-0.00397878,-0.02126119,-0.00015030
 ,-0.00261047,0.00316034,-0.00008202,0.00016584,0.00039178,0.00000230,0
 .05474231,-0.30656472,-0.00226901,0.00219735,0.00073125,-0.00006034,-0
 .00015923,-0.00587222,-0.00010982,0.00041558,-0.00031276,0.00000583,0.
 00007746,-0.00009382,0.00001087,-0.05090687,0.33087248,0.00005155,-0.0
 0004379,0.00011051,0.00013733,0.00016283,-0.00068026,-0.00000679,0.000
 00070,0.00771583,0.00006230,0.00002494,-0.00035942,0.00050082,-0.00259
 285,-0.03651665,0.00001244,-0.00007192,0.00703833,0.00002147,-0.000108
 95,0.00579542,-0.00008068,0.00008067,-0.00013220,-0.00000897,0.0000038
 1,-0.00140711,-0.00055585,0.00258832,0.02385047,-0.00184606,0.00070644
 ,0.00000674,0.00023289,-0.00053556,-0.00000701,-0.00075730,-0.00379856
 ,0.00000242,-0.01903758,0.01115445,0.00012194,0.00162075,0.00058718,0.
 00001290,-0.27768656,0.09551131,0.00127955,0.00049807,-0.00028462,-0.0
 0000397,0.00039904,-0.00072529,0.00000063,0.00107784,-0.00017414,-0.00
 001584,-0.00006942,-0.00013837,-0.00000104,0.29513404,-0.00089361,0.00
 062549,0.00000947,-0.00085572,-0.00015531,0.00000782,-0.00315244,-0.00
 205016,-0.00004087,-0.01773512,0.01099676,0.00009204,-0.00013933,-0.00
 612542,-0.00006205,0.09593993,-0.09812546,-0.00059988,0.02854737,-0.00
 692791,-0.00014001,0.00002145,-0.00029173,0.00000326,0.00045204,0.0008
 3384,0.00002085,0.00148684,-0.00040005,-0.00000274,-0.10305632,0.10030
 683,-0.00000228,-0.00006901,-0.00092525,0.00005402,0.00000981,-0.00184
 185,0.00001691,-0.00000751,0.00991206,0.00004419,0.00003547,0.00517186
 ,0.00003485,-0.00008821,0.00613138,0.00118045,-0.00060041,-0.03898635,
 0.00015054,-0.00004032,0.00422971,-0.00003616,0.00003305,-0.00043556,-
 0.00002202,0.00000892,-0.00460738,0.00000182,0.00000371,-0.00040592,-0
 .00140099,0.00069024,0.02494896,0.00049753,-0.00029505,0.00000527,-0.0
 0491139,0.00326218,0.00006229,-0.00026928,0.00129797,-0.00001004,0.001
 01307,0.00143765,0.00001178,-0.01703777,-0.02015398,-0.00011415,0.0072
 2821,0.00436557,-0.00000641,-0.22479176,-0.13103295,-0.00018041,-0.000
 24261,0.00050848,-0.00002057,0.00022912,0.00034903,0.00000099,0.000688
 26,0.00025023,-0.00000747,0.00061765,-0.00050416,-0.00000497,0.2364737
 6,-0.00044550,0.00042713,0.00000582,0.00353662,0.00018776,-0.00005218,
 0.00120947,-0.00108569,-0.00001085,0.00241892,-0.00450942,-0.00005955,
 0.01027824,0.01058524,0.00003720,-0.02490543,-0.01353319,-0.00001850,-
 0.13223740,-0.15705352,-0.00038144,0.00019016,-0.00030913,0.00000749,-
 0.00120966,-0.00053599,-0.00000161,-0.00055086,0.00051278,0.00002949,0
 .00031986,0.00109713,0.00002433,0.14149333,0.16369823,0.00000120,-0.00
 004179,-0.00085631,0.00004517,-0.00009114,0.00759655,-0.00001328,0.000
 03500,-0.00020068,0.00002061,-0.00005483,0.00525652,0.00013265,0.00014
 017,-0.00117685,-0.00014899,-0.00003520,0.00019669,-0.00024612,-0.0004
 6989,-0.02759378,0.00001386,-0.00001551,-0.00001025,-0.00000667,-0.000
 00380,0.00058403,-0.00001879,0.00003732,-0.00351486,-0.00000644,0.0000
 2247,-0.00289611,0.00022638,0.00043357,0.02195689,-0.01922513,0.036551
 33,0.00076702,-0.07792529,-0.00925260,-0.00254508,-0.00345000,-0.00392
 771,0.00038455,0.00047587,0.00133420,0.00021529,-0.00190952,0.01358936
 ,-0.00010676,-0.00060586,-0.00155024,-0.00007173,-0.00482151,-0.001417
 07,0.00031690,-0.02602466,0.00299335,-0.00208134,-0.00057800,0.0003660
 4,-0.00000565,-0.00031757,-0.00099697,-0.00014432,-0.00028143,0.000057
 46,-0.00002694,-0.00129305,0.00035100,0.00005061,0.27854932,0.07920176
 ,-0.03939536,0.00334819,-0.02358353,0.01829189,-0.00370627,-0.02754050
 ,-0.02973332,0.00028740,0.00984533,0.00533633,-0.00034577,0.00356444,0
 .00481774,-0.00006835,-0.00110840,-0.00524444,-0.00006589,-0.00257098,
 0.00333406,0.00029759,-0.03674272,-0.00303630,-0.02071411,-0.00107537,
 0.00051822,-0.00003241,0.00061933,0.00002328,-0.00009681,0.00040596,0.
 00020102,0.00006426,-0.00041123,0.00027083,0.00006289,-0.07004483,0.11
 582404,-0.00368656,0.00506291,0.01404569,-0.00654927,-0.00060707,0.014
 95122,0.00099002,-0.00054247,-0.00014318,-0.00019826,0.00006055,-0.001
 70776,-0.00042599,0.00039086,0.00076976,0.00012081,-0.00004043,0.00010
 424,-0.00010519,-0.00016065,-0.00117610,-0.00305030,-0.00694601,-0.036
 08941,0.00003174,-0.00000822,0.00013910,0.00000833,-0.00008842,0.00051
 142,0.00001477,0.00000949,0.00022861,-0.00008661,-0.00000727,-0.000210
 40,0.20614275,-0.07512659,0.37954605,0.00100587,0.00192967,0.00150957,
 -0.00722836,-0.00181930,0.00380507,-0.00057853,-0.00114744,-0.00055978
 ,0.00011733,0.00017103,-0.00048105,-0.00077549,0.00107336,0.00008752,0
 .00003968,-0.00015181,0.00005780,-0.00029316,-0.00027124,-0.00034573,-
 0.00423360,-0.00100841,-0.00500868,0.00000349,0.00003902,0.00000687,-0
 .00005799,-0.00014268,0.00013696,0.00001718,0.00000013,0.00006610,-0.0
 0011484,0.00003714,-0.00003692,-0.14515792,0.04274656,-0.19735476,0.15
 461606,0.00680454,-0.00654374,-0.00372795,-0.00548379,0.00101221,0.001
 94621,-0.00168265,-0.00195029,-0.00012320,0.00052795,0.00025178,0.0003
 5569,0.00001429,0.00095890,-0.00000655,-0.00005644,-0.00023522,0.00002
 402,-0.00034348,-0.00002051,-0.00009928,0.00206858,0.00832921,0.017230
 48,-0.00007463,0.00005313,0.00001251,-0.00004162,-0.00013046,-0.000000
 11,0.00002308,0.00000419,-0.00006510,-0.00009917,0.00002601,-0.0000199
 1,0.04168982,-0.04134083,0.07092394,-0.04863445,0.03815151,0.00325343,
 -0.00327416,0.00010080,0.00463211,0.00006959,0.00000361,-0.00034971,-0
 .00010586,0.00000553,0.00006897,0.00000116,-0.00003579,0.00031442,-0.0
 0030390,0.00003401,0.00001857,0.00003340,-0.00000991,0.00015580,0.0000
 8213,-0.00000915,-0.00100203,0.00288000,0.00013695,0.00000913,0.000004
 85,0.00000436,-0.00001723,0.00005414,0.00001556,0.00000434,-0.00000577
 ,0.00001295,0.00007344,0.00000380,0.00000266,-0.21686095,0.07957343,-0
 .33469692,0.21322853,-0.07749257,0.33368494,-0.04256069,0.00445201,-0.
 00108447,-0.01312988,0.01206401,-0.00142102,0.02926266,0.03761092,0.00
 017219,-0.00786718,-0.00635950,0.00025299,-0.00774726,-0.01959278,0.00
 014046,0.00221735,0.00710262,-0.00002206,0.00995016,-0.00327188,0.0000
 9904,0.03594008,-0.04771914,0.00235112,0.00174607,-0.00117345,-0.00000
 838,0.00082314,0.00149717,-0.00011775,0.00008089,-0.00016852,-0.000055
 52,0.00191310,-0.00048589,-0.00001329,0.00256474,0.02669416,0.00414851
 ,0.00264029,0.00528797,-0.00352882,-0.01583348,-0.00441047,0.00169368,
 -0.00007244,0.01446782,-0.05711518,0.00054791,0.02950426,-0.00531410,-
 0.00005986,-0.00099227,-0.00413713,0.00002079,-0.01027336,0.00652112,0
 .00001020,-0.00027632,-0.00021558,0.00000508,-0.00173730,-0.00173114,-
 0.00004002,-0.00822298,-0.01978893,0.00098697,0.00103789,-0.00036768,-
 0.00000382,-0.00013153,0.00031851,0.00002642,0.00000458,0.00001078,0.0
 0000076,-0.00046791,0.00022184,0.00000065,-0.00974315,-0.02986714,0.00
 707937,0.00717843,0.00143411,-0.00152023,-0.01593770,0.10833683,-0.001
 34150,0.00052465,-0.00273208,0.00150704,0.00039791,-0.03475396,0.00057
 745,0.00086959,0.00430345,-0.00015800,-0.00012013,0.00310816,-0.000016
 99,-0.00033292,-0.00315829,0.00004533,0.00011786,-0.00057607,0.0001304
 8,-0.00005927,0.00402765,0.00128922,-0.00198115,0.00379774,0.00001802,
 -0.00003491,-0.00018479,-0.00003469,0.00005052,-0.00202111,-0.00000800
 ,-0.00000432,-0.00053711,0.00005049,-0.00001031,0.00086589,0.01396566,
 0.01652244,-0.03627232,-0.01511150,-0.00895817,0.00075041,-0.00091300,
 -0.00698177,0.06338243\\-0.00000048,0.00000082,-0.00004039,-0.00005747
 ,0.00000606,-0.00000048,0.00000197,0.00000594,0.00001044,0.00000318,-0
 .00000173,-0.00000216,0.00000149,0.00000181,0.00000145,0.00000160,0.00
 000045,0.00000149,0.00000107,0.00000317,-0.00000214,0.00000722,-0.0000
 3663,0.00006173,0.00000237,0.00000118,0.00000129,-0.00000246,0.0000002
 8,0.00000006,0.00000084,0.00000220,0.00000117,-0.00000136,0.00000226,-
 0.00000049,0.00003856,0.00004883,-0.00003580,-0.00000888,-0.00000830,-
 0.00000606,0.00001234,-0.00002634,0.00000990\\\@


    WHAT WE HAVE LEARNED
 IS LIKE A HANDFUL OF EARTH;
  WHAT WE HAVE YET TO LEARN
   IS LIKE THE WHOLE WORLD.

         -- AVVAYIAR
 Job cpu time:       0 days  1 hours  7 minutes  5.0 seconds.
 File lengths (MBytes):  RWF=    137 Int=      0 D2E=      0 Chk=      9 Scr=      1
 Normal termination of Gaussian 09 at Sun Aug 29 00:00:03 2021.
