 Entering Gaussian System, Link 0=g09
 AtFile(1): pc-2.gbs
            -H     0
            S    4   1.00
                  0.754230D+02           0.240650D-02
                  0.113500D+02           0.184870D-01
                  0.259930D+01           0.897420D-01
                  0.735130D+00           0.281110D+00
            S    1   1.00
                  0.231670D+00           0.100000D+01
            S    1   1.00
                  0.741470D-01           0.100000D+01
            P    1   1.00
                  0.160000D+01           0.100000D+01
            P    1   1.00
                  0.450000D+00           0.100000D+01
            D    1   1.00
                  0.125000D+01           0.100000D+01
            ****
            -C     0
            S    7   1.00
                  0.785710D+04           0.568250D-03
                  0.117870D+04           0.439150D-02
                  0.268320D+03           0.225040D-01
                  0.759480D+02           0.866530D-01
                  0.245590D+02           0.244050D+00
                  0.862120D+01           0.441480D+00
                  0.312780D+01           0.353320D+00
            S    7   1.00
                  0.117870D+04          -0.594920D-06
                  0.268320D+03          -0.627480D-04
                  0.759480D+02          -0.757730D-03
                  0.245590D+02          -0.733080D-02
                  0.862120D+01          -0.389320D-01
                  0.312780D+01          -0.889080D-01
                  0.822020D+00           0.216890D+00
            S    1   1.00
                  0.330170D+00           0.100000D+01
            S    1   1.00
                  0.114630D+00           0.100000D+01
            P    4   1.00
                  0.337750D+02           0.602940D-02
                  0.767660D+01           0.432280D-01
                  0.223570D+01           0.163010D+00
                  0.764470D+00           0.365040D+00
            P    1   1.00
                  0.262320D+00           0.100000D+01
            P    1   1.00
                  0.846380D-01           0.100000D+01
            D    1   1.00
                  0.140000D+01           0.100000D+01
            D    1   1.00
                  0.450000D+00           0.100000D+01
            F    1   1.00
                  0.950000D+00           0.100000D+01
            ****
            -N     0
            S    7   1.00
                  0.111010D+05           0.545700D-03
                  0.166530D+04           0.421810D-02
                  0.379080D+03           0.216450D-01
                  0.107300D+03           0.837760D-01
                  0.347470D+02           0.238810D+00
                  0.122490D+02           0.439940D+00
                  0.447430D+01           0.363640D+00
            S    7   1.00
                  0.166530D+04          -0.150060D-05
                  0.379080D+03          -0.587530D-04
                  0.107300D+03          -0.774530D-03
                  0.347470D+02          -0.721610D-02
                  0.122490D+02          -0.393380D-01
                  0.447430D+01          -0.906110D-01
                  0.124040D+01           0.198820D+00
            S    1   1.00
                  0.487430D+00           0.100000D+01
            S    1   1.00
                  0.164840D+00           0.100000D+01
            P    4   1.00
                  0.479340D+02           0.617060D-02
                  0.109990D+02           0.442600D-01
                  0.324720D+01           0.168250D+00
                  0.111140D+01           0.368480D+00
            P    1   1.00
                  0.379880D+00           0.100000D+01
            P    1   1.00
                  0.120680D+00           0.100000D+01
            D    1   1.00
                  0.180000D+01           0.100000D+01
            D    1   1.00
                  0.550000D+00           0.100000D+01
            F    1   1.00
                  0.102000D+01           0.100000D+01
            ****
            -O     0
            S    7   1.00
                  0.147820D+05           0.535190D-03
                  0.221730D+04           0.413750D-02
                  0.504740D+03           0.212450D-01
                  0.142870D+03           0.824530D-01
                  0.463000D+02           0.236710D+00
                  0.163370D+02           0.440390D+00
                  0.598280D+01           0.364650D+00
            S    7   1.00
                  0.221730D+04          -0.192750D-05
                  0.504740D+03          -0.579640D-04
                  0.142870D+03          -0.794940D-03
                  0.463000D+02          -0.731250D-02
                  0.163370D+02          -0.405740D-01
                  0.598280D+01          -0.915940D-01
                  0.167180D+01           0.209400D+00
            S    1   1.00
                  0.646620D+00           0.100000D+01
            S    1   1.00
                  0.216690D+00           0.100000D+01
            P    4   1.00
                  0.604240D+02           0.689490D-02
                  0.139350D+02           0.490050D-01
                  0.415310D+01           0.182550D+00
                  0.141580D+01           0.376330D+00
            P    1   1.00
                  0.475490D+00           0.100000D+01
            P    1   1.00
                  0.145290D+00           0.100000D+01
            D    1   1.00
                  0.220000D+01           0.100000D+01
            D    1   1.00
                  0.650000D+00           0.100000D+01
            F    1   1.00
                  0.110000D+01           0.100000D+01
            ****
 Initial command:
 /public3/home/sc51754/softwares/g09e01/l1.exe "./Gau-9321.inp" -scrdir="./"
 Entering Link 1 = /public3/home/sc51754/softwares/g09e01/l1.exe PID=      9323.
  
 Copyright (c) 1988,1990,1992,1993,1995,1998,2003,2009,2015,
            Gaussian, Inc.  All Rights Reserved.
  
 This is part of the Gaussian(R) 09 program.  It is based on
 the Gaussian(R) 03 system (copyright 2003, Gaussian, Inc.),
 the Gaussian(R) 98 system (copyright 1998, Gaussian, Inc.),
 the Gaussian(R) 94 system (copyright 1995, Gaussian, Inc.),
 the Gaussian 92(TM) system (copyright 1992, Gaussian, Inc.),
 the Gaussian 90(TM) system (copyright 1990, Gaussian, Inc.),
 the Gaussian 88(TM) system (copyright 1988, Gaussian, Inc.),
 the Gaussian 86(TM) system (copyright 1986, Carnegie Mellon
 University), and the Gaussian 82(TM) system (copyright 1983,
 Carnegie Mellon University). Gaussian is a federally registered
 trademark of Gaussian, Inc.
  
 This software contains proprietary and confidential information,
 including trade secrets, belonging to Gaussian, Inc.
  
 This software is provided under written license and may be
 used, copied, transmitted, or stored only in accord with that
 written license.
  
 The following legend is applicable only to US Government
 contracts under FAR:
  
                    RESTRICTED RIGHTS LEGEND
  
 Use, reproduction and disclosure by the US Government is
 subject to restrictions as set forth in subparagraphs (a)
 and (c) of the Commercial Computer Software - Restricted
 Rights clause in FAR 52.227-19.
  
 Gaussian, Inc.
 340 Quinnipiac St., Bldg. 40, Wallingford CT 06492
  
  
 ---------------------------------------------------------------
 Warning -- This program may not be used in any manner that
 competes with the business of Gaussian, Inc. or will provide
 assistance to any competitor of Gaussian, Inc.  The licensee
 of this program is prohibited from giving any competitor of
 Gaussian, Inc. access to this program.  By using this program,
 the user acknowledges that Gaussian, Inc. is engaged in the
 business of creating and licensing software in the field of
 computational chemistry and represents and warrants to the
 licensee that it is not a competitor of Gaussian, Inc. and that
 it will not use this program in any manner prohibited above.
 ---------------------------------------------------------------
  

 Cite this work as:
 Gaussian 09, Revision E.01,
 M. J. Frisch, G. W. Trucks, H. B. Schlegel, G. E. Scuseria, 
 M. A. Robb, J. R. Cheeseman, G. Scalmani, V. Barone, B. Mennucci, 
 G. A. Petersson, H. Nakatsuji, M. Caricato, X. Li, H. P. Hratchian, 
 A. F. Izmaylov, J. Bloino, G. Zheng, J. L. Sonnenberg, M. Hada, 
 M. Ehara, K. Toyota, R. Fukuda, J. Hasegawa, M. Ishida, T. Nakajima, 
 Y. Honda, O. Kitao, H. Nakai, T. Vreven, J. A. Montgomery, Jr., 
 J. E. Peralta, F. Ogliaro, M. Bearpark, J. J. Heyd, E. Brothers, 
 K. N. Kudin, V. N. Staroverov, T. Keith, R. Kobayashi, J. Normand, 
 K. Raghavachari, A. Rendell, J. C. Burant, S. S. Iyengar, J. Tomasi, 
 M. Cossi, N. Rega, J. M. Millam, M. Klene, J. E. Knox, J. B. Cross, 
 V. Bakken, C. Adamo, J. Jaramillo, R. Gomperts, R. E. Stratmann, 
 O. Yazyev, A. J. Austin, R. Cammi, C. Pomelli, J. W. Ochterski, 
 R. L. Martin, K. Morokuma, V. G. Zakrzewski, G. A. Voth, 
 P. Salvador, J. J. Dannenberg, S. Dapprich, A. D. Daniels, 
 O. Farkas, J. B. Foresman, J. V. Ortiz, J. Cioslowski, 
 and D. J. Fox, Gaussian, Inc., Wallingford CT, 2013.
 
 ******************************************
 Gaussian 09:  EM64L-G09RevE.01 30-Nov-2015
                27-Aug-2021 
 ******************************************
 %nprocshared=64
 Will use up to   64 processors via shared memory.
 %mem=128GB
 %chk=4HY_SVWN_PC2_OPT_FREQ.chk
 --------------------
 #p opt freq SVWN/gen
 --------------------
 1/14=-1,18=20,19=15,26=3,38=1/1,3;
 2/9=110,12=2,17=6,18=5,40=1/2;
 3/5=7,11=2,16=1,25=1,30=1,71=1,74=205/1,2,3;
 4//1;
 5/5=2,38=5/2;
 6/7=2,8=2,9=2,10=2,28=1/1;
 7//1,2,3,16;
 1/14=-1,18=20,19=15,26=3/3(2);
 2/9=110/2;
 99//99;
 2/9=110/2;
 3/5=7,6=1,11=2,16=1,25=1,30=1,71=1,74=205,82=7/1,2,3;
 4/5=5,16=3,69=1/1;
 5/5=2,38=5/2;
 7//1,2,3,16;
 1/14=-1,18=20,19=15,26=3/3(-5);
 2/9=110/2;
 6/7=2,8=2,9=2,10=2,19=2,28=1/1;
 99/9=1/99;
 Leave Link    1 at Fri Aug 27 21:07:45 2021, MaxMem= 17179869184 cpu:         8.3
 (Enter /public3/home/sc51754/softwares/g09e01/l101.exe)
 ---------------------
 4HY_SVWN_PC2_OPT_FREQ
 ---------------------
 Symbolic Z-matrix:
 Charge =  0 Multiplicity = 1
 C                     1.15223   1.15341  -0.00011 
 C                    -0.24145   1.18944   0.00003 
 C                    -0.93443  -0.02499   0.00004 
 C                    -0.19715  -1.21307  -0.00009 
 C                     1.19102  -1.12281   0.00022 
 N                     1.87822   0.02956   0.00002 
 H                     1.71189   2.08718  -0.0001 
 H                    -0.77027   2.13945  -0.00002 
 H                    -0.70664  -2.17013  -0.00044 
 H                     1.78719  -2.03343  -0.00024 
 O                    -2.29029  -0.1124   -0.00001 
 H                    -2.6687    0.77737   0.00031 
 
 NAtoms=     12 NQM=       12 NQMF=       0 NMMI=      0 NMMIF=      0
                NMic=       0 NMicF=      0.
                    Isotopes and Nuclear Properties:
 (Nuclear quadrupole moments (NQMom) in fm**2, nuclear magnetic moments (NMagM)
  in nuclear magnetons)

  Atom         1           2           3           4           5           6           7           8           9          10
 IAtWgt=          12          12          12          12          12          14           1           1           1           1
 AtmWgt=  12.0000000  12.0000000  12.0000000  12.0000000  12.0000000  14.0030740   1.0078250   1.0078250   1.0078250   1.0078250
 NucSpn=           0           0           0           0           0           2           1           1           1           1
 AtZEff=   0.0000000   0.0000000   0.0000000   0.0000000   0.0000000   0.0000000   0.0000000   0.0000000   0.0000000   0.0000000
 NQMom=    0.0000000   0.0000000   0.0000000   0.0000000   0.0000000   2.0440000   0.0000000   0.0000000   0.0000000   0.0000000
 NMagM=    0.0000000   0.0000000   0.0000000   0.0000000   0.0000000   0.4037610   2.7928460   2.7928460   2.7928460   2.7928460
 AtZNuc=   6.0000000   6.0000000   6.0000000   6.0000000   6.0000000   7.0000000   1.0000000   1.0000000   1.0000000   1.0000000

  Atom        11          12
 IAtWgt=          16           1
 AtmWgt=  15.9949146   1.0078250
 NucSpn=           0           1
 AtZEff=   0.0000000   0.0000000
 NQMom=    0.0000000   0.0000000
 NMagM=    0.0000000   2.7928460
 AtZNuc=   8.0000000   1.0000000
 Leave Link  101 at Fri Aug 27 21:07:46 2021, MaxMem= 17179869184 cpu:        23.4
 (Enter /public3/home/sc51754/softwares/g09e01/l103.exe)

 GradGradGradGradGradGradGradGradGradGradGradGradGradGradGradGradGradGrad
 Berny optimization.
 Initialization pass.
                           ----------------------------
                           !    Initial Parameters    !
                           ! (Angstroms and Degrees)  !
 --------------------------                            --------------------------
 ! Name  Definition              Value          Derivative Info.                !
 --------------------------------------------------------------------------------
 ! R1    R(1,2)                  1.3941         estimate D2E/DX2                !
 ! R2    R(1,6)                  1.3379         estimate D2E/DX2                !
 ! R3    R(1,7)                  1.0886         estimate D2E/DX2                !
 ! R4    R(2,3)                  1.3982         estimate D2E/DX2                !
 ! R5    R(2,8)                  1.0873         estimate D2E/DX2                !
 ! R6    R(3,4)                  1.3983         estimate D2E/DX2                !
 ! R7    R(3,11)                 1.3587         estimate D2E/DX2                !
 ! R8    R(4,5)                  1.3911         estimate D2E/DX2                !
 ! R9    R(4,9)                  1.0842         estimate D2E/DX2                !
 ! R10   R(5,6)                  1.3417         estimate D2E/DX2                !
 ! R11   R(5,10)                 1.0884         estimate D2E/DX2                !
 ! R12   R(11,12)                0.9669         estimate D2E/DX2                !
 ! A1    A(2,1,6)              124.3426         estimate D2E/DX2                !
 ! A2    A(2,1,7)              119.4556         estimate D2E/DX2                !
 ! A3    A(6,1,7)              116.2018         estimate D2E/DX2                !
 ! A4    A(1,2,3)              118.2292         estimate D2E/DX2                !
 ! A5    A(1,2,8)              120.5831         estimate D2E/DX2                !
 ! A6    A(3,2,8)              121.1877         estimate D2E/DX2                !
 ! A7    A(2,3,4)              118.4682         estimate D2E/DX2                !
 ! A8    A(2,3,11)             123.3985         estimate D2E/DX2                !
 ! A9    A(4,3,11)             118.1333         estimate D2E/DX2                !
 ! A10   A(3,4,5)              118.1015         estimate D2E/DX2                !
 ! A11   A(3,4,9)              120.1493         estimate D2E/DX2                !
 ! A12   A(5,4,9)              121.7493         estimate D2E/DX2                !
 ! A13   A(4,5,6)              124.5296         estimate D2E/DX2                !
 ! A14   A(4,5,10)             119.4914         estimate D2E/DX2                !
 ! A15   A(6,5,10)             115.9789         estimate D2E/DX2                !
 ! A16   A(1,6,5)              116.3289         estimate D2E/DX2                !
 ! A17   A(3,11,12)            109.3507         estimate D2E/DX2                !
 ! D1    D(6,1,2,3)             -0.0135         estimate D2E/DX2                !
 ! D2    D(6,1,2,8)            179.9955         estimate D2E/DX2                !
 ! D3    D(7,1,2,3)           -179.9987         estimate D2E/DX2                !
 ! D4    D(7,1,2,8)              0.0102         estimate D2E/DX2                !
 ! D5    D(2,1,6,5)              0.0039         estimate D2E/DX2                !
 ! D6    D(7,1,6,5)            179.9896         estimate D2E/DX2                !
 ! D7    D(1,2,3,4)              0.0007         estimate D2E/DX2                !
 ! D8    D(1,2,3,11)          -179.9909         estimate D2E/DX2                !
 ! D9    D(8,2,3,4)            179.9917         estimate D2E/DX2                !
 ! D10   D(8,2,3,11)             0.0001         estimate D2E/DX2                !
 ! D11   D(2,3,4,5)              0.0198         estimate D2E/DX2                !
 ! D12   D(2,3,4,9)           -179.978          estimate D2E/DX2                !
 ! D13   D(11,3,4,5)          -179.9882         estimate D2E/DX2                !
 ! D14   D(11,3,4,9)             0.014          estimate D2E/DX2                !
 ! D15   D(2,3,11,12)           -0.0225         estimate D2E/DX2                !
 ! D16   D(4,3,11,12)          179.9859         estimate D2E/DX2                !
 ! D17   D(3,4,5,6)             -0.0313         estimate D2E/DX2                !
 ! D18   D(3,4,5,10)          -179.9777         estimate D2E/DX2                !
 ! D19   D(9,4,5,6)            179.9664         estimate D2E/DX2                !
 ! D20   D(9,4,5,10)             0.0201         estimate D2E/DX2                !
 ! D21   D(4,5,6,1)              0.0192         estimate D2E/DX2                !
 ! D22   D(10,5,6,1)           179.9673         estimate D2E/DX2                !
 --------------------------------------------------------------------------------
 Trust Radius=3.00D-01 FncErr=1.00D-07 GrdErr=1.00D-06
 Number of steps in this run=     61 maximum allowed number of steps=    100.
 GradGradGradGradGradGradGradGradGradGradGradGradGradGradGradGradGradGrad

 Leave Link  103 at Fri Aug 27 21:07:49 2021, MaxMem= 17179869184 cpu:        58.7
 (Enter /public3/home/sc51754/softwares/g09e01/l202.exe)
                          Input orientation:                          
 ---------------------------------------------------------------------
 Center     Atomic      Atomic             Coordinates (Angstroms)
 Number     Number       Type             X           Y           Z
 ---------------------------------------------------------------------
      1          6           0        1.152230    1.153409   -0.000114
      2          6           0       -0.241450    1.189435    0.000028
      3          6           0       -0.934425   -0.024989    0.000035
      4          6           0       -0.197153   -1.213074   -0.000085
      5          6           0        1.191022   -1.122808    0.000218
      6          7           0        1.878221    0.029557    0.000015
      7          1           0        1.711886    2.087182   -0.000101
      8          1           0       -0.770273    2.139452   -0.000016
      9          1           0       -0.706644   -2.170125   -0.000442
     10          1           0        1.787188   -2.033434   -0.000236
     11          8           0       -2.290294   -0.112398   -0.000014
     12          1           0       -2.668700    0.777372    0.000305
 ---------------------------------------------------------------------
                    Distance matrix (angstroms):
                    1          2          3          4          5
     1  C    0.000000
     2  C    1.394146   0.000000
     3  C    2.396404   1.398227   0.000000
     4  C    2.724165   2.402917   1.398255   0.000000
     5  C    2.276548   2.720008   2.392223   1.391107   0.000000
     6  N    1.337949   2.416262   2.813175   2.418948   1.341711
     7  H    1.088645   2.149761   3.385887   3.812626   3.251974
     8  H    2.160625   1.087284   2.170657   3.401161   3.806444
     9  H    3.808056   3.391615   2.157196   1.084218   2.167489
    10  H    3.249483   3.808183   3.382459   2.147231   1.088418
    11  O    3.667866   2.427454   1.358684   2.364895   3.624981
    12  H    3.839389   2.461979   1.910888   3.173393   4.302109
                    6          7          8          9         10
     6  N    0.000000
     7  H    2.064337   0.000000
     8  H    3.386174   2.482709   0.000000
     9  H    3.394131   4.896320   4.310047   0.000000
    10  H    2.064999   4.121304   4.894240   2.497575   0.000000
    11  O    4.170931   4.566793   2.716853   2.596572   4.507354
    12  H    4.608006   4.572213   2.336512   3.540820   5.268355
                   11         12
    11  O    0.000000
    12  H    0.966893   0.000000
 Stoichiometry    C5H5NO
 Framework group  C1[X(C5H5NO)]
 Deg. of freedom    30
 Full point group                 C1      NOp   1
 Largest Abelian subgroup         C1      NOp   1
 Largest concise Abelian subgroup C1      NOp   1
                         Standard orientation:                         
 ---------------------------------------------------------------------
 Center     Atomic      Atomic             Coordinates (Angstroms)
 Number     Number       Type             X           Y           Z
 ---------------------------------------------------------------------
      1          6           0       -1.152230    1.153409    0.000114
      2          6           0        0.241450    1.189435   -0.000028
      3          6           0        0.934425   -0.024989   -0.000035
      4          6           0        0.197153   -1.213074    0.000085
      5          6           0       -1.191022   -1.122808   -0.000218
      6          7           0       -1.878221    0.029557   -0.000015
      7          1           0       -1.711887    2.087182    0.000101
      8          1           0        0.770272    2.139452    0.000016
      9          1           0        0.706644   -2.170125    0.000442
     10          1           0       -1.787188   -2.033434    0.000236
     11          8           0        2.290294   -0.112397    0.000014
     12          1           0        2.668700    0.777373   -0.000305
 ---------------------------------------------------------------------
 Rotational constants (GHZ):      5.9862655      2.6268417      1.8257026
 Leave Link  202 at Fri Aug 27 21:07:50 2021, MaxMem= 17179869184 cpu:         6.5
 (Enter /public3/home/sc51754/softwares/g09e01/l301.exe)
 General basis read from cards:  (5D, 7F)
 Centers:       7      8      9     10     12
 S 4 1.00
     Exponent=  7.5423000000D+01 Coefficients=  2.4065000000D-03
     Exponent=  1.1350000000D+01 Coefficients=  1.8487000000D-02
     Exponent=  2.5993000000D+00 Coefficients=  8.9742000000D-02
     Exponent=  7.3513000000D-01 Coefficients=  2.8111000000D-01
 S 1 1.00
     Exponent=  2.3167000000D-01 Coefficients=  1.0000000000D+00
 S 1 1.00
     Exponent=  7.4147000000D-02 Coefficients=  1.0000000000D+00
 P 1 1.00
     Exponent=  1.6000000000D+00 Coefficients=  1.0000000000D+00
 P 1 1.00
     Exponent=  4.5000000000D-01 Coefficients=  1.0000000000D+00
 D 1 1.00
     Exponent=  1.2500000000D+00 Coefficients=  1.0000000000D+00
 ****
 Centers:       1      2      3      4      5
 S 7 1.00
     Exponent=  7.8571000000D+03 Coefficients=  5.6825000000D-04
     Exponent=  1.1787000000D+03 Coefficients=  4.3915000000D-03
     Exponent=  2.6832000000D+02 Coefficients=  2.2504000000D-02
     Exponent=  7.5948000000D+01 Coefficients=  8.6653000000D-02
     Exponent=  2.4559000000D+01 Coefficients=  2.4405000000D-01
     Exponent=  8.6212000000D+00 Coefficients=  4.4148000000D-01
     Exponent=  3.1278000000D+00 Coefficients=  3.5332000000D-01
 S 7 1.00
     Exponent=  1.1787000000D+03 Coefficients= -5.9492000000D-07
     Exponent=  2.6832000000D+02 Coefficients= -6.2748000000D-05
     Exponent=  7.5948000000D+01 Coefficients= -7.5773000000D-04
     Exponent=  2.4559000000D+01 Coefficients= -7.3308000000D-03
     Exponent=  8.6212000000D+00 Coefficients= -3.8932000000D-02
     Exponent=  3.1278000000D+00 Coefficients= -8.8908000000D-02
     Exponent=  8.2202000000D-01 Coefficients=  2.1689000000D-01
 S 1 1.00
     Exponent=  3.3017000000D-01 Coefficients=  1.0000000000D+00
 S 1 1.00
     Exponent=  1.1463000000D-01 Coefficients=  1.0000000000D+00
 P 4 1.00
     Exponent=  3.3775000000D+01 Coefficients=  6.0294000000D-03
     Exponent=  7.6766000000D+00 Coefficients=  4.3228000000D-02
     Exponent=  2.2357000000D+00 Coefficients=  1.6301000000D-01
     Exponent=  7.6447000000D-01 Coefficients=  3.6504000000D-01
 P 1 1.00
     Exponent=  2.6232000000D-01 Coefficients=  1.0000000000D+00
 P 1 1.00
     Exponent=  8.4638000000D-02 Coefficients=  1.0000000000D+00
 D 1 1.00
     Exponent=  1.4000000000D+00 Coefficients=  1.0000000000D+00
 D 1 1.00
     Exponent=  4.5000000000D-01 Coefficients=  1.0000000000D+00
 F 1 1.00
     Exponent=  9.5000000000D-01 Coefficients=  1.0000000000D+00
 ****
 Centers:       6
 S 7 1.00
     Exponent=  1.1101000000D+04 Coefficients=  5.4570000000D-04
     Exponent=  1.6653000000D+03 Coefficients=  4.2181000000D-03
     Exponent=  3.7908000000D+02 Coefficients=  2.1645000000D-02
     Exponent=  1.0730000000D+02 Coefficients=  8.3776000000D-02
     Exponent=  3.4747000000D+01 Coefficients=  2.3881000000D-01
     Exponent=  1.2249000000D+01 Coefficients=  4.3994000000D-01
     Exponent=  4.4743000000D+00 Coefficients=  3.6364000000D-01
 S 7 1.00
     Exponent=  1.6653000000D+03 Coefficients= -1.5006000000D-06
     Exponent=  3.7908000000D+02 Coefficients= -5.8753000000D-05
     Exponent=  1.0730000000D+02 Coefficients= -7.7453000000D-04
     Exponent=  3.4747000000D+01 Coefficients= -7.2161000000D-03
     Exponent=  1.2249000000D+01 Coefficients= -3.9338000000D-02
     Exponent=  4.4743000000D+00 Coefficients= -9.0611000000D-02
     Exponent=  1.2404000000D+00 Coefficients=  1.9882000000D-01
 S 1 1.00
     Exponent=  4.8743000000D-01 Coefficients=  1.0000000000D+00
 S 1 1.00
     Exponent=  1.6484000000D-01 Coefficients=  1.0000000000D+00
 P 4 1.00
     Exponent=  4.7934000000D+01 Coefficients=  6.1706000000D-03
     Exponent=  1.0999000000D+01 Coefficients=  4.4260000000D-02
     Exponent=  3.2472000000D+00 Coefficients=  1.6825000000D-01
     Exponent=  1.1114000000D+00 Coefficients=  3.6848000000D-01
 P 1 1.00
     Exponent=  3.7988000000D-01 Coefficients=  1.0000000000D+00
 P 1 1.00
     Exponent=  1.2068000000D-01 Coefficients=  1.0000000000D+00
 D 1 1.00
     Exponent=  1.8000000000D+00 Coefficients=  1.0000000000D+00
 D 1 1.00
     Exponent=  5.5000000000D-01 Coefficients=  1.0000000000D+00
 F 1 1.00
     Exponent=  1.0200000000D+00 Coefficients=  1.0000000000D+00
 ****
 Centers:      11
 S 7 1.00
     Exponent=  1.4782000000D+04 Coefficients=  5.3519000000D-04
     Exponent=  2.2173000000D+03 Coefficients=  4.1375000000D-03
     Exponent=  5.0474000000D+02 Coefficients=  2.1245000000D-02
     Exponent=  1.4287000000D+02 Coefficients=  8.2453000000D-02
     Exponent=  4.6300000000D+01 Coefficients=  2.3671000000D-01
     Exponent=  1.6337000000D+01 Coefficients=  4.4039000000D-01
     Exponent=  5.9828000000D+00 Coefficients=  3.6465000000D-01
 S 7 1.00
     Exponent=  2.2173000000D+03 Coefficients= -1.9275000000D-06
     Exponent=  5.0474000000D+02 Coefficients= -5.7964000000D-05
     Exponent=  1.4287000000D+02 Coefficients= -7.9494000000D-04
     Exponent=  4.6300000000D+01 Coefficients= -7.3125000000D-03
     Exponent=  1.6337000000D+01 Coefficients= -4.0574000000D-02
     Exponent=  5.9828000000D+00 Coefficients= -9.1594000000D-02
     Exponent=  1.6718000000D+00 Coefficients=  2.0940000000D-01
 S 1 1.00
     Exponent=  6.4662000000D-01 Coefficients=  1.0000000000D+00
 S 1 1.00
     Exponent=  2.1669000000D-01 Coefficients=  1.0000000000D+00
 P 4 1.00
     Exponent=  6.0424000000D+01 Coefficients=  6.8949000000D-03
     Exponent=  1.3935000000D+01 Coefficients=  4.9005000000D-02
     Exponent=  4.1531000000D+00 Coefficients=  1.8255000000D-01
     Exponent=  1.4158000000D+00 Coefficients=  3.7633000000D-01
 P 1 1.00
     Exponent=  4.7549000000D-01 Coefficients=  1.0000000000D+00
 P 1 1.00
     Exponent=  1.4529000000D-01 Coefficients=  1.0000000000D+00
 D 1 1.00
     Exponent=  2.2000000000D+00 Coefficients=  1.0000000000D+00
 D 1 1.00
     Exponent=  6.5000000000D-01 Coefficients=  1.0000000000D+00
 F 1 1.00
     Exponent=  1.1000000000D+00 Coefficients=  1.0000000000D+00
 ****
 Ernie: Thresh=  0.10000D-02 Tol=  0.10000D-05 Strict=F.
 Ernie:  7 primitive shells out of 220 were deleted.
 There are   320 symmetry adapted cartesian basis functions of A   symmetry.
 There are   280 symmetry adapted basis functions of A   symmetry.
   280 basis functions,   475 primitive gaussians,   320 cartesian basis functions
    25 alpha electrons       25 beta electrons
       nuclear repulsion energy       273.7666329457 Hartrees.
 IExCor=  205 DFT=T Ex=S Corr=VWN ExCW=0 ScaHFX=  0.000000
 ScaDFX=  1.000000  1.000000  1.000000  1.000000 ScalE2=  1.000000  1.000000
 IRadAn=      0 IRanWt=     -1 IRanGd=            0 ICorTp=0 IEmpDi=  4
 NAtoms=   12 NActive=   12 NUniq=   12 SFac= 1.00D+00 NAtFMM=   60 NAOKFM=F Big=F
 Integral buffers will be    131072 words long.
 Raffenetti 2 integral format.
 Two-electron integral symmetry is turned on.
 Leave Link  301 at Fri Aug 27 21:07:51 2021, MaxMem= 17179869184 cpu:        39.3
 (Enter /public3/home/sc51754/softwares/g09e01/l302.exe)
 NPDir=0 NMtPBC=     1 NCelOv=     1 NCel=       1 NClECP=     1 NCelD=      1
         NCelK=      1 NCelE2=     1 NClLst=     1 CellRange=     0.0.
 One-electron integrals computed using PRISM.
 NBasis=   280 RedAO= T EigKep=  2.00D-04  NBF=   280
 NBsUse=   280 1.00D-06 EigRej= -1.00D+00 NBFU=   280
 Precomputing XC quadrature grid using
 IXCGrd= 4 IRadAn=           0 IRanWt=          -1 IRanGd=           0 AccXCQ= 0.00D+00.
 Generated NRdTot=       0 NPtTot=           0 NUsed=           0 NTot=          32
 NSgBfM=   320   320   320   320   320 MxSgAt=    12 MxSgA2=    12.
 Leave Link  302 at Fri Aug 27 21:07:53 2021, MaxMem= 17179869184 cpu:        74.1
 (Enter /public3/home/sc51754/softwares/g09e01/l303.exe)
 DipDrv:  MaxL=1.
 Leave Link  303 at Fri Aug 27 21:07:55 2021, MaxMem= 17179869184 cpu:        24.4
 (Enter /public3/home/sc51754/softwares/g09e01/l401.exe)
 ExpMin= 7.41D-02 ExpMax= 1.48D+04 ExpMxC= 5.05D+02 IAcc=2 IRadAn=         4 AccDes= 0.00D+00
 Harris functional with IExCor=  205 and IRadAn=       4 diagonalized for initial guess.
 HarFok:  IExCor=  205 AccDes= 0.00D+00 IRadAn=         4 IDoV= 1 UseB2=F ITyADJ=14
 ICtDFT=  3500011 ScaDFX=  1.000000  1.000000  1.000000  1.000000
 FoFCou: FMM=F IPFlag=           0 FMFlag=      100000 FMFlg1=           0
         NFxFlg=           0 DoJE=T BraDBF=F KetDBF=T FulRan=T
         wScrn=  0.000000 ICntrl=     500 IOpCl=  0 I1Cent=   200000004 NGrid=           0
         NMat0=    1 NMatS0=      1 NMatT0=    0 NMatD0=    1 NMtDS0=    0 NMtDT0=    0
 Petite list used in FoFCou.
 Harris En= -322.034306037660    
 JPrj=0 DoOrth=F DoCkMO=F.
 Leave Link  401 at Fri Aug 27 21:07:58 2021, MaxMem= 17179869184 cpu:        72.5
 (Enter /public3/home/sc51754/softwares/g09e01/l502.exe)
 Closed shell SCF:
 Using DIIS extrapolation, IDIIS=  1040.
 Integral symmetry usage will be decided dynamically.
 Keep J ints in memory in canonical form, NReq=790723944.
 IVT=      348554 IEndB=      348554 NGot= 17179869184 MDV= 16405683161
 LenX= 16405683161 LenY= 16405580320
 Requested convergence on RMS density matrix=1.00D-08 within 128 cycles.
 Requested convergence on MAX density matrix=1.00D-06.
 Requested convergence on             energy=1.00D-06.
 No special actions if energy rises.
 FoFCou: FMM=F IPFlag=           0 FMFlag=           0 FMFlg1=           0
         NFxFlg=           0 DoJE=F BraDBF=F KetDBF=F FulRan=T
         wScrn=  0.000000 ICntrl=     600 IOpCl=  0 I1Cent=           0 NGrid=           0
         NMat0=    1 NMatS0=  39340 NMatT0=    0 NMatD0=    1 NMtDS0=    0 NMtDT0=    0
 Symmetry not used in FoFCou.
 Integral accuracy reduced to 1.0D-05 until final iterations.

 Cycle   1  Pass 0  IDiag  1:
 E= -321.737801965574    
 DIIS: error= 2.81D-02 at cycle   1 NSaved=   1.
 NSaved= 1 IEnMin= 1 EnMin= -321.737801965574     IErMin= 1 ErrMin= 2.81D-02
 ErrMax= 2.81D-02  0.00D+00 EMaxC= 1.00D-01 BMatC= 1.51D-01 BMatP= 1.51D-01
 IDIUse=3 WtCom= 7.19D-01 WtEn= 2.81D-01
 Coeff-Com:  0.100D+01
 Coeff-En:   0.100D+01
 Coeff:      0.100D+01
 Gap=     0.173 Goal=   None    Shift=    0.000
 GapD=    0.173 DampG=1.000 DampE=0.500 DampFc=0.5000 IDamp=-1.
 Damping current iteration by 5.00D-01
 RMSDP=3.51D-03 MaxDP=1.38D-01              OVMax= 2.04D-01

 Cycle   2  Pass 0  IDiag  1:
 E= -321.781043621618     Delta-E=       -0.043241656045 Rises=F Damp=T
 DIIS: error= 7.03D-03 at cycle   2 NSaved=   2.
 NSaved= 2 IEnMin= 2 EnMin= -321.781043621618     IErMin= 2 ErrMin= 7.03D-03
 ErrMax= 7.03D-03  0.00D+00 EMaxC= 1.00D-01 BMatC= 1.61D-02 BMatP= 1.51D-01
 IDIUse=3 WtCom= 9.30D-01 WtEn= 7.03D-02
 Coeff-Com:  0.196D+00 0.804D+00
 Coeff-En:   0.332D+00 0.668D+00
 Coeff:      0.206D+00 0.794D+00
 Gap=     0.208 Goal=   None    Shift=    0.000
 RMSDP=8.89D-04 MaxDP=2.92D-02 DE=-4.32D-02 OVMax= 1.69D-01

 Cycle   3  Pass 0  IDiag  1:
 E= -321.873005060078     Delta-E=       -0.091961438460 Rises=F Damp=F
 DIIS: error= 7.39D-03 at cycle   3 NSaved=   3.
 NSaved= 3 IEnMin= 3 EnMin= -321.873005060078     IErMin= 2 ErrMin= 7.03D-03
 ErrMax= 7.39D-03  0.00D+00 EMaxC= 1.00D-01 BMatC= 1.23D-02 BMatP= 1.61D-02
 IDIUse=3 WtCom= 9.26D-01 WtEn= 7.39D-02
 Coeff-Com:  0.803D-01 0.481D+00 0.439D+00
 Coeff-En:   0.000D+00 0.000D+00 0.100D+01
 Coeff:      0.744D-01 0.446D+00 0.480D+00
 Gap=     0.143 Goal=   None    Shift=    0.000
 RMSDP=4.96D-04 MaxDP=2.49D-02 DE=-9.20D-02 OVMax= 8.94D-02

 Cycle   4  Pass 0  IDiag  1:
 E= -321.877966316288     Delta-E=       -0.004961256210 Rises=F Damp=F
 DIIS: error= 6.84D-03 at cycle   4 NSaved=   4.
 NSaved= 4 IEnMin= 4 EnMin= -321.877966316288     IErMin= 4 ErrMin= 6.84D-03
 ErrMax= 6.84D-03  0.00D+00 EMaxC= 1.00D-01 BMatC= 6.80D-03 BMatP= 1.23D-02
 IDIUse=3 WtCom= 9.32D-01 WtEn= 6.84D-02
 Coeff-Com:  0.165D-01 0.192D+00 0.394D+00 0.397D+00
 Coeff-En:   0.000D+00 0.000D+00 0.401D+00 0.599D+00
 Coeff:      0.154D-01 0.179D+00 0.395D+00 0.411D+00
 Gap=     0.158 Goal=   None    Shift=    0.000
 RMSDP=2.82D-04 MaxDP=1.11D-02 DE=-4.96D-03 OVMax= 3.97D-02

 Cycle   5  Pass 0  IDiag  1:
 E= -321.884531148662     Delta-E=       -0.006564832373 Rises=F Damp=F
 DIIS: error= 1.81D-03 at cycle   5 NSaved=   5.
 NSaved= 5 IEnMin= 5 EnMin= -321.884531148662     IErMin= 5 ErrMin= 1.81D-03
 ErrMax= 1.81D-03  0.00D+00 EMaxC= 1.00D-01 BMatC= 2.50D-04 BMatP= 6.80D-03
 IDIUse=3 WtCom= 9.82D-01 WtEn= 1.81D-02
 Coeff-Com:  0.326D-02 0.666D-01 0.192D+00 0.249D+00 0.489D+00
 Coeff-En:   0.000D+00 0.000D+00 0.000D+00 0.000D+00 0.100D+01
 Coeff:      0.320D-02 0.654D-01 0.188D+00 0.245D+00 0.499D+00
 Gap=     0.156 Goal=   None    Shift=    0.000
 RMSDP=6.61D-05 MaxDP=2.26D-03 DE=-6.56D-03 OVMax= 1.13D-02

 Cycle   6  Pass 0  IDiag  1:
 E= -321.884733453368     Delta-E=       -0.000202304706 Rises=F Damp=F
 DIIS: error= 6.62D-04 at cycle   6 NSaved=   6.
 NSaved= 6 IEnMin= 6 EnMin= -321.884733453368     IErMin= 6 ErrMin= 6.62D-04
 ErrMax= 6.62D-04  0.00D+00 EMaxC= 1.00D-01 BMatC= 6.68D-05 BMatP= 2.50D-04
 IDIUse=3 WtCom= 9.93D-01 WtEn= 6.62D-03
 Coeff-Com: -0.101D-02 0.149D-01 0.663D-01 0.104D+00 0.365D+00 0.450D+00
 Coeff-En:   0.000D+00 0.000D+00 0.000D+00 0.000D+00 0.239D+00 0.761D+00
 Coeff:     -0.999D-03 0.148D-01 0.659D-01 0.103D+00 0.364D+00 0.452D+00
 Gap=     0.156 Goal=   None    Shift=    0.000
 RMSDP=2.33D-05 MaxDP=8.56D-04 DE=-2.02D-04 OVMax= 3.58D-03

 Cycle   7  Pass 0  IDiag  1:
 E= -321.884797293508     Delta-E=       -0.000063840140 Rises=F Damp=F
 DIIS: error= 1.24D-04 at cycle   7 NSaved=   7.
 NSaved= 7 IEnMin= 7 EnMin= -321.884797293508     IErMin= 7 ErrMin= 1.24D-04
 ErrMax= 1.24D-04  0.00D+00 EMaxC= 1.00D-01 BMatC= 2.91D-06 BMatP= 6.68D-05
 IDIUse=3 WtCom= 9.99D-01 WtEn= 1.24D-03
 Coeff-Com: -0.708D-03 0.658D-02 0.334D-01 0.543D-01 0.207D+00 0.279D+00
 Coeff-Com:  0.420D+00
 Coeff-En:   0.000D+00 0.000D+00 0.000D+00 0.000D+00 0.000D+00 0.000D+00
 Coeff-En:   0.100D+01
 Coeff:     -0.707D-03 0.657D-02 0.333D-01 0.542D-01 0.206D+00 0.279D+00
 Coeff:      0.421D+00
 Gap=     0.156 Goal=   None    Shift=    0.000
 RMSDP=6.29D-06 MaxDP=2.39D-04 DE=-6.38D-05 OVMax= 9.46D-04

 Initial convergence to 1.0D-05 achieved.  Increase integral accuracy.
 Cycle   8  Pass 1  IDiag  1:
 E= -321.884754577210     Delta-E=        0.000042716298 Rises=F Damp=F
 DIIS: error= 4.71D-05 at cycle   1 NSaved=   1.
 NSaved= 1 IEnMin= 1 EnMin= -321.884754577210     IErMin= 1 ErrMin= 4.71D-05
 ErrMax= 4.71D-05  0.00D+00 EMaxC= 1.00D-01 BMatC= 5.80D-07 BMatP= 5.80D-07
 IDIUse=1 WtCom= 1.00D+00 WtEn= 0.00D+00
 Coeff-Com:  0.100D+01
 Coeff:      0.100D+01
 Gap=     0.156 Goal=   None    Shift=    0.000
 RMSDP=6.29D-06 MaxDP=2.39D-04 DE= 4.27D-05 OVMax= 1.04D-03

 Cycle   9  Pass 1  IDiag  1:
 E= -321.884752554947     Delta-E=        0.000002022263 Rises=F Damp=F
 DIIS: error= 1.25D-04 at cycle   2 NSaved=   2.
 NSaved= 2 IEnMin= 1 EnMin= -321.884754577210     IErMin= 1 ErrMin= 4.71D-05
 ErrMax= 1.25D-04  0.00D+00 EMaxC= 1.00D-01 BMatC= 2.41D-06 BMatP= 5.80D-07
 IDIUse=3 WtCom= 4.72D-01 WtEn= 5.28D-01
 Coeff-Com:  0.687D+00 0.313D+00
 Coeff-En:   0.770D+00 0.230D+00
 Coeff:      0.731D+00 0.269D+00
 Gap=     0.156 Goal=   None    Shift=    0.000
 RMSDP=4.23D-06 MaxDP=1.57D-04 DE= 2.02D-06 OVMax= 6.96D-04

 Cycle  10  Pass 1  IDiag  1:
 E= -321.884755212738     Delta-E=       -0.000002657791 Rises=F Damp=F
 DIIS: error= 1.10D-05 at cycle   3 NSaved=   3.
 NSaved= 3 IEnMin= 3 EnMin= -321.884755212738     IErMin= 3 ErrMin= 1.10D-05
 ErrMax= 1.10D-05  0.00D+00 EMaxC= 1.00D-01 BMatC= 2.12D-08 BMatP= 5.80D-07
 IDIUse=1 WtCom= 1.00D+00 WtEn= 0.00D+00
 Coeff-Com:  0.150D+00 0.312D-01 0.819D+00
 Coeff:      0.150D+00 0.312D-01 0.819D+00
 Gap=     0.156 Goal=   None    Shift=    0.000
 RMSDP=7.33D-07 MaxDP=3.52D-05 DE=-2.66D-06 OVMax= 1.29D-04

 Cycle  11  Pass 1  IDiag  1:
 E= -321.884755201922     Delta-E=        0.000000010816 Rises=F Damp=F
 DIIS: error= 1.72D-05 at cycle   4 NSaved=   4.
 NSaved= 4 IEnMin= 3 EnMin= -321.884755212738     IErMin= 3 ErrMin= 1.10D-05
 ErrMax= 1.72D-05  0.00D+00 EMaxC= 1.00D-01 BMatC= 3.08D-08 BMatP= 2.12D-08
 IDIUse=1 WtCom= 1.00D+00 WtEn= 0.00D+00
 Coeff-Com:  0.174D-01-0.180D-01 0.581D+00 0.419D+00
 Coeff:      0.174D-01-0.180D-01 0.581D+00 0.419D+00
 Gap=     0.156 Goal=   None    Shift=    0.000
 RMSDP=5.55D-07 MaxDP=2.52D-05 DE= 1.08D-08 OVMax= 1.04D-04

 Cycle  12  Pass 1  IDiag  1:
 E= -321.884755229993     Delta-E=       -0.000000028071 Rises=F Damp=F
 DIIS: error= 5.93D-06 at cycle   5 NSaved=   5.
 NSaved= 5 IEnMin= 5 EnMin= -321.884755229993     IErMin= 5 ErrMin= 5.93D-06
 ErrMax= 5.93D-06  0.00D+00 EMaxC= 1.00D-01 BMatC= 2.34D-09 BMatP= 2.12D-08
 IDIUse=1 WtCom= 1.00D+00 WtEn= 0.00D+00
 Coeff-Com:  0.187D-02-0.132D-01 0.325D+00 0.284D+00 0.403D+00
 Coeff:      0.187D-02-0.132D-01 0.325D+00 0.284D+00 0.403D+00
 Gap=     0.156 Goal=   None    Shift=    0.000
 RMSDP=2.00D-07 MaxDP=6.25D-06 DE=-2.81D-08 OVMax= 3.05D-05

 Cycle  13  Pass 1  IDiag  1:
 E= -321.884755232177     Delta-E=       -0.000000002185 Rises=F Damp=F
 DIIS: error= 1.25D-06 at cycle   6 NSaved=   6.
 NSaved= 6 IEnMin= 6 EnMin= -321.884755232177     IErMin= 6 ErrMin= 1.25D-06
 ErrMax= 1.25D-06  0.00D+00 EMaxC= 1.00D-01 BMatC= 4.53D-10 BMatP= 2.34D-09
 IDIUse=1 WtCom= 1.00D+00 WtEn= 0.00D+00
 Coeff-Com: -0.991D-03-0.765D-02 0.171D+00 0.163D+00 0.306D+00 0.368D+00
 Coeff:     -0.991D-03-0.765D-02 0.171D+00 0.163D+00 0.306D+00 0.368D+00
 Gap=     0.156 Goal=   None    Shift=    0.000
 RMSDP=5.79D-08 MaxDP=2.72D-06 DE=-2.18D-09 OVMax= 1.10D-05

 Cycle  14  Pass 1  IDiag  1:
 E= -321.884755232634     Delta-E=       -0.000000000456 Rises=F Damp=F
 DIIS: error= 1.79D-07 at cycle   7 NSaved=   7.
 NSaved= 7 IEnMin= 7 EnMin= -321.884755232634     IErMin= 7 ErrMin= 1.79D-07
 ErrMax= 1.79D-07  0.00D+00 EMaxC= 1.00D-01 BMatC= 7.80D-12 BMatP= 4.53D-10
 IDIUse=1 WtCom= 1.00D+00 WtEn= 0.00D+00
 Coeff-Com: -0.530D-03-0.340D-02 0.769D-01 0.744D-01 0.147D+00 0.199D+00
 Coeff-Com:  0.507D+00
 Coeff:     -0.530D-03-0.340D-02 0.769D-01 0.744D-01 0.147D+00 0.199D+00
 Coeff:      0.507D+00
 Gap=     0.156 Goal=   None    Shift=    0.000
 RMSDP=1.15D-08 MaxDP=4.74D-07 DE=-4.56D-10 OVMax= 1.05D-06

 Cycle  15  Pass 1  IDiag  1:
 E= -321.884755232631     Delta-E=        0.000000000003 Rises=F Damp=F
 DIIS: error= 6.46D-08 at cycle   8 NSaved=   8.
 NSaved= 8 IEnMin= 7 EnMin= -321.884755232634     IErMin= 8 ErrMin= 6.46D-08
 ErrMax= 6.46D-08  0.00D+00 EMaxC= 1.00D-01 BMatC= 1.51D-12 BMatP= 7.80D-12
 IDIUse=1 WtCom= 1.00D+00 WtEn= 0.00D+00
 Coeff-Com: -0.218D-03-0.981D-03 0.225D-01 0.221D-01 0.459D-01 0.685D-01
 Coeff-Com:  0.326D+00 0.516D+00
 Coeff:     -0.218D-03-0.981D-03 0.225D-01 0.221D-01 0.459D-01 0.685D-01
 Coeff:      0.326D+00 0.516D+00
 Gap=     0.156 Goal=   None    Shift=    0.000
 RMSDP=3.70D-09 MaxDP=1.59D-07 DE= 2.73D-12 OVMax= 4.15D-07

 SCF Done:  E(RS-VWN) =  -321.884755233     A.U. after   15 cycles
            NFock= 15  Conv=0.37D-08     -V/T= 2.0043
 KE= 3.204908409067D+02 PE=-1.300641209953D+03 EE= 3.844989808684D+02
 Leave Link  502 at Fri Aug 27 21:08:15 2021, MaxMem= 17179869184 cpu:       353.8
 (Enter /public3/home/sc51754/softwares/g09e01/l601.exe)
 Copying SCF densities to generalized density rwf, IOpCl= 0 IROHF=0.

 **********************************************************************

            Population analysis using the SCF density.

 **********************************************************************

 Orbital symmetries:
       Occupied  (A) (A) (A) (A) (A) (A) (A) (A) (A) (A) (A) (A)
                 (A) (A) (A) (A) (A) (A) (A) (A) (A) (A) (A) (A)
                 (A)
       Virtual   (A) (A) (A) (A) (A) (A) (A) (A) (A) (A) (A) (A)
                 (A) (A) (A) (A) (A) (A) (A) (A) (A) (A) (A) (A)
                 (A) (A) (A) (A) (A) (A) (A) (A) (A) (A) (A) (A)
                 (A) (A) (A) (A) (A) (A) (A) (A) (A) (A) (A) (A)
                 (A) (A) (A) (A) (A) (A) (A) (A) (A) (A) (A) (A)
                 (A) (A) (A) (A) (A) (A) (A) (A) (A) (A) (A) (A)
                 (A) (A) (A) (A) (A) (A) (A) (A) (A) (A) (A) (A)
                 (A) (A) (A) (A) (A) (A) (A) (A) (A) (A) (A) (A)
                 (A) (A) (A) (A) (A) (A) (A) (A) (A) (A) (A) (A)
                 (A) (A) (A) (A) (A) (A) (A) (A) (A) (A) (A) (A)
                 (A) (A) (A) (A) (A) (A) (A) (A) (A) (A) (A) (A)
                 (A) (A) (A) (A) (A) (A) (A) (A) (A) (A) (A) (A)
                 (A) (A) (A) (A) (A) (A) (A) (A) (A) (A) (A) (A)
                 (A) (A) (A) (A) (A) (A) (A) (A) (A) (A) (A) (A)
                 (A) (A) (A) (A) (A) (A) (A) (A) (A) (A) (A) (A)
                 (A) (A) (A) (A) (A) (A) (A) (A) (A) (A) (A) (A)
                 (A) (A) (A) (A) (A) (A) (A) (A) (A) (A) (A) (A)
                 (A) (A) (A) (A) (A) (A) (A) (A) (A) (A) (A) (A)
                 (A) (A) (A) (A) (A) (A) (A) (A) (A) (A) (A) (A)
                 (A) (A) (A) (A) (A) (A) (A) (A) (A) (A) (A) (A)
                 (A) (A) (A) (A) (A) (A) (A) (A) (A) (A) (A) (A)
                 (A) (A) (A)
 The electronic state is 1-A.
 Alpha  occ. eigenvalues --  -18.66612 -13.86486  -9.88447  -9.83688  -9.83467
 Alpha  occ. eigenvalues --   -9.81570  -9.80940  -1.01523  -0.87860  -0.74695
 Alpha  occ. eigenvalues --   -0.71465  -0.61614  -0.59300  -0.53889  -0.48429
 Alpha  occ. eigenvalues --   -0.45565  -0.42807  -0.41666  -0.40893  -0.38717
 Alpha  occ. eigenvalues --   -0.36345  -0.33815  -0.27250  -0.25841  -0.23931
 Alpha virt. eigenvalues --   -0.08315  -0.07863  -0.03934  -0.00293   0.01306
 Alpha virt. eigenvalues --    0.04917   0.05053   0.05701   0.07890   0.08553
 Alpha virt. eigenvalues --    0.11658   0.12986   0.14202   0.15215   0.16079
 Alpha virt. eigenvalues --    0.17394   0.17970   0.18402   0.20538   0.22704
 Alpha virt. eigenvalues --    0.23270   0.24098   0.24732   0.25493   0.26979
 Alpha virt. eigenvalues --    0.28454   0.28593   0.29042   0.30078   0.32027
 Alpha virt. eigenvalues --    0.32824   0.35732   0.37471   0.40106   0.41272
 Alpha virt. eigenvalues --    0.43810   0.45592   0.48422   0.50511   0.52124
 Alpha virt. eigenvalues --    0.53166   0.53856   0.56857   0.58337   0.59297
 Alpha virt. eigenvalues --    0.62766   0.65201   0.66763   0.68928   0.73822
 Alpha virt. eigenvalues --    0.75160   0.77108   0.79319   0.81314   0.83216
 Alpha virt. eigenvalues --    0.87092   0.88779   0.88801   0.90581   0.94354
 Alpha virt. eigenvalues --    0.96370   1.01005   1.02901   1.03080   1.05006
 Alpha virt. eigenvalues --    1.06469   1.06588   1.09074   1.10377   1.11878
 Alpha virt. eigenvalues --    1.14983   1.15487   1.20146   1.21485   1.21733
 Alpha virt. eigenvalues --    1.23607   1.25533   1.33355   1.33657   1.35754
 Alpha virt. eigenvalues --    1.37506   1.38431   1.41341   1.46225   1.48186
 Alpha virt. eigenvalues --    1.49223   1.50422   1.51223   1.54800   1.57847
 Alpha virt. eigenvalues --    1.57895   1.60011   1.62619   1.64307   1.67223
 Alpha virt. eigenvalues --    1.68381   1.69667   1.72509   1.74672   1.75894
 Alpha virt. eigenvalues --    1.76194   1.83424   1.85455   1.87648   1.87825
 Alpha virt. eigenvalues --    1.93727   1.98569   1.99491   2.06896   2.09026
 Alpha virt. eigenvalues --    2.10280   2.12836   2.14437   2.17375   2.20729
 Alpha virt. eigenvalues --    2.24843   2.29877   2.43987   2.47382   2.66665
 Alpha virt. eigenvalues --    2.76282   2.79652   2.85481   2.87330   3.00261
 Alpha virt. eigenvalues --    3.04628   3.10171   3.11863   3.13991   3.15297
 Alpha virt. eigenvalues --    3.21346   3.21357   3.23323   3.25651   3.28921
 Alpha virt. eigenvalues --    3.29849   3.32861   3.37795   3.40627   3.42732
 Alpha virt. eigenvalues --    3.46168   3.48843   3.49695   3.52974   3.55018
 Alpha virt. eigenvalues --    3.60029   3.62480   3.64277   3.66976   3.68546
 Alpha virt. eigenvalues --    3.71057   3.74714   3.77240   3.82394   3.88508
 Alpha virt. eigenvalues --    3.89360   3.91229   3.91537   3.95301   3.95564
 Alpha virt. eigenvalues --    3.96874   4.00624   4.01096   4.02881   4.04156
 Alpha virt. eigenvalues --    4.05728   4.06795   4.08822   4.11308   4.14463
 Alpha virt. eigenvalues --    4.14663   4.16584   4.16973   4.18854   4.19392
 Alpha virt. eigenvalues --    4.22507   4.22648   4.26562   4.27576   4.29375
 Alpha virt. eigenvalues --    4.31204   4.32114   4.33206   4.33441   4.36370
 Alpha virt. eigenvalues --    4.37873   4.39521   4.40801   4.41319   4.44287
 Alpha virt. eigenvalues --    4.44642   4.46846   4.52621   4.54826   4.59923
 Alpha virt. eigenvalues --    4.63898   4.65595   4.67233   4.70262   4.74192
 Alpha virt. eigenvalues --    4.77985   4.80430   4.82439   4.84696   4.88769
 Alpha virt. eigenvalues --    4.94160   4.96463   4.97101   5.02827   5.04387
 Alpha virt. eigenvalues --    5.05817   5.09776   5.19182   5.19535   5.19874
 Alpha virt. eigenvalues --    5.21020   5.21314   5.24361   5.28588   5.32358
 Alpha virt. eigenvalues --    5.34763   5.40192   5.42807   5.44365   5.45718
 Alpha virt. eigenvalues --    5.53128   5.54724   5.57626   5.63157   5.64334
 Alpha virt. eigenvalues --    5.67801   5.79014   5.87964   5.93243   5.95200
 Alpha virt. eigenvalues --    5.98038   6.01895   6.07746   6.13369   6.16398
 Alpha virt. eigenvalues --    6.25263   6.32001   6.33446   6.41837   6.46047
 Alpha virt. eigenvalues --    6.67905   6.90437   7.17017   8.95839  12.10468
 Alpha virt. eigenvalues --   12.23986  15.31570  17.15847  18.37148  21.92023
          Condensed to atoms (all electrons):
               1          2          3          4          5          6
     1  C    4.825214   0.353570  -0.030559  -0.070244  -0.097179   0.491286
     2  C    0.353570   5.268258   0.454697   0.001126  -0.071523  -0.036132
     3  C   -0.030559   0.454697   4.652901   0.459519  -0.042780  -0.023448
     4  C   -0.070244   0.001126   0.459519   5.161132   0.384952  -0.031810
     5  C   -0.097179  -0.071523  -0.042780   0.384952   4.831107   0.475538
     6  N    0.491286  -0.036132  -0.023448  -0.031810   0.475538   6.520120
     7  H    0.449794  -0.080418   0.005523  -0.006325   0.009157  -0.044613
     8  H   -0.011993   0.408288  -0.041162   0.005165  -0.000320   0.006527
     9  H   -0.002391   0.009878  -0.038071   0.417542  -0.023446   0.006414
    10  H    0.009313  -0.008654   0.010309  -0.085282   0.454278  -0.045454
    11  O    0.005322  -0.066165   0.290818  -0.052704   0.003037  -0.000398
    12  H    0.002584   0.001498  -0.032728   0.007164  -0.000724   0.000504
               7          8          9         10         11         12
     1  C    0.449794  -0.011993  -0.002391   0.009313   0.005322   0.002584
     2  C   -0.080418   0.408288   0.009878  -0.008654  -0.066165   0.001498
     3  C    0.005523  -0.041162  -0.038071   0.010309   0.290818  -0.032728
     4  C   -0.006325   0.005165   0.417542  -0.085282  -0.052704   0.007164
     5  C    0.009157  -0.000320  -0.023446   0.454278   0.003037  -0.000724
     6  N   -0.044613   0.006527   0.006414  -0.045454  -0.000398   0.000504
     7  H    0.570635  -0.006014   0.000174   0.000281  -0.000508  -0.000043
     8  H   -0.006014   0.569718  -0.000329   0.000150  -0.006646   0.005439
     9  H    0.000174  -0.000329   0.540702  -0.007738   0.004070  -0.000560
    10  H    0.000281   0.000150  -0.007738   0.567285  -0.000316   0.000130
    11  O   -0.000508  -0.006646   0.004070  -0.000316   7.810945   0.340667
    12  H   -0.000043   0.005439  -0.000560   0.000130   0.340667   0.465903
 Mulliken charges:
               1
     1  C    0.075282
     2  C   -0.234423
     3  C    0.334980
     4  C   -0.190238
     5  C    0.077903
     6  N   -0.318534
     7  H    0.102356
     8  H    0.071176
     9  H    0.093754
    10  H    0.105698
    11  O   -0.328123
    12  H    0.210167
 Sum of Mulliken charges =  -0.00000
 Mulliken charges with hydrogens summed into heavy atoms:
               1
     1  C    0.177638
     2  C   -0.163247
     3  C    0.334980
     4  C   -0.096484
     5  C    0.183601
     6  N   -0.318534
    11  O   -0.117955
 Electronic spatial extent (au):  <R**2>=            641.9887
 Charge=             -0.0000 electrons
 Dipole moment (field-independent basis, Debye):
    X=              2.5194    Y=              1.2968    Z=              0.0000  Tot=              2.8336
 Quadrupole moment (field-independent basis, Debye-Ang):
   XX=            -43.7622   YY=            -33.4586   ZZ=            -43.4463
   XY=              4.5274   XZ=             -0.0017   YZ=             -0.0018
 Traceless Quadrupole moment (field-independent basis, Debye-Ang):
   XX=             -3.5398   YY=              6.7637   ZZ=             -3.2239
   XY=              4.5274   XZ=             -0.0017   YZ=             -0.0018
 Octapole moment (field-independent basis, Debye-Ang**2):
  XXX=             34.0971  YYY=              0.3756  ZZZ=              0.0004  XYY=              2.0102
  XXY=             12.1603  XXZ=             -0.0033  XZZ=              3.4628  YZZ=             -0.0125
  YYZ=              0.0037  XYZ=             -0.0014
 Hexadecapole moment (field-independent basis, Debye-Ang**3):
 XXXX=           -529.9830 YYYY=           -258.8918 ZZZZ=            -47.9653 XXXY=             38.5281
 XXXZ=             -0.0158 YYYX=              2.7588 YYYZ=             -0.0097 ZZZX=             -0.0012
 ZZZY=             -0.0018 XXYY=           -108.5862 XXZZ=            -97.3455 YYZZ=            -62.4856
 XXYZ=             -0.0070 YYXZ=             -0.0023 ZZXY=              0.4824
 N-N= 2.737666329457D+02 E-N=-1.300641202167D+03  KE= 3.204908409067D+02
 No NMR shielding tensors so no spin-rotation constants.
 Leave Link  601 at Fri Aug 27 21:08:16 2021, MaxMem= 17179869184 cpu:        48.6
 (Enter /public3/home/sc51754/softwares/g09e01/l701.exe)
 Compute integral first derivatives.
 ... and contract with generalized density number  0.
 Leave Link  701 at Fri Aug 27 21:08:21 2021, MaxMem= 17179869184 cpu:       106.3
 (Enter /public3/home/sc51754/softwares/g09e01/l702.exe)
 L702 exits ... SP integral derivatives will be done elsewhere.
 Leave Link  702 at Fri Aug 27 21:08:21 2021, MaxMem= 17179869184 cpu:         2.5
 (Enter /public3/home/sc51754/softwares/g09e01/l703.exe)
 Compute integral first derivatives, UseDBF=F ICtDFT=           0.
 Integral derivatives from FoFJK, PRISM(SPDF).
 Calling FoFJK, ICntrl=      2527 FMM=F ISym2X=0 I1Cent= 0 IOpClX= 0 NMat=1 NMatS=1 NMatT=0.
 FoFJK:  IHMeth= 1 ICntrl=    2527 DoSepK=F KAlg= 0 I1Cent=   0 FoldK=F
 IRaf=         0 NMat=   1 IRICut=       1 DoRegI=T DoRafI=F ISym2E= 0.
 FoFCou: FMM=F IPFlag=           0 FMFlag=      100000 FMFlg1=         800
         NFxFlg=           0 DoJE=F BraDBF=F KetDBF=F FulRan=T
         wScrn=  0.000000 ICntrl=    2527 IOpCl=  0 I1Cent=           0 NGrid=           0
         NMat0=    1 NMatS0=      1 NMatT0=    0 NMatD0=    1 NMtDS0=    0 NMtDT0=    0
 Symmetry not used in FoFCou.
 Leave Link  703 at Fri Aug 27 21:08:25 2021, MaxMem= 17179869184 cpu:       185.5
 (Enter /public3/home/sc51754/softwares/g09e01/l716.exe)
 Dipole        = 9.91194621D-01 5.10219452D-01 1.90997293D-06
 ***** Axes restored to original set *****
 -------------------------------------------------------------------
 Center     Atomic                   Forces (Hartrees/Bohr)
 Number     Number              X              Y              Z
 -------------------------------------------------------------------
      1        6          -0.005911732   -0.013279198    0.000032647
      2        6           0.006431426   -0.014580087   -0.000005640
      3        6          -0.001312047   -0.001700351   -0.000010284
      4        6           0.006283193    0.015401118    0.000024022
      5        6          -0.006135367    0.013489642   -0.000086878
      6        7          -0.014896412   -0.000553671    0.000018785
      7        1           0.002055527    0.003458326   -0.000009521
      8        1          -0.002039132    0.003554084    0.000001056
      9        1          -0.002085850   -0.003791033    0.000009673
     10        1           0.002158603   -0.003393851    0.000025830
     11        8           0.017218963   -0.003921910    0.000002865
     12        1          -0.001767172    0.005316932   -0.000002555
 -------------------------------------------------------------------
 Cartesian Forces:  Max     0.017218963 RMS     0.006665602
 Leave Link  716 at Fri Aug 27 21:08:26 2021, MaxMem= 17179869184 cpu:         8.1
 (Enter /public3/home/sc51754/softwares/g09e01/l103.exe)

 GradGradGradGradGradGradGradGradGradGradGradGradGradGradGradGradGradGrad
 Berny optimization.
 FormGI is forming the generalized inverse of G from B-inverse, IUseBI=4.
 Internal  Forces:  Max     0.015508533 RMS     0.004982340
 Search for a local minimum.
 Step number   1 out of a maximum of   61
 All quantities printed in internal units (Hartrees-Bohrs-Radians)
 RMS Force = .49823D-02 SwitMx=.10000D-02 MixMth= 1
 Mixed Optimization -- RFO/linear search
 Second derivative matrix not updated -- first step.
 ITU=  0
     Eigenvalues ---    0.02120   0.02139   0.02144   0.02163   0.02209
     Eigenvalues ---    0.02238   0.02269   0.02294   0.02415   0.16000
     Eigenvalues ---    0.16000   0.16000   0.16000   0.16000   0.22000
     Eigenvalues ---    0.22826   0.23882   0.25000   0.34970   0.34996
     Eigenvalues ---    0.35128   0.35490   0.42425   0.43849   0.46118
     Eigenvalues ---    0.46897   0.53214   0.54017   0.55021   0.56489
 RFO step:  Lambda=-2.56366027D-03 EMin= 2.11976327D-02
 Linear search not attempted -- first point.
 Iteration  1 RMS(Cart)=  0.01508429 RMS(Int)=  0.00002138
 Iteration  2 RMS(Cart)=  0.00002266 RMS(Int)=  0.00000235
 Iteration  3 RMS(Cart)=  0.00000000 RMS(Int)=  0.00000235
 ITry= 1 IFail=0 DXMaxC= 5.72D-02 DCOld= 1.00D+10 DXMaxT= 3.00D-01 DXLimC= 3.00D+00 Rises=F
 Variable       Old X    -DE/DX   Delta X   Delta X   Delta X     New X
                                 (Linear)    (Quad)   (Total)
    R1        2.63455  -0.01147   0.00000  -0.02447  -0.02447   2.61008
    R2        2.52836  -0.01273   0.00000  -0.02220  -0.02220   2.50616
    R3        2.05724   0.00402   0.00000   0.01142   0.01142   2.06866
    R4        2.64227  -0.01271   0.00000  -0.02723  -0.02723   2.61504
    R5        2.05467   0.00410   0.00000   0.01158   0.01158   2.06625
    R6        2.64232  -0.01299   0.00000  -0.02787  -0.02787   2.61445
    R7        2.56754  -0.01551   0.00000  -0.02900  -0.02900   2.53854
    R8        2.62881  -0.01129   0.00000  -0.02386  -0.02386   2.60495
    R9        2.04887   0.00433   0.00000   0.01210   0.01210   2.06098
   R10        2.53547  -0.01301   0.00000  -0.02303  -0.02303   2.51243
   R11        2.05681   0.00402   0.00000   0.01141   0.01141   2.06822
   R12        1.82716   0.00558   0.00000   0.01028   0.01028   1.83745
    A1        2.17019  -0.00061   0.00000  -0.00306  -0.00307   2.16712
    A2        2.08489   0.00029   0.00000   0.00142   0.00142   2.08631
    A3        2.02810   0.00033   0.00000   0.00164   0.00165   2.02975
    A4        2.06349  -0.00032   0.00000  -0.00058  -0.00058   2.06291
    A5        2.10457   0.00022   0.00000   0.00064   0.00064   2.10521
    A6        2.11512   0.00011   0.00000  -0.00006  -0.00006   2.11506
    A7        2.06766   0.00067   0.00000   0.00392   0.00393   2.07159
    A8        2.15371  -0.00125   0.00000  -0.00559  -0.00560   2.14811
    A9        2.06181   0.00058   0.00000   0.00167   0.00167   2.06348
   A10        2.06126  -0.00043   0.00000  -0.00114  -0.00113   2.06013
   A11        2.09700   0.00015   0.00000   0.00021   0.00021   2.09721
   A12        2.12493   0.00027   0.00000   0.00093   0.00093   2.12585
   A13        2.17345  -0.00045   0.00000  -0.00240  -0.00240   2.17105
   A14        2.08552   0.00017   0.00000   0.00089   0.00089   2.08641
   A15        2.02421   0.00027   0.00000   0.00152   0.00152   2.02573
   A16        2.03032   0.00114   0.00000   0.00326   0.00325   2.03357
   A17        1.90853  -0.00083   0.00000  -0.00509  -0.00509   1.90344
    D1       -0.00024   0.00001   0.00000   0.00035   0.00035   0.00012
    D2        3.14151   0.00000   0.00000   0.00017   0.00017  -3.14150
    D3       -3.14157  -0.00000   0.00000  -0.00007  -0.00007   3.14155
    D4        0.00018  -0.00001   0.00000  -0.00025  -0.00025  -0.00007
    D5        0.00007  -0.00000   0.00000  -0.00005  -0.00005   0.00002
    D6        3.14141   0.00001   0.00000   0.00036   0.00036  -3.14142
    D7        0.00001  -0.00000   0.00000  -0.00011  -0.00011  -0.00010
    D8       -3.14143  -0.00001   0.00000  -0.00024  -0.00024   3.14151
    D9        3.14145   0.00000   0.00000   0.00007   0.00007   3.14152
   D10        0.00000  -0.00000   0.00000  -0.00006  -0.00006  -0.00006
   D11        0.00034  -0.00001   0.00000  -0.00039  -0.00039  -0.00005
   D12       -3.14121  -0.00001   0.00000  -0.00039  -0.00039   3.14158
   D13       -3.14139  -0.00001   0.00000  -0.00026  -0.00027   3.14153
   D14        0.00024  -0.00001   0.00000  -0.00027  -0.00027  -0.00002
   D15       -0.00039   0.00001   0.00000   0.00022   0.00022  -0.00017
   D16        3.14135   0.00000   0.00000   0.00009   0.00009   3.14143
   D17       -0.00055   0.00002   0.00000   0.00075   0.00075   0.00020
   D18       -3.14120  -0.00002   0.00000  -0.00059  -0.00059   3.14140
   D19        3.14101   0.00002   0.00000   0.00075   0.00075  -3.14143
   D20        0.00035  -0.00002   0.00000  -0.00058  -0.00058  -0.00023
   D21        0.00034  -0.00001   0.00000  -0.00052  -0.00052  -0.00018
   D22        3.14102   0.00002   0.00000   0.00077   0.00077  -3.14139
         Item               Value     Threshold  Converged?
 Maximum Force            0.015509     0.000450     NO 
 RMS     Force            0.004982     0.000300     NO 
 Maximum Displacement     0.057232     0.001800     NO 
 RMS     Displacement     0.015089     0.001200     NO 
 Predicted change in Energy=-1.288630D-03
 Lowest energy point so far.  Saving SCF results.
 GradGradGradGradGradGradGradGradGradGradGradGradGradGradGradGradGradGrad

 Leave Link  103 at Fri Aug 27 21:08:27 2021, MaxMem= 17179869184 cpu:        70.5
 (Enter /public3/home/sc51754/softwares/g09e01/l202.exe)
                          Input orientation:                          
 ---------------------------------------------------------------------
 Center     Atomic      Atomic             Coordinates (Angstroms)
 Number     Number       Type             X           Y           Z
 ---------------------------------------------------------------------
      1          6           0        1.138920    1.144446    0.000049
      2          6           0       -0.241909    1.176296   -0.000008
      3          6           0       -0.923699   -0.027910   -0.000034
      4          6           0       -0.194873   -1.203878   -0.000121
      5          6           0        1.180652   -1.113656   -0.000235
      6          7           0        1.858218    0.030256   -0.000051
      7          1           0        1.700405    2.084168    0.000029
      8          1           0       -0.776979    2.129841   -0.000006
      9          1           0       -0.707723   -2.166397   -0.000133
     10          1           0        1.781452   -2.028462   -0.000117
     11          8           0       -2.264442   -0.111334    0.000007
     12          1           0       -2.638414    0.786208    0.000213
 ---------------------------------------------------------------------
                    Distance matrix (angstroms):
                    1          2          3          4          5
     1  C    0.000000
     2  C    1.381196   0.000000
     3  C    2.372513   1.383817   0.000000
     4  C    2.700672   2.380639   1.383506   0.000000
     5  C    2.258487   2.695841   2.367940   1.378481   0.000000
     6  N    1.326201   2.392476   2.782525   2.395469   1.329523
     7  H    1.094689   2.144019   3.368501   3.795172   3.239787
     8  H    2.154455   1.093412   2.162734   3.384159   3.788482
     9  H    3.791011   3.374993   2.149365   1.090622   2.161995
    10  H    3.237312   3.790048   3.364528   2.141448   1.094455
    11  O    3.627651   2.397630   1.343335   2.340249   3.587941
    12  H    3.794283   2.428045   1.898166   3.151402   4.265530
                    6          7          8          9         10
     6  N    0.000000
     7  H    2.059966   0.000000
     8  H    3.369351   2.477805   0.000000
     9  H    3.377771   4.885323   4.296796   0.000000
    10  H    2.060149   4.113428   4.882321   2.492994   0.000000
    11  O    4.125091   4.532134   2.689872   2.578111   4.477124
    12  H    4.559733   4.528802   2.295711   3.527810   5.239998
                   11         12
    11  O    0.000000
    12  H    0.972335   0.000000
 Stoichiometry    C5H5NO
 Framework group  C1[X(C5H5NO)]
 Deg. of freedom    30
 Full point group                 C1      NOp   1
 RotChk:  IX=2 Diff= 1.93D-03
 Largest Abelian subgroup         C1      NOp   1
 Largest concise Abelian subgroup C1      NOp   1
                         Standard orientation:                         
 ---------------------------------------------------------------------
 Center     Atomic      Atomic             Coordinates (Angstroms)
 Number     Number       Type             X           Y           Z
 ---------------------------------------------------------------------
      1          6           0       -1.137254    1.146430   -0.000097
      2          6           0        0.243617    1.176400   -0.000040
      3          6           0        0.923766   -0.028734   -0.000014
      4          6           0        0.193340   -1.203708    0.000073
      5          6           0       -1.182061   -1.111612    0.000187
      6          7           0       -1.858069    0.033221    0.000003
      7          1           0       -1.697459    2.086916   -0.000077
      8          1           0        0.779985    2.129216   -0.000042
      9          1           0        0.704878   -2.166924    0.000084
     10          1           0       -1.784106   -2.025600    0.000069
     11          8           0        2.264394   -0.113983   -0.000055
     12          1           0        2.639588    0.783049   -0.000261
 ---------------------------------------------------------------------
 Rotational constants (GHZ):      6.0731401      2.6833602      1.8610657
 Leave Link  202 at Fri Aug 27 21:08:28 2021, MaxMem= 17179869184 cpu:         2.6
 (Enter /public3/home/sc51754/softwares/g09e01/l301.exe)
 Basis read from rwf:  (5D, 7F)
 No pseudopotential information found on rwf file.
 There are   320 symmetry adapted cartesian basis functions of A   symmetry.
 There are   280 symmetry adapted basis functions of A   symmetry.
   280 basis functions,   475 primitive gaussians,   320 cartesian basis functions
    25 alpha electrons       25 beta electrons
       nuclear repulsion energy       276.0930442644 Hartrees.
 IExCor=  205 DFT=T Ex=S Corr=VWN ExCW=0 ScaHFX=  0.000000
 ScaDFX=  1.000000  1.000000  1.000000  1.000000 ScalE2=  1.000000  1.000000
 IRadAn=      0 IRanWt=     -1 IRanGd=            0 ICorTp=0 IEmpDi=  4
 NAtoms=   12 NActive=   12 NUniq=   12 SFac= 1.00D+00 NAtFMM=   60 NAOKFM=F Big=F
 Integral buffers will be    131072 words long.
 Raffenetti 2 integral format.
 Two-electron integral symmetry is turned on.
 No density basis found on file   724.
 Leave Link  301 at Fri Aug 27 21:08:28 2021, MaxMem= 17179869184 cpu:         3.3
 (Enter /public3/home/sc51754/softwares/g09e01/l302.exe)
 NPDir=0 NMtPBC=     1 NCelOv=     1 NCel=       1 NClECP=     1 NCelD=      1
         NCelK=      1 NCelE2=     1 NClLst=     1 CellRange=     0.0.
 One-electron integrals computed using PRISM.
 NBasis=   280 RedAO= T EigKep=  1.89D-04  NBF=   280
 NBsUse=   280 1.00D-06 EigRej= -1.00D+00 NBFU=   280
 Precomputing XC quadrature grid using
 IXCGrd= 4 IRadAn=           0 IRanWt=          -1 IRanGd=           0 AccXCQ= 0.00D+00.
 Generated NRdTot=       0 NPtTot=           0 NUsed=           0 NTot=          32
 NSgBfM=   320   320   320   320   320 MxSgAt=    12 MxSgA2=    12.
 Leave Link  302 at Fri Aug 27 21:08:29 2021, MaxMem= 17179869184 cpu:        40.9
 (Enter /public3/home/sc51754/softwares/g09e01/l303.exe)
 DipDrv:  MaxL=1.
 Leave Link  303 at Fri Aug 27 21:08:29 2021, MaxMem= 17179869184 cpu:        10.9
 (Enter /public3/home/sc51754/softwares/g09e01/l401.exe)
 Initial guess from the checkpoint file:  "4HY_SVWN_PC2_OPT_FREQ.chk"
 B after Tr=    -0.000000    0.000000    0.000000
         Rot=    1.000000    0.000034   -0.000012    0.000924 Ang=   0.11 deg.
 Guess basis will be translated and rotated to current coordinates.
 JPrj=2 DoOrth=T DoCkMO=T.
 Generating alternative initial guess.
 ExpMin= 7.41D-02 ExpMax= 1.48D+04 ExpMxC= 5.05D+02 IAcc=2 IRadAn=         4 AccDes= 0.00D+00
 Harris functional with IExCor=  205 and IRadAn=       4 diagonalized for initial guess.
 HarFok:  IExCor=  205 AccDes= 0.00D+00 IRadAn=         4 IDoV= 1 UseB2=F ITyADJ=14
 ICtDFT=  3500011 ScaDFX=  1.000000  1.000000  1.000000  1.000000
 FoFCou: FMM=F IPFlag=           0 FMFlag=      100000 FMFlg1=           0
         NFxFlg=           0 DoJE=T BraDBF=F KetDBF=T FulRan=T
         wScrn=  0.000000 ICntrl=     500 IOpCl=  0 I1Cent=   200000004 NGrid=           0
         NMat0=    1 NMatS0=      1 NMatT0=    0 NMatD0=    1 NMtDS0=    0 NMtDT0=    0
 Petite list used in FoFCou.
 Harris En= -322.043089506916    
 Leave Link  401 at Fri Aug 27 21:08:31 2021, MaxMem= 17179869184 cpu:        86.5
 (Enter /public3/home/sc51754/softwares/g09e01/l502.exe)
 Closed shell SCF:
 Using DIIS extrapolation, IDIIS=  1040.
 Integral symmetry usage will be decided dynamically.
 Keep J ints in memory in canonical form, NReq=790723944.
 IVT=      348554 IEndB=      348554 NGot= 17179869184 MDV= 16405683161
 LenX= 16405683161 LenY= 16405580320
 Requested convergence on RMS density matrix=1.00D-08 within 128 cycles.
 Requested convergence on MAX density matrix=1.00D-06.
 Requested convergence on             energy=1.00D-06.
 No special actions if energy rises.
 FoFCou: FMM=F IPFlag=           0 FMFlag=           0 FMFlg1=           0
         NFxFlg=           0 DoJE=F BraDBF=F KetDBF=F FulRan=T
         wScrn=  0.000000 ICntrl=     600 IOpCl=  0 I1Cent=           0 NGrid=           0
         NMat0=    1 NMatS0=  39340 NMatT0=    0 NMatD0=    1 NMtDS0=    0 NMtDT0=    0
 Symmetry not used in FoFCou.
 Integral accuracy reduced to 1.0D-05 until final iterations.

 Cycle   1  Pass 0  IDiag  1:
 E= -321.885585411247    
 DIIS: error= 2.89D-03 at cycle   1 NSaved=   1.
 NSaved= 1 IEnMin= 1 EnMin= -321.885585411247     IErMin= 1 ErrMin= 2.89D-03
 ErrMax= 2.89D-03  0.00D+00 EMaxC= 1.00D-01 BMatC= 9.46D-04 BMatP= 9.46D-04
 IDIUse=3 WtCom= 9.71D-01 WtEn= 2.89D-02
 Coeff-Com:  0.100D+01
 Coeff-En:   0.100D+01
 Coeff:      0.100D+01
 Gap=     0.542 Goal=   None    Shift=    0.000
 GapD=    0.542 DampG=2.000 DampE=1.000 DampFc=2.0000 IDamp=-1.
 RMSDP=1.12D-04 MaxDP=4.26D-03              OVMax= 6.66D-03

 Cycle   2  Pass 0  IDiag  1:
 E= -321.885995912905     Delta-E=       -0.000410501657 Rises=F Damp=F
 DIIS: error= 8.13D-04 at cycle   2 NSaved=   2.
 NSaved= 2 IEnMin= 2 EnMin= -321.885995912905     IErMin= 2 ErrMin= 8.13D-04
 ErrMax= 8.13D-04  0.00D+00 EMaxC= 1.00D-01 BMatC= 1.03D-04 BMatP= 9.46D-04
 IDIUse=3 WtCom= 9.92D-01 WtEn= 8.13D-03
 Coeff-Com:  0.165D+00 0.835D+00
 Coeff-En:   0.000D+00 0.100D+01
 Coeff:      0.163D+00 0.837D+00
 Gap=     0.156 Goal=   None    Shift=    0.000
 RMSDP=6.26D-05 MaxDP=2.56D-03 DE=-4.11D-04 OVMax= 4.60D-03

 Cycle   3  Pass 0  IDiag  1:
 E= -321.885937167313     Delta-E=        0.000058745591 Rises=F Damp=F
 DIIS: error= 9.60D-04 at cycle   3 NSaved=   3.
 NSaved= 3 IEnMin= 2 EnMin= -321.885995912905     IErMin= 2 ErrMin= 8.13D-04
 ErrMax= 9.60D-04  0.00D+00 EMaxC= 1.00D-01 BMatC= 1.63D-04 BMatP= 1.03D-04
 IDIUse=3 WtCom= 2.44D-01 WtEn= 7.56D-01
 Coeff-Com:  0.299D-01 0.553D+00 0.417D+00
 Coeff-En:   0.000D+00 0.601D+00 0.399D+00
 Coeff:      0.729D-02 0.590D+00 0.403D+00
 Gap=     0.157 Goal=   None    Shift=    0.000
 RMSDP=3.75D-05 MaxDP=1.46D-03 DE= 5.87D-05 OVMax= 3.57D-03

 Cycle   4  Pass 0  IDiag  1:
 E= -321.886078960528     Delta-E=       -0.000141793215 Rises=F Damp=F
 DIIS: error= 1.81D-04 at cycle   4 NSaved=   4.
 NSaved= 4 IEnMin= 4 EnMin= -321.886078960528     IErMin= 4 ErrMin= 1.81D-04
 ErrMax= 1.81D-04  0.00D+00 EMaxC= 1.00D-01 BMatC= 8.37D-06 BMatP= 1.03D-04
 IDIUse=3 WtCom= 9.98D-01 WtEn= 1.81D-03
 Coeff-Com:  0.102D-01 0.329D+00 0.251D+00 0.410D+00
 Coeff-En:   0.000D+00 0.000D+00 0.000D+00 0.100D+01
 Coeff:      0.102D-01 0.328D+00 0.251D+00 0.411D+00
 Gap=     0.157 Goal=   None    Shift=    0.000
 RMSDP=9.81D-06 MaxDP=3.53D-04 DE=-1.42D-04 OVMax= 1.52D-03

 Initial convergence to 1.0D-05 achieved.  Increase integral accuracy.
 Cycle   5  Pass 1  IDiag  1:
 E= -321.886035581832     Delta-E=        0.000043378696 Rises=F Damp=F
 DIIS: error= 8.96D-05 at cycle   1 NSaved=   1.
 NSaved= 1 IEnMin= 1 EnMin= -321.886035581832     IErMin= 1 ErrMin= 8.96D-05
 ErrMax= 8.96D-05  0.00D+00 EMaxC= 1.00D-01 BMatC= 1.22D-06 BMatP= 1.22D-06
 IDIUse=1 WtCom= 1.00D+00 WtEn= 0.00D+00
 Coeff-Com:  0.100D+01
 Coeff:      0.100D+01
 Gap=     0.157 Goal=   None    Shift=    0.000
 RMSDP=9.81D-06 MaxDP=3.53D-04 DE= 4.34D-05 OVMax= 2.00D-03

 Cycle   6  Pass 1  IDiag  1:
 E= -321.886028513078     Delta-E=        0.000007068754 Rises=F Damp=F
 DIIS: error= 2.68D-04 at cycle   2 NSaved=   2.
 NSaved= 2 IEnMin= 1 EnMin= -321.886035581832     IErMin= 1 ErrMin= 8.96D-05
 ErrMax= 2.68D-04  0.00D+00 EMaxC= 1.00D-01 BMatC= 7.94D-06 BMatP= 1.22D-06
 IDIUse=3 WtCom= 3.79D-01 WtEn= 6.21D-01
 Coeff-Com:  0.728D+00 0.272D+00
 Coeff-En:   0.809D+00 0.191D+00
 Coeff:      0.778D+00 0.222D+00
 Gap=     0.157 Goal=   None    Shift=    0.000
 RMSDP=7.14D-06 MaxDP=2.64D-04 DE= 7.07D-06 OVMax= 1.26D-03

 Cycle   7  Pass 1  IDiag  1:
 E= -321.886036729918     Delta-E=       -0.000008216840 Rises=F Damp=F
 DIIS: error= 3.04D-05 at cycle   3 NSaved=   3.
 NSaved= 3 IEnMin= 3 EnMin= -321.886036729918     IErMin= 3 ErrMin= 3.04D-05
 ErrMax= 3.04D-05  0.00D+00 EMaxC= 1.00D-01 BMatC= 2.04D-07 BMatP= 1.22D-06
 IDIUse=1 WtCom= 1.00D+00 WtEn= 0.00D+00
 Coeff-Com:  0.311D+00 0.243D-01 0.665D+00
 Coeff:      0.311D+00 0.243D-01 0.665D+00
 Gap=     0.157 Goal=   None    Shift=    0.000
 RMSDP=1.65D-06 MaxDP=8.09D-05 DE=-8.22D-06 OVMax= 2.00D-04

 Cycle   8  Pass 1  IDiag  1:
 E= -321.886036918174     Delta-E=       -0.000000188256 Rises=F Damp=F
 DIIS: error= 1.36D-05 at cycle   4 NSaved=   4.
 NSaved= 4 IEnMin= 4 EnMin= -321.886036918174     IErMin= 4 ErrMin= 1.36D-05
 ErrMax= 1.36D-05  0.00D+00 EMaxC= 1.00D-01 BMatC= 3.16D-08 BMatP= 2.04D-07
 IDIUse=1 WtCom= 1.00D+00 WtEn= 0.00D+00
 Coeff-Com:  0.207D-01-0.538D-01 0.434D+00 0.599D+00
 Coeff:      0.207D-01-0.538D-01 0.434D+00 0.599D+00
 Gap=     0.157 Goal=   None    Shift=    0.000
 RMSDP=5.55D-07 MaxDP=2.76D-05 DE=-1.88D-07 OVMax= 4.74D-05

 Cycle   9  Pass 1  IDiag  1:
 E= -321.886036945534     Delta-E=       -0.000000027360 Rises=F Damp=F
 DIIS: error= 3.01D-06 at cycle   5 NSaved=   5.
 NSaved= 5 IEnMin= 5 EnMin= -321.886036945534     IErMin= 5 ErrMin= 3.01D-06
 ErrMax= 3.01D-06  0.00D+00 EMaxC= 1.00D-01 BMatC= 2.63D-09 BMatP= 3.16D-08
 IDIUse=1 WtCom= 1.00D+00 WtEn= 0.00D+00
 Coeff-Com:  0.376D-02-0.353D-01 0.258D+00 0.376D+00 0.397D+00
 Coeff:      0.376D-02-0.353D-01 0.258D+00 0.376D+00 0.397D+00
 Gap=     0.157 Goal=   None    Shift=    0.000
 RMSDP=1.52D-07 MaxDP=6.98D-06 DE=-2.74D-08 OVMax= 1.87D-05

 Cycle  10  Pass 1  IDiag  1:
 E= -321.886036947917     Delta-E=       -0.000000002383 Rises=F Damp=F
 DIIS: error= 8.03D-07 at cycle   6 NSaved=   6.
 NSaved= 6 IEnMin= 6 EnMin= -321.886036947917     IErMin= 6 ErrMin= 8.03D-07
 ErrMax= 8.03D-07  0.00D+00 EMaxC= 1.00D-01 BMatC= 1.33D-10 BMatP= 2.63D-09
 IDIUse=1 WtCom= 1.00D+00 WtEn= 0.00D+00
 Coeff-Com:  0.403D-03-0.149D-01 0.108D+00 0.153D+00 0.226D+00 0.527D+00
 Coeff:      0.403D-03-0.149D-01 0.108D+00 0.153D+00 0.226D+00 0.527D+00
 Gap=     0.157 Goal=   None    Shift=    0.000
 RMSDP=4.91D-08 MaxDP=1.63D-06 DE=-2.38D-09 OVMax= 6.74D-06

 Cycle  11  Pass 1  IDiag  1:
 E= -321.886036948015     Delta-E=       -0.000000000098 Rises=F Damp=F
 DIIS: error= 4.03D-07 at cycle   7 NSaved=   7.
 NSaved= 7 IEnMin= 7 EnMin= -321.886036948015     IErMin= 7 ErrMin= 4.03D-07
 ErrMax= 4.03D-07  0.00D+00 EMaxC= 1.00D-01 BMatC= 4.39D-11 BMatP= 1.33D-10
 IDIUse=1 WtCom= 1.00D+00 WtEn= 0.00D+00
 Coeff-Com: -0.362D-03-0.561D-02 0.405D-01 0.545D-01 0.105D+00 0.388D+00
 Coeff-Com:  0.418D+00
 Coeff:     -0.362D-03-0.561D-02 0.405D-01 0.545D-01 0.105D+00 0.388D+00
 Coeff:      0.418D+00
 Gap=     0.157 Goal=   None    Shift=    0.000
 RMSDP=1.84D-08 MaxDP=6.88D-07 DE=-9.75D-11 OVMax= 2.61D-06

 Cycle  12  Pass 1  IDiag  1:
 E= -321.886036948053     Delta-E=       -0.000000000038 Rises=F Damp=F
 DIIS: error= 8.29D-08 at cycle   8 NSaved=   8.
 NSaved= 8 IEnMin= 8 EnMin= -321.886036948053     IErMin= 8 ErrMin= 8.29D-08
 ErrMax= 8.29D-08  0.00D+00 EMaxC= 1.00D-01 BMatC= 7.07D-13 BMatP= 4.39D-11
 IDIUse=1 WtCom= 1.00D+00 WtEn= 0.00D+00
 Coeff-Com: -0.177D-03-0.232D-02 0.166D-01 0.219D-01 0.437D-01 0.178D+00
 Coeff-Com:  0.212D+00 0.530D+00
 Coeff:     -0.177D-03-0.232D-02 0.166D-01 0.219D-01 0.437D-01 0.178D+00
 Coeff:      0.212D+00 0.530D+00
 Gap=     0.157 Goal=   None    Shift=    0.000
 RMSDP=3.38D-09 MaxDP=1.69D-07 DE=-3.82D-11 OVMax= 6.05D-07

 SCF Done:  E(RS-VWN) =  -321.886036948     A.U. after   12 cycles
            NFock= 12  Conv=0.34D-08     -V/T= 2.0037
 KE= 3.206861210902D+02 PE=-1.305450560729D+03 EE= 3.867853584259D+02
 Leave Link  502 at Fri Aug 27 21:08:41 2021, MaxMem= 17179869184 cpu:       142.3
 (Enter /public3/home/sc51754/softwares/g09e01/l701.exe)
 Compute integral first derivatives.
 ... and contract with generalized density number  0.
 Leave Link  701 at Fri Aug 27 21:08:42 2021, MaxMem= 17179869184 cpu:        62.0
 (Enter /public3/home/sc51754/softwares/g09e01/l702.exe)
 L702 exits ... SP integral derivatives will be done elsewhere.
 Leave Link  702 at Fri Aug 27 21:08:42 2021, MaxMem= 17179869184 cpu:         0.2
 (Enter /public3/home/sc51754/softwares/g09e01/l703.exe)
 Compute integral first derivatives, UseDBF=F ICtDFT=           0.
 Integral derivatives from FoFJK, PRISM(SPDF).
 Calling FoFJK, ICntrl=      2527 FMM=F ISym2X=0 I1Cent= 0 IOpClX= 0 NMat=1 NMatS=1 NMatT=0.
 FoFJK:  IHMeth= 1 ICntrl=    2527 DoSepK=F KAlg= 0 I1Cent=   0 FoldK=F
 IRaf=         0 NMat=   1 IRICut=       1 DoRegI=T DoRafI=F ISym2E= 0.
 FoFCou: FMM=F IPFlag=           0 FMFlag=      100000 FMFlg1=         800
         NFxFlg=           0 DoJE=F BraDBF=F KetDBF=F FulRan=T
         wScrn=  0.000000 ICntrl=    2527 IOpCl=  0 I1Cent=           0 NGrid=           0
         NMat0=    1 NMatS0=      1 NMatT0=    0 NMatD0=    1 NMtDS0=    0 NMtDT0=    0
 Symmetry not used in FoFCou.
 Leave Link  703 at Fri Aug 27 21:08:44 2021, MaxMem= 17179869184 cpu:       143.1
 (Enter /public3/home/sc51754/softwares/g09e01/l716.exe)
 Dipole        = 9.98116014D-01 5.08008032D-01-1.28319242D-04
 ***** Axes restored to original set *****
 -------------------------------------------------------------------
 Center     Atomic                   Forces (Hartrees/Bohr)
 Number     Number              X              Y              Z
 -------------------------------------------------------------------
      1        6           0.001632698    0.000180077   -0.000016083
      2        6           0.001239227    0.000117493    0.000004840
      3        6          -0.004443516   -0.001157763   -0.000001984
      4        6           0.000971363   -0.000314012   -0.000010420
      5        6           0.001995471    0.000402999    0.000036840
      6        7          -0.002450393   -0.000306354   -0.000008644
      7        1           0.000191534    0.000570424    0.000006183
      8        1          -0.000348093    0.000271474    0.000001635
      9        1          -0.000191693   -0.000107534   -0.000000856
     10        1           0.000162749   -0.000588925   -0.000012013
     11        8           0.002047536    0.000669597    0.000001675
     12        1          -0.000806883    0.000262526   -0.000001174
 -------------------------------------------------------------------
 Cartesian Forces:  Max     0.004443516 RMS     0.001092384
 Leave Link  716 at Fri Aug 27 21:08:45 2021, MaxMem= 17179869184 cpu:         0.3
 (Enter /public3/home/sc51754/softwares/g09e01/l103.exe)

 GradGradGradGradGradGradGradGradGradGradGradGradGradGradGradGradGradGrad
 Berny optimization.
 Using GEDIIS/GDIIS optimizer.
 FormGI is forming the generalized inverse of G from B-inverse, IUseBI=4.
 Internal  Forces:  Max     0.001614620 RMS     0.000590331
 Search for a local minimum.
 Step number   2 out of a maximum of   61
 All quantities printed in internal units (Hartrees-Bohrs-Radians)
 RMS Force = .59033D-03 SwitMx=.10000D-02 MixMth= 2
 Mixed Optimization -- En-DIIS/RFO-DIIS
 Update second derivatives using D2CorX and points    1    2
 DE= -1.28D-03 DEPred=-1.29D-03 R= 9.95D-01
 TightC=F SS=  1.41D+00  RLast= 7.29D-02 DXNew= 5.0454D-01 2.1868D-01
 Trust test= 9.95D-01 RLast= 7.29D-02 DXMaxT set to 3.00D-01
 ITU=  1  0
 Use linear search instead of GDIIS.
     Eigenvalues ---    0.02120   0.02139   0.02144   0.02163   0.02209
     Eigenvalues ---    0.02238   0.02269   0.02294   0.02416   0.15991
     Eigenvalues ---    0.16000   0.16000   0.16000   0.16048   0.21992
     Eigenvalues ---    0.22555   0.23906   0.24928   0.34438   0.34983
     Eigenvalues ---    0.35099   0.35466   0.42365   0.44823   0.46133
     Eigenvalues ---    0.49535   0.51517   0.53916   0.55016   0.56560
 RFO step:  Lambda=-5.52701712D-05 EMin= 2.11971060D-02
 Quartic linear search produced a step of -0.01089.
 Iteration  1 RMS(Cart)=  0.00218957 RMS(Int)=  0.00000418
 Iteration  2 RMS(Cart)=  0.00000490 RMS(Int)=  0.00000033
[...]
 Iteration  2 RMS(Cart)=  0.00000003 RMS(Int)=  0.00000001
 ITry= 1 IFail=0 DXMaxC= 5.80D-04 DCOld= 1.00D+10 DXMaxT= 3.00D-01 DXLimC= 3.00D+00 Rises=F
 Variable       Old X    -DE/DX   Delta X   Delta X   Delta X     New X
                                 (Linear)    (Quad)   (Total)
    R1        2.61124  -0.00008   0.00000  -0.00027  -0.00027   2.61097
    R2        2.50414   0.00011   0.00000   0.00030   0.00030   2.50444
    R3        2.07039  -0.00005   0.00000  -0.00016  -0.00016   2.07023
    R4        2.61913   0.00002   0.00000   0.00015   0.00015   2.61928
    R5        2.06783  -0.00001   0.00000  -0.00002  -0.00002   2.06780
    R6        2.61782   0.00002   0.00000  -0.00001  -0.00001   2.61781
    R7        2.53336  -0.00003   0.00000  -0.00013  -0.00013   2.53323
    R8        2.60716  -0.00000   0.00000   0.00007   0.00007   2.60722
    R9        2.06182  -0.00002   0.00000  -0.00007  -0.00007   2.06176
   R10        2.50947  -0.00001   0.00000  -0.00009  -0.00009   2.50939
   R11        2.06996  -0.00003   0.00000  -0.00008  -0.00008   2.06987
   R12        1.83836  -0.00002   0.00000  -0.00005  -0.00005   1.83831
    A1        2.16272   0.00002   0.00000   0.00009   0.00009   2.16282
    A2        2.08729  -0.00003   0.00000  -0.00012  -0.00012   2.08716
    A3        2.03317   0.00001   0.00000   0.00003   0.00003   2.03320
    A4        2.06684   0.00000   0.00000   0.00009   0.00009   2.06693
    A5        2.10550   0.00003   0.00000   0.00032   0.00032   2.10581
    A6        2.11084  -0.00004   0.00000  -0.00040  -0.00040   2.11044
    A7        2.06671  -0.00001   0.00000  -0.00011  -0.00011   2.06660
    A8        2.14849  -0.00002   0.00000  -0.00011  -0.00011   2.14838
    A9        2.06799   0.00003   0.00000   0.00021   0.00021   2.06820
   A10        2.06248   0.00000   0.00000  -0.00003  -0.00003   2.06245
   A11        2.09487   0.00001   0.00000   0.00022   0.00022   2.09509
   A12        2.12583  -0.00001   0.00000  -0.00019  -0.00019   2.12564
   A13        2.16824   0.00002   0.00000   0.00019   0.00019   2.16843
   A14        2.08585  -0.00005   0.00000  -0.00043  -0.00043   2.08542
   A15        2.02909   0.00003   0.00000   0.00024   0.00024   2.02933
   A16        2.03938  -0.00004   0.00000  -0.00024  -0.00024   2.03914
   A17        1.91085   0.00004   0.00000   0.00028   0.00028   1.91113
    D1        0.00006  -0.00000   0.00000  -0.00006  -0.00006  -0.00000
    D2       -3.14155  -0.00000   0.00000  -0.00005  -0.00005   3.14159
    D3        3.14157   0.00000   0.00000   0.00003   0.00003   3.14159
    D4       -0.00004   0.00000   0.00000   0.00004   0.00004  -0.00000
    D5       -0.00002   0.00000   0.00000   0.00002   0.00002   0.00000
    D6       -3.14152  -0.00000   0.00000  -0.00007  -0.00007   3.14159
    D7       -0.00004   0.00000   0.00000   0.00004   0.00004   0.00000
    D8        3.14157   0.00000   0.00000   0.00002   0.00002   3.14159
    D9        3.14157   0.00000   0.00000   0.00002   0.00002  -3.14159
   D10       -0.00000   0.00000   0.00000   0.00000   0.00000   0.00000
   D11       -0.00003   0.00000   0.00000   0.00003   0.00003   0.00000
   D12        3.14157   0.00000   0.00000   0.00002   0.00002  -3.14159
   D13        3.14154   0.00000   0.00000   0.00005   0.00005  -3.14159
   D14       -0.00004   0.00000   0.00000   0.00004   0.00004   0.00000
   D15       -0.00005   0.00000   0.00000   0.00004   0.00004  -0.00000
   D16        3.14157  -0.00000   0.00000   0.00002   0.00002   3.14159
   D17        0.00008  -0.00000   0.00000  -0.00008  -0.00008  -0.00000
   D18        3.14153   0.00000   0.00000   0.00006   0.00006   3.14159
   D19       -3.14152  -0.00000   0.00000  -0.00007  -0.00007   3.14159
   D20       -0.00007   0.00000   0.00000   0.00007   0.00007   0.00000
   D21       -0.00006   0.00000   0.00000   0.00006   0.00006   0.00000
   D22       -3.14151  -0.00000   0.00000  -0.00008  -0.00008   3.14159
         Item               Value     Threshold  Converged?
 Maximum Force            0.000111     0.000450     YES
 RMS     Force            0.000028     0.000300     YES
 Maximum Displacement     0.000580     0.001800     YES
 RMS     Displacement     0.000178     0.001200     YES
 Predicted change in Energy=-9.049900D-08
 Optimization completed.
    -- Stationary point found.
                           ----------------------------
                           !   Optimized Parameters   !
                           ! (Angstroms and Degrees)  !
 --------------------------                            --------------------------
 ! Name  Definition              Value          Derivative Info.                !
 --------------------------------------------------------------------------------
 ! R1    R(1,2)                  1.3818         -DE/DX =   -0.0001              !
 ! R2    R(1,6)                  1.3251         -DE/DX =    0.0001              !
 ! R3    R(1,7)                  1.0956         -DE/DX =   -0.0001              !
 ! R4    R(2,3)                  1.386          -DE/DX =    0.0                 !
 ! R5    R(2,8)                  1.0942         -DE/DX =    0.0                 !
 ! R6    R(3,4)                  1.3853         -DE/DX =    0.0                 !
 ! R7    R(3,11)                 1.3406         -DE/DX =    0.0                 !
 ! R8    R(4,5)                  1.3796         -DE/DX =    0.0                 !
 ! R9    R(4,9)                  1.0911         -DE/DX =    0.0                 !
 ! R10   R(5,6)                  1.328          -DE/DX =    0.0                 !
 ! R11   R(5,10)                 1.0954         -DE/DX =    0.0                 !
 ! R12   R(11,12)                0.9728         -DE/DX =    0.0                 !
 ! A1    A(2,1,6)              123.915          -DE/DX =    0.0                 !
 ! A2    A(2,1,7)              119.5928         -DE/DX =    0.0                 !
 ! A3    A(6,1,7)              116.4923         -DE/DX =    0.0                 !
 ! A4    A(1,2,3)              118.4215         -DE/DX =    0.0                 !
 ! A5    A(1,2,8)              120.6361         -DE/DX =    0.0                 !
 ! A6    A(3,2,8)              120.9424         -DE/DX =    0.0                 !
 ! A7    A(2,3,4)              118.4136         -DE/DX =    0.0                 !
 ! A8    A(2,3,11)             123.0995         -DE/DX =    0.0                 !
 ! A9    A(4,3,11)             118.4869         -DE/DX =    0.0                 !
 ! A10   A(3,4,5)              118.1712         -DE/DX =    0.0                 !
 ! A11   A(3,4,9)              120.0274         -DE/DX =    0.0                 !
 ! A12   A(5,4,9)              121.8014         -DE/DX =    0.0                 !
 ! A13   A(4,5,6)              124.2311         -DE/DX =    0.0                 !
 ! A14   A(4,5,10)             119.5105         -DE/DX =    0.0                 !
 ! A15   A(6,5,10)             116.2584         -DE/DX =    0.0                 !
 ! A16   A(1,6,5)              116.8477         -DE/DX =    0.0                 !
 ! A17   A(3,11,12)            109.4837         -DE/DX =    0.0                 !
 ! D1    D(6,1,2,3)              0.0037         -DE/DX =    0.0                 !
 ! D2    D(6,1,2,8)            180.0027         -DE/DX =    0.0                 !
 ! D3    D(7,1,2,3)            179.9986         -DE/DX =    0.0                 !
 ! D4    D(7,1,2,8)             -0.0024         -DE/DX =    0.0                 !
 ! D5    D(2,1,6,5)             -0.0009         -DE/DX =    0.0                 !
 ! D6    D(7,1,6,5)            180.004          -DE/DX =    0.0                 !
 ! D7    D(1,2,3,4)             -0.0021         -DE/DX =    0.0                 !
 ! D8    D(1,2,3,11)           179.999          -DE/DX =    0.0                 !
 ! D9    D(8,2,3,4)           -180.0012         -DE/DX =    0.0                 !
 ! D10   D(8,2,3,11)            -0.0001         -DE/DX =    0.0                 !
 ! D11   D(2,3,4,5)             -0.0018         -DE/DX =    0.0                 !
 ! D12   D(2,3,4,9)           -180.0012         -DE/DX =    0.0                 !
 ! D13   D(11,3,4,5)          -180.0028         -DE/DX =    0.0                 !
 ! D14   D(11,3,4,9)            -0.0023         -DE/DX =    0.0                 !
 ! D15   D(2,3,11,12)           -0.0026         -DE/DX =    0.0                 !
 ! D16   D(4,3,11,12)          179.9985         -DE/DX =    0.0                 !
 ! D17   D(3,4,5,6)              0.0048         -DE/DX =    0.0                 !
 ! D18   D(3,4,5,10)           179.9965         -DE/DX =    0.0                 !
 ! D19   D(9,4,5,6)            180.0043         -DE/DX =    0.0                 !
 ! D20   D(9,4,5,10)            -0.004          -DE/DX =    0.0                 !
 ! D21   D(4,5,6,1)             -0.0034         -DE/DX =    0.0                 !
 ! D22   D(10,5,6,1)           180.0046         -DE/DX =    0.0                 !
 --------------------------------------------------------------------------------
 GradGradGradGradGradGradGradGradGradGradGradGradGradGradGradGradGradGrad

 Leave Link  103 at Fri Aug 27 21:10:06 2021, MaxMem= 17179869184 cpu:        82.7
 (Enter /public3/home/sc51754/softwares/g09e01/l9999.exe)
 1\1\GINC-P1908\Freq\RSVWN\Gen\C5H5N1O1\SC51754\27-Aug-2021\0\\#P Geom=
 AllCheck Guess=TCheck SCRF=Check GenChk RSVWN/ChkBas Freq\\4HY_SVWN_PC
 2_OPT_FREQ\\0,1\C,1.1409557486,1.1455877252,0.0000168098\C,-0.24052540
 65,1.1756209506,0.000023458\C,-0.9265278824,-0.0286869754,-0.000009074
 6\C,-0.1940868857,-1.2045087397,-0.0000917398\C,1.1826100689,-1.114316
 0724,-0.0001748254\N,1.8562540308,0.0300924251,-0.0000890435\H,1.70257
 86173,2.0862931589,0.0000180798\H,-0.7775410824,2.1290318712,0.0000688
 682\H,-0.7072054319,-2.1673920337,-0.0000984472\H,1.7833369491,-2.0302
 694018,-0.0001826331\O,-2.264719251,-0.1089555366,0.0000141305\H,-2.64
 3521475,0.7870816287,0.0000974171\\Version=EM64L-G09RevE.01\State=1-A\
 HF=-321.8860714\RMSD=3.413e-09\RMSF=4.895e-05\ZeroPoint=0.091146\Therm
 al=0.0965667\Dipole=-1.0046659,0.5092056,0.0000766\DipoleDeriv=0.44221
 16,-0.0008362,-0.000007,-0.0102071,0.3602042,0.0000198,-0.0000278,-0.0
 000043,-0.023667,-0.4297277,-0.1003856,0.0000052,-0.3407761,-0.1230283
 ,0.0000025,-0.0000077,0.0000109,-0.1519784,1.5451361,0.0047203,-0.0000
 404,0.0099709,0.2844755,0.0000161,-0.0000273,0.0000194,0.0998671,-0.44
 08639,0.1061479,0.0000102,0.2884661,-0.112166,-0.000014,0.0000192,-0.0
 000045,-0.1431151,0.4577867,-0.0336451,-0.0000223,0.0514461,0.3711206,
 0.0000166,0.0000122,-0.0000056,-0.0246021,-0.6269303,0.0215334,0.00001
 39,-0.02277,-0.6336238,-0.0000081,0.0000052,-0.0000308,-0.2665072,0.05
 30904,-0.0651578,-0.0000041,-0.0448063,-0.0702087,-0.0000091,0.000011,
 0.0000124,0.1073187,-0.0064846,0.0827402,0.000007,0.0750584,-0.0115179
 ,-0.0000093,0.0000014,-0.0000107,0.151477,0.059604,-0.0486547,0.000002
 6,-0.0443232,0.0118119,-0.0000053,0.0000081,-0.0000038,0.1517689,0.049
 0564,0.0722241,0.0000074,0.0471356,-0.0608812,-0.0000117,-0.0000129,0.
 000018,0.1078178,-1.4917931,0.0164279,0.0000346,-0.0060202,-0.1653343,
 0.0000154,0.0000157,0.0000113,-0.3281707,0.3889145,-0.0551145,-0.00000
 71,-0.0031743,0.149148,-0.000013,0.0000029,-0.0000123,0.319791\Polar=8
 4.1802593,-1.6893549,78.921297,-0.0015209,0.0023787,38.8759294\PG=C01 
 [X(C5H5N1O1)]\NImag=0\\0.68257537,0.02719780,0.72426609,-0.00001350,0.
 00002801,0.15166160,-0.34216816,-0.03422102,0.00000002,0.69340287,0.02
 183495,-0.12101279,-0.00000300,-0.01953688,0.70348518,0.00000183,-0.00
 000119,-0.06087700,-0.00000818,0.00002447,0.10949815,-0.02850616,-0.03
 129204,-0.00000043,-0.15598086,-0.11597621,-0.00000286,0.72109101,-0.0
 7693334,0.04037088,0.00000416,-0.04957268,-0.29466177,-0.00000779,-0.0
 1228250,0.72027035,-0.00000426,0.00000185,0.00208278,0.00000144,-0.000
 00609,-0.06565766,-0.00001682,0.00002716,0.16202155,-0.04192802,0.0334
 6907,0.00000291,0.05002829,0.01470121,0.00000026,-0.15739209,0.0593463
 8,0.00000495,0.70611865,0.01521367,-0.01247825,-0.00000072,-0.01064186
 ,-0.04573972,-0.00000226,0.11880254,-0.29135889,-0.00001432,0.02484553
 ,0.71363765,0.00000255,-0.00000226,-0.00677206,-0.00000288,-0.00000304
 ,0.00894437,0.00000972,-0.00001226,-0.06742945,-0.00002975,0.00002233,
 0.11408697,0.04144512,-0.01710681,-0.00000149,-0.03997360,-0.01500819,
 -0.00000008,-0.03454075,0.07117421,0.00000613,-0.34966249,-0.03270436,
 0.00001689,0.69188632,0.02219801,-0.09700059,-0.00000778,-0.03489784,-
 0.01465539,-0.00000007,0.02807028,0.04503334,0.00000058,0.02250945,-0.
 12350189,-0.00000241,-0.03011466,0.71759626,0.00000032,-0.00000593,0.0
 0529750,-0.00000145,-0.00000040,-0.00739381,0.00000236,0.00000071,0.00
 217914,0.00001852,-0.00000124,-0.06128769,-0.00001456,0.00002575,0.153
 40116,-0.17960746,0.12031162,0.00001157,-0.03537265,0.03123166,0.00000
 319,0.01013639,0.00270570,-0.00000016,-0.02971852,-0.03441957,-0.00000
 075,-0.17057099,-0.11271868,-0.00000685,0.39762057,0.10636318,-0.29240
 160,-0.00001886,0.08384330,0.02115810,-0.00000279,0.00249165,-0.078156
 29,-0.00000351,-0.08486432,0.01763890,0.00000211,-0.09892556,-0.295798
 68,-0.00001515,-0.00832127,0.67786243,0.00001287,-0.00002063,-0.068301
 63,0.00000642,-0.00000036,0.02248956,-0.00000037,-0.00000593,-0.008131
 63,-0.00000314,0.00000140,0.02180138,-0.00000892,-0.00001695,-0.068543
 47,-0.00000735,0.00004514,0.09425984,-0.12949301,-0.12067851,-0.000000
 68,-0.01190258,-0.02500906,-0.00000025,-0.00452603,0.00192086,0.000000
 33,-0.00053180,0.00084095,0.00000006,0.00086966,0.00472867,0.00000074,
 0.01251701,0.01778054,0.00000039,0.13299947,-0.12088973,-0.23046752,-0
 .00000063,0.00103721,0.00293450,-0.00000010,0.00117446,0.00149671,-0.0
 0000014,0.00012461,0.00019185,0.00000003,0.00195322,-0.00197394,-0.000
 00037,-0.00380088,-0.03214741,-0.00000178,0.12154444,0.26026171,0.0000
 0024,0.00000166,-0.03909984,-0.00000008,-0.00000008,0.00639411,-0.0000
 0003,-0.00000044,0.00761709,-0.00000059,0.00000034,-0.00128557,0.00000
 136,-0.00000049,0.00957669,-0.00000027,-0.00000394,-0.00315354,-0.0000
 0040,0.00000292,0.02450405,-0.00710437,0.02891888,0.00000169,-0.113034
 13,0.11115002,0.00000524,0.00611794,-0.01291104,-0.00000057,-0.0000448
 0,-0.00345515,-0.00000011,-0.00157161,-0.00189025,-0.00000015,-0.00636
 996,-0.00017587,0.00000015,0.00082380,-0.00032682,0.00000003,0.1165393
 0,-0.00129673,0.00219503,0.00000004,0.11156666,-0.25589584,-0.00001071
 ,0.01749981,-0.01758682,-0.00000137,-0.00415028,-0.00288343,-0.0000001
 4,-0.00109325,0.00011809,0.00000013,-0.00021431,0.00239601,-0.00000012
 ,0.00027567,0.00031517,0.00000014,-0.12205109,0.27018059,-0.00000025,0
 .00000014,-0.00051235,0.00000547,-0.00001086,-0.02820092,0.00000096,-0
 .00000060,0.00328491,-0.00000006,-0.00000028,0.00520417,-0.00000017,-0
 .00000012,-0.00044732,0.00000048,-0.00000042,0.00800020,-0.00000011,0.
 00000007,-0.00308132,-0.00000615,0.00001181,0.02004286,-0.00146636,0.0
 0177653,0.00000020,-0.00104069,0.00311354,0.00000051,0.01022731,0.0145
 8089,0.00000037,-0.11030375,-0.11298980,0.00000079,-0.00579326,-0.0276
 4210,-0.00000133,-0.00588271,-0.00021683,0.00000076,0.00009197,-0.0002
 4731,-0.00000013,0.00039841,0.00090893,0.00000008,0.11131196,0.0010999
 4,0.00017112,0.00000005,0.00375207,-0.00252780,-0.00000038,-0.01536212
 ,-0.01799481,-0.00000028,-0.11129420,-0.26863358,-0.00000294,0.0013902
 3,0.00254166,-0.00000005,0.00030584,0.00234150,-0.00000011,-0.00006191
 ,-0.00002684,0.00000005,-0.00065906,-0.00070996,-0.00000006,0.12217795
 ,0.28213747,0.00000015,-0.00000025,-0.00045621,0.00000049,-0.00000045,
 0.00546865,-0.00000120,-0.00000199,0.00438466,0.00000025,-0.00000251,-
 0.03076815,0.00000088,0.00000218,-0.00037527,0.00000030,-0.00000060,0.
 00827687,-0.00000010,0.00000009,-0.00144616,-0.00000007,-0.00000011,0.
 00020293,-0.00000058,0.00000331,0.02187121,0.00119404,-0.00467609,-0.0
 0000045,-0.00057014,-0.00086147,-0.00000008,-0.00426900,-0.00188704,0.
 00000025,-0.01287678,0.02442638,0.00000083,-0.13976248,0.12483902,0.00
 000285,0.01276509,-0.01604657,-0.00000083,0.00026833,-0.00040870,-0.00
 000008,0.00008282,0.00005937,0.00000003,0.00083696,-0.00031216,-0.0000
 0004,0.14366155,-0.00181163,-0.00240357,-0.00000032,-0.00017438,0.0002
 2609,0.00000004,-0.00145390,0.00128991,0.00000007,-0.00179109,0.003894
 82,0.00000022,0.12505616,-0.22092719,-0.00000276,0.00579612,-0.0323091
 9,-0.00000176,0.00044497,-0.00062658,-0.00000013,0.00026274,-0.0000406
 5,0.00000005,0.00034445,0.00030024,-0.00000004,-0.12676357,0.25036860,
 -0.00000086,-0.00000056,0.00931622,0.00000029,0.00000045,-0.00122454,0
 .00000091,-0.00000008,0.00785870,0.00000177,-0.00000171,0.00667057,0.0
 0000064,0.00000077,-0.03989383,-0.00000007,-0.00000332,-0.00288672,0.0
 0000009,-0.00000013,0.00057497,0.00000003,0.00000003,-0.00135131,-0.00
 000030,0.00000014,-0.00328470,-0.00000263,0.00000461,0.02483586,0.0063
 0048,-0.00437606,0.00000024,-0.04771713,-0.00687076,0.00000059,-0.3339
 4444,-0.04202639,0.00000416,-0.04750736,0.01337234,0.00000246,0.007288
 11,0.00220443,-0.00000044,-0.00636977,-0.00044225,0.00000015,-0.001424
 88,-0.00019438,-0.00000006,0.00435262,0.00046396,-0.00000032,0.0015388
 4,-0.00093210,-0.00000008,-0.00086423,0.00027592,0.00000004,0.51389680
 ,0.00692131,-0.00918479,-0.00000090,-0.04484238,0.00188925,0.00000036,
 0.00732738,-0.10699332,-0.00000407,0.04794532,0.00628936,-0.00000161,-
 0.00466246,-0.01069414,-0.00000065,-0.00102380,0.00889078,0.00000102,-
 0.00160483,0.00008279,-0.00000003,-0.00082373,0.00303214,0.00000040,-0
 .00151805,0.00203239,0.00000036,0.00148842,0.00016770,-0.00000015,-0.1
 3403045,0.52633338,0.00000086,-0.00000066,0.00839286,-0.00000105,-0.00
 000086,0.01247892,0.00000792,-0.00000221,-0.04626712,0.00000435,-0.000
 00088,0.00713094,-0.00000035,-0.00000122,0.00574658,-0.00000013,0.0000
 0104,-0.00371670,-0.00000004,0.00000004,-0.00071588,-0.00000022,0.0000
 0027,-0.00358160,-0.00000035,0.00000024,-0.00328473,0.00000015,0.00000
 001,-0.00015632,-0.00002327,0.00004254,0.03080755,-0.00124147,0.000676
 62,-0.00000008,0.00432878,0.00123121,-0.00000016,-0.02841332,0.0458849
 4,0.00000417,-0.00618134,-0.00329066,0.00000019,0.00038597,0.00271368,
 -0.00000002,0.00085299,-0.00148601,-0.00000012,0.00030806,0.00003389,0
 .,-0.00019002,-0.00196874,0.00000003,0.00008132,-0.00010449,0.,-0.0004
 6616,-0.00018579,0.00000009,-0.09554905,0.12482326,0.00001214,0.126084
 26,0.00010258,-0.00205400,-0.00000005,-0.00631220,0.00480020,0.0000004
 2,0.00100066,-0.00170931,0.00000013,-0.00084170,0.00294319,-0.00000004
 ,0.00004147,-0.00073753,-0.00000004,0.00014756,0.00052546,0.00000008,-
 0.00018179,-0.00004044,-0.00000001,0.00196138,-0.00112034,-0.00000012,
 -0.00028820,0.00036861,0.00000003,0.00014241,0.00005982,-0.00000005,0.
 17255574,-0.42184555,-0.00003832,-0.16832790,0.41880989,0.00000005,-0.
 00000019,-0.00073189,-0.00000049,0.00000022,-0.00191981,-0.00000017,-0
 .00000074,-0.00194296,0.00000052,-0.00000014,0.00370452,-0.00000032,-0
 .00000025,0.00174033,0.00000005,0.00000029,-0.00009417,-0.00000003,-0.
 00000001,0.00011540,0.00000013,0.00000004,0.00043976,-0.00000003,0.000
 00004,-0.00058912,0.,0.00000002,-0.00045889,0.00001654,-0.00003727,-0.
 00683450,-0.00001626,0.00003799,0.00657133\\0.00011732,-0.00008395,0.0
 0000856,-0.00012861,-0.00007214,-0.00000291,0.00006869,0.00004208,0.00
 000228,0.00000282,0.00004255,0.00000307,-0.00003727,-0.00002978,-0.000
 01414,-0.00008851,0.00010241,0.00000224,0.00003962,0.00003813,-0.00000
 299,0.00002084,0.00002479,-0.00000051,-0.00001829,-0.00001285,0.000001
 06,0.00005171,-0.00000583,0.00000441,-0.00004044,-0.00006954,-0.000001
 16,0.00001213,0.00002411,0.00000008\\\@


 IF YOU DON'T HAVE THE LAW - ARGUE THE FACTS.
 IF YOU DON'T HAVE THE FACTS - ARGUE THE LAW.
 IF YOU DON'T HAVE EITHER - POUND THE TABLE.
 Job cpu time:       0 days  0 hours 38 minutes  9.0 seconds.
 File lengths (MBytes):  RWF=     79 Int=      0 D2E=      0 Chk=      7 Scr=      1
 Normal termination of Gaussian 09 at Fri Aug 27 21:10:06 2021.
