 Entering Gaussian System, Link 0=g09
 AtFile(1): pc-2.gbs
            -H     0
            S    4   1.00
                  0.754230D+02           0.240650D-02
                  0.113500D+02           0.184870D-01
                  0.259930D+01           0.897420D-01
                  0.735130D+00           0.281110D+00
            S    1   1.00
                  0.231670D+00           0.100000D+01
            S    1   1.00
                  0.741470D-01           0.100000D+01
            P    1   1.00
                  0.160000D+01           0.100000D+01
            P    1   1.00
                  0.450000D+00           0.100000D+01
            D    1   1.00
                  0.125000D+01           0.100000D+01
            ****
            -C     0
            S    7   1.00
                  0.785710D+04           0.568250D-03
                  0.117870D+04           0.439150D-02
                  0.268320D+03           0.225040D-01
                  0.759480D+02           0.866530D-01
                  0.245590D+02           0.244050D+00
                  0.862120D+01           0.441480D+00
                  0.312780D+01           0.353320D+00
            S    7   1.00
                  0.117870D+04          -0.594920D-06
                  0.268320D+03          -0.627480D-04
                  0.759480D+02          -0.757730D-03
                  0.245590D+02          -0.733080D-02
                  0.862120D+01          -0.389320D-01
                  0.312780D+01          -0.889080D-01
                  0.822020D+00           0.216890D+00
            S    1   1.00
                  0.330170D+00           0.100000D+01
            S    1   1.00
                  0.114630D+00           0.100000D+01
            P    4   1.00
                  0.337750D+02           0.602940D-02
                  0.767660D+01           0.432280D-01
                  0.223570D+01           0.163010D+00
                  0.764470D+00           0.365040D+00
            P    1   1.00
                  0.262320D+00           0.100000D+01
            P    1   1.00
                  0.846380D-01           0.100000D+01
            D    1   1.00
                  0.140000D+01           0.100000D+01
            D    1   1.00
                  0.450000D+00           0.100000D+01
            F    1   1.00
                  0.950000D+00           0.100000D+01
            ****
            -N     0
            S    7   1.00
                  0.111010D+05           0.545700D-03
                  0.166530D+04           0.421810D-02
                  0.379080D+03           0.216450D-01
                  0.107300D+03           0.837760D-01
                  0.347470D+02           0.238810D+00
                  0.122490D+02           0.439940D+00
                  0.447430D+01           0.363640D+00
            S    7   1.00
                  0.166530D+04          -0.150060D-05
                  0.379080D+03          -0.587530D-04
                  0.107300D+03          -0.774530D-03
                  0.347470D+02          -0.721610D-02
                  0.122490D+02          -0.393380D-01
                  0.447430D+01          -0.906110D-01
                  0.124040D+01           0.198820D+00
            S    1   1.00
                  0.487430D+00           0.100000D+01
            S    1   1.00
                  0.164840D+00           0.100000D+01
            P    4   1.00
                  0.479340D+02           0.617060D-02
                  0.109990D+02           0.442600D-01
                  0.324720D+01           0.168250D+00
                  0.111140D+01           0.368480D+00
            P    1   1.00
                  0.379880D+00           0.100000D+01
            P    1   1.00
                  0.120680D+00           0.100000D+01
            D    1   1.00
                  0.180000D+01           0.100000D+01
            D    1   1.00
                  0.550000D+00           0.100000D+01
            F    1   1.00
                  0.102000D+01           0.100000D+01
            ****
            -O     0
            S    7   1.00
                  0.147820D+05           0.535190D-03
                  0.221730D+04           0.413750D-02
                  0.504740D+03           0.212450D-01
                  0.142870D+03           0.824530D-01
                  0.463000D+02           0.236710D+00
                  0.163370D+02           0.440390D+00
                  0.598280D+01           0.364650D+00
            S    7   1.00
                  0.221730D+04          -0.192750D-05
                  0.504740D+03          -0.579640D-04
                  0.142870D+03          -0.794940D-03
                  0.463000D+02          -0.731250D-02
                  0.163370D+02          -0.405740D-01
                  0.598280D+01          -0.915940D-01
                  0.167180D+01           0.209400D+00
            S    1   1.00
                  0.646620D+00           0.100000D+01
            S    1   1.00
                  0.216690D+00           0.100000D+01
            P    4   1.00
                  0.604240D+02           0.689490D-02
                  0.139350D+02           0.490050D-01
                  0.415310D+01           0.182550D+00
                  0.141580D+01           0.376330D+00
            P    1   1.00
                  0.475490D+00           0.100000D+01
            P    1   1.00
                  0.145290D+00           0.100000D+01
            D    1   1.00
                  0.220000D+01           0.100000D+01
            D    1   1.00
                  0.650000D+00           0.100000D+01
            F    1   1.00
                  0.110000D+01           0.100000D+01
            ****
 Initial command:
 /public3/home/sc51754/softwares/g09e01/l1.exe "./Gau-23171.inp" -scrdir="./"
 Entering Link 1 = /public3/home/sc51754/softwares/g09e01/l1.exe PID=     23172.
  
 Copyright (c) 1988,1990,1992,1993,1995,1998,2003,2009,2015,
            Gaussian, Inc.  All Rights Reserved.
  
 This is part of the Gaussian(R) 09 program.  It is based on
 the Gaussian(R) 03 system (copyright 2003, Gaussian, Inc.),
 the Gaussian(R) 98 system (copyright 1998, Gaussian, Inc.),
 the Gaussian(R) 94 system (copyright 1995, Gaussian, Inc.),
 the Gaussian 92(TM) system (copyright 1992, Gaussian, Inc.),
 the Gaussian 90(TM) system (copyright 1990, Gaussian, Inc.),
 the Gaussian 88(TM) system (copyright 1988, Gaussian, Inc.),
 the Gaussian 86(TM) system (copyright 1986, Carnegie Mellon
 University), and the Gaussian 82(TM) system (copyright 1983,
 Carnegie Mellon University). Gaussian is a federally registered
 trademark of Gaussian, Inc.
  
 This software contains proprietary and confidential information,
 including trade secrets, belonging to Gaussian, Inc.
  
 This software is provided under written license and may be
 used, copied, transmitted, or stored only in accord with that
 written license.
  
 The following legend is applicable only to US Government
 contracts under FAR:
  
                    RESTRICTED RIGHTS LEGEND
  
 Use, reproduction and disclosure by the US Government is
 subject to restrictions as set forth in subparagraphs (a)
 and (c) of the Commercial Computer Software - Restricted
 Rights clause in FAR 52.227-19.
  
 Gaussian, Inc.
 340 Quinnipiac St., Bldg. 40, Wallingford CT 06492
  
  
 ---------------------------------------------------------------
 Warning -- This program may not be used in any manner that
 competes with the business of Gaussian, Inc. or will provide
 assistance to any competitor of Gaussian, Inc.  The licensee
 of this program is prohibited from giving any competitor of
 Gaussian, Inc. access to this program.  By using this program,
 the user acknowledges that Gaussian, Inc. is engaged in the
 business of creating and licensing software in the field of
 computational chemistry and represents and warrants to the
 licensee that it is not a competitor of Gaussian, Inc. and that
 it will not use this program in any manner prohibited above.
 ---------------------------------------------------------------
  

 Cite this work as:
 Gaussian 09, Revision E.01,
 M. J. Frisch, G. W. Trucks, H. B. Schlegel, G. E. Scuseria, 
 M. A. Robb, J. R. Cheeseman, G. Scalmani, V. Barone, B. Mennucci, 
 G. A. Petersson, H. Nakatsuji, M. Caricato, X. Li, H. P. Hratchian, 
 A. F. Izmaylov, J. Bloino, G. Zheng, J. L. Sonnenberg, M. Hada, 
 M. Ehara, K. Toyota, R. Fukuda, J. Hasegawa, M. Ishida, T. Nakajima, 
 Y. Honda, O. Kitao, H. Nakai, T. Vreven, J. A. Montgomery, Jr., 
 J. E. Peralta, F. Ogliaro, M. Bearpark, J. J. Heyd, E. Brothers, 
 K. N. Kudin, V. N. Staroverov, T. Keith, R. Kobayashi, J. Normand, 
 K. Raghavachari, A. Rendell, J. C. Burant, S. S. Iyengar, J. Tomasi, 
 M. Cossi, N. Rega, J. M. Millam, M. Klene, J. E. Knox, J. B. Cross, 
 V. Bakken, C. Adamo, J. Jaramillo, R. Gomperts, R. E. Stratmann, 
 O. Yazyev, A. J. Austin, R. Cammi, C. Pomelli, J. W. Ochterski, 
 R. L. Martin, K. Morokuma, V. G. Zakrzewski, G. A. Voth, 
 P. Salvador, J. J. Dannenberg, S. Dapprich, A. D. Daniels, 
 O. Farkas, J. B. Foresman, J. V. Ortiz, J. Cioslowski, 
 and D. J. Fox, Gaussian, Inc., Wallingford CT, 2013.
 
 ******************************************
 Gaussian 09:  EM64L-G09RevE.01 30-Nov-2015
                27-Aug-2021 
 ******************************************
 %nprocshared=64
 Will use up to   64 processors via shared memory.
 %mem=128GB
 %chk=4HY_BLYP_PC2_OPT_FREQ.chk
 --------------------
 #p opt freq BLYP/gen
 --------------------
 1/14=-1,18=20,19=15,26=3,38=1/1,3;
 2/9=110,12=2,17=6,18=5,40=1/2;
 3/5=7,11=2,16=1,25=1,30=1,71=1,74=402/1,2,3;
 4//1;
 5/5=2,38=5/2;
 6/7=2,8=2,9=2,10=2,28=1/1;
 7//1,2,3,16;
 1/14=-1,18=20,19=15,26=3/3(2);
 2/9=110/2;
 99//99;
 2/9=110/2;
 3/5=7,6=1,11=2,16=1,25=1,30=1,71=1,74=402,82=7/1,2,3;
 4/5=5,16=3,69=1/1;
 5/5=2,38=5/2;
 7//1,2,3,16;
 1/14=-1,18=20,19=15,26=3/3(-5);
 2/9=110/2;
 6/7=2,8=2,9=2,10=2,19=2,28=1/1;
 99/9=1/99;
 Leave Link    1 at Fri Aug 27 21:13:27 2021, MaxMem= 17179869184 cpu:         9.4
 (Enter /public3/home/sc51754/softwares/g09e01/l101.exe)
 ---------------------
 4HY_BLYP_PC2_OPT_FREQ
 ---------------------
 Symbolic Z-matrix:
 Charge =  0 Multiplicity = 1
 C                     1.15223   1.15341  -0.00011 
 C                    -0.24145   1.18944   0.00003 
 C                    -0.93443  -0.02499   0.00004 
 C                    -0.19715  -1.21307  -0.00009 
 C                     1.19102  -1.12281   0.00022 
 N                     1.87822   0.02956   0.00002 
 H                     1.71189   2.08718  -0.0001 
 H                    -0.77027   2.13945  -0.00002 
 H                    -0.70664  -2.17013  -0.00044 
 H                     1.78719  -2.03343  -0.00024 
 O                    -2.29029  -0.1124   -0.00001 
 H                    -2.6687    0.77737   0.00031 
 
 NAtoms=     12 NQM=       12 NQMF=       0 NMMI=      0 NMMIF=      0
                NMic=       0 NMicF=      0.
                    Isotopes and Nuclear Properties:
 (Nuclear quadrupole moments (NQMom) in fm**2, nuclear magnetic moments (NMagM)
  in nuclear magnetons)

  Atom         1           2           3           4           5           6           7           8           9          10
 IAtWgt=          12          12          12          12          12          14           1           1           1           1
 AtmWgt=  12.0000000  12.0000000  12.0000000  12.0000000  12.0000000  14.0030740   1.0078250   1.0078250   1.0078250   1.0078250
 NucSpn=           0           0           0           0           0           2           1           1           1           1
 AtZEff=   0.0000000   0.0000000   0.0000000   0.0000000   0.0000000   0.0000000   0.0000000   0.0000000   0.0000000   0.0000000
 NQMom=    0.0000000   0.0000000   0.0000000   0.0000000   0.0000000   2.0440000   0.0000000   0.0000000   0.0000000   0.0000000
 NMagM=    0.0000000   0.0000000   0.0000000   0.0000000   0.0000000   0.4037610   2.7928460   2.7928460   2.7928460   2.7928460
 AtZNuc=   6.0000000   6.0000000   6.0000000   6.0000000   6.0000000   7.0000000   1.0000000   1.0000000   1.0000000   1.0000000

  Atom        11          12
 IAtWgt=          16           1
 AtmWgt=  15.9949146   1.0078250
 NucSpn=           0           1
 AtZEff=   0.0000000   0.0000000
 NQMom=    0.0000000   0.0000000
 NMagM=    0.0000000   2.7928460
 AtZNuc=   8.0000000   1.0000000
 Leave Link  101 at Fri Aug 27 21:13:27 2021, MaxMem= 17179869184 cpu:         7.5
 (Enter /public3/home/sc51754/softwares/g09e01/l103.exe)

 GradGradGradGradGradGradGradGradGradGradGradGradGradGradGradGradGradGrad
 Berny optimization.
 Initialization pass.
                           ----------------------------
                           !    Initial Parameters    !
                           ! (Angstroms and Degrees)  !
 --------------------------                            --------------------------
 ! Name  Definition              Value          Derivative Info.                !
 --------------------------------------------------------------------------------
 ! R1    R(1,2)                  1.3941         estimate D2E/DX2                !
 ! R2    R(1,6)                  1.3379         estimate D2E/DX2                !
 ! R3    R(1,7)                  1.0886         estimate D2E/DX2                !
 ! R4    R(2,3)                  1.3982         estimate D2E/DX2                !
 ! R5    R(2,8)                  1.0873         estimate D2E/DX2                !
 ! R6    R(3,4)                  1.3983         estimate D2E/DX2                !
 ! R7    R(3,11)                 1.3587         estimate D2E/DX2                !
 ! R8    R(4,5)                  1.3911         estimate D2E/DX2                !
 ! R9    R(4,9)                  1.0842         estimate D2E/DX2                !
 ! R10   R(5,6)                  1.3417         estimate D2E/DX2                !
 ! R11   R(5,10)                 1.0884         estimate D2E/DX2                !
 ! R12   R(11,12)                0.9669         estimate D2E/DX2                !
 ! A1    A(2,1,6)              124.3426         estimate D2E/DX2                !
 ! A2    A(2,1,7)              119.4556         estimate D2E/DX2                !
 ! A3    A(6,1,7)              116.2018         estimate D2E/DX2                !
 ! A4    A(1,2,3)              118.2292         estimate D2E/DX2                !
 ! A5    A(1,2,8)              120.5831         estimate D2E/DX2                !
 ! A6    A(3,2,8)              121.1877         estimate D2E/DX2                !
 ! A7    A(2,3,4)              118.4682         estimate D2E/DX2                !
 ! A8    A(2,3,11)             123.3985         estimate D2E/DX2                !
 ! A9    A(4,3,11)             118.1333         estimate D2E/DX2                !
 ! A10   A(3,4,5)              118.1015         estimate D2E/DX2                !
 ! A11   A(3,4,9)              120.1493         estimate D2E/DX2                !
 ! A12   A(5,4,9)              121.7493         estimate D2E/DX2                !
 ! A13   A(4,5,6)              124.5296         estimate D2E/DX2                !
 ! A14   A(4,5,10)             119.4914         estimate D2E/DX2                !
 ! A15   A(6,5,10)             115.9789         estimate D2E/DX2                !
 ! A16   A(1,6,5)              116.3289         estimate D2E/DX2                !
 ! A17   A(3,11,12)            109.3507         estimate D2E/DX2                !
 ! D1    D(6,1,2,3)             -0.0135         estimate D2E/DX2                !
 ! D2    D(6,1,2,8)            179.9955         estimate D2E/DX2                !
 ! D3    D(7,1,2,3)           -179.9987         estimate D2E/DX2                !
 ! D4    D(7,1,2,8)              0.0102         estimate D2E/DX2                !
 ! D5    D(2,1,6,5)              0.0039         estimate D2E/DX2                !
 ! D6    D(7,1,6,5)            179.9896         estimate D2E/DX2                !
 ! D7    D(1,2,3,4)              0.0007         estimate D2E/DX2                !
 ! D8    D(1,2,3,11)          -179.9909         estimate D2E/DX2                !
 ! D9    D(8,2,3,4)            179.9917         estimate D2E/DX2                !
 ! D10   D(8,2,3,11)             0.0001         estimate D2E/DX2                !
 ! D11   D(2,3,4,5)              0.0198         estimate D2E/DX2                !
 ! D12   D(2,3,4,9)           -179.978          estimate D2E/DX2                !
 ! D13   D(11,3,4,5)          -179.9882         estimate D2E/DX2                !
 ! D14   D(11,3,4,9)             0.014          estimate D2E/DX2                !
 ! D15   D(2,3,11,12)           -0.0225         estimate D2E/DX2                !
 ! D16   D(4,3,11,12)          179.9859         estimate D2E/DX2                !
 ! D17   D(3,4,5,6)             -0.0313         estimate D2E/DX2                !
 ! D18   D(3,4,5,10)          -179.9777         estimate D2E/DX2                !
 ! D19   D(9,4,5,6)            179.9664         estimate D2E/DX2                !
 ! D20   D(9,4,5,10)             0.0201         estimate D2E/DX2                !
 ! D21   D(4,5,6,1)              0.0192         estimate D2E/DX2                !
 ! D22   D(10,5,6,1)           179.9673         estimate D2E/DX2                !
 --------------------------------------------------------------------------------
 Trust Radius=3.00D-01 FncErr=1.00D-07 GrdErr=1.00D-06
 Number of steps in this run=     61 maximum allowed number of steps=    100.
 GradGradGradGradGradGradGradGradGradGradGradGradGradGradGradGradGradGrad

 Leave Link  103 at Fri Aug 27 21:13:28 2021, MaxMem= 17179869184 cpu:         0.2
 (Enter /public3/home/sc51754/softwares/g09e01/l202.exe)
                          Input orientation:                          
 ---------------------------------------------------------------------
 Center     Atomic      Atomic             Coordinates (Angstroms)
 Number     Number       Type             X           Y           Z
 ---------------------------------------------------------------------
      1          6           0        1.152230    1.153409   -0.000114
      2          6           0       -0.241450    1.189435    0.000028
      3          6           0       -0.934425   -0.024989    0.000035
      4          6           0       -0.197153   -1.213074   -0.000085
      5          6           0        1.191022   -1.122808    0.000218
      6          7           0        1.878221    0.029557    0.000015
      7          1           0        1.711886    2.087182   -0.000101
      8          1           0       -0.770273    2.139452   -0.000016
      9          1           0       -0.706644   -2.170125   -0.000442
     10          1           0        1.787188   -2.033434   -0.000236
     11          8           0       -2.290294   -0.112398   -0.000014
     12          1           0       -2.668700    0.777372    0.000305
 ---------------------------------------------------------------------
                    Distance matrix (angstroms):
                    1          2          3          4          5
     1  C    0.000000
     2  C    1.394146   0.000000
     3  C    2.396404   1.398227   0.000000
     4  C    2.724165   2.402917   1.398255   0.000000
     5  C    2.276548   2.720008   2.392223   1.391107   0.000000
     6  N    1.337949   2.416262   2.813175   2.418948   1.341711
     7  H    1.088645   2.149761   3.385887   3.812626   3.251974
     8  H    2.160625   1.087284   2.170657   3.401161   3.806444
     9  H    3.808056   3.391615   2.157196   1.084218   2.167489
    10  H    3.249483   3.808183   3.382459   2.147231   1.088418
    11  O    3.667866   2.427454   1.358684   2.364895   3.624981
    12  H    3.839389   2.461979   1.910888   3.173393   4.302109
                    6          7          8          9         10
     6  N    0.000000
     7  H    2.064337   0.000000
     8  H    3.386174   2.482709   0.000000
     9  H    3.394131   4.896320   4.310047   0.000000
    10  H    2.064999   4.121304   4.894240   2.497575   0.000000
    11  O    4.170931   4.566793   2.716853   2.596572   4.507354
    12  H    4.608006   4.572213   2.336512   3.540820   5.268355
                   11         12
    11  O    0.000000
    12  H    0.966893   0.000000
 Stoichiometry    C5H5NO
 Framework group  C1[X(C5H5NO)]
 Deg. of freedom    30
 Full point group                 C1      NOp   1
 Largest Abelian subgroup         C1      NOp   1
 Largest concise Abelian subgroup C1      NOp   1
                         Standard orientation:                         
 ---------------------------------------------------------------------
 Center     Atomic      Atomic             Coordinates (Angstroms)
 Number     Number       Type             X           Y           Z
 ---------------------------------------------------------------------
      1          6           0       -1.152230    1.153409    0.000114
      2          6           0        0.241450    1.189435   -0.000028
      3          6           0        0.934425   -0.024989   -0.000035
      4          6           0        0.197153   -1.213074    0.000085
      5          6           0       -1.191022   -1.122808   -0.000218
      6          7           0       -1.878221    0.029557   -0.000015
      7          1           0       -1.711887    2.087182    0.000101
      8          1           0        0.770272    2.139452    0.000016
      9          1           0        0.706644   -2.170125    0.000442
     10          1           0       -1.787188   -2.033434    0.000236
     11          8           0        2.290294   -0.112397    0.000014
     12          1           0        2.668700    0.777373   -0.000305
 ---------------------------------------------------------------------
 Rotational constants (GHZ):      5.9862655      2.6268417      1.8257026
 Leave Link  202 at Fri Aug 27 21:13:28 2021, MaxMem= 17179869184 cpu:         5.2
 (Enter /public3/home/sc51754/softwares/g09e01/l301.exe)
 General basis read from cards:  (5D, 7F)
 Centers:       7      8      9     10     12
 S 4 1.00
     Exponent=  7.5423000000D+01 Coefficients=  2.4065000000D-03
     Exponent=  1.1350000000D+01 Coefficients=  1.8487000000D-02
     Exponent=  2.5993000000D+00 Coefficients=  8.9742000000D-02
     Exponent=  7.3513000000D-01 Coefficients=  2.8111000000D-01
 S 1 1.00
     Exponent=  2.3167000000D-01 Coefficients=  1.0000000000D+00
 S 1 1.00
     Exponent=  7.4147000000D-02 Coefficients=  1.0000000000D+00
 P 1 1.00
     Exponent=  1.6000000000D+00 Coefficients=  1.0000000000D+00
 P 1 1.00
     Exponent=  4.5000000000D-01 Coefficients=  1.0000000000D+00
 D 1 1.00
     Exponent=  1.2500000000D+00 Coefficients=  1.0000000000D+00
 ****
 Centers:       1      2      3      4      5
 S 7 1.00
     Exponent=  7.8571000000D+03 Coefficients=  5.6825000000D-04
     Exponent=  1.1787000000D+03 Coefficients=  4.3915000000D-03
     Exponent=  2.6832000000D+02 Coefficients=  2.2504000000D-02
     Exponent=  7.5948000000D+01 Coefficients=  8.6653000000D-02
     Exponent=  2.4559000000D+01 Coefficients=  2.4405000000D-01
     Exponent=  8.6212000000D+00 Coefficients=  4.4148000000D-01
     Exponent=  3.1278000000D+00 Coefficients=  3.5332000000D-01
 S 7 1.00
     Exponent=  1.1787000000D+03 Coefficients= -5.9492000000D-07
     Exponent=  2.6832000000D+02 Coefficients= -6.2748000000D-05
     Exponent=  7.5948000000D+01 Coefficients= -7.5773000000D-04
     Exponent=  2.4559000000D+01 Coefficients= -7.3308000000D-03
     Exponent=  8.6212000000D+00 Coefficients= -3.8932000000D-02
     Exponent=  3.1278000000D+00 Coefficients= -8.8908000000D-02
     Exponent=  8.2202000000D-01 Coefficients=  2.1689000000D-01
 S 1 1.00
     Exponent=  3.3017000000D-01 Coefficients=  1.0000000000D+00
 S 1 1.00
     Exponent=  1.1463000000D-01 Coefficients=  1.0000000000D+00
 P 4 1.00
     Exponent=  3.3775000000D+01 Coefficients=  6.0294000000D-03
     Exponent=  7.6766000000D+00 Coefficients=  4.3228000000D-02
     Exponent=  2.2357000000D+00 Coefficients=  1.6301000000D-01
     Exponent=  7.6447000000D-01 Coefficients=  3.6504000000D-01
 P 1 1.00
     Exponent=  2.6232000000D-01 Coefficients=  1.0000000000D+00
 P 1 1.00
     Exponent=  8.4638000000D-02 Coefficients=  1.0000000000D+00
 D 1 1.00
     Exponent=  1.4000000000D+00 Coefficients=  1.0000000000D+00
 D 1 1.00
     Exponent=  4.5000000000D-01 Coefficients=  1.0000000000D+00
 F 1 1.00
     Exponent=  9.5000000000D-01 Coefficients=  1.0000000000D+00
 ****
 Centers:       6
 S 7 1.00
     Exponent=  1.1101000000D+04 Coefficients=  5.4570000000D-04
     Exponent=  1.6653000000D+03 Coefficients=  4.2181000000D-03
     Exponent=  3.7908000000D+02 Coefficients=  2.1645000000D-02
     Exponent=  1.0730000000D+02 Coefficients=  8.3776000000D-02
     Exponent=  3.4747000000D+01 Coefficients=  2.3881000000D-01
     Exponent=  1.2249000000D+01 Coefficients=  4.3994000000D-01
     Exponent=  4.4743000000D+00 Coefficients=  3.6364000000D-01
 S 7 1.00
     Exponent=  1.6653000000D+03 Coefficients= -1.5006000000D-06
     Exponent=  3.7908000000D+02 Coefficients= -5.8753000000D-05
     Exponent=  1.0730000000D+02 Coefficients= -7.7453000000D-04
     Exponent=  3.4747000000D+01 Coefficients= -7.2161000000D-03
     Exponent=  1.2249000000D+01 Coefficients= -3.9338000000D-02
     Exponent=  4.4743000000D+00 Coefficients= -9.0611000000D-02
     Exponent=  1.2404000000D+00 Coefficients=  1.9882000000D-01
 S 1 1.00
     Exponent=  4.8743000000D-01 Coefficients=  1.0000000000D+00
 S 1 1.00
     Exponent=  1.6484000000D-01 Coefficients=  1.0000000000D+00
 P 4 1.00
     Exponent=  4.7934000000D+01 Coefficients=  6.1706000000D-03
     Exponent=  1.0999000000D+01 Coefficients=  4.4260000000D-02
     Exponent=  3.2472000000D+00 Coefficients=  1.6825000000D-01
     Exponent=  1.1114000000D+00 Coefficients=  3.6848000000D-01
 P 1 1.00
     Exponent=  3.7988000000D-01 Coefficients=  1.0000000000D+00
 P 1 1.00
     Exponent=  1.2068000000D-01 Coefficients=  1.0000000000D+00
 D 1 1.00
     Exponent=  1.8000000000D+00 Coefficients=  1.0000000000D+00
 D 1 1.00
     Exponent=  5.5000000000D-01 Coefficients=  1.0000000000D+00
 F 1 1.00
     Exponent=  1.0200000000D+00 Coefficients=  1.0000000000D+00
 ****
 Centers:      11
 S 7 1.00
     Exponent=  1.4782000000D+04 Coefficients=  5.3519000000D-04
     Exponent=  2.2173000000D+03 Coefficients=  4.1375000000D-03
     Exponent=  5.0474000000D+02 Coefficients=  2.1245000000D-02
     Exponent=  1.4287000000D+02 Coefficients=  8.2453000000D-02
     Exponent=  4.6300000000D+01 Coefficients=  2.3671000000D-01
     Exponent=  1.6337000000D+01 Coefficients=  4.4039000000D-01
     Exponent=  5.9828000000D+00 Coefficients=  3.6465000000D-01
 S 7 1.00
     Exponent=  2.2173000000D+03 Coefficients= -1.9275000000D-06
     Exponent=  5.0474000000D+02 Coefficients= -5.7964000000D-05
     Exponent=  1.4287000000D+02 Coefficients= -7.9494000000D-04
     Exponent=  4.6300000000D+01 Coefficients= -7.3125000000D-03
     Exponent=  1.6337000000D+01 Coefficients= -4.0574000000D-02
     Exponent=  5.9828000000D+00 Coefficients= -9.1594000000D-02
     Exponent=  1.6718000000D+00 Coefficients=  2.0940000000D-01
 S 1 1.00
     Exponent=  6.4662000000D-01 Coefficients=  1.0000000000D+00
 S 1 1.00
     Exponent=  2.1669000000D-01 Coefficients=  1.0000000000D+00
 P 4 1.00
     Exponent=  6.0424000000D+01 Coefficients=  6.8949000000D-03
     Exponent=  1.3935000000D+01 Coefficients=  4.9005000000D-02
     Exponent=  4.1531000000D+00 Coefficients=  1.8255000000D-01
     Exponent=  1.4158000000D+00 Coefficients=  3.7633000000D-01
 P 1 1.00
     Exponent=  4.7549000000D-01 Coefficients=  1.0000000000D+00
 P 1 1.00
     Exponent=  1.4529000000D-01 Coefficients=  1.0000000000D+00
 D 1 1.00
     Exponent=  2.2000000000D+00 Coefficients=  1.0000000000D+00
 D 1 1.00
     Exponent=  6.5000000000D-01 Coefficients=  1.0000000000D+00
 F 1 1.00
     Exponent=  1.1000000000D+00 Coefficients=  1.0000000000D+00
 ****
 Ernie: Thresh=  0.10000D-02 Tol=  0.10000D-05 Strict=F.
 Ernie:  7 primitive shells out of 220 were deleted.
 There are   320 symmetry adapted cartesian basis functions of A   symmetry.
 There are   280 symmetry adapted basis functions of A   symmetry.
   280 basis functions,   475 primitive gaussians,   320 cartesian basis functions
    25 alpha electrons       25 beta electrons
       nuclear repulsion energy       273.7666329457 Hartrees.
 IExCor=  402 DFT=T Ex=B Corr=LYP ExCW=0 ScaHFX=  0.000000
 ScaDFX=  1.000000  1.000000  1.000000  1.000000 ScalE2=  1.000000  1.000000
 IRadAn=      0 IRanWt=     -1 IRanGd=            0 ICorTp=0 IEmpDi=  4
 NAtoms=   12 NActive=   12 NUniq=   12 SFac= 1.00D+00 NAtFMM=   60 NAOKFM=F Big=F
 Integral buffers will be    131072 words long.
 Raffenetti 2 integral format.
 Two-electron integral symmetry is turned on.
 Leave Link  301 at Fri Aug 27 21:13:28 2021, MaxMem= 17179869184 cpu:         1.4
 (Enter /public3/home/sc51754/softwares/g09e01/l302.exe)
 NPDir=0 NMtPBC=     1 NCelOv=     1 NCel=       1 NClECP=     1 NCelD=      1
         NCelK=      1 NCelE2=     1 NClLst=     1 CellRange=     0.0.
 One-electron integrals computed using PRISM.
 NBasis=   280 RedAO= T EigKep=  2.00D-04  NBF=   280
 NBsUse=   280 1.00D-06 EigRej= -1.00D+00 NBFU=   280
 Precomputing XC quadrature grid using
 IXCGrd= 4 IRadAn=           0 IRanWt=          -1 IRanGd=           0 AccXCQ= 0.00D+00.
 Generated NRdTot=       0 NPtTot=           0 NUsed=           0 NTot=          32
 NSgBfM=   320   320   320   320   320 MxSgAt=    12 MxSgA2=    12.
 Leave Link  302 at Fri Aug 27 21:13:29 2021, MaxMem= 17179869184 cpu:        41.9
 (Enter /public3/home/sc51754/softwares/g09e01/l303.exe)
 DipDrv:  MaxL=1.
 Leave Link  303 at Fri Aug 27 21:13:29 2021, MaxMem= 17179869184 cpu:         9.1
 (Enter /public3/home/sc51754/softwares/g09e01/l401.exe)
 ExpMin= 7.41D-02 ExpMax= 1.48D+04 ExpMxC= 5.05D+02 IAcc=2 IRadAn=         4 AccDes= 0.00D+00
 Harris functional with IExCor=  402 and IRadAn=       4 diagonalized for initial guess.
 HarFok:  IExCor=  402 AccDes= 0.00D+00 IRadAn=         4 IDoV= 1 UseB2=F ITyADJ=14
 ICtDFT=  3500011 ScaDFX=  1.000000  1.000000  1.000000  1.000000
 FoFCou: FMM=F IPFlag=           0 FMFlag=      100000 FMFlg1=           0
         NFxFlg=           0 DoJE=T BraDBF=F KetDBF=T FulRan=T
         wScrn=  0.000000 ICntrl=     500 IOpCl=  0 I1Cent=   200000004 NGrid=           0
         NMat0=    1 NMatS0=      1 NMatT0=    0 NMatD0=    1 NMtDS0=    0 NMtDT0=    0
 Petite list used in FoFCou.
 Harris En= -323.664577025252    
 JPrj=0 DoOrth=F DoCkMO=F.
 Leave Link  401 at Fri Aug 27 21:13:30 2021, MaxMem= 17179869184 cpu:        50.6
 (Enter /public3/home/sc51754/softwares/g09e01/l502.exe)
 Closed shell SCF:
 Using DIIS extrapolation, IDIIS=  1040.
 Integral symmetry usage will be decided dynamically.
 Keep J ints in memory in canonical form, NReq=790723944.
 IVT=      348554 IEndB=      348554 NGot= 17179869184 MDV= 16405683161
 LenX= 16405683161 LenY= 16405580320
 Requested convergence on RMS density matrix=1.00D-08 within 128 cycles.
 Requested convergence on MAX density matrix=1.00D-06.
 Requested convergence on             energy=1.00D-06.
 No special actions if energy rises.
 FoFCou: FMM=F IPFlag=           0 FMFlag=           0 FMFlg1=           0
         NFxFlg=           0 DoJE=F BraDBF=F KetDBF=F FulRan=T
         wScrn=  0.000000 ICntrl=     600 IOpCl=  0 I1Cent=           0 NGrid=           0
         NMat0=    1 NMatS0=  39340 NMatT0=    0 NMatD0=    1 NMtDS0=    0 NMtDT0=    0
 Symmetry not used in FoFCou.
 Integral accuracy reduced to 1.0D-05 until final iterations.

 Cycle   1  Pass 0  IDiag  1:
 E= -323.395190081491    
 DIIS: error= 3.06D-02 at cycle   1 NSaved=   1.
 NSaved= 1 IEnMin= 1 EnMin= -323.395190081491     IErMin= 1 ErrMin= 3.06D-02
 ErrMax= 3.06D-02  0.00D+00 EMaxC= 1.00D-01 BMatC= 1.58D-01 BMatP= 1.58D-01
 IDIUse=3 WtCom= 6.94D-01 WtEn= 3.06D-01
 Coeff-Com:  0.100D+01
 Coeff-En:   0.100D+01
 Coeff:      0.100D+01
 Gap=     0.168 Goal=   None    Shift=    0.000
 GapD=    0.168 DampG=1.000 DampE=0.500 DampFc=0.5000 IDamp=-1.
 Damping current iteration by 5.00D-01
 RMSDP=4.03D-03 MaxDP=1.51D-01              OVMax= 2.19D-01

 Cycle   2  Pass 0  IDiag  1:
 E= -323.433676539862     Delta-E=       -0.038486458371 Rises=F Damp=T
 DIIS: error= 8.30D-03 at cycle   2 NSaved=   2.
 NSaved= 2 IEnMin= 2 EnMin= -323.433676539862     IErMin= 2 ErrMin= 8.30D-03
 ErrMax= 8.30D-03  0.00D+00 EMaxC= 1.00D-01 BMatC= 1.98D-02 BMatP= 1.58D-01
 IDIUse=3 WtCom= 9.17D-01 WtEn= 8.30D-02
 Coeff-Com:  0.217D+00 0.783D+00
 Coeff-En:   0.364D+00 0.636D+00
 Coeff:      0.229D+00 0.771D+00
 Gap=     0.199 Goal=   None    Shift=    0.000
 RMSDP=1.16D-03 MaxDP=3.70D-02 DE=-3.85D-02 OVMax= 1.75D-01

 Cycle   3  Pass 0  IDiag  1:
 E= -323.531453554522     Delta-E=       -0.097777014660 Rises=F Damp=F
 DIIS: error= 8.65D-03 at cycle   3 NSaved=   3.
 NSaved= 3 IEnMin= 3 EnMin= -323.531453554522     IErMin= 2 ErrMin= 8.30D-03
 ErrMax= 8.65D-03  0.00D+00 EMaxC= 1.00D-01 BMatC= 1.56D-02 BMatP= 1.98D-02
 IDIUse=3 WtCom= 9.14D-01 WtEn= 8.65D-02
 Coeff-Com:  0.927D-01 0.486D+00 0.421D+00
 Coeff-En:   0.000D+00 0.000D+00 0.100D+01
 Coeff:      0.847D-01 0.444D+00 0.471D+00
 Gap=     0.181 Goal=   None    Shift=    0.000
 RMSDP=5.50D-04 MaxDP=2.71D-02 DE=-9.78D-02 OVMax= 9.05D-02

 Cycle   4  Pass 0  IDiag  1:
 E= -323.538756375046     Delta-E=       -0.007302820524 Rises=F Damp=F
 DIIS: error= 7.69D-03 at cycle   4 NSaved=   4.
 NSaved= 4 IEnMin= 4 EnMin= -323.538756375046     IErMin= 4 ErrMin= 7.69D-03
 ErrMax= 7.69D-03  0.00D+00 EMaxC= 1.00D-01 BMatC= 7.50D-03 BMatP= 1.56D-02
 IDIUse=3 WtCom= 9.23D-01 WtEn= 7.69D-02
 Coeff-Com:  0.186D-01 0.190D+00 0.381D+00 0.410D+00
 Coeff-En:   0.000D+00 0.000D+00 0.379D+00 0.621D+00
 Coeff:      0.172D-01 0.175D+00 0.381D+00 0.427D+00
 Gap=     0.164 Goal=   None    Shift=    0.000
 RMSDP=2.99D-04 MaxDP=1.16D-02 DE=-7.30D-03 OVMax= 4.06D-02

 Cycle   5  Pass 0  IDiag  1:
 E= -323.546005847598     Delta-E=       -0.007249472552 Rises=F Damp=F
 DIIS: error= 1.90D-03 at cycle   5 NSaved=   5.
 NSaved= 5 IEnMin= 5 EnMin= -323.546005847598     IErMin= 5 ErrMin= 1.90D-03
 ErrMax= 1.90D-03  0.00D+00 EMaxC= 1.00D-01 BMatC= 3.23D-04 BMatP= 7.50D-03
 IDIUse=3 WtCom= 9.81D-01 WtEn= 1.90D-02
 Coeff-Com:  0.386D-02 0.698D-01 0.193D+00 0.267D+00 0.466D+00
 Coeff-En:   0.000D+00 0.000D+00 0.000D+00 0.475D-02 0.995D+00
 Coeff:      0.379D-02 0.685D-01 0.190D+00 0.262D+00 0.476D+00
 Gap=     0.163 Goal=   None    Shift=    0.000
 RMSDP=7.53D-05 MaxDP=2.55D-03 DE=-7.25D-03 OVMax= 1.06D-02

 Cycle   6  Pass 0  IDiag  1:
 E= -323.546277900822     Delta-E=       -0.000272053225 Rises=F Damp=F
 DIIS: error= 5.14D-04 at cycle   6 NSaved=   6.
 NSaved= 6 IEnMin= 6 EnMin= -323.546277900822     IErMin= 6 ErrMin= 5.14D-04
 ErrMax= 5.14D-04  0.00D+00 EMaxC= 1.00D-01 BMatC= 7.63D-05 BMatP= 3.23D-04
 IDIUse=3 WtCom= 9.95D-01 WtEn= 5.14D-03
 Coeff-Com: -0.170D-02 0.119D-01 0.574D-01 0.102D+00 0.353D+00 0.477D+00
 Coeff-En:   0.000D+00 0.000D+00 0.000D+00 0.000D+00 0.214D+00 0.786D+00
 Coeff:     -0.169D-02 0.118D-01 0.571D-01 0.102D+00 0.352D+00 0.479D+00
 Gap=     0.163 Goal=   None    Shift=    0.000
 RMSDP=2.49D-05 MaxDP=8.90D-04 DE=-2.72D-04 OVMax= 3.73D-03

 Cycle   7  Pass 0  IDiag  1:
 E= -323.546347233698     Delta-E=       -0.000069332876 Rises=F Damp=F
 DIIS: error= 1.18D-04 at cycle   7 NSaved=   7.
 NSaved= 7 IEnMin= 7 EnMin= -323.546347233698     IErMin= 7 ErrMin= 1.18D-04
 ErrMax= 1.18D-04  0.00D+00 EMaxC= 1.00D-01 BMatC= 3.14D-06 BMatP= 7.63D-05
 IDIUse=3 WtCom= 9.99D-01 WtEn= 1.18D-03
 Coeff-Com: -0.104D-02 0.461D-02 0.275D-01 0.517D-01 0.196D+00 0.286D+00
 Coeff-Com:  0.435D+00
 Coeff-En:   0.000D+00 0.000D+00 0.000D+00 0.000D+00 0.000D+00 0.000D+00
 Coeff-En:   0.100D+01
 Coeff:     -0.104D-02 0.460D-02 0.275D-01 0.517D-01 0.196D+00 0.286D+00
 Coeff:      0.435D+00
 Gap=     0.163 Goal=   None    Shift=    0.000
 RMSDP=6.64D-06 MaxDP=3.18D-04 DE=-6.93D-05 OVMax= 1.07D-03

 Initial convergence to 1.0D-05 achieved.  Increase integral accuracy.
 Cycle   8  Pass 1  IDiag  1:
 E= -323.546347732939     Delta-E=       -0.000000499241 Rises=F Damp=F
 DIIS: error= 5.55D-05 at cycle   1 NSaved=   1.
 NSaved= 1 IEnMin= 1 EnMin= -323.546347732939     IErMin= 1 ErrMin= 5.55D-05
 ErrMax= 5.55D-05  0.00D+00 EMaxC= 1.00D-01 BMatC= 7.81D-07 BMatP= 7.81D-07
 IDIUse=1 WtCom= 1.00D+00 WtEn= 0.00D+00
 Coeff-Com:  0.100D+01
 Coeff:      0.100D+01
 Gap=     0.163 Goal=   None    Shift=    0.000
 RMSDP=6.64D-06 MaxDP=3.18D-04 DE=-4.99D-07 OVMax= 1.17D-03

 Cycle   9  Pass 1  IDiag  1:
 E= -323.546345455341     Delta-E=        0.000002277598 Rises=F Damp=F
 DIIS: error= 1.34D-04 at cycle   2 NSaved=   2.
 NSaved= 2 IEnMin= 1 EnMin= -323.546347732939     IErMin= 1 ErrMin= 5.55D-05
 ErrMax= 1.34D-04  0.00D+00 EMaxC= 1.00D-01 BMatC= 2.89D-06 BMatP= 7.81D-07
 IDIUse=3 WtCom= 4.64D-01 WtEn= 5.36D-01
 Coeff-Com:  0.677D+00 0.323D+00
 Coeff-En:   0.757D+00 0.243D+00
 Coeff:      0.720D+00 0.280D+00
 Gap=     0.163 Goal=   None    Shift=    0.000
 RMSDP=4.78D-06 MaxDP=1.93D-04 DE= 2.28D-06 OVMax= 7.90D-04

 Cycle  10  Pass 1  IDiag  1:
 E= -323.546348606254     Delta-E=       -0.000003150913 Rises=F Damp=F
 DIIS: error= 1.23D-05 at cycle   3 NSaved=   3.
 NSaved= 3 IEnMin= 3 EnMin= -323.546348606254     IErMin= 3 ErrMin= 1.23D-05
 ErrMax= 1.23D-05  0.00D+00 EMaxC= 1.00D-01 BMatC= 2.13D-08 BMatP= 7.81D-07
 IDIUse=1 WtCom= 1.00D+00 WtEn= 0.00D+00
 Coeff-Com:  0.109D+00 0.418D-01 0.850D+00
 Coeff:      0.109D+00 0.418D-01 0.850D+00
 Gap=     0.163 Goal=   None    Shift=    0.000
 RMSDP=8.85D-07 MaxDP=4.63D-05 DE=-3.15D-06 OVMax= 1.66D-04

 Cycle  11  Pass 1  IDiag  1:
 E= -323.546348577838     Delta-E=        0.000000028416 Rises=F Damp=F
 DIIS: error= 2.28D-05 at cycle   4 NSaved=   4.
 NSaved= 4 IEnMin= 3 EnMin= -323.546348606254     IErMin= 3 ErrMin= 1.23D-05
 ErrMax= 2.28D-05  0.00D+00 EMaxC= 1.00D-01 BMatC= 4.73D-08 BMatP= 2.13D-08
 IDIUse=1 WtCom= 1.00D+00 WtEn= 0.00D+00
 Coeff-Com:  0.512D-02-0.452D-02 0.604D+00 0.395D+00
 Coeff:      0.512D-02-0.452D-02 0.604D+00 0.395D+00
 Gap=     0.163 Goal=   None    Shift=    0.000
 RMSDP=6.86D-07 MaxDP=3.17D-05 DE= 2.84D-08 OVMax= 1.35D-04

 Cycle  12  Pass 1  IDiag  1:
 E= -323.546348622891     Delta-E=       -0.000000045053 Rises=F Damp=F
 DIIS: error= 6.64D-06 at cycle   5 NSaved=   5.
 NSaved= 5 IEnMin= 5 EnMin= -323.546348622891     IErMin= 5 ErrMin= 6.64D-06
 ErrMax= 6.64D-06  0.00D+00 EMaxC= 1.00D-01 BMatC= 2.79D-09 BMatP= 2.13D-08
 IDIUse=1 WtCom= 1.00D+00 WtEn= 0.00D+00
 Coeff-Com: -0.295D-02-0.480D-02 0.335D+00 0.264D+00 0.409D+00
 Coeff:     -0.295D-02-0.480D-02 0.335D+00 0.264D+00 0.409D+00
 Gap=     0.163 Goal=   None    Shift=    0.000
 RMSDP=2.25D-07 MaxDP=6.94D-06 DE=-4.51D-08 OVMax= 3.52D-05

 Cycle  13  Pass 1  IDiag  1:
 E= -323.546348625568     Delta-E=       -0.000000002677 Rises=F Damp=F
 DIIS: error= 1.37D-06 at cycle   6 NSaved=   6.
 NSaved= 6 IEnMin= 6 EnMin= -323.546348625568     IErMin= 6 ErrMin= 1.37D-06
 ErrMax= 1.37D-06  0.00D+00 EMaxC= 1.00D-01 BMatC= 5.75D-10 BMatP= 2.79D-09
 IDIUse=1 WtCom= 1.00D+00 WtEn= 0.00D+00
 Coeff-Com: -0.321D-02-0.308D-02 0.174D+00 0.150D+00 0.311D+00 0.371D+00
 Coeff:     -0.321D-02-0.308D-02 0.174D+00 0.150D+00 0.311D+00 0.371D+00
 Gap=     0.163 Goal=   None    Shift=    0.000
 RMSDP=6.64D-08 MaxDP=3.09D-06 DE=-2.68D-09 OVMax= 1.23D-05

 Cycle  14  Pass 1  IDiag  1:
 E= -323.546348626140     Delta-E=       -0.000000000573 Rises=F Damp=F
 DIIS: error= 2.31D-07 at cycle   7 NSaved=   7.
 NSaved= 7 IEnMin= 7 EnMin= -323.546348626140     IErMin= 7 ErrMin= 2.31D-07
 ErrMax= 2.31D-07  0.00D+00 EMaxC= 1.00D-01 BMatC= 1.03D-11 BMatP= 5.75D-10
 IDIUse=1 WtCom= 1.00D+00 WtEn= 0.00D+00
 Coeff-Com: -0.145D-02-0.132D-02 0.770D-01 0.672D-01 0.147D+00 0.198D+00
 Coeff-Com:  0.513D+00
 Coeff:     -0.145D-02-0.132D-02 0.770D-01 0.672D-01 0.147D+00 0.198D+00
 Coeff:      0.513D+00
 Gap=     0.163 Goal=   None    Shift=    0.000
 RMSDP=1.34D-08 MaxDP=5.83D-07 DE=-5.73D-10 OVMax= 1.10D-06

 Cycle  15  Pass 1  IDiag  1:
 E= -323.546348626140     Delta-E=        0.000000000000 Rises=F Damp=F
 DIIS: error= 8.93D-08 at cycle   8 NSaved=   8.
 NSaved= 8 IEnMin= 7 EnMin= -323.546348626140     IErMin= 8 ErrMin= 8.93D-08
 ErrMax= 8.93D-08  0.00D+00 EMaxC= 1.00D-01 BMatC= 2.53D-12 BMatP= 1.03D-11
 IDIUse=1 WtCom= 1.00D+00 WtEn= 0.00D+00
 Coeff-Com: -0.381D-03-0.289D-03 0.174D-01 0.155D-01 0.375D-01 0.594D-01
 Coeff-Com:  0.345D+00 0.526D+00
 Coeff:     -0.381D-03-0.289D-03 0.174D-01 0.155D-01 0.375D-01 0.594D-01
 Coeff:      0.345D+00 0.526D+00
 Gap=     0.163 Goal=   None    Shift=    0.000
 RMSDP=4.66D-09 MaxDP=2.65D-07 DE= 4.55D-13 OVMax= 4.50D-07

 SCF Done:  E(RB-LYP) =  -323.546348626     A.U. after   15 cycles
            NFock= 15  Conv=0.47D-08     -V/T= 2.0027
 KE= 3.226758048839D+02 PE=-1.302927149932D+03 EE= 3.829383634762D+02
 Leave Link  502 at Fri Aug 27 21:13:42 2021, MaxMem= 17179869184 cpu:       186.6
 (Enter /public3/home/sc51754/softwares/g09e01/l601.exe)
 Copying SCF densities to generalized density rwf, IOpCl= 0 IROHF=0.

 **********************************************************************

            Population analysis using the SCF density.

 **********************************************************************

 Orbital symmetries:
       Occupied  (A) (A) (A) (A) (A) (A) (A) (A) (A) (A) (A) (A)
                 (A) (A) (A) (A) (A) (A) (A) (A) (A) (A) (A) (A)
                 (A)
       Virtual   (A) (A) (A) (A) (A) (A) (A) (A) (A) (A) (A) (A)
                 (A) (A) (A) (A) (A) (A) (A) (A) (A) (A) (A) (A)
                 (A) (A) (A) (A) (A) (A) (A) (A) (A) (A) (A) (A)
                 (A) (A) (A) (A) (A) (A) (A) (A) (A) (A) (A) (A)
                 (A) (A) (A) (A) (A) (A) (A) (A) (A) (A) (A) (A)
                 (A) (A) (A) (A) (A) (A) (A) (A) (A) (A) (A) (A)
                 (A) (A) (A) (A) (A) (A) (A) (A) (A) (A) (A) (A)
                 (A) (A) (A) (A) (A) (A) (A) (A) (A) (A) (A) (A)
                 (A) (A) (A) (A) (A) (A) (A) (A) (A) (A) (A) (A)
                 (A) (A) (A) (A) (A) (A) (A) (A) (A) (A) (A) (A)
                 (A) (A) (A) (A) (A) (A) (A) (A) (A) (A) (A) (A)
                 (A) (A) (A) (A) (A) (A) (A) (A) (A) (A) (A) (A)
                 (A) (A) (A) (A) (A) (A) (A) (A) (A) (A) (A) (A)
                 (A) (A) (A) (A) (A) (A) (A) (A) (A) (A) (A) (A)
                 (A) (A) (A) (A) (A) (A) (A) (A) (A) (A) (A) (A)
                 (A) (A) (A) (A) (A) (A) (A) (A) (A) (A) (A) (A)
                 (A) (A) (A) (A) (A) (A) (A) (A) (A) (A) (A) (A)
                 (A) (A) (A) (A) (A) (A) (A) (A) (A) (A) (A) (A)
                 (A) (A) (A) (A) (A) (A) (A) (A) (A) (A) (A) (A)
                 (A) (A) (A) (A) (A) (A) (A) (A) (A) (A) (A) (A)
                 (A) (A) (A) (A) (A) (A) (A) (A) (A) (A) (A) (A)
                 (A) (A) (A)
 The electronic state is 1-A.
 Alpha  occ. eigenvalues --  -18.82442 -13.99571  -9.99224  -9.94705  -9.94500
 Alpha  occ. eigenvalues --   -9.92447  -9.91880  -0.99091  -0.85217  -0.72189
 Alpha  occ. eigenvalues --   -0.68996  -0.58788  -0.56641  -0.50980  -0.45355
 Alpha  occ. eigenvalues --   -0.43096  -0.40234  -0.38444  -0.38333  -0.35981
 Alpha  occ. eigenvalues --   -0.33048  -0.31429  -0.23997  -0.22680  -0.21382
 Alpha virt. eigenvalues --   -0.05101  -0.04688  -0.02301   0.01350   0.02566
 Alpha virt. eigenvalues --    0.06078   0.06161   0.08691   0.10232   0.11138
 Alpha virt. eigenvalues --    0.13800   0.15388   0.16291   0.17177   0.18094
 Alpha virt. eigenvalues --    0.19485   0.20233   0.20400   0.22862   0.24627
 Alpha virt. eigenvalues --    0.25170   0.26018   0.26532   0.27849   0.29247
 Alpha virt. eigenvalues --    0.30587   0.30832   0.31472   0.32354   0.34372
 Alpha virt. eigenvalues --    0.34945   0.38043   0.39692   0.42268   0.43573
 Alpha virt. eigenvalues --    0.45946   0.47620   0.50805   0.52551   0.54574
 Alpha virt. eigenvalues --    0.56101   0.56304   0.59334   0.61677   0.61875
 Alpha virt. eigenvalues --    0.65016   0.67244   0.70303   0.72224   0.76912
 Alpha virt. eigenvalues --    0.78516   0.80571   0.82654   0.84454   0.85961
 Alpha virt. eigenvalues --    0.90043   0.91664   0.92308   0.93290   0.97020
 Alpha virt. eigenvalues --    0.98970   1.03208   1.06177   1.06323   1.08403
 Alpha virt. eigenvalues --    1.08785   1.10018   1.11143   1.12267   1.14096
 Alpha virt. eigenvalues --    1.18217   1.18762   1.23471   1.24587   1.24979
 Alpha virt. eigenvalues --    1.27030   1.28675   1.36490   1.37016   1.38937
 Alpha virt. eigenvalues --    1.40557   1.41567   1.44168   1.49402   1.51795
 Alpha virt. eigenvalues --    1.52784   1.53882   1.54318   1.57948   1.60861
 Alpha virt. eigenvalues --    1.61411   1.63016   1.65529   1.67159   1.70371
 Alpha virt. eigenvalues --    1.71633   1.72476   1.75526   1.77638   1.79189
 Alpha virt. eigenvalues --    1.79225   1.86178   1.88716   1.90730   1.91090
 Alpha virt. eigenvalues --    1.96981   2.02185   2.02552   2.09274   2.11251
 Alpha virt. eigenvalues --    2.13678   2.15718   2.16402   2.20479   2.23345
 Alpha virt. eigenvalues --    2.28134   2.32262   2.46790   2.49802   2.69090
 Alpha virt. eigenvalues --    2.79336   2.82664   2.88492   2.90369   3.03210
 Alpha virt. eigenvalues --    3.07594   3.13273   3.14717   3.17019   3.18298
 Alpha virt. eigenvalues --    3.24038   3.24664   3.26262   3.28338   3.32087
 Alpha virt. eigenvalues --    3.32585   3.35915   3.40686   3.43456   3.45892
 Alpha virt. eigenvalues --    3.49161   3.52086   3.52451   3.56049   3.57884
 Alpha virt. eigenvalues --    3.62786   3.65279   3.67350   3.69870   3.71755
 Alpha virt. eigenvalues --    3.73945   3.77629   3.80137   3.85687   3.91608
 Alpha virt. eigenvalues --    3.91968   3.94241   3.94308   3.98066   3.98633
 Alpha virt. eigenvalues --    3.99923   4.03255   4.04477   4.05741   4.06961
 Alpha virt. eigenvalues --    4.08715   4.09789   4.11893   4.14045   4.17311
 Alpha virt. eigenvalues --    4.17823   4.19513   4.20293   4.21072   4.22641
 Alpha virt. eigenvalues --    4.25065   4.25723   4.28910   4.30332   4.31592
 Alpha virt. eigenvalues --    4.34321   4.34651   4.36156   4.36637   4.39276
 Alpha virt. eigenvalues --    4.40779   4.42164   4.43181   4.44287   4.46835
 Alpha virt. eigenvalues --    4.47076   4.49296   4.55897   4.57341   4.62437
 Alpha virt. eigenvalues --    4.66684   4.68189   4.70470   4.73522   4.76803
 Alpha virt. eigenvalues --    4.80734   4.83526   4.85544   4.87518   4.91754
 Alpha virt. eigenvalues --    4.97037   4.99595   4.99807   5.05848   5.07250
 Alpha virt. eigenvalues --    5.08669   5.12686   5.22224   5.22525   5.22617
 Alpha virt. eigenvalues --    5.23843   5.24215   5.27234   5.31157   5.35317
 Alpha virt. eigenvalues --    5.37601   5.43011   5.45214   5.47235   5.48140
 Alpha virt. eigenvalues --    5.55996   5.57742   5.60294   5.65974   5.67169
 Alpha virt. eigenvalues --    5.69748   5.81961   5.90406   5.96266   5.97850
 Alpha virt. eigenvalues --    6.00658   6.04430   6.10300   6.15828   6.19106
 Alpha virt. eigenvalues --    6.28185   6.34817   6.35787   6.44541   6.48753
 Alpha virt. eigenvalues --    6.70947   6.93125   7.19812   8.96390  12.08330
 Alpha virt. eigenvalues --   12.21325  15.28968  17.06959  18.30524  21.79523
          Condensed to atoms (all electrons):
               1          2          3          4          5          6
     1  C    4.754104   0.380020  -0.033061  -0.054448  -0.105466   0.506798
     2  C    0.380020   5.177348   0.478631  -0.012730  -0.054393  -0.050668
     3  C   -0.033061   0.478631   4.601594   0.492531  -0.048845  -0.022205
     4  C   -0.054448  -0.012730   0.492531   5.058386   0.416840  -0.048273
     5  C   -0.105466  -0.054393  -0.048845   0.416840   4.756230   0.492210
     6  N    0.506798  -0.050668  -0.022205  -0.048273   0.492210   6.524234
     7  H    0.456360  -0.086552   0.005541  -0.004874   0.010462  -0.048545
     8  H   -0.020838   0.410443  -0.052196   0.006197   0.000087   0.007279
     9  H   -0.001969   0.011670  -0.047416   0.415785  -0.031190   0.007064
    10  H    0.010892  -0.007411   0.011442  -0.092722   0.462398  -0.049417
    11  O    0.008277  -0.078373   0.321804  -0.068411   0.005537  -0.000621
    12  H    0.002444  -0.004852  -0.037328   0.007732  -0.000796   0.000609
               7          8          9         10         11         12
     1  C    0.456360  -0.020838  -0.001969   0.010892   0.008277   0.002444
     2  C   -0.086552   0.410443   0.011670  -0.007411  -0.078373  -0.004852
     3  C    0.005541  -0.052196  -0.047416   0.011442   0.321804  -0.037328
     4  C   -0.004874   0.006197   0.415785  -0.092722  -0.068411   0.007732
     5  C    0.010462   0.000087  -0.031190   0.462398   0.005537  -0.000796
     6  N   -0.048545   0.007279   0.007064  -0.049417  -0.000621   0.000609
     7  H    0.609805  -0.005314   0.000272   0.000100  -0.000441  -0.000072
     8  H   -0.005314   0.624822  -0.000306   0.000209  -0.007751   0.005573
     9  H    0.000272  -0.000306   0.596087  -0.007279   0.005023  -0.001012
    10  H    0.000100   0.000209  -0.007279   0.605124  -0.000220   0.000156
    11  O   -0.000441  -0.007751   0.005023  -0.000220   7.815766   0.331548
    12  H   -0.000072   0.005573  -0.001012   0.000156   0.331548   0.504616
 Mulliken charges:
               1
     1  C    0.096887
     2  C   -0.163133
     3  C    0.329507
     4  C   -0.116013
     5  C    0.096927
     6  N   -0.318466
     7  H    0.063257
     8  H    0.031795
     9  H    0.053269
    10  H    0.066727
    11  O   -0.332139
    12  H    0.191382
 Sum of Mulliken charges =  -0.00000
 Mulliken charges with hydrogens summed into heavy atoms:
               1
     1  C    0.160144
     2  C   -0.131339
     3  C    0.329507
     4  C   -0.062744
     5  C    0.163655
     6  N   -0.318466
    11  O   -0.140757
 Electronic spatial extent (au):  <R**2>=            643.1362
 Charge=             -0.0000 electrons
 Dipole moment (field-independent basis, Debye):
    X=              2.4518    Y=              1.2565    Z=             -0.0000  Tot=              2.7550
 Quadrupole moment (field-independent basis, Debye-Ang):
   XX=            -44.4363   YY=            -34.4449   ZZ=            -43.3293
   XY=              4.3991   XZ=             -0.0017   YZ=             -0.0017
 Traceless Quadrupole moment (field-independent basis, Debye-Ang):
   XX=             -3.6995   YY=              6.2919   ZZ=             -2.5925
   XY=              4.3991   XZ=             -0.0017   YZ=             -0.0017
 Octapole moment (field-independent basis, Debye-Ang**2):
  XXX=             33.5142  YYY=              0.3019  ZZZ=              0.0005  XYY=              2.2395
  XXY=             11.8015  XXZ=             -0.0033  XZZ=              3.4526  YZZ=             -0.0068
  YYZ=              0.0033  XYZ=             -0.0014
 Hexadecapole moment (field-independent basis, Debye-Ang**3):
 XXXX=           -536.0639 YYYY=           -267.1684 ZZZZ=            -48.5676 XXXY=             37.3218
 XXXZ=             -0.0152 YYYX=              2.5973 YYYZ=             -0.0089 ZZZX=             -0.0012
 ZZZY=             -0.0018 XXYY=           -111.8595 XXZZ=            -97.4925 YYZZ=            -62.7096
 XXYZ=             -0.0066 YYXZ=             -0.0021 ZZXY=              0.4796
 N-N= 2.737666329457D+02 E-N=-1.302927141346D+03  KE= 3.226758048839D+02
 No NMR shielding tensors so no spin-rotation constants.
 Leave Link  601 at Fri Aug 27 21:13:43 2021, MaxMem= 17179869184 cpu:        48.6
 (Enter /public3/home/sc51754/softwares/g09e01/l701.exe)
 Compute integral first derivatives.
 ... and contract with generalized density number  0.
 Leave Link  701 at Fri Aug 27 21:13:44 2021, MaxMem= 17179869184 cpu:        70.1
 (Enter /public3/home/sc51754/softwares/g09e01/l702.exe)
 L702 exits ... SP integral derivatives will be done elsewhere.
 Leave Link  702 at Fri Aug 27 21:13:44 2021, MaxMem= 17179869184 cpu:         0.3
 (Enter /public3/home/sc51754/softwares/g09e01/l703.exe)
 Compute integral first derivatives, UseDBF=F ICtDFT=           0.
 Integral derivatives from FoFJK, PRISM(SPDF).
 Calling FoFJK, ICntrl=      2527 FMM=F ISym2X=0 I1Cent= 0 IOpClX= 0 NMat=1 NMatS=1 NMatT=0.
 FoFJK:  IHMeth= 1 ICntrl=    2527 DoSepK=F KAlg= 0 I1Cent=   0 FoldK=F
 IRaf=         0 NMat=   1 IRICut=       1 DoRegI=T DoRafI=F ISym2E= 0.
 FoFCou: FMM=F IPFlag=           0 FMFlag=      100000 FMFlg1=         800
         NFxFlg=           0 DoJE=F BraDBF=F KetDBF=F FulRan=T
         wScrn=  0.000000 ICntrl=    2527 IOpCl=  0 I1Cent=           0 NGrid=           0
         NMat0=    1 NMatS0=      1 NMatT0=    0 NMatD0=    1 NMtDS0=    0 NMtDT0=    0
 Symmetry not used in FoFCou.
 Leave Link  703 at Fri Aug 27 21:13:46 2021, MaxMem= 17179869184 cpu:       135.5
 (Enter /public3/home/sc51754/softwares/g09e01/l716.exe)
 Dipole        = 9.64626185D-01 4.94332203D-01-7.32220043D-06
 ***** Axes restored to original set *****
 -------------------------------------------------------------------
 Center     Atomic                   Forces (Hartrees/Bohr)
 Number     Number              X              Y              Z
 -------------------------------------------------------------------
      1        6           0.000399058    0.005662791    0.000030293
      2        6          -0.000725995    0.001211933   -0.000005402
      3        6           0.006358037   -0.000465638   -0.000008400
      4        6          -0.001080283   -0.000896660    0.000019898
      5        6           0.000865953   -0.005315204   -0.000083640
      6        7           0.005288190   -0.000191847    0.000017917
      7        1           0.000853470    0.001552279   -0.000009593
      8        1          -0.000830912    0.001597101    0.000001324
      9        1          -0.000591485   -0.001846503    0.000010616
     10        1           0.000870983   -0.001519882    0.000027264
     11        8          -0.008258087   -0.004550849    0.000002368
     12        1          -0.003148928    0.004762480   -0.000002644
 -------------------------------------------------------------------
 Cartesian Forces:  Max     0.008258087 RMS     0.002731289
 Leave Link  716 at Fri Aug 27 21:13:47 2021, MaxMem= 17179869184 cpu:         0.4
 (Enter /public3/home/sc51754/softwares/g09e01/l103.exe)

 GradGradGradGradGradGradGradGradGradGradGradGradGradGradGradGradGradGrad
 Berny optimization.
 FormGI is forming the generalized inverse of G from B-inverse, IUseBI=4.
 Internal  Forces:  Max     0.011370570 RMS     0.002597131
 Search for a local minimum.
 Step number   1 out of a maximum of   61
 All quantities printed in internal units (Hartrees-Bohrs-Radians)
 RMS Force = .25971D-02 SwitMx=.10000D-02 MixMth= 1
 Mixed Optimization -- RFO/linear search
 Second derivative matrix not updated -- first step.
 ITU=  0
     Eigenvalues ---    0.02120   0.02139   0.02144   0.02163   0.02209
     Eigenvalues ---    0.02238   0.02269   0.02294   0.02415   0.16000
     Eigenvalues ---    0.16000   0.16000   0.16000   0.16000   0.22000
     Eigenvalues ---    0.22826   0.23882   0.25000   0.34970   0.34996
     Eigenvalues ---    0.35128   0.35490   0.42425   0.43849   0.46118
     Eigenvalues ---    0.46897   0.53214   0.54017   0.55021   0.56489
 RFO step:  Lambda=-6.96914754D-04 EMin= 2.11976327D-02
 Linear search not attempted -- first point.
 Iteration  1 RMS(Cart)=  0.00988986 RMS(Int)=  0.00001811
 Iteration  2 RMS(Cart)=  0.00001712 RMS(Int)=  0.00000078
 Iteration  3 RMS(Cart)=  0.00000000 RMS(Int)=  0.00000078
 ITry= 1 IFail=0 DXMaxC= 4.58D-02 DCOld= 1.00D+10 DXMaxT= 3.00D-01 DXLimC= 3.00D+00 Rises=F
 Variable       Old X    -DE/DX   Delta X   Delta X   Delta X     New X
                                 (Linear)    (Quad)   (Total)
    R1        2.63455   0.00402   0.00000   0.00864   0.00864   2.64319
    R2        2.52836   0.00670   0.00000   0.01191   0.01191   2.54026
    R3        2.05724   0.00177   0.00000   0.00505   0.00505   2.06229
    R4        2.64227   0.00458   0.00000   0.00959   0.00959   2.65186
    R5        2.05467   0.00180   0.00000   0.00511   0.00511   2.05978
    R6        2.64232   0.00440   0.00000   0.00920   0.00920   2.65152
    R7        2.56754   0.01137   0.00000   0.02134   0.02134   2.58888
    R8        2.62881   0.00417   0.00000   0.00884   0.00884   2.63765
    R9        2.04887   0.00191   0.00000   0.00536   0.00536   2.05424
   R10        2.53547   0.00641   0.00000   0.01156   0.01157   2.54703
   R11        2.05681   0.00175   0.00000   0.00499   0.00499   2.06180
   R12        1.82716   0.00561   0.00000   0.01038   0.01038   1.83754
    A1        2.17019  -0.00122   0.00000  -0.00477  -0.00477   2.16542
    A2        2.08489   0.00054   0.00000   0.00195   0.00195   2.08684
    A3        2.02810   0.00068   0.00000   0.00282   0.00282   2.03093
    A4        2.06349   0.00081   0.00000   0.00287   0.00287   2.06635
    A5        2.10457  -0.00045   0.00000  -0.00174  -0.00174   2.10283
    A6        2.11512  -0.00035   0.00000  -0.00112  -0.00112   2.11400
    A7        2.06766   0.00016   0.00000  -0.00081  -0.00081   2.06685
    A8        2.15371  -0.00034   0.00000  -0.00064  -0.00064   2.15307
    A9        2.06181   0.00018   0.00000   0.00145   0.00145   2.06326
   A10        2.06126   0.00072   0.00000   0.00239   0.00239   2.06365
   A11        2.09700  -0.00000   0.00000   0.00102   0.00102   2.09802
   A12        2.12493  -0.00071   0.00000  -0.00341  -0.00341   2.12151
   A13        2.17345  -0.00108   0.00000  -0.00419  -0.00419   2.16926
   A14        2.08552   0.00044   0.00000   0.00145   0.00145   2.08697
   A15        2.02421   0.00064   0.00000   0.00274   0.00274   2.02696
   A16        2.03032   0.00062   0.00000   0.00451   0.00451   2.03483
   A17        1.90853   0.00189   0.00000   0.01177   0.01177   1.92030
    D1       -0.00024   0.00001   0.00000   0.00041   0.00041   0.00017
    D2        3.14151   0.00000   0.00000   0.00019   0.00019  -3.14148
    D3       -3.14157  -0.00000   0.00000  -0.00006  -0.00006   3.14155
    D4        0.00018  -0.00001   0.00000  -0.00028  -0.00028  -0.00010
    D5        0.00007  -0.00000   0.00000  -0.00007  -0.00007   0.00000
    D6        3.14141   0.00001   0.00000   0.00039   0.00039  -3.14139
    D7        0.00001  -0.00000   0.00000  -0.00013  -0.00013  -0.00011
    D8       -3.14143  -0.00001   0.00000  -0.00028  -0.00028   3.14147
    D9        3.14145   0.00000   0.00000   0.00009   0.00009   3.14154
   D10        0.00000  -0.00000   0.00000  -0.00006  -0.00006  -0.00006
   D11        0.00034  -0.00001   0.00000  -0.00044  -0.00044  -0.00010
   D12       -3.14121  -0.00001   0.00000  -0.00043  -0.00043   3.14154
   D13       -3.14139  -0.00001   0.00000  -0.00030  -0.00030   3.14150
   D14        0.00024  -0.00001   0.00000  -0.00029  -0.00029  -0.00004
   D15       -0.00039   0.00001   0.00000   0.00024   0.00024  -0.00015
   D16        3.14135   0.00000   0.00000   0.00009   0.00009   3.14143
   D17       -0.00055   0.00002   0.00000   0.00084   0.00084   0.00029
   D18       -3.14120  -0.00002   0.00000  -0.00063  -0.00063   3.14135
   D19        3.14101   0.00002   0.00000   0.00083   0.00083  -3.14135
   D20        0.00035  -0.00002   0.00000  -0.00064  -0.00064  -0.00029
   D21        0.00034  -0.00001   0.00000  -0.00058  -0.00057  -0.00024
   D22        3.14102   0.00002   0.00000   0.00085   0.00085  -3.14131
         Item               Value     Threshold  Converged?
 Maximum Force            0.011371     0.000450     NO 
 RMS     Force            0.002597     0.000300     NO 
 Maximum Displacement     0.045806     0.001800     NO 
 RMS     Displacement     0.009895     0.001200     NO 
 Predicted change in Energy=-3.489884D-04
 Lowest energy point so far.  Saving SCF results.
 GradGradGradGradGradGradGradGradGradGradGradGradGradGradGradGradGradGrad

 Leave Link  103 at Fri Aug 27 21:13:48 2021, MaxMem= 17179869184 cpu:        73.0
 (Enter /public3/home/sc51754/softwares/g09e01/l202.exe)
                          Input orientation:                          
 ---------------------------------------------------------------------
 Center     Atomic      Atomic             Coordinates (Angstroms)
 Number     Number       Type             X           Y           Z
 ---------------------------------------------------------------------
      1          6           0        1.158894    1.160032    0.000068
      2          6           0       -0.239429    1.193279   -0.000019
      3          6           0       -0.935887   -0.025002   -0.000042
      4          6           0       -0.196027   -1.217212   -0.000118
      5          6           0        1.197026   -1.129947   -0.000286
      6          7           0        1.885256    0.028925   -0.000060
      7          1           0        1.719807    2.096169    0.000052
      8          1           0       -0.769880    2.145487   -0.000012
      9          1           0       -0.705854   -2.177299   -0.000092
     10          1           0        1.793791   -2.043334   -0.000116
     11          8           0       -2.303150   -0.111181    0.000011
     12          1           0       -2.692939    0.779659    0.000206
 ---------------------------------------------------------------------
                    Distance matrix (angstroms):
                    1          2          3          4          5
     1  C    0.000000
     2  C    1.398718   0.000000
     3  C    2.406743   1.403304   0.000000
     4  C    2.736256   2.410882   1.403124   0.000000
     5  C    2.290297   2.731444   2.402128   1.395783   0.000000
     6  N    1.344249   2.422810   2.821659   2.425819   1.347831
     7  H    1.091319   2.157270   3.398835   3.827390   3.268200
     8  H    2.165938   1.089990   2.176828   3.411312   3.820627
     9  H    3.822965   3.402697   2.164555   1.087056   2.172072
    10  H    3.265678   3.822257   3.394821   2.154496   1.091056
    11  O    3.688052   2.441426   1.369976   2.379763   3.645424
    12  H    3.870569   2.488131   1.932540   3.197197   4.333408
                    6          7          8          9         10
     6  N    0.000000
     7  H    2.073854   0.000000
     8  H    3.395524   2.490175   0.000000
     9  H    3.403128   4.913895   4.323260   0.000000
    10  H    2.074277   4.140165   4.911072   2.503232   0.000000
    11  O    4.190749   4.588744   2.728272   2.611550   4.529695
    12  H    4.639340   4.604946   2.358738   3.562598   5.300947
                   11         12
    11  O    0.000000
    12  H    0.972385   0.000000
 Stoichiometry    C5H5NO
 Framework group  C1[X(C5H5NO)]
 Deg. of freedom    30
 Full point group                 C1      NOp   1
 RotChk:  IX=2 Diff= 9.72D-04
 Largest Abelian subgroup         C1      NOp   1
 Largest concise Abelian subgroup C1      NOp   1
                         Standard orientation:                         
 ---------------------------------------------------------------------
 Center     Atomic      Atomic             Coordinates (Angstroms)
 Number     Number       Type             X           Y           Z
 ---------------------------------------------------------------------
      1          6           0       -1.157617    1.160815   -0.000122
      2          6           0        0.240728    1.193102   -0.000035
      3          6           0        0.936349   -0.025657   -0.000011
      4          6           0        0.195670   -1.217359    0.000064
      5          6           0       -1.197322   -1.129138    0.000233
      6          7           0       -1.884756    0.030208    0.000006
      7          1           0       -1.717887    2.097338   -0.000105
      8          1           0        0.771833    2.144945   -0.000042
      9          1           0        0.704838   -2.177796    0.000038
     10          1           0       -1.794714   -2.042114    0.000062
     11          8           0        2.303552   -0.112776   -0.000065
     12          1           0        2.693954    0.777796   -0.000260
 ---------------------------------------------------------------------
 Rotational constants (GHZ):      5.9339249      2.6016188      1.8086499
 Leave Link  202 at Fri Aug 27 21:13:48 2021, MaxMem= 17179869184 cpu:         5.5
 (Enter /public3/home/sc51754/softwares/g09e01/l301.exe)
 Basis read from rwf:  (5D, 7F)
 No pseudopotential information found on rwf file.
 There are   320 symmetry adapted cartesian basis functions of A   symmetry.
 There are   280 symmetry adapted basis functions of A   symmetry.
   280 basis functions,   475 primitive gaussians,   320 cartesian basis functions
    25 alpha electrons       25 beta electrons
       nuclear repulsion energy       272.5298756091 Hartrees.
 IExCor=  402 DFT=T Ex=B Corr=LYP ExCW=0 ScaHFX=  0.000000
 ScaDFX=  1.000000  1.000000  1.000000  1.000000 ScalE2=  1.000000  1.000000
 IRadAn=      0 IRanWt=     -1 IRanGd=            0 ICorTp=0 IEmpDi=  4
 NAtoms=   12 NActive=   12 NUniq=   12 SFac= 1.00D+00 NAtFMM=   60 NAOKFM=F Big=F
 Integral buffers will be    131072 words long.
 Raffenetti 2 integral format.
 Two-electron integral symmetry is turned on.
 No density basis found on file   724.
 Leave Link  301 at Fri Aug 27 21:13:48 2021, MaxMem= 17179869184 cpu:         1.0
 (Enter /public3/home/sc51754/softwares/g09e01/l302.exe)
 NPDir=0 NMtPBC=     1 NCelOv=     1 NCel=       1 NClECP=     1 NCelD=      1
         NCelK=      1 NCelE2=     1 NClLst=     1 CellRange=     0.0.
 One-electron integrals computed using PRISM.
 NBasis=   280 RedAO= T EigKep=  2.06D-04  NBF=   280
 NBsUse=   280 1.00D-06 EigRej= -1.00D+00 NBFU=   280
 Precomputing XC quadrature grid using
 IXCGrd= 4 IRadAn=           0 IRanWt=          -1 IRanGd=           0 AccXCQ= 0.00D+00.
 Generated NRdTot=       0 NPtTot=           0 NUsed=           0 NTot=          32
 NSgBfM=   320   320   320   320   320 MxSgAt=    12 MxSgA2=    12.
 Leave Link  302 at Fri Aug 27 21:13:49 2021, MaxMem= 17179869184 cpu:        41.0
 (Enter /public3/home/sc51754/softwares/g09e01/l303.exe)
 DipDrv:  MaxL=1.
 Leave Link  303 at Fri Aug 27 21:13:50 2021, MaxMem= 17179869184 cpu:        13.1
 (Enter /public3/home/sc51754/softwares/g09e01/l401.exe)
 Initial guess from the checkpoint file:  "4HY_BLYP_PC2_OPT_FREQ.chk"
 B after Tr=    -0.000000   -0.000000    0.000000
         Rot=    1.000000    0.000037   -0.000013    0.000173 Ang=   0.02 deg.
 Guess basis will be translated and rotated to current coordinates.
 JPrj=2 DoOrth=T DoCkMO=T.
 Generating alternative initial guess.
 ExpMin= 7.41D-02 ExpMax= 1.48D+04 ExpMxC= 5.05D+02 IAcc=2 IRadAn=         4 AccDes= 0.00D+00
 Harris functional with IExCor=  402 and IRadAn=       4 diagonalized for initial guess.
 HarFok:  IExCor=  402 AccDes= 0.00D+00 IRadAn=         4 IDoV= 1 UseB2=F ITyADJ=14
 ICtDFT=  3500011 ScaDFX=  1.000000  1.000000  1.000000  1.000000
 FoFCou: FMM=F IPFlag=           0 FMFlag=      100000 FMFlg1=           0
         NFxFlg=           0 DoJE=T BraDBF=F KetDBF=T FulRan=T
         wScrn=  0.000000 ICntrl=     500 IOpCl=  0 I1Cent=   200000004 NGrid=           0
         NMat0=    1 NMatS0=      1 NMatT0=    0 NMatD0=    1 NMtDS0=    0 NMtDT0=    0
 Petite list used in FoFCou.
 Harris En= -323.660877170462    
 Leave Link  401 at Fri Aug 27 21:13:51 2021, MaxMem= 17179869184 cpu:        73.3
 (Enter /public3/home/sc51754/softwares/g09e01/l502.exe)
 Closed shell SCF:
 Using DIIS extrapolation, IDIIS=  1040.
 Integral symmetry usage will be decided dynamically.
 Keep J ints in memory in canonical form, NReq=790723944.
 IVT=      348554 IEndB=      348554 NGot= 17179869184 MDV= 16405683161
 LenX= 16405683161 LenY= 16405580320
 Requested convergence on RMS density matrix=1.00D-08 within 128 cycles.
 Requested convergence on MAX density matrix=1.00D-06.
 Requested convergence on             energy=1.00D-06.
 No special actions if energy rises.
 FoFCou: FMM=F IPFlag=           0 FMFlag=           0 FMFlg1=           0
         NFxFlg=           0 DoJE=F BraDBF=F KetDBF=F FulRan=T
         wScrn=  0.000000 ICntrl=     600 IOpCl=  0 I1Cent=           0 NGrid=           0
         NMat0=    1 NMatS0=  39340 NMatT0=    0 NMatD0=    1 NMtDS0=    0 NMtDT0=    0
 Symmetry not used in FoFCou.
 Integral accuracy reduced to 1.0D-05 until final iterations.

 Cycle   1  Pass 0  IDiag  1:
 E= -323.546584205928    
 DIIS: error= 5.83D-04 at cycle   1 NSaved=   1.
 NSaved= 1 IEnMin= 1 EnMin= -323.546584205928     IErMin= 1 ErrMin= 5.83D-04
 ErrMax= 5.83D-04  0.00D+00 EMaxC= 1.00D-01 BMatC= 1.18D-04 BMatP= 1.18D-04
 IDIUse=3 WtCom= 9.94D-01 WtEn= 5.83D-03
 Coeff-Com:  0.100D+01
 Coeff-En:   0.100D+01
 Coeff:      0.100D+01
 Gap=     0.558 Goal=   None    Shift=    0.000
 RMSDP=4.43D-05 MaxDP=1.41D-03              OVMax= 2.87D-03

 Cycle   2  Pass 0  IDiag  1:
 E= -323.546668067543     Delta-E=       -0.000083861615 Rises=F Damp=F
 DIIS: error= 5.11D-04 at cycle   2 NSaved=   2.
 NSaved= 2 IEnMin= 2 EnMin= -323.546668067543     IErMin= 2 ErrMin= 5.11D-04
 ErrMax= 5.11D-04  0.00D+00 EMaxC= 1.00D-01 BMatC= 3.04D-05 BMatP= 1.18D-04
 IDIUse=3 WtCom= 9.95D-01 WtEn= 5.11D-03
 Coeff-Com:  0.282D+00 0.718D+00
 Coeff-En:   0.000D+00 0.100D+01
 Coeff:      0.281D+00 0.719D+00
 Gap=     0.163 Goal=   None    Shift=    0.000
 RMSDP=3.15D-05 MaxDP=1.34D-03 DE=-8.39D-05 OVMax= 2.53D-03

 Cycle   3  Pass 0  IDiag  1:
 E= -323.546665000138     Delta-E=        0.000003067405 Rises=F Damp=F
 DIIS: error= 4.49D-04 at cycle   3 NSaved=   3.
 NSaved= 3 IEnMin= 2 EnMin= -323.546668067543     IErMin= 3 ErrMin= 4.49D-04
 ErrMax= 4.49D-04  0.00D+00 EMaxC= 1.00D-01 BMatC= 3.32D-05 BMatP= 3.04D-05
 IDIUse=3 WtCom= 9.96D-01 WtEn= 4.49D-03
 Coeff-Com:  0.561D-01 0.503D+00 0.441D+00
 Coeff-En:   0.000D+00 0.524D+00 0.476D+00
 Coeff:      0.558D-01 0.503D+00 0.441D+00
 Gap=     0.161 Goal=   None    Shift=    0.000
 RMSDP=1.90D-05 MaxDP=8.30D-04 DE= 3.07D-06 OVMax= 2.00D-03

 Cycle   4  Pass 0  IDiag  1:
 E= -323.546689357517     Delta-E=       -0.000024357380 Rises=F Damp=F
 DIIS: error= 1.15D-04 at cycle   4 NSaved=   4.
 NSaved= 4 IEnMin= 4 EnMin= -323.546689357517     IErMin= 4 ErrMin= 1.15D-04
 ErrMax= 1.15D-04  0.00D+00 EMaxC= 1.00D-01 BMatC= 3.17D-06 BMatP= 3.04D-05
 IDIUse=3 WtCom= 9.99D-01 WtEn= 1.15D-03
 Coeff-Com:  0.159D-01 0.285D+00 0.308D+00 0.391D+00
 Coeff-En:   0.000D+00 0.000D+00 0.635D-01 0.937D+00
 Coeff:      0.158D-01 0.285D+00 0.307D+00 0.392D+00
 Gap=     0.162 Goal=   None    Shift=    0.000
 RMSDP=5.85D-06 MaxDP=2.40D-04 DE=-2.44D-05 OVMax= 7.72D-04

 Initial convergence to 1.0D-05 achieved.  Increase integral accuracy.
 Cycle   5  Pass 1  IDiag  1:
 E= -323.546688594996     Delta-E=        0.000000762521 Rises=F Damp=F
 DIIS: error= 5.62D-05 at cycle   1 NSaved=   1.
 NSaved= 1 IEnMin= 1 EnMin= -323.546688594996     IErMin= 1 ErrMin= 5.62D-05
 ErrMax= 5.62D-05  0.00D+00 EMaxC= 1.00D-01 BMatC= 5.32D-07 BMatP= 5.32D-07
 IDIUse=1 WtCom= 1.00D+00 WtEn= 0.00D+00
 Coeff-Com:  0.100D+01
 Coeff:      0.100D+01
 Gap=     0.162 Goal=   None    Shift=    0.000
 RMSDP=5.85D-06 MaxDP=2.40D-04 DE= 7.63D-07 OVMax= 9.11D-04

 Cycle   6  Pass 1  IDiag  1:
 E= -323.546687185266     Delta-E=        0.000001409731 Rises=F Damp=F
 DIIS: error= 1.41D-04 at cycle   2 NSaved=   2.
 NSaved= 2 IEnMin= 1 EnMin= -323.546688594996     IErMin= 1 ErrMin= 5.62D-05
 ErrMax= 1.41D-04  0.00D+00 EMaxC= 1.00D-01 BMatC= 1.90D-06 BMatP= 5.32D-07
 IDIUse=3 WtCom= 4.57D-01 WtEn= 5.43D-01
 Coeff-Com:  0.683D+00 0.317D+00
 Coeff-En:   0.760D+00 0.240D+00
 Coeff:      0.725D+00 0.275D+00
 Gap=     0.162 Goal=   None    Shift=    0.000
 RMSDP=4.44D-06 MaxDP=1.48D-04 DE= 1.41D-06 OVMax= 7.60D-04

 Cycle   7  Pass 1  IDiag  1:
 E= -323.546689168306     Delta-E=       -0.000001983040 Rises=F Damp=F
 DIIS: error= 1.22D-05 at cycle   3 NSaved=   3.
 NSaved= 3 IEnMin= 3 EnMin= -323.546689168306     IErMin= 3 ErrMin= 1.22D-05
 ErrMax= 1.22D-05  0.00D+00 EMaxC= 1.00D-01 BMatC= 3.41D-08 BMatP= 5.32D-07
 IDIUse=1 WtCom= 1.00D+00 WtEn= 0.00D+00
 Coeff-Com:  0.829D-01 0.107D+00 0.810D+00
 Coeff:      0.829D-01 0.107D+00 0.810D+00
 Gap=     0.162 Goal=   None    Shift=    0.000
 RMSDP=1.10D-06 MaxDP=5.04D-05 DE=-1.98D-06 OVMax= 1.20D-04

 Cycle   8  Pass 1  IDiag  1:
 E= -323.546689166013     Delta-E=        0.000000002292 Rises=F Damp=F
 DIIS: error= 1.57D-05 at cycle   4 NSaved=   4.
 NSaved= 4 IEnMin= 3 EnMin= -323.546689168306     IErMin= 3 ErrMin= 1.22D-05
 ErrMax= 1.57D-05  0.00D+00 EMaxC= 1.00D-01 BMatC= 4.28D-08 BMatP= 3.41D-08
 IDIUse=1 WtCom= 1.00D+00 WtEn= 0.00D+00
 Coeff-Com: -0.637D-03 0.476D-01 0.571D+00 0.382D+00
 Coeff:     -0.637D-03 0.476D-01 0.571D+00 0.382D+00
 Gap=     0.162 Goal=   None    Shift=    0.000
 RMSDP=6.16D-07 MaxDP=2.81D-05 DE= 2.29D-09 OVMax= 6.50D-05

 Cycle   9  Pass 1  IDiag  1:
 E= -323.546689201559     Delta-E=       -0.000000035546 Rises=F Damp=F
 DIIS: error= 1.98D-06 at cycle   5 NSaved=   5.
 NSaved= 5 IEnMin= 5 EnMin= -323.546689201559     IErMin= 5 ErrMin= 1.98D-06
 ErrMax= 1.98D-06  0.00D+00 EMaxC= 1.00D-01 BMatC= 1.18D-09 BMatP= 3.41D-08
 IDIUse=1 WtCom= 1.00D+00 WtEn= 0.00D+00
 Coeff-Com: -0.514D-02 0.233D-01 0.311D+00 0.232D+00 0.438D+00
 Coeff:     -0.514D-02 0.233D-01 0.311D+00 0.232D+00 0.438D+00
 Gap=     0.162 Goal=   None    Shift=    0.000
 RMSDP=1.01D-07 MaxDP=4.75D-06 DE=-3.55D-08 OVMax= 1.00D-05

 Cycle  10  Pass 1  IDiag  1:
 E= -323.546689202591     Delta-E=       -0.000000001032 Rises=F Damp=F
 DIIS: error= 5.50D-07 at cycle   6 NSaved=   6.
 NSaved= 6 IEnMin= 6 EnMin= -323.546689202591     IErMin= 6 ErrMin= 5.50D-07
 ErrMax= 5.50D-07  0.00D+00 EMaxC= 1.00D-01 BMatC= 4.73D-11 BMatP= 1.18D-09
 IDIUse=1 WtCom= 1.00D+00 WtEn= 0.00D+00
 Coeff-Com: -0.227D-02 0.812D-02 0.108D+00 0.849D-01 0.229D+00 0.573D+00
 Coeff:     -0.227D-02 0.812D-02 0.108D+00 0.849D-01 0.229D+00 0.573D+00
 Gap=     0.162 Goal=   None    Shift=    0.000
 RMSDP=2.45D-08 MaxDP=9.79D-07 DE=-1.03D-09 OVMax= 2.24D-06

 Cycle  11  Pass 1  IDiag  1:
 E= -323.546689202625     Delta-E=       -0.000000000034 Rises=F Damp=F
 DIIS: error= 1.98D-07 at cycle   7 NSaved=   7.
 NSaved= 7 IEnMin= 7 EnMin= -323.546689202625     IErMin= 7 ErrMin= 1.98D-07
 ErrMax= 1.98D-07  0.00D+00 EMaxC= 1.00D-01 BMatC= 5.61D-12 BMatP= 4.73D-11
 IDIUse=1 WtCom= 1.00D+00 WtEn= 0.00D+00
 Coeff-Com: -0.998D-03 0.363D-02 0.468D-01 0.380D-01 0.113D+00 0.343D+00
 Coeff-Com:  0.457D+00
 Coeff:     -0.998D-03 0.363D-02 0.468D-01 0.380D-01 0.113D+00 0.343D+00
 Coeff:      0.457D+00
 Gap=     0.162 Goal=   None    Shift=    0.000
 RMSDP=7.75D-09 MaxDP=4.56D-07 DE=-3.41D-11 OVMax= 1.51D-06

 SCF Done:  E(RB-LYP) =  -323.546689203     A.U. after   11 cycles
            NFock= 11  Conv=0.77D-08     -V/T= 2.0031
 KE= 3.225417185264D+02 PE=-1.300364057995D+03 EE= 3.817457746568D+02
 Leave Link  502 at Fri Aug 27 21:14:01 2021, MaxMem= 17179869184 cpu:       163.7
 (Enter /public3/home/sc51754/softwares/g09e01/l701.exe)
 Compute integral first derivatives.
 ... and contract with generalized density number  0.
 Leave Link  701 at Fri Aug 27 21:14:02 2021, MaxMem= 17179869184 cpu:        58.2
 (Enter /public3/home/sc51754/softwares/g09e01/l702.exe)
 L702 exits ... SP integral derivatives will be done elsewhere.
 Leave Link  702 at Fri Aug 27 21:14:02 2021, MaxMem= 17179869184 cpu:         0.2
 (Enter /public3/home/sc51754/softwares/g09e01/l703.exe)
 Compute integral first derivatives, UseDBF=F ICtDFT=           0.
 Integral derivatives from FoFJK, PRISM(SPDF).
 Calling FoFJK, ICntrl=      2527 FMM=F ISym2X=0 I1Cent= 0 IOpClX= 0 NMat=1 NMatS=1 NMatT=0.
 FoFJK:  IHMeth= 1 ICntrl=    2527 DoSepK=F KAlg= 0 I1Cent=   0 FoldK=F
 IRaf=         0 NMat=   1 IRICut=       1 DoRegI=T DoRafI=F ISym2E= 0.
 FoFCou: FMM=F IPFlag=           0 FMFlag=      100000 FMFlg1=         800
         NFxFlg=           0 DoJE=F BraDBF=F KetDBF=F FulRan=T
         wScrn=  0.000000 ICntrl=    2527 IOpCl=  0 I1Cent=           0 NGrid=           0
         NMat0=    1 NMatS0=      1 NMatT0=    0 NMatD0=    1 NMtDS0=    0 NMtDT0=    0
 Symmetry not used in FoFCou.
 Leave Link  703 at Fri Aug 27 21:14:04 2021, MaxMem= 17179869184 cpu:       122.7
 (Enter /public3/home/sc51754/softwares/g09e01/l716.exe)
 Dipole        = 9.53976979D-01 4.95056658D-01-1.38083653D-04
 ***** Axes restored to original set *****
 -------------------------------------------------------------------
 Center     Atomic                   Forces (Hartrees/Bohr)
 Number     Number              X              Y              Z
 -------------------------------------------------------------------
      1        6          -0.000893146    0.000155025   -0.000021578
      2        6          -0.000457885   -0.000394704    0.000006942
      3        6           0.003512658    0.000867846   -0.000000881
      4        6          -0.001216413    0.000570848   -0.000013963
      5        6          -0.000624722    0.000096448    0.000048732
      6        7           0.001262075   -0.000171822   -0.000010615
      7        1           0.000042729   -0.000373390    0.000007552
      8        1          -0.000038986   -0.000043958    0.000001494
      9        1           0.000056019   -0.000083170   -0.000001950
     10        1          -0.000012042    0.000343616   -0.000015818
     11        8          -0.002328399   -0.001498159    0.000000772
     12        1           0.000698112    0.000531418   -0.000000688
 -------------------------------------------------------------------
 Cartesian Forces:  Max     0.003512658 RMS     0.000863114
 Leave Link  716 at Fri Aug 27 21:14:04 2021, MaxMem= 17179869184 cpu:         0.3
 (Enter /public3/home/sc51754/softwares/g09e01/l103.exe)

 GradGradGradGradGradGradGradGradGradGradGradGradGradGradGradGradGradGrad
 Berny optimization.
 Using GEDIIS/GDIIS optimizer.
 FormGI is forming the generalized inverse of G from B-inverse, IUseBI=4.
 Internal  Forces:  Max     0.001688492 RMS     0.000445165
 Search for a local minimum.
 Step number   2 out of a maximum of   61
 All quantities printed in internal units (Hartrees-Bohrs-Radians)
 RMS Force = .44516D-03 SwitMx=.10000D-02 MixMth= 2
 Mixed Optimization -- En-DIIS/RFO-DIIS
 Update second derivatives using D2CorX and points    1    2
 DE= -3.41D-04 DEPred=-3.49D-04 R= 9.76D-01
 TightC=F SS=  1.41D+00  RLast= 3.91D-02 DXNew= 5.0454D-01 1.1744D-01
 Trust test= 9.76D-01 RLast= 3.91D-02 DXMaxT set to 3.00D-01
 ITU=  1  0
 Use linear search instead of GDIIS.
     Eigenvalues ---    0.02120   0.02139   0.02145   0.02163   0.02209
     Eigenvalues ---    0.02238   0.02269   0.02294   0.02416   0.15958
     Eigenvalues ---    0.16000   0.16000   0.16000   0.16670   0.21995
     Eigenvalues ---    0.23431   0.23888   0.25041   0.34982   0.35044
     Eigenvalues ---    0.35272   0.35454   0.42434   0.43300   0.46049
     Eigenvalues ---    0.48012   0.48816   0.54114   0.56174   0.56537
 RFO step:  Lambda=-3.42975028D-05 EMin= 2.11977443D-02
 Quartic linear search produced a step of -0.01519.
 Iteration  1 RMS(Cart)=  0.00183672 RMS(Int)=  0.00000784
 Iteration  2 RMS(Cart)=  0.00000779 RMS(Int)=  0.00000013
 Iteration  3 RMS(Cart)=  0.00000000 RMS(Int)=  0.00000013
 ITry= 1 IFail=0 DXMaxC= 1.03D-02 DCOld= 1.00D+10 DXMaxT= 3.00D-01 DXLimC= 3.00D+00 Rises=F
 Variable       Old X    -DE/DX   Delta X   Delta X   Delta X     New X
                                 (Linear)    (Quad)   (Total)
    R1        2.64319  -0.00019  -0.00013   0.00018   0.00005   2.64324
    R2        2.54026   0.00034  -0.00018   0.00142   0.00124   2.54150
    R3        2.06229  -0.00030  -0.00008  -0.00052  -0.00059   2.06170
    R4        2.65186  -0.00089  -0.00015  -0.00138  -0.00152   2.65034
    R5        2.05978  -0.00002  -0.00008   0.00027   0.00020   2.05998
    R6        2.65152  -0.00125  -0.00014  -0.00219  -0.00233   2.64919
[...]
 Iteration  2 RMS(Cart)=  0.00000001 RMS(Int)=  0.00000000
 ITry= 1 IFail=0 DXMaxC= 3.55D-04 DCOld= 1.00D+10 DXMaxT= 3.00D-01 DXLimC= 3.00D+00 Rises=F
 Variable       Old X    -DE/DX   Delta X   Delta X   Delta X     New X
                                 (Linear)    (Quad)   (Total)
    R1        2.64262  -0.00000   0.00000   0.00001   0.00001   2.64263
    R2        2.54194  -0.00005   0.00000  -0.00010  -0.00010   2.54185
    R3        2.06137   0.00001   0.00000   0.00004   0.00004   2.06140
    R4        2.64926   0.00000   0.00000  -0.00000  -0.00000   2.64926
    R5        2.05971  -0.00003   0.00000  -0.00010  -0.00010   2.05961
    R6        2.64814  -0.00005   0.00000  -0.00016  -0.00016   2.64798
    R7        2.59568   0.00008   0.00000   0.00028   0.00028   2.59596
    R8        2.63770   0.00002   0.00000   0.00010   0.00010   2.63780
    R9        2.05427  -0.00002   0.00000  -0.00007  -0.00007   2.05420
   R10        2.54804  -0.00006   0.00000  -0.00019  -0.00019   2.54785
   R11        2.06096   0.00001   0.00000   0.00003   0.00003   2.06099
   R12        1.83851  -0.00010   0.00000  -0.00021  -0.00021   1.83830
    A1        2.16686  -0.00003   0.00000  -0.00016  -0.00016   2.16671
    A2        2.08806   0.00002   0.00000   0.00016   0.00016   2.08821
    A3        2.02826   0.00001   0.00000   0.00000   0.00000   2.02826
    A4        2.06476  -0.00001   0.00000  -0.00009  -0.00009   2.06467
    A5        2.10376  -0.00001   0.00000  -0.00005  -0.00005   2.10371
    A6        2.11467   0.00002   0.00000   0.00014   0.00014   2.11480
    A7        2.06994   0.00003   0.00000   0.00021   0.00021   2.07015
    A8        2.15256  -0.00002   0.00000  -0.00017  -0.00017   2.15239
    A9        2.06069  -0.00000   0.00000  -0.00004  -0.00004   2.06065
   A10        2.06193  -0.00002   0.00000  -0.00014  -0.00014   2.06179
   A11        2.10009   0.00001   0.00000   0.00005   0.00005   2.10014
   A12        2.12117   0.00001   0.00000   0.00009   0.00009   2.12126
   A13        2.17089  -0.00001   0.00000  -0.00008  -0.00008   2.17082
   A14        2.08776   0.00001   0.00000   0.00003   0.00003   2.08779
   A15        2.02454   0.00000   0.00000   0.00004   0.00004   2.02458
   A16        2.03199   0.00005   0.00000   0.00025   0.00025   2.03224
   A17        1.90980   0.00002   0.00000   0.00005   0.00005   1.90985
    D1        0.00009  -0.00000   0.00000  -0.00009  -0.00009  -0.00000
    D2       -3.14153  -0.00000   0.00000  -0.00006  -0.00006   3.14159
    D3        3.14156   0.00000   0.00000   0.00003   0.00003   3.14159
    D4       -0.00006   0.00000   0.00000   0.00006   0.00006  -0.00000
    D5       -0.00002   0.00000   0.00000   0.00002   0.00002   0.00000
    D6       -3.14150  -0.00000   0.00000  -0.00009  -0.00009   3.14159
    D7       -0.00005   0.00000   0.00000   0.00005   0.00005   0.00000
    D8        3.14157   0.00000   0.00000   0.00003   0.00003   3.14159
    D9        3.14157   0.00000   0.00000   0.00002   0.00002  -3.14159
   D10        0.00000   0.00000   0.00000   0.00000   0.00000   0.00000
   D11       -0.00004   0.00000   0.00000   0.00004   0.00004   0.00000
   D12        3.14156   0.00000   0.00000   0.00003   0.00003  -3.14159
   D13        3.14153   0.00000   0.00000   0.00007   0.00007  -3.14159
   D14       -0.00005   0.00000   0.00000   0.00005   0.00005   0.00000
   D15       -0.00005   0.00000   0.00000   0.00005   0.00005  -0.00000
   D16        3.14156  -0.00000   0.00000   0.00003   0.00003   3.14159
   D17        0.00011  -0.00000   0.00000  -0.00012  -0.00012  -0.00000
   D18        3.14151   0.00000   0.00000   0.00008   0.00008   3.14159
   D19       -3.14149  -0.00000   0.00000  -0.00010  -0.00010   3.14159
   D20       -0.00009   0.00000   0.00000   0.00009   0.00009  -0.00000
   D21       -0.00008   0.00000   0.00000   0.00008   0.00008   0.00000
   D22       -3.14148  -0.00000   0.00000  -0.00011  -0.00011  -3.14159
         Item               Value     Threshold  Converged?
 Maximum Force            0.000098     0.000450     YES
 RMS     Force            0.000025     0.000300     YES
 Maximum Displacement     0.000355     0.001800     YES
 RMS     Displacement     0.000087     0.001200     YES
 Predicted change in Energy=-5.961370D-08
 Optimization completed.
    -- Stationary point found.
                           ----------------------------
                           !   Optimized Parameters   !
                           ! (Angstroms and Degrees)  !
 --------------------------                            --------------------------
 ! Name  Definition              Value          Derivative Info.                !
 --------------------------------------------------------------------------------
 ! R1    R(1,2)                  1.3984         -DE/DX =    0.0                 !
 ! R2    R(1,6)                  1.3451         -DE/DX =    0.0                 !
 ! R3    R(1,7)                  1.0908         -DE/DX =    0.0                 !
 ! R4    R(2,3)                  1.4019         -DE/DX =    0.0                 !
 ! R5    R(2,8)                  1.0899         -DE/DX =    0.0                 !
 ! R6    R(3,4)                  1.4013         -DE/DX =    0.0                 !
 ! R7    R(3,11)                 1.3736         -DE/DX =    0.0001              !
 ! R8    R(4,5)                  1.3958         -DE/DX =    0.0                 !
 ! R9    R(4,9)                  1.0871         -DE/DX =    0.0                 !
 ! R10   R(5,6)                  1.3484         -DE/DX =   -0.0001              !
 ! R11   R(5,10)                 1.0906         -DE/DX =    0.0                 !
 ! R12   R(11,12)                0.9729         -DE/DX =   -0.0001              !
 ! A1    A(2,1,6)              124.1521         -DE/DX =    0.0                 !
 ! A2    A(2,1,7)              119.6369         -DE/DX =    0.0                 !
 ! A3    A(6,1,7)              116.2109         -DE/DX =    0.0                 !
 ! A4    A(1,2,3)              118.3019         -DE/DX =    0.0                 !
 ! A5    A(1,2,8)              120.5366         -DE/DX =    0.0                 !
 ! A6    A(3,2,8)              121.1615         -DE/DX =    0.0                 !
 ! A7    A(2,3,4)              118.5988         -DE/DX =    0.0                 !
 ! A8    A(2,3,11)             123.3323         -DE/DX =    0.0                 !
 ! A9    A(4,3,11)             118.0689         -DE/DX =    0.0                 !
 ! A10   A(3,4,5)              118.1399         -DE/DX =    0.0                 !
 ! A11   A(3,4,9)              120.3263         -DE/DX =    0.0                 !
 ! A12   A(5,4,9)              121.5338         -DE/DX =    0.0                 !
 ! A13   A(4,5,6)              124.383          -DE/DX =    0.0                 !
 ! A14   A(4,5,10)             119.6196         -DE/DX =    0.0                 !
 ! A15   A(6,5,10)             115.9974         -DE/DX =    0.0                 !
 ! A16   A(1,6,5)              116.4243         -DE/DX =    0.0                 !
 ! A17   A(3,11,12)            109.4235         -DE/DX =    0.0                 !
 ! D1    D(6,1,2,3)              0.0051         -DE/DX =    0.0                 !
 ! D2    D(6,1,2,8)            180.0036         -DE/DX =    0.0                 !
 ! D3    D(7,1,2,3)            179.9981         -DE/DX =    0.0                 !
 ! D4    D(7,1,2,8)             -0.0034         -DE/DX =    0.0                 !
 ! D5    D(2,1,6,5)             -0.0014         -DE/DX =    0.0                 !
 ! D6    D(7,1,6,5)            180.0054         -DE/DX =    0.0                 !
 ! D7    D(1,2,3,4)             -0.0029         -DE/DX =    0.0                 !
 ! D8    D(1,2,3,11)           179.9985         -DE/DX =    0.0                 !
 ! D9    D(8,2,3,4)           -180.0014         -DE/DX =    0.0                 !
 ! D10   D(8,2,3,11)             0.0            -DE/DX =    0.0                 !
 ! D11   D(2,3,4,5)             -0.0025         -DE/DX =    0.0                 !
 ! D12   D(2,3,4,9)           -180.0017         -DE/DX =    0.0                 !
 ! D13   D(11,3,4,5)          -180.0038         -DE/DX =    0.0                 !
 ! D14   D(11,3,4,9)            -0.003          -DE/DX =    0.0                 !
 ! D15   D(2,3,11,12)           -0.003          -DE/DX =    0.0                 !
 ! D16   D(4,3,11,12)          179.9984         -DE/DX =    0.0                 !
 ! D17   D(3,4,5,6)              0.0066         -DE/DX =    0.0                 !
 ! D18   D(3,4,5,10)           179.9953         -DE/DX =    0.0                 !
 ! D19   D(9,4,5,6)            180.0058         -DE/DX =    0.0                 !
 ! D20   D(9,4,5,10)            -0.0054         -DE/DX =    0.0                 !
 ! D21   D(4,5,6,1)             -0.0046         -DE/DX =    0.0                 !
 ! D22   D(10,5,6,1)          -179.9937         -DE/DX =    0.0                 !
 --------------------------------------------------------------------------------
 GradGradGradGradGradGradGradGradGradGradGradGradGradGradGradGradGradGrad

 Leave Link  103 at Fri Aug 27 21:15:18 2021, MaxMem= 17179869184 cpu:        47.6
 (Enter /public3/home/sc51754/softwares/g09e01/l9999.exe)
 1\1\GINC-P1908\Freq\RBLYP\Gen\C5H5N1O1\SC51754\27-Aug-2021\0\\#P Geom=
 AllCheck Guess=TCheck SCRF=Check GenChk RBLYP/ChkBas Freq\\4HY_BLYP_PC
 2_OPT_FREQ\\0,1\C,1.1576118528,1.159842572,0.0000283388\C,-0.240407129
 7,1.193023687,0.0000216502\C,-0.9341878107,-0.0252016615,-0.0000073918
 \C,-0.1970009967,-1.2169637298,-0.0000908491\C,1.1960545901,-1.1293258
 595,-0.0001939353\N,1.8861364522,0.0290681915,-0.0000910402\H,1.719374
 2795,2.0948990422,0.0000193041\H,-0.7717668109,2.1446784277,0.00006345
 85\H,-0.7062443559,-2.1773767617,-0.0000870521\H,1.7935441593,-2.04171
 1172,-0.0001827614\O,-2.3049452483,-0.1131426444,0.0000139116\H,-2.686
 5609816,0.7817889084,0.0000993666\\Version=EM64L-G09RevE.01\State=1-A\
 HF=-323.5467124\RMSD=4.454e-09\RMSF=4.948e-05\ZeroPoint=0.0899589\Ther
 mal=0.0954447\Dipole=-0.9403738,0.4961357,0.000078\DipoleDeriv=0.45397
 67,0.0247352,-0.0000026,-0.0065671,0.3642904,0.0000188,-0.0000356,-0.0
 000199,-0.0137927,-0.4077631,-0.1154821,0.0000054,-0.3160893,-0.087719
 8,-0.0000003,-0.0000066,0.0000191,-0.1425103,1.5281427,-0.0001714,-0.0
 000406,0.003946,0.2942542,0.0000195,-0.0000235,0.0000229,0.0948945,-0.
 4094127,0.122656,0.0000076,0.2745679,-0.0734126,-0.0000165,0.000014,-0
 .0000016,-0.1327204,0.4698941,-0.0574313,-0.0000267,0.0401227,0.373073
 5,0.0000146,0.0000252,-0.0000246,-0.015313,-0.6087928,0.0190293,0.0000
 143,-0.0204118,-0.5807954,0.0000005,0.0000028,-0.0000274,-0.2695324,0.
 0294626,-0.0754983,-0.0000049,-0.0614356,-0.0959408,-0.0000105,0.00001
 69,0.0000214,0.1032131,-0.0159831,0.0934956,0.0000065,0.0848719,-0.051
 1041,-0.0000101,-0.0000006,-0.000014,0.1451523,0.0423987,-0.0623855,0.
 000004,-0.0568333,-0.0295718,-0.000005,0.0000114,-0.0000041,0.1449859,
 0.0258754,0.0822043,0.0000089,0.0629659,-0.0864996,-0.0000138,-0.00002
 07,0.0000308,0.1040772,-1.4599164,0.0076172,0.0000333,-0.010388,-0.143
 8597,0.0000183,0.0000115,0.0000129,-0.3293439,0.3521179,-0.0387691,-0.
 0000051,0.0052508,0.1172856,-0.0000157,0.0000052,-0.0000155,0.3108897\
 Polar=86.3770899,-1.6385342,80.397545,-0.0016218,0.0025499,39.4164123\
 PG=C01 [X(C5H5N1O1)]\NImag=0\\0.62816662,0.05280927,0.67860764,-0.0000
 1103,0.00002410,0.14655685,-0.30004069,-0.03474538,-0.00000211,0.63997
 306,0.02384636,-0.12264079,-0.00000297,-0.03645598,0.67350210,-0.00000
 071,-0.00000127,-0.05878221,-0.00000586,0.00002238,0.10793699,-0.02916
 314,-0.03160377,-0.00000031,-0.14741302,-0.09690441,-0.00000220,0.6298
 0501,-0.07730279,0.03923525,0.00000394,-0.03264629,-0.26483344,-0.0000
 0633,-0.01288307,0.66105317,-0.00000467,0.00000150,0.00131525,0.000002
 48,-0.00000467,-0.06187934,-0.00001506,0.00002392,0.15161770,-0.041541
 01,0.03201408,0.00000297,0.05031082,0.01450447,0.00000038,-0.14713311,
 0.04084574,0.00000364,0.65261908,0.01540448,-0.01313318,-0.00000093,-0
 .01108550,-0.04585922,-0.00000223,0.09997875,-0.26301778,-0.00001205,0
 .03941713,0.68461941,0.00000268,-0.00000248,-0.00545491,-0.00000333,-0
 .00000299,0.00722707,0.00000894,-0.00000973,-0.06418909,-0.00003075,0.
 00001763,0.11274138,0.04418526,-0.01665378,-0.00000160,-0.03989360,-0.
 01527293,-0.00000006,-0.03462591,0.07189608,0.00000668,-0.30802415,-0.
 03140957,0.00001791,0.63888080,0.02145811,-0.09317038,-0.00000813,-0.0
 3324724,-0.01492631,-0.00000033,0.02829654,0.04377338,0.00000021,0.026
 00657,-0.12517009,-0.00000252,-0.05675611,0.67012590,0.00000063,-0.000
 00613,0.00381899,-0.00000151,-0.00000064,-0.00598134,0.00000234,0.0000
 0047,0.00144889,0.00001881,-0.00000093,-0.05923148,-0.00001371,0.00002
 075,0.14810285,-0.16656099,0.09336937,0.00000993,-0.03380133,0.0304159
 4,0.00000315,0.00922110,0.00253520,-0.00000006,-0.02879855,-0.03335160
 ,-0.00000095,-0.15953719,-0.08736175,-0.00000591,0.37119349,0.07881767
 ,-0.24828199,-0.00001614,0.08184408,0.02141673,-0.00000277,0.00231989,
 -0.07545180,-0.00000338,-0.08273176,0.01830494,0.00000203,-0.07286171,
 -0.24902529,-0.00001321,-0.00675694,0.58522284,0.00001180,-0.00001884,
 -0.06461960,0.00000637,0.00000007,0.02046241,-0.00000032,-0.00000645,-
 0.00664090,-0.00000316,0.00000182,0.01982527,-0.00000880,-0.00001617,-
 0.06475001,-0.00000656,0.00004214,0.08980950,-0.13171869,-0.11904101,0
 .00000035,-0.01224518,-0.02613512,-0.00000003,-0.00463551,0.00226086,0
 .00000027,-0.00039198,0.00078909,0.00000005,0.00050064,0.00446008,0.00
 000078,0.01294137,0.01816207,0.00000040,0.13551282,-0.11888162,-0.2301
 3308,0.00000101,0.00110864,0.00316755,0.,0.00108652,0.00130840,-0.0000
 0010,0.00005047,0.00020449,0.00000001,0.00274024,-0.00201670,-0.000000
 26,-0.00521106,-0.03246273,-0.00000185,0.12047027,0.26018817,0.0000017
 9,0.00000442,-0.03848221,-0.00000039,-0.00000033,0.00593714,-0.0000001
 6,-0.00000043,0.00742929,-0.00000077,0.00000047,-0.00106789,0.00000180
 ,-0.00000041,0.00929441,-0.00000030,-0.00000479,-0.00329177,-0.0000016
 7,0.00000120,0.02458527,-0.00766376,0.02987347,0.00000181,-0.11465554,
 0.10881285,0.00000446,0.00683911,-0.01349280,-0.00000057,-0.00027156,-
 0.00340970,-0.00000011,-0.00151911,-0.00187916,-0.00000018,-0.00640249
 ,-0.00013693,0.00000006,0.00075612,-0.00046239,0.00000007,0.11856515,-
 0.00112860,0.00225181,0.,0.10866730,-0.25481573,-0.00000978,0.01765336
 ,-0.01867078,-0.00000141,-0.00433084,-0.00273244,-0.00000007,-0.001008
 70,0.00020003,0.00000014,-0.00002550,0.00215445,-0.00000010,0.00039241
 ,0.00049452,0.00000013,-0.11951196,0.27022485,-0.00000042,0.00000050,-
 0.00029497,0.00000495,-0.00001029,-0.02842206,0.00000100,-0.00000050,0
 .00287803,-0.00000005,-0.00000022,0.00533711,-0.00000024,-0.00000021,-
 0.00049220,0.00000048,-0.00000045,0.00777346,-0.00000011,0.00000004,-0
 .00306567,-0.00000543,0.00001090,0.02028866,-0.00145107,0.00176120,0.0
 0000023,-0.00114518,0.00310095,0.00000058,0.01027151,0.01486470,0.0000
 0022,-0.11205654,-0.11050612,0.00000264,-0.00651342,-0.02876665,-0.000
 00130,-0.00595880,-0.00019224,0.00000089,0.00012718,-0.00025489,-0.000
 00016,0.00043192,0.00093472,0.00000010,0.11371664,0.00100253,0.0002452
 4,0.00000007,0.00397972,-0.00242519,-0.00000033,-0.01555348,-0.0190220
 2,-0.00000016,-0.10859949,-0.26660960,-0.00000065,0.00113960,0.0025229
 6,-0.00000009,0.00013296,0.00210525,-0.00000003,-0.00008156,-0.0000193
 8,0.00000004,-0.00070563,-0.00079113,-0.00000007,0.11969283,0.28133391
 ,0.00000021,-0.00000036,-0.00048173,0.00000052,-0.00000041,0.00552004,
 -0.00000125,-0.00000211,0.00395463,0.00000172,-0.00000028,-0.03092846,
 0.00000119,0.00000276,-0.00011117,0.00000028,-0.00000067,0.00801639,-0
 .00000011,0.00000010,-0.00138876,-0.00000009,-0.00000013,0.00024475,-0
 .00000244,0.00000090,0.02202186,0.00081354,-0.00443142,-0.00000055,-0.
 00043766,-0.00080353,-0.00000007,-0.00432830,-0.00228547,0.00000027,-0
 .01311429,0.02561115,0.00000044,-0.14106809,0.12277950,0.00000077,0.01
 315029,-0.01653909,-0.00000070,0.00029996,-0.00052877,-0.00000011,0.00
 011719,0.00008059,0.00000005,0.00076607,-0.00041875,-0.00000001,0.1452
 3952,-0.00262502,-0.00242449,-0.00000019,-0.00008407,0.00023821,0.0000
 0001,-0.00135190,0.00113962,0.00000015,-0.00177714,0.00409473,0.000000
 39,0.12261894,-0.22151326,0.00000043,0.00705532,-0.03254592,-0.0000017
 0,0.00056988,-0.00083098,-0.00000020,0.00027211,-0.00003177,0.00000005
 ,0.00046150,0.00047365,-0.00000012,-0.12520088,0.25114808,-0.00000133,
 -0.00000057,0.00904161,0.00000044,0.00000059,-0.00103067,0.00000110,0.
 ,0.00770691,0.00000230,-0.00000214,0.00616585,-0.00000233,0.00000558,-
 0.03923202,0.00000003,-0.00000427,-0.00303762,0.00000013,-0.00000020,0
 .00056005,0.00000005,0.00000003,-0.00130702,-0.00000037,0.00000012,-0.
 00325243,-0.00000023,0.00000113,0.02491564,0.00613398,-0.00408612,0.00
 000041,-0.04432461,-0.00584307,0.00000047,-0.26307882,-0.03949249,0.00
 000265,-0.04503299,0.01202671,0.00000225,0.00715923,0.00224745,-0.0000
 0062,-0.00617457,-0.00053081,0.00000015,-0.00147245,-0.00015309,-0.000
 00011,0.00409167,0.00006471,-0.00000038,0.00163583,-0.00049765,-0.0000
 0003,-0.00091942,0.00025209,0.00000009,0.43867567,0.00642332,-0.009006
 04,-0.00000074,-0.04165051,0.00320542,0.00000032,0.01050220,-0.1052348
 7,-0.00000439,0.04550746,0.00676870,-0.00000154,-0.00428970,-0.0101923
 6,-0.00000052,-0.00086527,0.00806534,0.00000102,-0.00168186,0.00013014
 ,-0.00000007,-0.00051109,0.00246333,0.00000034,-0.00083774,0.00179034,
 0.00000030,0.00161827,0.00018203,-0.00000022,-0.13315644,0.51482216,0.
 00000096,-0.00000066,0.00802115,-0.00000116,-0.00000085,0.01030019,0.0
 0000637,-0.00000237,-0.04092480,0.00000430,-0.00000093,0.00639383,-0.0
 0000045,-0.00000128,0.00529168,-0.00000014,0.00000115,-0.00338124,-0.0
 0000003,0.00000004,-0.00062143,-0.00000013,0.00000023,-0.00331693,-0.0
 0000034,0.00000019,-0.00302304,0.00000017,0.00000002,-0.00010656,-0.00
 002148,0.00004307,0.02667936,-0.00116007,0.00073408,-0.00000010,0.0036
 7293,0.00073449,-0.00000010,-0.02575892,0.04570032,0.00000415,-0.00656
 573,-0.00346481,0.00000023,0.00045554,0.00276265,-0.00000010,0.0007276
 8,-0.00139422,-0.00000013,0.00032573,0.00003570,0.,-0.00028871,-0.0017
 8748,0.00000005,0.00017586,-0.00009107,0.,-0.00051881,-0.00019084,0.00
 000014,-0.09669352,0.11894137,0.00001193,0.12562802,0.00017629,-0.0015
 4998,-0.00000002,-0.00568476,0.00397067,0.00000034,-0.00154063,-0.0002
 7912,0.00000038,-0.00090669,0.00253004,-0.00000007,-0.00014234,-0.0006
 0785,0.,0.00006333,0.00049817,0.00000009,-0.00016511,-0.00003039,-0.00
 000001,0.00115123,-0.00074714,-0.00000008,-0.00025826,0.00039597,0.000
 00002,0.00011841,0.00007012,-0.00000006,0.16916872,-0.41299420,-0.0000
 3862,-0.16198018,0.40874370,0.00000009,-0.00000019,-0.00063823,-0.0000
 0041,0.00000012,-0.00128821,-0.00000045,-0.00000040,-0.00271655,0.0000
 0060,-0.00000020,0.00318133,-0.00000041,-0.00000025,0.00184139,0.00000
 006,0.00000035,-0.00016588,-0.00000003,0.,0.00011159,0.00000007,0.0000
 0006,0.00037685,-0.00000004,0.00000003,-0.00057207,0.,0.00000001,-0.00
 042373,0.00001662,-0.00003758,-0.00531222,-0.00001610,0.00003805,0.005
 60574\\-0.00003951,0.00000943,0.00001169,0.00005052,-0.00001771,-0.000
 00415,-0.00015305,0.00005209,0.00000277,0.00007209,0.00000051,0.000004
 17,-0.00006103,-0.00004766,-0.00001870,0.00010470,0.00001665,0.0000027
 7,-0.00001655,-0.00000513,-0.00000401,-0.00002755,0.00001814,-0.000000
 58,-0.00000660,-0.00002013,0.00000141,-0.00000372,0.00000677,0.0000058
 9,0.00011143,-0.00010424,-0.00000121,-0.00003074,0.00009128,-0.0000000
 4\\\@


 NOT WHAT WE DID SHALL BE THE TEST
 WHEN ACT AND WILL ARE DONE,
 BUT WHAT OUR LORD INFERS WE WOULD-
 HAD WE DIVINER BEEN.
           EMILY DICKINSON  POEMS NO. CLXXV
 Job cpu time:       0 days  0 hours 37 minutes 27.4 seconds.
 File lengths (MBytes):  RWF=     79 Int=      0 D2E=      0 Chk=      7 Scr=      1
 Normal termination of Gaussian 09 at Fri Aug 27 21:15:19 2021.
