 Entering Gaussian System, Link 0=g09
 AtFile(1): pc-2.gbs
            -H     0
            S    4   1.00
                  0.754230D+02           0.240650D-02
                  0.113500D+02           0.184870D-01
                  0.259930D+01           0.897420D-01
                  0.735130D+00           0.281110D+00
            S    1   1.00
                  0.231670D+00           0.100000D+01
            S    1   1.00
                  0.741470D-01           0.100000D+01
            P    1   1.00
                  0.160000D+01           0.100000D+01
            P    1   1.00
                  0.450000D+00           0.100000D+01
            D    1   1.00
                  0.125000D+01           0.100000D+01
            ****
            -C     0
            S    7   1.00
                  0.785710D+04           0.568250D-03
                  0.117870D+04           0.439150D-02
                  0.268320D+03           0.225040D-01
                  0.759480D+02           0.866530D-01
                  0.245590D+02           0.244050D+00
                  0.862120D+01           0.441480D+00
                  0.312780D+01           0.353320D+00
            S    7   1.00
                  0.117870D+04          -0.594920D-06
                  0.268320D+03          -0.627480D-04
                  0.759480D+02          -0.757730D-03
                  0.245590D+02          -0.733080D-02
                  0.862120D+01          -0.389320D-01
                  0.312780D+01          -0.889080D-01
                  0.822020D+00           0.216890D+00
            S    1   1.00
                  0.330170D+00           0.100000D+01
            S    1   1.00
                  0.114630D+00           0.100000D+01
            P    4   1.00
                  0.337750D+02           0.602940D-02
                  0.767660D+01           0.432280D-01
                  0.223570D+01           0.163010D+00
                  0.764470D+00           0.365040D+00
            P    1   1.00
                  0.262320D+00           0.100000D+01
            P    1   1.00
                  0.846380D-01           0.100000D+01
            D    1   1.00
                  0.140000D+01           0.100000D+01
            D    1   1.00
                  0.450000D+00           0.100000D+01
            F    1   1.00
                  0.950000D+00           0.100000D+01
            ****
            -N     0
            S    7   1.00
                  0.111010D+05           0.545700D-03
                  0.166530D+04           0.421810D-02
                  0.379080D+03           0.216450D-01
                  0.107300D+03           0.837760D-01
                  0.347470D+02           0.238810D+00
                  0.122490D+02           0.439940D+00
                  0.447430D+01           0.363640D+00
            S    7   1.00
                  0.166530D+04          -0.150060D-05
                  0.379080D+03          -0.587530D-04
                  0.107300D+03          -0.774530D-03
                  0.347470D+02          -0.721610D-02
                  0.122490D+02          -0.393380D-01
                  0.447430D+01          -0.906110D-01
                  0.124040D+01           0.198820D+00
            S    1   1.00
                  0.487430D+00           0.100000D+01
            S    1   1.00
                  0.164840D+00           0.100000D+01
            P    4   1.00
                  0.479340D+02           0.617060D-02
                  0.109990D+02           0.442600D-01
                  0.324720D+01           0.168250D+00
                  0.111140D+01           0.368480D+00
            P    1   1.00
                  0.379880D+00           0.100000D+01
            P    1   1.00
                  0.120680D+00           0.100000D+01
            D    1   1.00
                  0.180000D+01           0.100000D+01
            D    1   1.00
                  0.550000D+00           0.100000D+01
            F    1   1.00
                  0.102000D+01           0.100000D+01
            ****
            -O     0
            S    7   1.00
                  0.147820D+05           0.535190D-03
                  0.221730D+04           0.413750D-02
                  0.504740D+03           0.212450D-01
                  0.142870D+03           0.824530D-01
                  0.463000D+02           0.236710D+00
                  0.163370D+02           0.440390D+00
                  0.598280D+01           0.364650D+00
            S    7   1.00
                  0.221730D+04          -0.192750D-05
                  0.504740D+03          -0.579640D-04
                  0.142870D+03          -0.794940D-03
                  0.463000D+02          -0.731250D-02
                  0.163370D+02          -0.405740D-01
                  0.598280D+01          -0.915940D-01
                  0.167180D+01           0.209400D+00
            S    1   1.00
                  0.646620D+00           0.100000D+01
            S    1   1.00
                  0.216690D+00           0.100000D+01
            P    4   1.00
                  0.604240D+02           0.689490D-02
                  0.139350D+02           0.490050D-01
                  0.415310D+01           0.182550D+00
                  0.141580D+01           0.376330D+00
            P    1   1.00
                  0.475490D+00           0.100000D+01
            P    1   1.00
                  0.145290D+00           0.100000D+01
            D    1   1.00
                  0.220000D+01           0.100000D+01
            D    1   1.00
                  0.650000D+00           0.100000D+01
            F    1   1.00
                  0.110000D+01           0.100000D+01
            ****
 Initial command:
 /public3/home/sc51754/softwares/g09e01/l1.exe "./Gau-28006.inp" -scrdir="./"
 Entering Link 1 = /public3/home/sc51754/softwares/g09e01/l1.exe PID=     28007.
  
 Copyright (c) 1988,1990,1992,1993,1995,1998,2003,2009,2015,
            Gaussian, Inc.  All Rights Reserved.
  
 This is part of the Gaussian(R) 09 program.  It is based on
 the Gaussian(R) 03 system (copyright 2003, Gaussian, Inc.),
 the Gaussian(R) 98 system (copyright 1998, Gaussian, Inc.),
 the Gaussian(R) 94 system (copyright 1995, Gaussian, Inc.),
 the Gaussian 92(TM) system (copyright 1992, Gaussian, Inc.),
 the Gaussian 90(TM) system (copyright 1990, Gaussian, Inc.),
 the Gaussian 88(TM) system (copyright 1988, Gaussian, Inc.),
 the Gaussian 86(TM) system (copyright 1986, Carnegie Mellon
 University), and the Gaussian 82(TM) system (copyright 1983,
 Carnegie Mellon University). Gaussian is a federally registered
 trademark of Gaussian, Inc.
  
 This software contains proprietary and confidential information,
 including trade secrets, belonging to Gaussian, Inc.
  
 This software is provided under written license and may be
 used, copied, transmitted, or stored only in accord with that
 written license.
  
 The following legend is applicable only to US Government
 contracts under FAR:
  
                    RESTRICTED RIGHTS LEGEND
  
 Use, reproduction and disclosure by the US Government is
 subject to restrictions as set forth in subparagraphs (a)
 and (c) of the Commercial Computer Software - Restricted
 Rights clause in FAR 52.227-19.
  
 Gaussian, Inc.
 340 Quinnipiac St., Bldg. 40, Wallingford CT 06492
  
  
 ---------------------------------------------------------------
 Warning -- This program may not be used in any manner that
 competes with the business of Gaussian, Inc. or will provide
 assistance to any competitor of Gaussian, Inc.  The licensee
 of this program is prohibited from giving any competitor of
 Gaussian, Inc. access to this program.  By using this program,
 the user acknowledges that Gaussian, Inc. is engaged in the
 business of creating and licensing software in the field of
 computational chemistry and represents and warrants to the
 licensee that it is not a competitor of Gaussian, Inc. and that
 it will not use this program in any manner prohibited above.
 ---------------------------------------------------------------
  

 Cite this work as:
 Gaussian 09, Revision E.01,
 M. J. Frisch, G. W. Trucks, H. B. Schlegel, G. E. Scuseria, 
 M. A. Robb, J. R. Cheeseman, G. Scalmani, V. Barone, B. Mennucci, 
 G. A. Petersson, H. Nakatsuji, M. Caricato, X. Li, H. P. Hratchian, 
 A. F. Izmaylov, J. Bloino, G. Zheng, J. L. Sonnenberg, M. Hada, 
 M. Ehara, K. Toyota, R. Fukuda, J. Hasegawa, M. Ishida, T. Nakajima, 
 Y. Honda, O. Kitao, H. Nakai, T. Vreven, J. A. Montgomery, Jr., 
 J. E. Peralta, F. Ogliaro, M. Bearpark, J. J. Heyd, E. Brothers, 
 K. N. Kudin, V. N. Staroverov, T. Keith, R. Kobayashi, J. Normand, 
 K. Raghavachari, A. Rendell, J. C. Burant, S. S. Iyengar, J. Tomasi, 
 M. Cossi, N. Rega, J. M. Millam, M. Klene, J. E. Knox, J. B. Cross, 
 V. Bakken, C. Adamo, J. Jaramillo, R. Gomperts, R. E. Stratmann, 
 O. Yazyev, A. J. Austin, R. Cammi, C. Pomelli, J. W. Ochterski, 
 R. L. Martin, K. Morokuma, V. G. Zakrzewski, G. A. Voth, 
 P. Salvador, J. J. Dannenberg, S. Dapprich, A. D. Daniels, 
 O. Farkas, J. B. Foresman, J. V. Ortiz, J. Cioslowski, 
 and D. J. Fox, Gaussian, Inc., Wallingford CT, 2013.
 
 ******************************************
 Gaussian 09:  EM64L-G09RevE.01 30-Nov-2015
                27-Aug-2021 
 ******************************************
 %nprocshared=64
 Will use up to   64 processors via shared memory.
 %mem=128GB
 %chk=4HY_TPSSTPSS_PC2_OPT_FREQ.chk
 ------------------------
 #p opt freq TPSSTPSS/gen
 ------------------------
 1/14=-1,18=20,19=15,26=3,38=1/1,3;
 2/9=110,12=2,17=6,18=5,40=1/2;
 3/5=7,11=2,16=1,25=1,30=1,71=1,74=2523/1,2,3;
 4//1;
 5/5=2,38=5/2;
 6/7=2,8=2,9=2,10=2,28=1/1;
 7//1,2,3,16;
 1/14=-1,18=20,19=15,26=3/3(2);
 2/9=110/2;
 99//99;
 2/9=110/2;
 3/5=7,6=1,11=2,16=1,25=1,30=1,71=1,74=2523,82=7/1,2,3;
 4/5=5,16=3,69=1/1;
 5/5=2,38=5/2;
 7//1,2,3,16;
 1/14=-1,18=20,19=15,26=3/3(-5);
 2/9=110/2;
 6/7=2,8=2,9=2,10=2,19=2,28=1/1;
 99/9=1/99;
 Leave Link    1 at Fri Aug 27 21:15:19 2021, MaxMem= 17179869184 cpu:        15.3
 (Enter /public3/home/sc51754/softwares/g09e01/l101.exe)
 -------------------------
 4HY_TPSSTPSS_PC2_OPT_FREQ
 -------------------------
 Symbolic Z-matrix:
 Charge =  0 Multiplicity = 1
 C                     1.15223   1.15341  -0.00011 
 C                    -0.24145   1.18944   0.00003 
 C                    -0.93443  -0.02499   0.00004 
 C                    -0.19715  -1.21307  -0.00009 
 C                     1.19102  -1.12281   0.00022 
 N                     1.87822   0.02956   0.00002 
 H                     1.71189   2.08718  -0.0001 
 H                    -0.77027   2.13945  -0.00002 
 H                    -0.70664  -2.17013  -0.00044 
 H                     1.78719  -2.03343  -0.00024 
 O                    -2.29029  -0.1124   -0.00001 
 H                    -2.6687    0.77737   0.00031 
 
 NAtoms=     12 NQM=       12 NQMF=       0 NMMI=      0 NMMIF=      0
                NMic=       0 NMicF=      0.
                    Isotopes and Nuclear Properties:
 (Nuclear quadrupole moments (NQMom) in fm**2, nuclear magnetic moments (NMagM)
  in nuclear magnetons)

  Atom         1           2           3           4           5           6           7           8           9          10
 IAtWgt=          12          12          12          12          12          14           1           1           1           1
 AtmWgt=  12.0000000  12.0000000  12.0000000  12.0000000  12.0000000  14.0030740   1.0078250   1.0078250   1.0078250   1.0078250
 NucSpn=           0           0           0           0           0           2           1           1           1           1
 AtZEff=   0.0000000   0.0000000   0.0000000   0.0000000   0.0000000   0.0000000   0.0000000   0.0000000   0.0000000   0.0000000
 NQMom=    0.0000000   0.0000000   0.0000000   0.0000000   0.0000000   2.0440000   0.0000000   0.0000000   0.0000000   0.0000000
 NMagM=    0.0000000   0.0000000   0.0000000   0.0000000   0.0000000   0.4037610   2.7928460   2.7928460   2.7928460   2.7928460
 AtZNuc=   6.0000000   6.0000000   6.0000000   6.0000000   6.0000000   7.0000000   1.0000000   1.0000000   1.0000000   1.0000000

  Atom        11          12
 IAtWgt=          16           1
 AtmWgt=  15.9949146   1.0078250
 NucSpn=           0           1
 AtZEff=   0.0000000   0.0000000
 NQMom=    0.0000000   0.0000000
 NMagM=    0.0000000   2.7928460
 AtZNuc=   8.0000000   1.0000000
 Leave Link  101 at Fri Aug 27 21:15:19 2021, MaxMem= 17179869184 cpu:         6.2
 (Enter /public3/home/sc51754/softwares/g09e01/l103.exe)

 GradGradGradGradGradGradGradGradGradGradGradGradGradGradGradGradGradGrad
 Berny optimization.
 Initialization pass.
                           ----------------------------
                           !    Initial Parameters    !
                           ! (Angstroms and Degrees)  !
 --------------------------                            --------------------------
 ! Name  Definition              Value          Derivative Info.                !
 --------------------------------------------------------------------------------
 ! R1    R(1,2)                  1.3941         estimate D2E/DX2                !
 ! R2    R(1,6)                  1.3379         estimate D2E/DX2                !
 ! R3    R(1,7)                  1.0886         estimate D2E/DX2                !
 ! R4    R(2,3)                  1.3982         estimate D2E/DX2                !
 ! R5    R(2,8)                  1.0873         estimate D2E/DX2                !
 ! R6    R(3,4)                  1.3983         estimate D2E/DX2                !
 ! R7    R(3,11)                 1.3587         estimate D2E/DX2                !
 ! R8    R(4,5)                  1.3911         estimate D2E/DX2                !
 ! R9    R(4,9)                  1.0842         estimate D2E/DX2                !
 ! R10   R(5,6)                  1.3417         estimate D2E/DX2                !
 ! R11   R(5,10)                 1.0884         estimate D2E/DX2                !
 ! R12   R(11,12)                0.9669         estimate D2E/DX2                !
 ! A1    A(2,1,6)              124.3426         estimate D2E/DX2                !
 ! A2    A(2,1,7)              119.4556         estimate D2E/DX2                !
 ! A3    A(6,1,7)              116.2018         estimate D2E/DX2                !
 ! A4    A(1,2,3)              118.2292         estimate D2E/DX2                !
 ! A5    A(1,2,8)              120.5831         estimate D2E/DX2                !
 ! A6    A(3,2,8)              121.1877         estimate D2E/DX2                !
 ! A7    A(2,3,4)              118.4682         estimate D2E/DX2                !
 ! A8    A(2,3,11)             123.3985         estimate D2E/DX2                !
 ! A9    A(4,3,11)             118.1333         estimate D2E/DX2                !
 ! A10   A(3,4,5)              118.1015         estimate D2E/DX2                !
 ! A11   A(3,4,9)              120.1493         estimate D2E/DX2                !
 ! A12   A(5,4,9)              121.7493         estimate D2E/DX2                !
 ! A13   A(4,5,6)              124.5296         estimate D2E/DX2                !
 ! A14   A(4,5,10)             119.4914         estimate D2E/DX2                !
 ! A15   A(6,5,10)             115.9789         estimate D2E/DX2                !
 ! A16   A(1,6,5)              116.3289         estimate D2E/DX2                !
 ! A17   A(3,11,12)            109.3507         estimate D2E/DX2                !
 ! D1    D(6,1,2,3)             -0.0135         estimate D2E/DX2                !
 ! D2    D(6,1,2,8)            179.9955         estimate D2E/DX2                !
 ! D3    D(7,1,2,3)           -179.9987         estimate D2E/DX2                !
 ! D4    D(7,1,2,8)              0.0102         estimate D2E/DX2                !
 ! D5    D(2,1,6,5)              0.0039         estimate D2E/DX2                !
 ! D6    D(7,1,6,5)            179.9896         estimate D2E/DX2                !
 ! D7    D(1,2,3,4)              0.0007         estimate D2E/DX2                !
 ! D8    D(1,2,3,11)          -179.9909         estimate D2E/DX2                !
 ! D9    D(8,2,3,4)            179.9917         estimate D2E/DX2                !
 ! D10   D(8,2,3,11)             0.0001         estimate D2E/DX2                !
 ! D11   D(2,3,4,5)              0.0198         estimate D2E/DX2                !
 ! D12   D(2,3,4,9)           -179.978          estimate D2E/DX2                !
 ! D13   D(11,3,4,5)          -179.9882         estimate D2E/DX2                !
 ! D14   D(11,3,4,9)             0.014          estimate D2E/DX2                !
 ! D15   D(2,3,11,12)           -0.0225         estimate D2E/DX2                !
 ! D16   D(4,3,11,12)          179.9859         estimate D2E/DX2                !
 ! D17   D(3,4,5,6)             -0.0313         estimate D2E/DX2                !
 ! D18   D(3,4,5,10)          -179.9777         estimate D2E/DX2                !
 ! D19   D(9,4,5,6)            179.9664         estimate D2E/DX2                !
 ! D20   D(9,4,5,10)             0.0201         estimate D2E/DX2                !
 ! D21   D(4,5,6,1)              0.0192         estimate D2E/DX2                !
 ! D22   D(10,5,6,1)           179.9673         estimate D2E/DX2                !
 --------------------------------------------------------------------------------
 Trust Radius=3.00D-01 FncErr=1.00D-07 GrdErr=1.00D-06
 Number of steps in this run=     61 maximum allowed number of steps=    100.
 GradGradGradGradGradGradGradGradGradGradGradGradGradGradGradGradGradGrad

 Leave Link  103 at Fri Aug 27 21:15:19 2021, MaxMem= 17179869184 cpu:         0.2
 (Enter /public3/home/sc51754/softwares/g09e01/l202.exe)
                          Input orientation:                          
 ---------------------------------------------------------------------
 Center     Atomic      Atomic             Coordinates (Angstroms)
 Number     Number       Type             X           Y           Z
 ---------------------------------------------------------------------
      1          6           0        1.152230    1.153409   -0.000114
      2          6           0       -0.241450    1.189435    0.000028
      3          6           0       -0.934425   -0.024989    0.000035
      4          6           0       -0.197153   -1.213074   -0.000085
      5          6           0        1.191022   -1.122808    0.000218
      6          7           0        1.878221    0.029557    0.000015
      7          1           0        1.711886    2.087182   -0.000101
      8          1           0       -0.770273    2.139452   -0.000016
      9          1           0       -0.706644   -2.170125   -0.000442
     10          1           0        1.787188   -2.033434   -0.000236
     11          8           0       -2.290294   -0.112398   -0.000014
     12          1           0       -2.668700    0.777372    0.000305
 ---------------------------------------------------------------------
                    Distance matrix (angstroms):
                    1          2          3          4          5
     1  C    0.000000
     2  C    1.394146   0.000000
     3  C    2.396404   1.398227   0.000000
     4  C    2.724165   2.402917   1.398255   0.000000
     5  C    2.276548   2.720008   2.392223   1.391107   0.000000
     6  N    1.337949   2.416262   2.813175   2.418948   1.341711
     7  H    1.088645   2.149761   3.385887   3.812626   3.251974
     8  H    2.160625   1.087284   2.170657   3.401161   3.806444
     9  H    3.808056   3.391615   2.157196   1.084218   2.167489
    10  H    3.249483   3.808183   3.382459   2.147231   1.088418
    11  O    3.667866   2.427454   1.358684   2.364895   3.624981
    12  H    3.839389   2.461979   1.910888   3.173393   4.302109
                    6          7          8          9         10
     6  N    0.000000
     7  H    2.064337   0.000000
     8  H    3.386174   2.482709   0.000000
     9  H    3.394131   4.896320   4.310047   0.000000
    10  H    2.064999   4.121304   4.894240   2.497575   0.000000
    11  O    4.170931   4.566793   2.716853   2.596572   4.507354
    12  H    4.608006   4.572213   2.336512   3.540820   5.268355
                   11         12
    11  O    0.000000
    12  H    0.966893   0.000000
 Stoichiometry    C5H5NO
 Framework group  C1[X(C5H5NO)]
 Deg. of freedom    30
 Full point group                 C1      NOp   1
 Largest Abelian subgroup         C1      NOp   1
 Largest concise Abelian subgroup C1      NOp   1
                         Standard orientation:                         
 ---------------------------------------------------------------------
 Center     Atomic      Atomic             Coordinates (Angstroms)
 Number     Number       Type             X           Y           Z
 ---------------------------------------------------------------------
      1          6           0       -1.152230    1.153409    0.000114
      2          6           0        0.241450    1.189435   -0.000028
      3          6           0        0.934425   -0.024989   -0.000035
      4          6           0        0.197153   -1.213074    0.000085
      5          6           0       -1.191022   -1.122808   -0.000218
      6          7           0       -1.878221    0.029557   -0.000015
      7          1           0       -1.711887    2.087182    0.000101
      8          1           0        0.770272    2.139452    0.000016
      9          1           0        0.706644   -2.170125    0.000442
     10          1           0       -1.787188   -2.033434    0.000236
     11          8           0        2.290294   -0.112397    0.000014
     12          1           0        2.668700    0.777373   -0.000305
 ---------------------------------------------------------------------
 Rotational constants (GHZ):      5.9862655      2.6268417      1.8257026
 Leave Link  202 at Fri Aug 27 21:15:20 2021, MaxMem= 17179869184 cpu:         4.8
 (Enter /public3/home/sc51754/softwares/g09e01/l301.exe)
 General basis read from cards:  (5D, 7F)
 Centers:       7      8      9     10     12
 S 4 1.00
     Exponent=  7.5423000000D+01 Coefficients=  2.4065000000D-03
     Exponent=  1.1350000000D+01 Coefficients=  1.8487000000D-02
     Exponent=  2.5993000000D+00 Coefficients=  8.9742000000D-02
     Exponent=  7.3513000000D-01 Coefficients=  2.8111000000D-01
 S 1 1.00
     Exponent=  2.3167000000D-01 Coefficients=  1.0000000000D+00
 S 1 1.00
     Exponent=  7.4147000000D-02 Coefficients=  1.0000000000D+00
 P 1 1.00
     Exponent=  1.6000000000D+00 Coefficients=  1.0000000000D+00
 P 1 1.00
     Exponent=  4.5000000000D-01 Coefficients=  1.0000000000D+00
 D 1 1.00
     Exponent=  1.2500000000D+00 Coefficients=  1.0000000000D+00
 ****
 Centers:       1      2      3      4      5
 S 7 1.00
     Exponent=  7.8571000000D+03 Coefficients=  5.6825000000D-04
     Exponent=  1.1787000000D+03 Coefficients=  4.3915000000D-03
     Exponent=  2.6832000000D+02 Coefficients=  2.2504000000D-02
     Exponent=  7.5948000000D+01 Coefficients=  8.6653000000D-02
     Exponent=  2.4559000000D+01 Coefficients=  2.4405000000D-01
     Exponent=  8.6212000000D+00 Coefficients=  4.4148000000D-01
     Exponent=  3.1278000000D+00 Coefficients=  3.5332000000D-01
 S 7 1.00
     Exponent=  1.1787000000D+03 Coefficients= -5.9492000000D-07
     Exponent=  2.6832000000D+02 Coefficients= -6.2748000000D-05
     Exponent=  7.5948000000D+01 Coefficients= -7.5773000000D-04
     Exponent=  2.4559000000D+01 Coefficients= -7.3308000000D-03
     Exponent=  8.6212000000D+00 Coefficients= -3.8932000000D-02
     Exponent=  3.1278000000D+00 Coefficients= -8.8908000000D-02
     Exponent=  8.2202000000D-01 Coefficients=  2.1689000000D-01
 S 1 1.00
     Exponent=  3.3017000000D-01 Coefficients=  1.0000000000D+00
 S 1 1.00
     Exponent=  1.1463000000D-01 Coefficients=  1.0000000000D+00
 P 4 1.00
     Exponent=  3.3775000000D+01 Coefficients=  6.0294000000D-03
     Exponent=  7.6766000000D+00 Coefficients=  4.3228000000D-02
     Exponent=  2.2357000000D+00 Coefficients=  1.6301000000D-01
     Exponent=  7.6447000000D-01 Coefficients=  3.6504000000D-01
 P 1 1.00
     Exponent=  2.6232000000D-01 Coefficients=  1.0000000000D+00
 P 1 1.00
     Exponent=  8.4638000000D-02 Coefficients=  1.0000000000D+00
 D 1 1.00
     Exponent=  1.4000000000D+00 Coefficients=  1.0000000000D+00
 D 1 1.00
     Exponent=  4.5000000000D-01 Coefficients=  1.0000000000D+00
 F 1 1.00
     Exponent=  9.5000000000D-01 Coefficients=  1.0000000000D+00
 ****
 Centers:       6
 S 7 1.00
     Exponent=  1.1101000000D+04 Coefficients=  5.4570000000D-04
     Exponent=  1.6653000000D+03 Coefficients=  4.2181000000D-03
     Exponent=  3.7908000000D+02 Coefficients=  2.1645000000D-02
     Exponent=  1.0730000000D+02 Coefficients=  8.3776000000D-02
     Exponent=  3.4747000000D+01 Coefficients=  2.3881000000D-01
     Exponent=  1.2249000000D+01 Coefficients=  4.3994000000D-01
     Exponent=  4.4743000000D+00 Coefficients=  3.6364000000D-01
 S 7 1.00
     Exponent=  1.6653000000D+03 Coefficients= -1.5006000000D-06
     Exponent=  3.7908000000D+02 Coefficients= -5.8753000000D-05
     Exponent=  1.0730000000D+02 Coefficients= -7.7453000000D-04
     Exponent=  3.4747000000D+01 Coefficients= -7.2161000000D-03
     Exponent=  1.2249000000D+01 Coefficients= -3.9338000000D-02
     Exponent=  4.4743000000D+00 Coefficients= -9.0611000000D-02
     Exponent=  1.2404000000D+00 Coefficients=  1.9882000000D-01
 S 1 1.00
     Exponent=  4.8743000000D-01 Coefficients=  1.0000000000D+00
 S 1 1.00
     Exponent=  1.6484000000D-01 Coefficients=  1.0000000000D+00
 P 4 1.00
     Exponent=  4.7934000000D+01 Coefficients=  6.1706000000D-03
     Exponent=  1.0999000000D+01 Coefficients=  4.4260000000D-02
     Exponent=  3.2472000000D+00 Coefficients=  1.6825000000D-01
     Exponent=  1.1114000000D+00 Coefficients=  3.6848000000D-01
 P 1 1.00
     Exponent=  3.7988000000D-01 Coefficients=  1.0000000000D+00
 P 1 1.00
     Exponent=  1.2068000000D-01 Coefficients=  1.0000000000D+00
 D 1 1.00
     Exponent=  1.8000000000D+00 Coefficients=  1.0000000000D+00
 D 1 1.00
     Exponent=  5.5000000000D-01 Coefficients=  1.0000000000D+00
 F 1 1.00
     Exponent=  1.0200000000D+00 Coefficients=  1.0000000000D+00
 ****
 Centers:      11
 S 7 1.00
     Exponent=  1.4782000000D+04 Coefficients=  5.3519000000D-04
     Exponent=  2.2173000000D+03 Coefficients=  4.1375000000D-03
     Exponent=  5.0474000000D+02 Coefficients=  2.1245000000D-02
     Exponent=  1.4287000000D+02 Coefficients=  8.2453000000D-02
     Exponent=  4.6300000000D+01 Coefficients=  2.3671000000D-01
     Exponent=  1.6337000000D+01 Coefficients=  4.4039000000D-01
     Exponent=  5.9828000000D+00 Coefficients=  3.6465000000D-01
 S 7 1.00
     Exponent=  2.2173000000D+03 Coefficients= -1.9275000000D-06
     Exponent=  5.0474000000D+02 Coefficients= -5.7964000000D-05
     Exponent=  1.4287000000D+02 Coefficients= -7.9494000000D-04
     Exponent=  4.6300000000D+01 Coefficients= -7.3125000000D-03
     Exponent=  1.6337000000D+01 Coefficients= -4.0574000000D-02
     Exponent=  5.9828000000D+00 Coefficients= -9.1594000000D-02
     Exponent=  1.6718000000D+00 Coefficients=  2.0940000000D-01
 S 1 1.00
     Exponent=  6.4662000000D-01 Coefficients=  1.0000000000D+00
 S 1 1.00
     Exponent=  2.1669000000D-01 Coefficients=  1.0000000000D+00
 P 4 1.00
     Exponent=  6.0424000000D+01 Coefficients=  6.8949000000D-03
     Exponent=  1.3935000000D+01 Coefficients=  4.9005000000D-02
     Exponent=  4.1531000000D+00 Coefficients=  1.8255000000D-01
     Exponent=  1.4158000000D+00 Coefficients=  3.7633000000D-01
 P 1 1.00
     Exponent=  4.7549000000D-01 Coefficients=  1.0000000000D+00
 P 1 1.00
     Exponent=  1.4529000000D-01 Coefficients=  1.0000000000D+00
 D 1 1.00
     Exponent=  2.2000000000D+00 Coefficients=  1.0000000000D+00
 D 1 1.00
     Exponent=  6.5000000000D-01 Coefficients=  1.0000000000D+00
 F 1 1.00
     Exponent=  1.1000000000D+00 Coefficients=  1.0000000000D+00
 ****
 Ernie: Thresh=  0.10000D-02 Tol=  0.10000D-05 Strict=F.
 Ernie:  7 primitive shells out of 220 were deleted.
 There are   320 symmetry adapted cartesian basis functions of A   symmetry.
 There are   280 symmetry adapted basis functions of A   symmetry.
   280 basis functions,   475 primitive gaussians,   320 cartesian basis functions
    25 alpha electrons       25 beta electrons
       nuclear repulsion energy       273.7666329457 Hartrees.
 IExCor= 2523 DFT=T Ex=TPSS Corr=TPSS ExCW=0 ScaHFX=  0.000000
 ScaDFX=  1.000000  1.000000  1.000000  1.000000 ScalE2=  1.000000  1.000000
 IRadAn=      0 IRanWt=     -1 IRanGd=            0 ICorTp=0 IEmpDi=  4
 NAtoms=   12 NActive=   12 NUniq=   12 SFac= 1.00D+00 NAtFMM=   60 NAOKFM=F Big=F
 Integral buffers will be    131072 words long.
 Raffenetti 2 integral format.
 Two-electron integral symmetry is turned on.
 Leave Link  301 at Fri Aug 27 21:15:20 2021, MaxMem= 17179869184 cpu:         4.0
 (Enter /public3/home/sc51754/softwares/g09e01/l302.exe)
 NPDir=0 NMtPBC=     1 NCelOv=     1 NCel=       1 NClECP=     1 NCelD=      1
         NCelK=      1 NCelE2=     1 NClLst=     1 CellRange=     0.0.
 One-electron integrals computed using PRISM.
 NBasis=   280 RedAO= T EigKep=  2.00D-04  NBF=   280
 NBsUse=   280 1.00D-06 EigRej= -1.00D+00 NBFU=   280
 Precomputing XC quadrature grid using
 IXCGrd= 4 IRadAn=           0 IRanWt=          -1 IRanGd=           0 AccXCQ= 0.00D+00.
 Generated NRdTot=       0 NPtTot=           0 NUsed=           0 NTot=          32
 NSgBfM=   320   320   320   320   320 MxSgAt=    12 MxSgA2=    12.
 Leave Link  302 at Fri Aug 27 21:15:20 2021, MaxMem= 17179869184 cpu:        38.0
 (Enter /public3/home/sc51754/softwares/g09e01/l303.exe)
 DipDrv:  MaxL=1.
 Leave Link  303 at Fri Aug 27 21:15:21 2021, MaxMem= 17179869184 cpu:        12.8
 (Enter /public3/home/sc51754/softwares/g09e01/l401.exe)
 ExpMin= 7.41D-02 ExpMax= 1.48D+04 ExpMxC= 5.05D+02 IAcc=2 IRadAn=         4 AccDes= 0.00D+00
 Harris functional with IExCor= 1009 and IRadAn=       4 diagonalized for initial guess.
 HarFok:  IExCor= 1009 AccDes= 0.00D+00 IRadAn=         4 IDoV= 1 UseB2=F ITyADJ=14
 ICtDFT=  3500011 ScaDFX=  1.000000  1.000000  1.000000  1.000000
 FoFCou: FMM=F IPFlag=           0 FMFlag=      100000 FMFlg1=           0
         NFxFlg=           0 DoJE=T BraDBF=F KetDBF=T FulRan=T
         wScrn=  0.000000 ICntrl=     500 IOpCl=  0 I1Cent=   200000004 NGrid=           0
         NMat0=    1 NMatS0=      1 NMatT0=    0 NMatD0=    1 NMtDS0=    0 NMtDT0=    0
 Petite list used in FoFCou.
 Harris En= -323.354402034469    
 JPrj=0 DoOrth=F DoCkMO=F.
 Leave Link  401 at Fri Aug 27 21:15:22 2021, MaxMem= 17179869184 cpu:        53.7
 (Enter /public3/home/sc51754/softwares/g09e01/l502.exe)
 Closed shell SCF:
 Using DIIS extrapolation, IDIIS=  1040.
 Integral symmetry usage will be decided dynamically.
 Keep J ints in memory in canonical form, NReq=790723944.
 IVT=      348554 IEndB=      348554 NGot= 17179869184 MDV= 16405683161
 LenX= 16405683161 LenY= 16405580320
 Requested convergence on RMS density matrix=1.00D-08 within 128 cycles.
 Requested convergence on MAX density matrix=1.00D-06.
 Requested convergence on             energy=1.00D-06.
 No special actions if energy rises.
 FoFCou: FMM=F IPFlag=           0 FMFlag=           0 FMFlg1=           0
         NFxFlg=           0 DoJE=F BraDBF=F KetDBF=F FulRan=T
         wScrn=  0.000000 ICntrl=     600 IOpCl=  0 I1Cent=           0 NGrid=           0
         NMat0=    1 NMatS0=  39340 NMatT0=    0 NMatD0=    1 NMtDS0=    0 NMtDT0=    0
 Symmetry not used in FoFCou.
 Integral accuracy reduced to 1.0D-05 until final iterations.

 Cycle   1  Pass 0  IDiag  1:
 E= -323.561153163339    
 DIIS: error= 2.67D-02 at cycle   1 NSaved=   1.
 NSaved= 1 IEnMin= 1 EnMin= -323.561153163339     IErMin= 1 ErrMin= 2.67D-02
 ErrMax= 2.67D-02  0.00D+00 EMaxC= 1.00D-01 BMatC= 1.39D-01 BMatP= 1.39D-01
 IDIUse=3 WtCom= 7.33D-01 WtEn= 2.67D-01
 Coeff-Com:  0.100D+01
 Coeff-En:   0.100D+01
 Coeff:      0.100D+01
 Gap=     0.181 Goal=   None    Shift=    0.000
 GapD=    0.181 DampG=1.000 DampE=0.500 DampFc=0.5000 IDamp=-1.
 Damping current iteration by 5.00D-01
 RMSDP=3.14D-03 MaxDP=1.12D-01              OVMax= 1.90D-01

 Cycle   2  Pass 0  IDiag  1:
 E= -323.606639096222     Delta-E=       -0.045485932883 Rises=F Damp=T
 DIIS: error= 6.59D-03 at cycle   2 NSaved=   2.
 NSaved= 2 IEnMin= 2 EnMin= -323.606639096222     IErMin= 2 ErrMin= 6.59D-03
 ErrMax= 6.59D-03  0.00D+00 EMaxC= 1.00D-01 BMatC= 1.41D-02 BMatP= 1.39D-01
 IDIUse=3 WtCom= 9.34D-01 WtEn= 6.59D-02
 Coeff-Com:  0.139D+00 0.861D+00
 Coeff-En:   0.265D+00 0.735D+00
 Coeff:      0.147D+00 0.853D+00
 Gap=     0.220 Goal=   None    Shift=    0.000
 RMSDP=8.12D-04 MaxDP=2.73D-02 DE=-4.55D-02 OVMax= 1.54D-01

 Cycle   3  Pass 0  IDiag  1:
 E= -323.680295088163     Delta-E=       -0.073655991941 Rises=F Damp=F
 DIIS: error= 7.06D-03 at cycle   3 NSaved=   3.
 NSaved= 3 IEnMin= 3 EnMin= -323.680295088163     IErMin= 2 ErrMin= 6.59D-03
 ErrMax= 7.06D-03  0.00D+00 EMaxC= 1.00D-01 BMatC= 1.01D-02 BMatP= 1.41D-02
 IDIUse=3 WtCom= 9.29D-01 WtEn= 7.06D-02
 Coeff-Com:  0.153D-01 0.449D+00 0.535D+00
 Coeff-En:   0.000D+00 0.000D+00 0.100D+01
 Coeff:      0.143D-01 0.418D+00 0.568D+00
 Gap=     0.185 Goal=   None    Shift=    0.000
 RMSDP=5.01D-04 MaxDP=2.43D-02 DE=-7.37D-02 OVMax= 9.04D-02

 Cycle   4  Pass 0  IDiag  1:
 E= -323.681357814609     Delta-E=       -0.001062726446 Rises=F Damp=F
 DIIS: error= 7.77D-03 at cycle   4 NSaved=   4.
 NSaved= 4 IEnMin= 4 EnMin= -323.681357814609     IErMin= 2 ErrMin= 6.59D-03
 ErrMax= 7.77D-03  0.00D+00 EMaxC= 1.00D-01 BMatC= 8.49D-03 BMatP= 1.01D-02
 IDIUse=3 WtCom= 9.22D-01 WtEn= 7.77D-02
 Coeff-Com: -0.201D-01 0.147D+00 0.463D+00 0.410D+00
 Coeff-En:   0.000D+00 0.000D+00 0.479D+00 0.521D+00
 Coeff:     -0.185D-01 0.136D+00 0.465D+00 0.418D+00
 Gap=     0.175 Goal=   None    Shift=    0.000
 RMSDP=3.06D-04 MaxDP=1.22D-02 DE=-1.06D-03 OVMax= 4.55D-02

 Cycle   5  Pass 0  IDiag  1:
 E= -323.689826175798     Delta-E=       -0.008468361188 Rises=F Damp=F
 DIIS: error= 1.94D-03 at cycle   5 NSaved=   5.
 NSaved= 5 IEnMin= 5 EnMin= -323.689826175798     IErMin= 5 ErrMin= 1.94D-03
 ErrMax= 1.94D-03  0.00D+00 EMaxC= 1.00D-01 BMatC= 2.98D-04 BMatP= 8.49D-03
 IDIUse=3 WtCom= 9.81D-01 WtEn= 1.94D-02
 Coeff-Com: -0.100D-01 0.364D-01 0.211D+00 0.242D+00 0.521D+00
 Coeff-En:   0.000D+00 0.000D+00 0.000D+00 0.000D+00 0.100D+01
 Coeff:     -0.982D-02 0.357D-01 0.207D+00 0.237D+00 0.530D+00
 Gap=     0.173 Goal=   None    Shift=    0.000
 RMSDP=7.32D-05 MaxDP=2.52D-03 DE=-8.47D-03 OVMax= 1.19D-02

 Cycle   6  Pass 0  IDiag  1:
 E= -323.690068899187     Delta-E=       -0.000242723390 Rises=F Damp=F
 DIIS: error= 6.47D-04 at cycle   6 NSaved=   6.
 NSaved= 6 IEnMin= 6 EnMin= -323.690068899187     IErMin= 6 ErrMin= 6.47D-04
 ErrMax= 6.47D-04  0.00D+00 EMaxC= 1.00D-01 BMatC= 7.44D-05 BMatP= 2.98D-04
 IDIUse=3 WtCom= 9.94D-01 WtEn= 6.47D-03
 Coeff-Com: -0.490D-02 0.872D-02 0.897D-01 0.115D+00 0.372D+00 0.420D+00
 Coeff-En:   0.000D+00 0.000D+00 0.000D+00 0.000D+00 0.218D+00 0.782D+00
 Coeff:     -0.487D-02 0.866D-02 0.891D-01 0.114D+00 0.371D+00 0.422D+00
 Gap=     0.173 Goal=   None    Shift=    0.000
 RMSDP=2.51D-05 MaxDP=8.16D-04 DE=-2.43D-04 OVMax= 3.63D-03

 Cycle   7  Pass 0  IDiag  1:
 E= -323.690142213264     Delta-E=       -0.000073314077 Rises=F Damp=F
 DIIS: error= 1.15D-04 at cycle   7 NSaved=   7.
 NSaved= 7 IEnMin= 7 EnMin= -323.690142213264     IErMin= 7 ErrMin= 1.15D-04
 ErrMax= 1.15D-04  0.00D+00 EMaxC= 1.00D-01 BMatC= 2.48D-06 BMatP= 7.44D-05
 IDIUse=3 WtCom= 9.99D-01 WtEn= 1.15D-03
 Coeff-Com: -0.237D-02 0.345D-02 0.434D-01 0.567D-01 0.195D+00 0.245D+00
 Coeff-Com:  0.459D+00
 Coeff-En:   0.000D+00 0.000D+00 0.000D+00 0.000D+00 0.000D+00 0.000D+00
 Coeff-En:   0.100D+01
 Coeff:     -0.237D-02 0.345D-02 0.433D-01 0.566D-01 0.195D+00 0.245D+00
 Coeff:      0.459D+00
 Gap=     0.173 Goal=   None    Shift=    0.000
 RMSDP=6.00D-06 MaxDP=2.25D-04 DE=-7.33D-05 OVMax= 9.31D-04

 Initial convergence to 1.0D-05 achieved.  Increase integral accuracy.
 Cycle   8  Pass 1  IDiag  1:
 E= -323.690133576863     Delta-E=        0.000008636401 Rises=F Damp=F
 DIIS: error= 4.87D-05 at cycle   1 NSaved=   1.
 NSaved= 1 IEnMin= 1 EnMin= -323.690133576863     IErMin= 1 ErrMin= 4.87D-05
 ErrMax= 4.87D-05  0.00D+00 EMaxC= 1.00D-01 BMatC= 6.35D-07 BMatP= 6.35D-07
 IDIUse=1 WtCom= 1.00D+00 WtEn= 0.00D+00
 Coeff-Com:  0.100D+01
 Coeff:      0.100D+01
 Gap=     0.173 Goal=   None    Shift=    0.000
 RMSDP=6.00D-06 MaxDP=2.25D-04 DE= 8.64D-06 OVMax= 1.02D-03

 Cycle   9  Pass 1  IDiag  1:
 E= -323.690131879240     Delta-E=        0.000001697624 Rises=F Damp=F
 DIIS: error= 1.19D-04 at cycle   2 NSaved=   2.
 NSaved= 2 IEnMin= 1 EnMin= -323.690133576863     IErMin= 1 ErrMin= 4.87D-05
 ErrMax= 1.19D-04  0.00D+00 EMaxC= 1.00D-01 BMatC= 2.09D-06 BMatP= 6.35D-07
 IDIUse=3 WtCom= 4.78D-01 WtEn= 5.22D-01
 Coeff-Com:  0.662D+00 0.338D+00
 Coeff-En:   0.753D+00 0.247D+00
 Coeff:      0.709D+00 0.291D+00
 Gap=     0.173 Goal=   None    Shift=    0.000
 RMSDP=4.04D-06 MaxDP=1.52D-04 DE= 1.70D-06 OVMax= 6.89D-04

 Cycle  10  Pass 1  IDiag  1:
 E= -323.690134220538     Delta-E=       -0.000002341298 Rises=F Damp=F
 DIIS: error= 1.05D-05 at cycle   3 NSaved=   3.
 NSaved= 3 IEnMin= 3 EnMin= -323.690134220538     IErMin= 3 ErrMin= 1.05D-05
 ErrMax= 1.05D-05  0.00D+00 EMaxC= 1.00D-01 BMatC= 1.70D-08 BMatP= 6.35D-07
 IDIUse=1 WtCom= 1.00D+00 WtEn= 0.00D+00
 Coeff-Com:  0.103D+00 0.348D-01 0.863D+00
 Coeff:      0.103D+00 0.348D-01 0.863D+00
 Gap=     0.173 Goal=   None    Shift=    0.000
 RMSDP=7.78D-07 MaxDP=3.81D-05 DE=-2.34D-06 OVMax= 1.31D-04

 Cycle  11  Pass 1  IDiag  1:
 E= -323.690134203987     Delta-E=        0.000000016551 Rises=F Damp=F
 DIIS: error= 1.71D-05 at cycle   4 NSaved=   4.
 NSaved= 4 IEnMin= 3 EnMin= -323.690134220538     IErMin= 3 ErrMin= 1.05D-05
 ErrMax= 1.71D-05  0.00D+00 EMaxC= 1.00D-01 BMatC= 3.16D-08 BMatP= 1.70D-08
 IDIUse=1 WtCom= 1.00D+00 WtEn= 0.00D+00
 Coeff-Com: -0.851D-02-0.164D-01 0.595D+00 0.429D+00
 Coeff:     -0.851D-02-0.164D-01 0.595D+00 0.429D+00
 Gap=     0.173 Goal=   None    Shift=    0.000
 RMSDP=5.49D-07 MaxDP=2.59D-05 DE= 1.66D-08 OVMax= 1.02D-04

 Cycle  12  Pass 1  IDiag  1:
 E= -323.690134234994     Delta-E=       -0.000000031007 Rises=F Damp=F
 DIIS: error= 4.89D-06 at cycle   5 NSaved=   5.
 NSaved= 5 IEnMin= 5 EnMin= -323.690134234994     IErMin= 5 ErrMin= 4.89D-06
 ErrMax= 4.89D-06  0.00D+00 EMaxC= 1.00D-01 BMatC= 1.63D-09 BMatP= 1.70D-08
 IDIUse=1 WtCom= 1.00D+00 WtEn= 0.00D+00
 Coeff-Com: -0.939D-02-0.115D-01 0.350D+00 0.283D+00 0.388D+00
 Coeff:     -0.939D-02-0.115D-01 0.350D+00 0.283D+00 0.388D+00
 Gap=     0.173 Goal=   None    Shift=    0.000
 RMSDP=1.59D-07 MaxDP=4.94D-06 DE=-3.10D-08 OVMax= 2.52D-05

 Cycle  13  Pass 1  IDiag  1:
 E= -323.690134236597     Delta-E=       -0.000000001603 Rises=F Damp=F
 DIIS: error= 9.73D-07 at cycle   6 NSaved=   6.
 NSaved= 6 IEnMin= 6 EnMin= -323.690134236597     IErMin= 6 ErrMin= 9.73D-07
 ErrMax= 9.73D-07  0.00D+00 EMaxC= 1.00D-01 BMatC= 2.48D-10 BMatP= 1.63D-09
 IDIUse=1 WtCom= 1.00D+00 WtEn= 0.00D+00
 Coeff-Com: -0.596D-02-0.606D-02 0.170D+00 0.147D+00 0.281D+00 0.414D+00
 Coeff:     -0.596D-02-0.606D-02 0.170D+00 0.147D+00 0.281D+00 0.414D+00
 Gap=     0.173 Goal=   None    Shift=    0.000
 RMSDP=4.51D-08 MaxDP=2.08D-06 DE=-1.60D-09 OVMax= 8.57D-06

 Cycle  14  Pass 1  IDiag  1:
 E= -323.690134236849     Delta-E=       -0.000000000252 Rises=F Damp=F
 DIIS: error= 1.65D-07 at cycle   7 NSaved=   7.
 NSaved= 7 IEnMin= 7 EnMin= -323.690134236849     IErMin= 7 ErrMin= 1.65D-07
 ErrMax= 1.65D-07  0.00D+00 EMaxC= 1.00D-01 BMatC= 7.47D-12 BMatP= 2.48D-10
 IDIUse=1 WtCom= 1.00D+00 WtEn= 0.00D+00
 Coeff-Com: -0.216D-02-0.195D-02 0.556D-01 0.505D-01 0.108D+00 0.211D+00
 Coeff-Com:  0.579D+00
 Coeff:     -0.216D-02-0.195D-02 0.556D-01 0.505D-01 0.108D+00 0.211D+00
 Coeff:      0.579D+00
 Gap=     0.173 Goal=   None    Shift=    0.000
 RMSDP=1.21D-08 MaxDP=5.05D-07 DE=-2.52D-10 OVMax= 1.22D-06

 Cycle  15  Pass 1  IDiag  1:
 E= -323.690134236854     Delta-E=       -0.000000000005 Rises=F Damp=F
 DIIS: error= 7.29D-08 at cycle   8 NSaved=   8.
 NSaved= 8 IEnMin= 8 EnMin= -323.690134236854     IErMin= 8 ErrMin= 7.29D-08
 ErrMax= 7.29D-08  0.00D+00 EMaxC= 1.00D-01 BMatC= 1.54D-12 BMatP= 7.47D-12
 IDIUse=1 WtCom= 1.00D+00 WtEn= 0.00D+00
 Coeff-Com: -0.361D-03-0.194D-03 0.609D-02 0.650D-02 0.187D-01 0.572D-01
 Coeff-Com:  0.350D+00 0.562D+00
 Coeff:     -0.361D-03-0.194D-03 0.609D-02 0.650D-02 0.187D-01 0.572D-01
 Coeff:      0.350D+00 0.562D+00
 Gap=     0.173 Goal=   None    Shift=    0.000
 RMSDP=4.04D-09 MaxDP=1.78D-07 DE=-4.77D-12 OVMax= 3.84D-07

 SCF Done:  E(RTPSS-TPSS) =  -323.690134237     A.U. after   15 cycles
            NFock= 15  Conv=0.40D-08     -V/T= 2.0041
 KE= 3.223544752811D+02 PE=-1.302629050304D+03 EE= 3.828178078402D+02
 Leave Link  502 at Fri Aug 27 21:15:36 2021, MaxMem= 17179869184 cpu:       234.7
 (Enter /public3/home/sc51754/softwares/g09e01/l601.exe)
 Copying SCF densities to generalized density rwf, IOpCl= 0 IROHF=0.

 **********************************************************************

            Population analysis using the SCF density.

 **********************************************************************

 Orbital symmetries:
       Occupied  (A) (A) (A) (A) (A) (A) (A) (A) (A) (A) (A) (A)
                 (A) (A) (A) (A) (A) (A) (A) (A) (A) (A) (A) (A)
                 (A)
       Virtual   (A) (A) (A) (A) (A) (A) (A) (A) (A) (A) (A) (A)
                 (A) (A) (A) (A) (A) (A) (A) (A) (A) (A) (A) (A)
                 (A) (A) (A) (A) (A) (A) (A) (A) (A) (A) (A) (A)
                 (A) (A) (A) (A) (A) (A) (A) (A) (A) (A) (A) (A)
                 (A) (A) (A) (A) (A) (A) (A) (A) (A) (A) (A) (A)
                 (A) (A) (A) (A) (A) (A) (A) (A) (A) (A) (A) (A)
                 (A) (A) (A) (A) (A) (A) (A) (A) (A) (A) (A) (A)
                 (A) (A) (A) (A) (A) (A) (A) (A) (A) (A) (A) (A)
                 (A) (A) (A) (A) (A) (A) (A) (A) (A) (A) (A) (A)
                 (A) (A) (A) (A) (A) (A) (A) (A) (A) (A) (A) (A)
                 (A) (A) (A) (A) (A) (A) (A) (A) (A) (A) (A) (A)
                 (A) (A) (A) (A) (A) (A) (A) (A) (A) (A) (A) (A)
                 (A) (A) (A) (A) (A) (A) (A) (A) (A) (A) (A) (A)
                 (A) (A) (A) (A) (A) (A) (A) (A) (A) (A) (A) (A)
                 (A) (A) (A) (A) (A) (A) (A) (A) (A) (A) (A) (A)
                 (A) (A) (A) (A) (A) (A) (A) (A) (A) (A) (A) (A)
                 (A) (A) (A) (A) (A) (A) (A) (A) (A) (A) (A) (A)
                 (A) (A) (A) (A) (A) (A) (A) (A) (A) (A) (A) (A)
                 (A) (A) (A) (A) (A) (A) (A) (A) (A) (A) (A) (A)
                 (A) (A) (A) (A) (A) (A) (A) (A) (A) (A) (A) (A)
                 (A) (A) (A) (A) (A) (A) (A) (A) (A) (A) (A) (A)
                 (A) (A) (A)
 The electronic state is 1-A.
 Alpha  occ. eigenvalues --  -18.93485 -14.09189 -10.07126 -10.02700 -10.02496
 Alpha  occ. eigenvalues --  -10.00430  -9.99862  -1.01787  -0.87621  -0.74342
 Alpha  occ. eigenvalues --   -0.71172  -0.60253  -0.58214  -0.52127  -0.46319
 Alpha  occ. eigenvalues --   -0.44360  -0.41222  -0.39400  -0.39227  -0.36814
 Alpha  occ. eigenvalues --   -0.33823  -0.32124  -0.24581  -0.23237  -0.22200
 Alpha virt. eigenvalues --   -0.04941  -0.04609  -0.01277   0.02211   0.03427
 Alpha virt. eigenvalues --    0.06941   0.07070   0.09427   0.11216   0.11900
 Alpha virt. eigenvalues --    0.15073   0.16465   0.17383   0.18413   0.19218
 Alpha virt. eigenvalues --    0.20732   0.21186   0.21332   0.23768   0.25841
 Alpha virt. eigenvalues --    0.26159   0.27283   0.27476   0.28932   0.30464
 Alpha virt. eigenvalues --    0.31524   0.32073   0.32685   0.33631   0.35659
 Alpha virt. eigenvalues --    0.36307   0.39736   0.41202   0.43980   0.45109
 Alpha virt. eigenvalues --    0.47316   0.49051   0.52376   0.53629   0.56302
 Alpha virt. eigenvalues --    0.57623   0.58091   0.61304   0.62659   0.62992
 Alpha virt. eigenvalues --    0.66677   0.68866   0.71163   0.73214   0.78452
 Alpha virt. eigenvalues --    0.80021   0.81493   0.83660   0.85735   0.87463
 Alpha virt. eigenvalues --    0.91904   0.93410   0.93563   0.95310   0.99433
 Alpha virt. eigenvalues --    1.01325   1.05224   1.08111   1.08272   1.10525
 Alpha virt. eigenvalues --    1.11170   1.12041   1.13846   1.15097   1.16579
 Alpha virt. eigenvalues --    1.20969   1.21430   1.26291   1.26976   1.27651
 Alpha virt. eigenvalues --    1.29617   1.31605   1.39009   1.39747   1.41717
 Alpha virt. eigenvalues --    1.43102   1.44045   1.46809   1.52032   1.54275
 Alpha virt. eigenvalues --    1.55187   1.56653   1.56835   1.60937   1.63945
 Alpha virt. eigenvalues --    1.64218   1.66044   1.68522   1.70271   1.73317
 Alpha virt. eigenvalues --    1.74649   1.75715   1.78770   1.81187   1.82040
 Alpha virt. eigenvalues --    1.82626   1.89749   1.92036   1.94454   1.94499
 Alpha virt. eigenvalues --    2.00522   2.05650   2.06472   2.14349   2.17022
 Alpha virt. eigenvalues --    2.18051   2.20705   2.23226   2.25333   2.28347
 Alpha virt. eigenvalues --    2.32837   2.38117   2.52463   2.56119   2.76123
 Alpha virt. eigenvalues --    2.84056   2.88329   2.94447   2.96185   3.10320
 Alpha virt. eigenvalues --    3.13764   3.19360   3.22204   3.24008   3.26112
 Alpha virt. eigenvalues --    3.30924   3.31386   3.32829   3.35480   3.38311
 Alpha virt. eigenvalues --    3.40275   3.42703   3.47712   3.51119   3.52671
 Alpha virt. eigenvalues --    3.56071   3.60084   3.61674   3.63997   3.68257
 Alpha virt. eigenvalues --    3.71021   3.73784   3.76318   3.77685   3.79779
 Alpha virt. eigenvalues --    3.81836   3.85774   3.88390   3.92193   4.00069
 Alpha virt. eigenvalues --    4.02625   4.02684   4.03514   4.06699   4.07681
 Alpha virt. eigenvalues --    4.08812   4.11294   4.12908   4.14521   4.16276
 Alpha virt. eigenvalues --    4.17268   4.17842   4.20947   4.23171   4.25260
 Alpha virt. eigenvalues --    4.27247   4.27261   4.28157   4.29293   4.32087
 Alpha virt. eigenvalues --    4.32914   4.36312   4.39242   4.41878   4.43283
 Alpha virt. eigenvalues --    4.43311   4.45364   4.46385   4.47290   4.47439
 Alpha virt. eigenvalues --    4.50485   4.52521   4.53611   4.54795   4.59209
 Alpha virt. eigenvalues --    4.61115   4.61291   4.64725   4.69994   4.72754
 Alpha virt. eigenvalues --    4.77008   4.78664   4.79277   4.81731   4.85610
 Alpha virt. eigenvalues --    4.89276   4.92790   4.94823   4.95974   5.01424
 Alpha virt. eigenvalues --    5.06399   5.09085   5.09972   5.15743   5.17987
 Alpha virt. eigenvalues --    5.19354   5.21822   5.31343   5.31855   5.32174
 Alpha virt. eigenvalues --    5.34313   5.38256   5.40276   5.42623   5.47334
 Alpha virt. eigenvalues --    5.48367   5.54820   5.59422   5.61186   5.61690
 Alpha virt. eigenvalues --    5.69923   5.70837   5.74027   5.78903   5.83018
 Alpha virt. eigenvalues --    5.85447   5.93915   6.04531   6.09326   6.11492
 Alpha virt. eigenvalues --    6.14094   6.18219   6.19108   6.28329   6.31999
 Alpha virt. eigenvalues --    6.41208   6.43947   6.49651   6.55587   6.62836
 Alpha virt. eigenvalues --    6.80667   7.06995   7.32715   9.09033  12.24259
 Alpha virt. eigenvalues --   12.37525  15.47650  17.28930  18.52323  22.06102
          Condensed to atoms (all electrons):
               1          2          3          4          5          6
     1  C    4.640047   0.428916  -0.036656  -0.057174  -0.104759   0.516253
     2  C    0.428916   5.058914   0.522423   0.000185  -0.060268  -0.037990
     3  C   -0.036656   0.522423   4.485117   0.536002  -0.049322  -0.019258
     4  C   -0.057174   0.000185   0.536002   4.938240   0.465213  -0.035123
     5  C   -0.104759  -0.060268  -0.049322   0.465213   4.644621   0.501636
     6  N    0.516253  -0.037990  -0.019258  -0.035123   0.501636   6.524621
     7  H    0.443270  -0.068744   0.004293  -0.004271   0.007043  -0.044230
     8  H   -0.013837   0.402357  -0.040866   0.005207  -0.000451   0.007563
     9  H   -0.002205   0.010112  -0.033405   0.407154  -0.024177   0.007425
    10  H    0.007240  -0.006508   0.009383  -0.073060   0.448034  -0.044913
    11  O    0.006713  -0.062273   0.307151  -0.059290   0.004123  -0.000523
    12  H    0.001779  -0.003006  -0.035896   0.006923  -0.000809   0.000544
               7          8          9         10         11         12
     1  C    0.443270  -0.013837  -0.002205   0.007240   0.006713   0.001779
     2  C   -0.068744   0.402357   0.010112  -0.006508  -0.062273  -0.003006
     3  C    0.004293  -0.040866  -0.033405   0.009383   0.307151  -0.035896
     4  C   -0.004271   0.005207   0.407154  -0.073060  -0.059290   0.006923
     5  C    0.007043  -0.000451  -0.024177   0.448034   0.004123  -0.000809
     6  N   -0.044230   0.007563   0.007425  -0.044913  -0.000523   0.000544
     7  H    0.613218  -0.004048   0.000231  -0.000314  -0.000443  -0.000112
     8  H   -0.004048   0.627365  -0.000590   0.000181  -0.006453   0.005816
     9  H    0.000231  -0.000590   0.599637  -0.005768   0.005582  -0.000721
    10  H   -0.000314   0.000181  -0.005768   0.609170  -0.000248   0.000133
    11  O   -0.000443  -0.006453   0.005582  -0.000248   7.837901   0.340954
    12  H   -0.000112   0.005816  -0.000721   0.000133   0.340954   0.476897
 Mulliken charges:
               1
     1  C    0.170413
     2  C   -0.184118
     3  C    0.351036
     4  C   -0.130005
     5  C    0.169115
     6  N   -0.376004
     7  H    0.054107
     8  H    0.017756
     9  H    0.036725
    10  H    0.056669
    11  O   -0.373193
    12  H    0.207499
 Sum of Mulliken charges =  -0.00000
 Mulliken charges with hydrogens summed into heavy atoms:
               1
     1  C    0.224520
     2  C   -0.166363
     3  C    0.351036
     4  C   -0.093280
     5  C    0.225785
     6  N   -0.376004
    11  O   -0.165694
 Electronic spatial extent (au):  <R**2>=            641.7268
 Charge=             -0.0000 electrons
 Dipole moment (field-independent basis, Debye):
    X=              2.4424    Y=              1.2561    Z=             -0.0000  Tot=              2.7465
 Quadrupole moment (field-independent basis, Debye-Ang):
   XX=            -43.6635   YY=            -33.7213   ZZ=            -42.9300
   XY=              4.3979   XZ=             -0.0017   YZ=             -0.0017
 Traceless Quadrupole moment (field-independent basis, Debye-Ang):
   XX=             -3.5586   YY=              6.3836   ZZ=             -2.8251
   XY=              4.3979   XZ=             -0.0017   YZ=             -0.0017
 Octapole moment (field-independent basis, Debye-Ang**2):
  XXX=             33.3555  YYY=              0.3304  ZZZ=              0.0005  XYY=              2.0663
  XXY=             11.8028  XXZ=             -0.0033  XZZ=              3.3851  YZZ=             -0.0029
  YYZ=              0.0033  XYZ=             -0.0014
 Hexadecapole moment (field-independent basis, Debye-Ang**3):
 XXXX=           -525.2627 YYYY=           -259.3000 ZZZZ=            -46.2432 XXXY=             37.3308
 XXXZ=             -0.0153 YYYX=              2.6179 YYYZ=             -0.0088 ZZZX=             -0.0012
 ZZZY=             -0.0017 XXYY=           -108.6851 XXZZ=            -95.6371 YYZZ=            -61.1368
 XXYZ=             -0.0066 YYXZ=             -0.0022 ZZXY=              0.4739
 N-N= 2.737666329457D+02 E-N=-1.302629040210D+03  KE= 3.223544752811D+02
 No NMR shielding tensors so no spin-rotation constants.
 Leave Link  601 at Fri Aug 27 21:15:37 2021, MaxMem= 17179869184 cpu:        47.2
 (Enter /public3/home/sc51754/softwares/g09e01/l701.exe)
 Compute integral first derivatives.
 ... and contract with generalized density number  0.
 Leave Link  701 at Fri Aug 27 21:15:38 2021, MaxMem= 17179869184 cpu:        70.1
 (Enter /public3/home/sc51754/softwares/g09e01/l702.exe)
 L702 exits ... SP integral derivatives will be done elsewhere.
 Leave Link  702 at Fri Aug 27 21:15:38 2021, MaxMem= 17179869184 cpu:         0.3
 (Enter /public3/home/sc51754/softwares/g09e01/l703.exe)
 Compute integral first derivatives, UseDBF=F ICtDFT=           0.
 Integral derivatives from FoFJK, PRISM(SPDF).
 Calling FoFJK, ICntrl=      2527 FMM=F ISym2X=0 I1Cent= 0 IOpClX= 0 NMat=1 NMatS=1 NMatT=0.
 FoFJK:  IHMeth= 1 ICntrl=    2527 DoSepK=F KAlg= 0 I1Cent=   0 FoldK=F
 IRaf=         0 NMat=   1 IRICut=       1 DoRegI=T DoRafI=F ISym2E= 0.
 FoFCou: FMM=F IPFlag=           0 FMFlag=      100000 FMFlg1=         800
         NFxFlg=           0 DoJE=F BraDBF=F KetDBF=F FulRan=T
         wScrn=  0.000000 ICntrl=    2527 IOpCl=  0 I1Cent=           0 NGrid=           0
         NMat0=    1 NMatS0=      1 NMatT0=    0 NMatD0=    1 NMtDS0=    0 NMtDT0=    0
 Symmetry not used in FoFCou.
 Leave Link  703 at Fri Aug 27 21:15:40 2021, MaxMem= 17179869184 cpu:       137.8
 (Enter /public3/home/sc51754/softwares/g09e01/l716.exe)
 Dipole        = 9.60915890D-01 4.94173301D-01-6.96117640D-06
 ***** Axes restored to original set *****
 -------------------------------------------------------------------
 Center     Atomic                   Forces (Hartrees/Bohr)
 Number     Number              X              Y              Z
 -------------------------------------------------------------------
      1        6          -0.001512750    0.002149026    0.000031576
      2        6           0.000263718   -0.000751758   -0.000005483
      3        6           0.006429963   -0.000009944   -0.000008444
      4        6          -0.000326261    0.001098872    0.000019656
      5        6          -0.001317176   -0.001908521   -0.000087332
      6        7           0.001804109   -0.000193154    0.000018308
      7        1          -0.000033559   -0.000560891   -0.000009860
      8        1          -0.000012826   -0.000002241    0.000001509
      9        1           0.000286426   -0.000213508    0.000011684
     10        1          -0.000099128    0.000554001    0.000028863
     11        8          -0.004395628   -0.002569883    0.000003329
     12        1          -0.001086887    0.002408001   -0.000003804
 -------------------------------------------------------------------
 Cartesian Forces:  Max     0.006429963 RMS     0.001603346
 Leave Link  716 at Fri Aug 27 21:15:41 2021, MaxMem= 17179869184 cpu:         0.4
 (Enter /public3/home/sc51754/softwares/g09e01/l103.exe)

 GradGradGradGradGradGradGradGradGradGradGradGradGradGradGradGradGradGrad
 Berny optimization.
 FormGI is forming the generalized inverse of G from B-inverse, IUseBI=4.
 Internal  Forces:  Max     0.005481766 RMS     0.000931593
 Search for a local minimum.
 Step number   1 out of a maximum of   61
 All quantities printed in internal units (Hartrees-Bohrs-Radians)
 RMS Force = .93159D-03 SwitMx=.10000D-02 MixMth= 2
 Mixed Optimization -- En-DIIS/RFO-DIIS
 Second derivative matrix not updated -- first step.
 ITU=  0
     Eigenvalues ---    0.02120   0.02139   0.02144   0.02163   0.02209
     Eigenvalues ---    0.02238   0.02269   0.02294   0.02415   0.16000
     Eigenvalues ---    0.16000   0.16000   0.16000   0.16000   0.22000
     Eigenvalues ---    0.22826   0.23882   0.25000   0.34970   0.34996
     Eigenvalues ---    0.35128   0.35490   0.42425   0.43849   0.46118
     Eigenvalues ---    0.46897   0.53214   0.54017   0.55021   0.56489
 RFO step:  Lambda=-8.67946490D-05 EMin= 2.11976327D-02
 Linear search not attempted -- first point.
 Iteration  1 RMS(Cart)=  0.00207205 RMS(Int)=  0.00000111
 Iteration  2 RMS(Cart)=  0.00000164 RMS(Int)=  0.00000029
 Iteration  3 RMS(Cart)=  0.00000000 RMS(Int)=  0.00000029
 ITry= 1 IFail=0 DXMaxC= 8.85D-03 DCOld= 1.00D+10 DXMaxT= 3.00D-01 DXLimC= 3.00D+00 Rises=F
 Variable       Old X    -DE/DX   Delta X   Delta X   Delta X     New X
                                 (Linear)    (Quad)   (Total)
    R1        2.63455  -0.00063   0.00000  -0.00133  -0.00133   2.63323
    R2        2.52836   0.00149   0.00000   0.00274   0.00274   2.53110
    R3        2.05724  -0.00050   0.00000  -0.00142  -0.00142   2.05582
    R4        2.64227  -0.00048   0.00000  -0.00123  -0.00123   2.64104
    R5        2.05467   0.00000   0.00000   0.00001   0.00001   2.05468
    R6        2.64232  -0.00074   0.00000  -0.00182  -0.00182   2.64050
    R7        2.56754   0.00548   0.00000   0.01030   0.01030   2.57784
    R8        2.62881  -0.00056   0.00000  -0.00120  -0.00120   2.62761
    R9        2.04887   0.00005   0.00000   0.00015   0.00015   2.04903
   R10        2.53547   0.00129   0.00000   0.00242   0.00242   2.53789
   R11        2.05681  -0.00052   0.00000  -0.00148  -0.00148   2.05533
   R12        1.82716   0.00264   0.00000   0.00489   0.00489   1.83205
    A1        2.17019  -0.00027   0.00000  -0.00081  -0.00081   2.16938
    A2        2.08489   0.00040   0.00000   0.00207   0.00207   2.08696
    A3        2.02810  -0.00013   0.00000  -0.00126  -0.00126   2.02685
    A4        2.06349   0.00026   0.00000   0.00076   0.00076   2.06425
    A5        2.10457  -0.00012   0.00000  -0.00030  -0.00030   2.10427
    A6        2.11512  -0.00014   0.00000  -0.00046  -0.00046   2.11466
    A7        2.06766   0.00041   0.00000   0.00085   0.00085   2.06851
    A8        2.15371  -0.00040   0.00000  -0.00119  -0.00119   2.15252
    A9        2.06181  -0.00002   0.00000   0.00034   0.00034   2.06215
   A10        2.06126   0.00014   0.00000   0.00010   0.00010   2.06136
   A11        2.09700   0.00029   0.00000   0.00221   0.00221   2.09922
   A12        2.12493  -0.00043   0.00000  -0.00231  -0.00231   2.12261
   A13        2.17345  -0.00006   0.00000   0.00005   0.00004   2.17350
   A14        2.08552   0.00026   0.00000   0.00140   0.00140   2.08692
   A15        2.02421  -0.00020   0.00000  -0.00144  -0.00144   2.02277
   A16        2.03032  -0.00049   0.00000  -0.00094  -0.00094   2.02938
   A17        1.90853   0.00011   0.00000   0.00066   0.00066   1.90919
    D1       -0.00024   0.00001   0.00000   0.00041   0.00041   0.00017
    D2        3.14151   0.00000   0.00000   0.00019   0.00019  -3.14148
    D3       -3.14157  -0.00000   0.00000  -0.00007  -0.00007   3.14154
    D4        0.00018  -0.00001   0.00000  -0.00029  -0.00029  -0.00011
    D5        0.00007  -0.00000   0.00000  -0.00006  -0.00006   0.00001
    D6        3.14141   0.00001   0.00000   0.00040   0.00040  -3.14137
    D7        0.00001  -0.00000   0.00000  -0.00013  -0.00013  -0.00011
    D8       -3.14143  -0.00001   0.00000  -0.00028  -0.00028   3.14147
    D9        3.14145   0.00000   0.00000   0.00009   0.00009   3.14154
   D10        0.00000  -0.00000   0.00000  -0.00006  -0.00006  -0.00006
   D11        0.00034  -0.00001   0.00000  -0.00045  -0.00045  -0.00011
   D12       -3.14121  -0.00001   0.00000  -0.00046  -0.00046   3.14152
   D13       -3.14139  -0.00001   0.00000  -0.00030  -0.00030   3.14149
   D14        0.00024  -0.00001   0.00000  -0.00031  -0.00031  -0.00007
   D15       -0.00039   0.00001   0.00000   0.00026   0.00026  -0.00014
   D16        3.14135   0.00000   0.00000   0.00010   0.00010   3.14145
   D17       -0.00055   0.00002   0.00000   0.00085   0.00085   0.00031
   D18       -3.14120  -0.00002   0.00000  -0.00068  -0.00068   3.14130
   D19        3.14101   0.00002   0.00000   0.00086   0.00086  -3.14132
   D20        0.00035  -0.00002   0.00000  -0.00067  -0.00067  -0.00032
   D21        0.00034  -0.00001   0.00000  -0.00059  -0.00059  -0.00025
   D22        3.14102   0.00002   0.00000   0.00090   0.00089  -3.14127
         Item               Value     Threshold  Converged?
 Maximum Force            0.005482     0.000450     NO 
 RMS     Force            0.000932     0.000300     NO 
 Maximum Displacement     0.008847     0.001800     NO 
 RMS     Displacement     0.002072     0.001200     NO 
 Predicted change in Energy=-4.340548D-05
 Lowest energy point so far.  Saving SCF results.
 GradGradGradGradGradGradGradGradGradGradGradGradGradGradGradGradGradGrad

 Leave Link  103 at Fri Aug 27 21:15:42 2021, MaxMem= 17179869184 cpu:        48.7
 (Enter /public3/home/sc51754/softwares/g09e01/l202.exe)
                          Input orientation:                          
 ---------------------------------------------------------------------
 Center     Atomic      Atomic             Coordinates (Angstroms)
 Number     Number       Type             X           Y           Z
 ---------------------------------------------------------------------
      1          6           0        1.152502    1.154276    0.000071
      2          6           0       -0.240516    1.188711   -0.000015
      3          6           0       -0.932724   -0.025401   -0.000045
      4          6           0       -0.196532   -1.213023   -0.000127
      5          6           0        1.191063   -1.123603   -0.000305
      6          7           0        1.879639    0.029434   -0.000065
      7          1           0        1.712649    2.086876    0.000050
      8          1           0       -0.770130    2.138295   -0.000000
      9          1           0       -0.704402   -2.171026   -0.000081
     10          1           0        1.787545   -2.033086   -0.000099
     11          8           0       -2.294104   -0.112042    0.000011
     12          1           0       -2.673382    0.780168    0.000198
 ---------------------------------------------------------------------
                    Distance matrix (angstroms):
                    1          2          3          4          5
     1  C    0.000000
     2  C    1.393444   0.000000
     3  C    2.395789   1.397577   0.000000
     4  C    2.724702   2.402137   1.397293   0.000000
     5  C    2.278205   2.719598   2.390924   1.390473   0.000000
     6  N    1.339401   2.416398   2.812898   2.419543   1.342993
     7  H    1.087891   2.149779   3.385219   3.812388   3.252572
     8  H    2.159817   1.087290   2.169796   3.400051   3.806081
     9  H    3.808639   3.391611   2.157740   1.084298   2.165614
    10  H    3.250008   3.806968   3.380926   2.146873   1.087635
    11  O    3.671874   2.430881   1.364134   2.368959   3.629000
    12  H    3.844132   2.466930   1.918027   3.179245   4.307932
                    6          7          8          9         10
     6  N    0.000000
     7  H    2.064207   0.000000
     8  H    3.386527   2.483311   0.000000
     9  H    3.394008   4.896107   4.309823   0.000000
    10  H    2.064575   4.120642   4.893068   2.495761   0.000000
    11  O    4.176140   4.570482   2.717814   2.601263   4.511127
    12  H    4.614499   4.576543   2.338136   3.547736   5.273923
                   11         12
    11  O    0.000000
    12  H    0.969480   0.000000
 Stoichiometry    C5H5NO
 Framework group  C1[X(C5H5NO)]
 Deg. of freedom    30
 Full point group                 C1      NOp   1
 RotChk:  IX=2 Diff= 2.85D-04
 Largest Abelian subgroup         C1      NOp   1
 Largest concise Abelian subgroup C1      NOp   1
                         Standard orientation:                         
 ---------------------------------------------------------------------
 Center     Atomic      Atomic             Coordinates (Angstroms)
 Number     Number       Type             X           Y           Z
 ---------------------------------------------------------------------
      1          6           0       -1.152277    1.154574   -0.000128
      2          6           0        0.240749    1.188729   -0.000042
      3          6           0        0.932713   -0.025522   -0.000012
      4          6           0        0.196281   -1.212997    0.000071
      5          6           0       -1.191295   -1.123297    0.000249
      6          7           0       -1.879639    0.029879    0.000009
      7          1           0       -1.712235    2.087286   -0.000106
      8          1           0        0.770554    2.138206   -0.000056
      9          1           0        0.703958   -2.171102    0.000025
     10          1           0       -1.787960   -2.032660    0.000042
     11          8           0        2.294075   -0.112438   -0.000068
     12          1           0        2.673532    0.779696   -0.000254
 ---------------------------------------------------------------------
 Rotational constants (GHZ):      5.9846262      2.6221875      1.8233010
 Leave Link  202 at Fri Aug 27 21:15:42 2021, MaxMem= 17179869184 cpu:         5.8
 (Enter /public3/home/sc51754/softwares/g09e01/l301.exe)
 Basis read from rwf:  (5D, 7F)
 No pseudopotential information found on rwf file.
 There are   320 symmetry adapted cartesian basis functions of A   symmetry.
 There are   280 symmetry adapted basis functions of A   symmetry.
   280 basis functions,   475 primitive gaussians,   320 cartesian basis functions
    25 alpha electrons       25 beta electrons
       nuclear repulsion energy       273.6065529445 Hartrees.
 IExCor= 2523 DFT=T Ex=TPSS Corr=TPSS ExCW=0 ScaHFX=  0.000000
 ScaDFX=  1.000000  1.000000  1.000000  1.000000 ScalE2=  1.000000  1.000000
 IRadAn=      0 IRanWt=     -1 IRanGd=            0 ICorTp=0 IEmpDi=  4
 NAtoms=   12 NActive=   12 NUniq=   12 SFac= 1.00D+00 NAtFMM=   60 NAOKFM=F Big=F
 Integral buffers will be    131072 words long.
 Raffenetti 2 integral format.
 Two-electron integral symmetry is turned on.
 No density basis found on file   724.
 Leave Link  301 at Fri Aug 27 21:15:42 2021, MaxMem= 17179869184 cpu:         1.4
 (Enter /public3/home/sc51754/softwares/g09e01/l302.exe)
 NPDir=0 NMtPBC=     1 NCelOv=     1 NCel=       1 NClECP=     1 NCelD=      1
         NCelK=      1 NCelE2=     1 NClLst=     1 CellRange=     0.0.
 One-electron integrals computed using PRISM.
 NBasis=   280 RedAO= T EigKep=  2.00D-04  NBF=   280
 NBsUse=   280 1.00D-06 EigRej= -1.00D+00 NBFU=   280
 Precomputing XC quadrature grid using
 IXCGrd= 4 IRadAn=           0 IRanWt=          -1 IRanGd=           0 AccXCQ= 0.00D+00.
 Generated NRdTot=       0 NPtTot=           0 NUsed=           0 NTot=          32
 NSgBfM=   320   320   320   320   320 MxSgAt=    12 MxSgA2=    12.
 Leave Link  302 at Fri Aug 27 21:15:43 2021, MaxMem= 17179869184 cpu:        46.0
 (Enter /public3/home/sc51754/softwares/g09e01/l303.exe)
 DipDrv:  MaxL=1.
 Leave Link  303 at Fri Aug 27 21:15:43 2021, MaxMem= 17179869184 cpu:        13.4
 (Enter /public3/home/sc51754/softwares/g09e01/l401.exe)
 Initial guess from the checkpoint file:  "4HY_TPSSTPSS_PC2_OPT_FREQ.chk"
 B after Tr=    -0.000000   -0.000000    0.000000
         Rot=    1.000000    0.000039   -0.000014    0.000068 Ang=   0.01 deg.
 Guess basis will be translated and rotated to current coordinates.
 JPrj=2 DoOrth=T DoCkMO=T.
 Leave Link  401 at Fri Aug 27 21:15:44 2021, MaxMem= 17179869184 cpu:        31.5
 (Enter /public3/home/sc51754/softwares/g09e01/l502.exe)
 Closed shell SCF:
 Using DIIS extrapolation, IDIIS=  1040.
 Integral symmetry usage will be decided dynamically.
 Keep J ints in memory in canonical form, NReq=790723944.
 IVT=      348554 IEndB=      348554 NGot= 17179869184 MDV= 16405683161
 LenX= 16405683161 LenY= 16405580320
 Requested convergence on RMS density matrix=1.00D-08 within 128 cycles.
 Requested convergence on MAX density matrix=1.00D-06.
 Requested convergence on             energy=1.00D-06.
 No special actions if energy rises.
 FoFCou: FMM=F IPFlag=           0 FMFlag=           0 FMFlg1=           0
         NFxFlg=           0 DoJE=F BraDBF=F KetDBF=F FulRan=T
         wScrn=  0.000000 ICntrl=     600 IOpCl=  0 I1Cent=           0 NGrid=           0
         NMat0=    1 NMatS0=  39340 NMatT0=    0 NMatD0=    1 NMtDS0=    0 NMtDT0=    0
 Symmetry not used in FoFCou.

 Cycle   1  Pass 1  IDiag  1:
 E= -323.690168351440    
 DIIS: error= 2.39D-04 at cycle   1 NSaved=   1.
 NSaved= 1 IEnMin= 1 EnMin= -323.690168351440     IErMin= 1 ErrMin= 2.39D-04
 ErrMax= 2.39D-04  0.00D+00 EMaxC= 1.00D-01 BMatC= 1.85D-05 BMatP= 1.85D-05
 IDIUse=3 WtCom= 9.98D-01 WtEn= 2.39D-03
 Coeff-Com:  0.100D+01
 Coeff-En:   0.100D+01
 Coeff:      0.100D+01
 Gap=     0.572 Goal=   None    Shift=    0.000
 RMSDP=1.80D-05 MaxDP=7.96D-04              OVMax= 1.65D-03

 Cycle   2  Pass 1  IDiag  1:
 E= -323.690180752814     Delta-E=       -0.000012401374 Rises=F Damp=F
 DIIS: error= 2.36D-04 at cycle   2 NSaved=   2.
 NSaved= 2 IEnMin= 2 EnMin= -323.690180752814     IErMin= 2 ErrMin= 2.36D-04
 ErrMax= 2.36D-04  0.00D+00 EMaxC= 1.00D-01 BMatC= 9.37D-06 BMatP= 1.85D-05
 IDIUse=3 WtCom= 9.98D-01 WtEn= 2.36D-03
 Coeff-Com:  0.382D+00 0.618D+00
 Coeff-En:   0.000D+00 0.100D+01
 Coeff:      0.381D+00 0.619D+00
 Gap=     0.173 Goal=   None    Shift=    0.000
 RMSDP=1.30D-05 MaxDP=6.05D-04 DE=-1.24D-05 OVMax= 1.52D-03

 Cycle   3  Pass 1  IDiag  1:
 E= -323.690180629937     Delta-E=        0.000000122877 Rises=F Damp=F
 DIIS: error= 2.12D-04 at cycle   3 NSaved=   3.
 NSaved= 3 IEnMin= 2 EnMin= -323.690180752814     IErMin= 3 ErrMin= 2.12D-04
 ErrMax= 2.12D-04  0.00D+00 EMaxC= 1.00D-01 BMatC= 8.40D-06 BMatP= 9.37D-06
 IDIUse=3 WtCom= 9.98D-01 WtEn= 2.12D-03
 Coeff-Com:  0.431D-01 0.477D+00 0.480D+00
 Coeff-En:   0.000D+00 0.503D+00 0.497D+00
 Coeff:      0.430D-01 0.477D+00 0.480D+00
 Gap=     0.173 Goal=   None    Shift=    0.000
 RMSDP=8.23D-06 MaxDP=3.07D-04 DE= 1.23D-07 OVMax= 9.48D-04

 Cycle   4  Pass 1  IDiag  1:
 E= -323.690187180525     Delta-E=       -0.000006550588 Rises=F Damp=F
 DIIS: error= 5.87D-05 at cycle   4 NSaved=   4.
 NSaved= 4 IEnMin= 4 EnMin= -323.690187180525     IErMin= 4 ErrMin= 5.87D-05
 ErrMax= 5.87D-05  0.00D+00 EMaxC= 1.00D-01 BMatC= 3.45D-07 BMatP= 8.40D-06
 IDIUse=1 WtCom= 1.00D+00 WtEn= 0.00D+00
 Coeff-Com:  0.829D-02 0.250D+00 0.293D+00 0.448D+00
 Coeff:      0.829D-02 0.250D+00 0.293D+00 0.448D+00
 Gap=     0.173 Goal=   None    Shift=    0.000
 RMSDP=2.46D-06 MaxDP=8.90D-05 DE=-6.55D-06 OVMax= 3.87D-04

 Cycle   5  Pass 1  IDiag  1:
 E= -323.690187426994     Delta-E=       -0.000000246470 Rises=F Damp=F
 DIIS: error= 2.78D-05 at cycle   5 NSaved=   5.
 NSaved= 5 IEnMin= 5 EnMin= -323.690187426994     IErMin= 5 ErrMin= 2.78D-05
 ErrMax= 2.78D-05  0.00D+00 EMaxC= 1.00D-01 BMatC= 1.03D-07 BMatP= 3.45D-07
 IDIUse=1 WtCom= 1.00D+00 WtEn= 0.00D+00
 Coeff-Com:  0.963D-04 0.881D-01 0.126D+00 0.357D+00 0.429D+00
 Coeff:      0.963D-04 0.881D-01 0.126D+00 0.357D+00 0.429D+00
 Gap=     0.173 Goal=   None    Shift=    0.000
 RMSDP=1.02D-06 MaxDP=3.44D-05 DE=-2.46D-07 OVMax= 1.90D-04

 Cycle   6  Pass 1  IDiag  1:
 E= -323.690187532746     Delta-E=       -0.000000105751 Rises=F Damp=F
 DIIS: error= 2.01D-06 at cycle   6 NSaved=   6.
 NSaved= 6 IEnMin= 6 EnMin= -323.690187532746     IErMin= 6 ErrMin= 2.01D-06
 ErrMax= 2.01D-06  0.00D+00 EMaxC= 1.00D-01 BMatC= 1.55D-09 BMatP= 1.03D-07
 IDIUse=1 WtCom= 1.00D+00 WtEn= 0.00D+00
 Coeff-Com: -0.571D-03 0.312D-01 0.492D-01 0.156D+00 0.213D+00 0.552D+00
 Coeff:     -0.571D-03 0.312D-01 0.492D-01 0.156D+00 0.213D+00 0.552D+00
 Gap=     0.173 Goal=   None    Shift=    0.000
 RMSDP=1.59D-07 MaxDP=9.95D-06 DE=-1.06D-07 OVMax= 2.33D-05

 Cycle   7  Pass 1  IDiag  1:
 E= -323.690187533945     Delta-E=       -0.000000001199 Rises=F Damp=F
 DIIS: error= 1.23D-06 at cycle   7 NSaved=   7.
 NSaved= 7 IEnMin= 7 EnMin= -323.690187533945     IErMin= 7 ErrMin= 1.23D-06
 ErrMax= 1.23D-06  0.00D+00 EMaxC= 1.00D-01 BMatC= 3.69D-10 BMatP= 1.55D-09
 IDIUse=1 WtCom= 1.00D+00 WtEn= 0.00D+00
 Coeff-Com: -0.258D-03 0.599D-02 0.122D-01 0.440D-01 0.713D-01 0.350D+00
 Coeff-Com:  0.517D+00
 Coeff:     -0.258D-03 0.599D-02 0.122D-01 0.440D-01 0.713D-01 0.350D+00
 Coeff:      0.517D+00
 Gap=     0.173 Goal=   None    Shift=    0.000
 RMSDP=6.12D-08 MaxDP=3.66D-06 DE=-1.20D-09 OVMax= 1.09D-05

 Cycle   8  Pass 1  IDiag  1:
 E= -323.690187534294     Delta-E=       -0.000000000349 Rises=F Damp=F
 DIIS: error= 4.86D-07 at cycle   8 NSaved=   8.
 NSaved= 8 IEnMin= 8 EnMin= -323.690187534294     IErMin= 8 ErrMin= 4.86D-07
 ErrMax= 4.86D-07  0.00D+00 EMaxC= 1.00D-01 BMatC= 4.15D-11 BMatP= 3.69D-10
 IDIUse=1 WtCom= 1.00D+00 WtEn= 0.00D+00
 Coeff-Com: -0.136D-03 0.176D-02 0.456D-02 0.178D-01 0.324D-01 0.189D+00
 Coeff-Com:  0.336D+00 0.418D+00
 Coeff:     -0.136D-03 0.176D-02 0.456D-02 0.178D-01 0.324D-01 0.189D+00
 Coeff:      0.336D+00 0.418D+00
 Gap=     0.173 Goal=   None    Shift=    0.000
 RMSDP=2.23D-08 MaxDP=9.91D-07 DE=-3.49D-10 OVMax= 3.47D-06

 Cycle   9  Pass 1  IDiag  1:
 E= -323.690187534338     Delta-E=       -0.000000000044 Rises=F Damp=F
 DIIS: error= 1.29D-07 at cycle   9 NSaved=   9.
 NSaved= 9 IEnMin= 9 EnMin= -323.690187534338     IErMin= 9 ErrMin= 1.29D-07
 ErrMax= 1.29D-07  0.00D+00 EMaxC= 1.00D-01 BMatC= 2.97D-12 BMatP= 4.15D-11
 IDIUse=1 WtCom= 1.00D+00 WtEn= 0.00D+00
 Coeff-Com: -0.532D-04 0.320D-03 0.113D-02 0.466D-02 0.102D-01 0.644D-01
 Coeff-Com:  0.129D+00 0.244D+00 0.547D+00
 Coeff:     -0.532D-04 0.320D-03 0.113D-02 0.466D-02 0.102D-01 0.644D-01
 Coeff:      0.129D+00 0.244D+00 0.547D+00
 Gap=     0.173 Goal=   None    Shift=    0.000
 RMSDP=6.23D-09 MaxDP=3.63D-07 DE=-4.38D-11 OVMax= 9.24D-07

 SCF Done:  E(RTPSS-TPSS) =  -323.690187534     A.U. after    9 cycles
            NFock=  9  Conv=0.62D-08     -V/T= 2.0042
 KE= 3.223399329322D+02 PE=-1.302302890991D+03 EE= 3.826662175801D+02
 Leave Link  502 at Fri Aug 27 21:15:53 2021, MaxMem= 17179869184 cpu:       188.3
 (Enter /public3/home/sc51754/softwares/g09e01/l701.exe)
 Compute integral first derivatives.
 ... and contract with generalized density number  0.
 Leave Link  701 at Fri Aug 27 21:15:54 2021, MaxMem= 17179869184 cpu:        57.2
 (Enter /public3/home/sc51754/softwares/g09e01/l702.exe)
 L702 exits ... SP integral derivatives will be done elsewhere.
 Leave Link  702 at Fri Aug 27 21:15:54 2021, MaxMem= 17179869184 cpu:         0.2
 (Enter /public3/home/sc51754/softwares/g09e01/l703.exe)
 Compute integral first derivatives, UseDBF=F ICtDFT=           0.
 Integral derivatives from FoFJK, PRISM(SPDF).
 Calling FoFJK, ICntrl=      2527 FMM=F ISym2X=0 I1Cent= 0 IOpClX= 0 NMat=1 NMatS=1 NMatT=0.
 FoFJK:  IHMeth= 1 ICntrl=    2527 DoSepK=F KAlg= 0 I1Cent=   0 FoldK=F
 IRaf=         0 NMat=   1 IRICut=       1 DoRegI=T DoRafI=F ISym2E= 0.
 FoFCou: FMM=F IPFlag=           0 FMFlag=      100000 FMFlg1=         800
         NFxFlg=           0 DoJE=F BraDBF=F KetDBF=F FulRan=T
         wScrn=  0.000000 ICntrl=    2527 IOpCl=  0 I1Cent=           0 NGrid=           0
         NMat0=    1 NMatS0=      1 NMatT0=    0 NMatD0=    1 NMtDS0=    0 NMtDT0=    0
 Symmetry not used in FoFCou.
 Leave Link  703 at Fri Aug 27 21:15:57 2021, MaxMem= 17179869184 cpu:       142.4
 (Enter /public3/home/sc51754/softwares/g09e01/l716.exe)
 Dipole        = 9.50378151D-01 4.94728684D-01-1.46362215D-04
 ***** Axes restored to original set *****
 -------------------------------------------------------------------
 Center     Atomic                   Forces (Hartrees/Bohr)
 Number     Number              X              Y              Z
 -------------------------------------------------------------------
      1        6          -0.000564959    0.000504011   -0.000023710
      2        6          -0.000201197   -0.000182289    0.000006575
      3        6           0.002279900    0.000279687   -0.000001381
      4        6          -0.000706266    0.000326510   -0.000013845
      5        6          -0.000297168   -0.000303573    0.000055376
      6        7           0.000610125   -0.000151471   -0.000011982
      7        1           0.000078455   -0.000126827    0.000008595
      8        1          -0.000001429   -0.000008956    0.000001608
      9        1           0.000122086   -0.000065186   -0.000002974
     10        1           0.000057936    0.000100153   -0.000018686
     11        8          -0.001650536   -0.000623474    0.000001067
     12        1           0.000273052    0.000251415   -0.000000641
 -------------------------------------------------------------------
 Cartesian Forces:  Max     0.002279900 RMS     0.000537851
 Leave Link  716 at Fri Aug 27 21:15:57 2021, MaxMem= 17179869184 cpu:         0.3
 (Enter /public3/home/sc51754/softwares/g09e01/l103.exe)

 GradGradGradGradGradGradGradGradGradGradGradGradGradGradGradGradGradGrad
 Berny optimization.
 Using GEDIIS/GDIIS optimizer.
 FormGI is forming the generalized inverse of G from B-inverse, IUseBI=4.
 Internal  Forces:  Max     0.001398486 RMS     0.000259584
 Search for a local minimum.
 Step number   2 out of a maximum of   61
 All quantities printed in internal units (Hartrees-Bohrs-Radians)
 RMS Force = .25958D-03 SwitMx=.10000D-02 MixMth= 2
 Mixed Optimization -- En-DIIS/RFO-DIIS
 Swapping is turned off.
 Update second derivatives using D2CorX and points    1    2
 DE= -5.33D-05 DEPred=-4.34D-05 R= 1.23D+00
 TightC=F SS=  1.41D+00  RLast= 1.36D-02 DXNew= 5.0454D-01 4.0881D-02
 Trust test= 1.23D+00 RLast= 1.36D-02 DXMaxT set to 3.00D-01
 ITU=  1  0
     Eigenvalues ---    0.02120   0.02139   0.02144   0.02163   0.02211
     Eigenvalues ---    0.02238   0.02269   0.02297   0.02415   0.14770
     Eigenvalues ---    0.16000   0.16000   0.16000   0.16482   0.21956
     Eigenvalues ---    0.22763   0.23761   0.25078   0.34891   0.34997
     Eigenvalues ---    0.35129   0.35491   0.38306   0.42428   0.45912
     Eigenvalues ---    0.47021   0.48021   0.54901   0.55820   0.56653
 En-DIIS/RFO-DIIS IScMMF=        0 using points:     2    1
 RFO step:  Lambda=-6.73845719D-06.
 NNeg= 0 NP= 2 Switch=  2.50D-03 Rises=F DC=  5.33D-05 SmlDif=  1.00D-05
 RMS Error=  0.5229419627D-03 NUsed= 2 EDIIS=F
 DidBck=F Rises=F RFO-DIIS coefs:    1.30120   -0.30120
 Iteration  1 RMS(Cart)=  0.00112336 RMS(Int)=  0.00000319
 Iteration  2 RMS(Cart)=  0.00000306 RMS(Int)=  0.00000014
 Iteration  3 RMS(Cart)=  0.00000000 RMS(Int)=  0.00000014
 ITry= 1 IFail=0 DXMaxC= 5.53D-03 DCOld= 1.00D+10 DXMaxT= 3.00D-01 DXLimC= 3.00D+00 Rises=F
 Variable       Old X    -DE/DX   Delta X   Delta X   Delta X     New X
                                 (Linear)    (Quad)   (Total)
    R1        2.63323  -0.00014  -0.00040  -0.00011  -0.00051   2.63272
    R2        2.53110   0.00047   0.00083   0.00055   0.00138   2.53248
    R3        2.05582  -0.00007  -0.00043   0.00005  -0.00038   2.05543
    R4        2.64104  -0.00030  -0.00037  -0.00068  -0.00105   2.63999
    R5        2.05468  -0.00001   0.00000  -0.00003  -0.00003   2.05466
    R6        2.64050  -0.00050  -0.00055  -0.00112  -0.00167   2.63883
    R7        2.57784   0.00140   0.00310   0.00125   0.00436   2.58220
    R8        2.62761   0.00003  -0.00036   0.00032  -0.00004   2.62757
    R9        2.04903   0.00000   0.00005  -0.00003   0.00001   2.04904
   R10        2.53789   0.00029   0.00073   0.00023   0.00096   2.53885
   R11        2.05533  -0.00005  -0.00045   0.00012  -0.00033   2.05500
   R12        1.83205   0.00012   0.00147  -0.00073   0.00074   1.83279
    A1        2.16938  -0.00004  -0.00024   0.00013  -0.00012   2.16926
    A2        2.08696   0.00016   0.00062   0.00069   0.00131   2.08828
    A3        2.02685  -0.00012  -0.00038  -0.00082  -0.00120   2.02565
    A4        2.06425  -0.00006   0.00023  -0.00068  -0.00044   2.06381
    A5        2.10427   0.00003  -0.00009   0.00037   0.00028   2.10455
    A6        2.11466   0.00002  -0.00014   0.00030   0.00016   2.11483
    A7        2.06851   0.00038   0.00026   0.00145   0.00171   2.07021
    A8        2.15252  -0.00014  -0.00036  -0.00032  -0.00068   2.15185
    A9        2.06215  -0.00024   0.00010  -0.00113  -0.00103   2.06113
   A10        2.06136  -0.00011   0.00003  -0.00085  -0.00082   2.06054
   A11        2.09922   0.00020   0.00067   0.00111   0.00177   2.10099
   A12        2.12261  -0.00009  -0.00070  -0.00025  -0.00095   2.12166
   A13        2.17350   0.00002   0.00001   0.00029   0.00031   2.17380
   A14        2.08692   0.00010   0.00042   0.00042   0.00084   2.08776
   A15        2.02277  -0.00012  -0.00043  -0.00072  -0.00115   2.02162
[...]
 Iteration  2 RMS(Cart)=  0.00000005 RMS(Int)=  0.00000001
 ITry= 1 IFail=0 DXMaxC= 5.73D-04 DCOld= 1.00D+10 DXMaxT= 3.00D-01 DXLimC= 3.00D+00 Rises=F
 Variable       Old X    -DE/DX   Delta X   Delta X   Delta X     New X
                                 (Linear)    (Quad)   (Total)
    R1        2.63272   0.00004   0.00000   0.00005   0.00005   2.63277
    R2        2.53248  -0.00000   0.00000   0.00002   0.00002   2.53249
    R3        2.05543   0.00004   0.00000   0.00012   0.00012   2.05555
    R4        2.63999  -0.00001   0.00000   0.00003   0.00003   2.64002
    R5        2.05466  -0.00001   0.00000  -0.00005  -0.00005   2.05461
    R6        2.63883   0.00000   0.00000  -0.00012  -0.00012   2.63871
    R7        2.58220   0.00015   0.00000   0.00043   0.00043   2.58262
    R8        2.62757   0.00012   0.00000   0.00036   0.00036   2.62794
    R9        2.04904  -0.00003   0.00000  -0.00011  -0.00011   2.04893
   R10        2.53885  -0.00009   0.00000  -0.00030  -0.00030   2.53855
   R11        2.05500   0.00005   0.00000   0.00016   0.00016   2.05517
   R12        1.83279  -0.00016   0.00000  -0.00036  -0.00036   1.83243
    A1        2.16926   0.00001   0.00000  -0.00002  -0.00002   2.16924
    A2        2.08828   0.00001   0.00000   0.00014   0.00014   2.08842
    A3        2.02565  -0.00002   0.00000  -0.00012  -0.00012   2.02553
    A4        2.06381  -0.00005   0.00000  -0.00029  -0.00029   2.06352
    A5        2.10455   0.00002   0.00000   0.00014   0.00014   2.10470
    A6        2.11483   0.00003   0.00000   0.00015   0.00015   2.11497
    A7        2.07021   0.00006   0.00000   0.00041   0.00041   2.07062
    A8        2.15185  -0.00010   0.00000  -0.00055  -0.00055   2.15130
    A9        2.06113   0.00005   0.00000   0.00014   0.00014   2.06126
   A10        2.06054  -0.00004   0.00000  -0.00026  -0.00026   2.06028
   A11        2.10099   0.00002   0.00000   0.00015   0.00015   2.10114
   A12        2.12166   0.00002   0.00000   0.00011   0.00011   2.12177
   A13        2.17380  -0.00002   0.00000  -0.00008  -0.00008   2.17372
   A14        2.08776   0.00002   0.00000   0.00005   0.00005   2.08781
   A15        2.02162   0.00000   0.00000   0.00004   0.00004   2.02166
   A16        2.02875   0.00004   0.00000   0.00024   0.00024   2.02900
   A17        1.90405   0.00008   0.00000   0.00033   0.00033   1.90438
    D1       -0.00017   0.00001   0.00000   0.00017   0.00017  -0.00000
    D2        3.14148   0.00000   0.00000   0.00011   0.00011   3.14159
    D3       -3.14152  -0.00000   0.00000  -0.00007  -0.00007  -3.14159
    D4        0.00013  -0.00001   0.00000  -0.00013  -0.00013  -0.00000
    D5        0.00002  -0.00000   0.00000  -0.00002  -0.00002   0.00000
    D6        3.14137   0.00001   0.00000   0.00022   0.00022   3.14159
    D7        0.00011  -0.00000   0.00000  -0.00011  -0.00011   0.00000
    D8       -3.14149  -0.00000   0.00000  -0.00010  -0.00010  -3.14159
    D9       -3.14154  -0.00000   0.00000  -0.00005  -0.00005  -3.14159
   D10        0.00004  -0.00000   0.00000  -0.00004  -0.00004   0.00000
   D11        0.00009  -0.00000   0.00000  -0.00009  -0.00009  -0.00000
   D12       -3.14152  -0.00000   0.00000  -0.00007  -0.00007  -3.14159
   D13       -3.14149  -0.00000   0.00000  -0.00010  -0.00010  -3.14159
   D14        0.00008  -0.00000   0.00000  -0.00008  -0.00008   0.00000
   D15       -0.00008   0.00000   0.00000   0.00009   0.00009   0.00000
   D16        3.14150   0.00000   0.00000   0.00010   0.00010  -3.14159
   D17       -0.00027   0.00001   0.00000   0.00027   0.00027  -0.00000
   D18       -3.14135  -0.00001   0.00000  -0.00024  -0.00024   3.14159
   D19        3.14135   0.00001   0.00000   0.00025   0.00025   3.14159
   D20        0.00026  -0.00001   0.00000  -0.00026  -0.00026  -0.00000
   D21        0.00021  -0.00001   0.00000  -0.00021  -0.00021   0.00000
   D22        3.14131   0.00001   0.00000   0.00028   0.00028  -3.14159
         Item               Value     Threshold  Converged?
 Maximum Force            0.000164     0.000450     YES
 RMS     Force            0.000046     0.000300     YES
 Maximum Displacement     0.000573     0.001800     YES
 RMS     Displacement     0.000178     0.001200     YES
 Predicted change in Energy=-1.982862D-07
 Optimization completed.
    -- Stationary point found.
                           ----------------------------
                           !   Optimized Parameters   !
                           ! (Angstroms and Degrees)  !
 --------------------------                            --------------------------
 ! Name  Definition              Value          Derivative Info.                !
 --------------------------------------------------------------------------------
 ! R1    R(1,2)                  1.3932         -DE/DX =    0.0                 !
 ! R2    R(1,6)                  1.3401         -DE/DX =    0.0                 !
 ! R3    R(1,7)                  1.0877         -DE/DX =    0.0                 !
 ! R4    R(2,3)                  1.397          -DE/DX =    0.0                 !
 ! R5    R(2,8)                  1.0873         -DE/DX =    0.0                 !
 ! R6    R(3,4)                  1.3964         -DE/DX =    0.0                 !
 ! R7    R(3,11)                 1.3664         -DE/DX =    0.0001              !
 ! R8    R(4,5)                  1.3905         -DE/DX =    0.0001              !
 ! R9    R(4,9)                  1.0843         -DE/DX =    0.0                 !
 ! R10   R(5,6)                  1.3435         -DE/DX =   -0.0001              !
 ! R11   R(5,10)                 1.0875         -DE/DX =    0.0001              !
 ! R12   R(11,12)                0.9699         -DE/DX =   -0.0002              !
 ! A1    A(2,1,6)              124.2894         -DE/DX =    0.0                 !
 ! A2    A(2,1,7)              119.6495         -DE/DX =    0.0                 !
 ! A3    A(6,1,7)              116.0612         -DE/DX =    0.0                 !
 ! A4    A(1,2,3)              118.2474         -DE/DX =   -0.0001              !
 ! A5    A(1,2,8)              120.5819         -DE/DX =    0.0                 !
 ! A6    A(3,2,8)              121.1706         -DE/DX =    0.0                 !
 ! A7    A(2,3,4)              118.6144         -DE/DX =    0.0001              !
 ! A8    A(2,3,11)             123.2917         -DE/DX =   -0.0001              !
 ! A9    A(4,3,11)             118.0939         -DE/DX =    0.0                 !
 ! A10   A(3,4,5)              118.06           -DE/DX =    0.0                 !
 ! A11   A(3,4,9)              120.3777         -DE/DX =    0.0                 !
 ! A12   A(5,4,9)              121.5623         -DE/DX =    0.0                 !
 ! A13   A(4,5,6)              124.5498         -DE/DX =    0.0                 !
 ! A14   A(4,5,10)             119.6199         -DE/DX =    0.0                 !
 ! A15   A(6,5,10)             115.8303         -DE/DX =    0.0                 !
 ! A16   A(1,6,5)              116.239          -DE/DX =    0.0                 !
 ! A17   A(3,11,12)            109.094          -DE/DX =    0.0001              !
 ! D1    D(6,1,2,3)             -0.0099         -DE/DX =    0.0                 !
 ! D2    D(6,1,2,8)            179.9936         -DE/DX =    0.0                 !
 ! D3    D(7,1,2,3)           -179.996          -DE/DX =    0.0                 !
 ! D4    D(7,1,2,8)              0.0075         -DE/DX =    0.0                 !
 ! D5    D(2,1,6,5)              0.001          -DE/DX =    0.0                 !
 ! D6    D(7,1,6,5)            179.9875         -DE/DX =    0.0                 !
 ! D7    D(1,2,3,4)              0.0063         -DE/DX =    0.0                 !
 ! D8    D(1,2,3,11)          -179.9943         -DE/DX =    0.0                 !
 ! D9    D(8,2,3,4)           -179.9972         -DE/DX =    0.0                 !
 ! D10   D(8,2,3,11)             0.0022         -DE/DX =    0.0                 !
 ! D11   D(2,3,4,5)              0.0052         -DE/DX =    0.0                 !
 ! D12   D(2,3,4,9)           -179.9959         -DE/DX =    0.0                 !
 ! D13   D(11,3,4,5)          -179.9942         -DE/DX =    0.0                 !
 ! D14   D(11,3,4,9)             0.0047         -DE/DX =    0.0                 !
 ! D15   D(2,3,11,12)           -0.0049         -DE/DX =    0.0                 !
 ! D16   D(4,3,11,12)         -180.0055         -DE/DX =    0.0                 !
 ! D17   D(3,4,5,6)             -0.0152         -DE/DX =    0.0                 !
 ! D18   D(3,4,5,10)           180.0138         -DE/DX =    0.0                 !
 ! D19   D(9,4,5,6)            179.9859         -DE/DX =    0.0                 !
 ! D20   D(9,4,5,10)             0.0149         -DE/DX =    0.0                 !
 ! D21   D(4,5,6,1)              0.012          -DE/DX =    0.0                 !
 ! D22   D(10,5,6,1)          -180.016          -DE/DX =    0.0                 !
 --------------------------------------------------------------------------------
 GradGradGradGradGradGradGradGradGradGradGradGradGradGradGradGradGradGrad

 Leave Link  103 at Fri Aug 27 21:17:00 2021, MaxMem= 17179869184 cpu:        72.0
 (Enter /public3/home/sc51754/softwares/g09e01/l9999.exe)
 1\1\GINC-P1908\Freq\RTPSSTPSS\Gen\C5H5N1O1\SC51754\27-Aug-2021\0\\#P G
 eom=AllCheck Guess=TCheck SCRF=Check GenChk RTPSSTPSS/ChkBas Freq\\4HY
 _TPSSTPSS_PC2_OPT_FREQ\\0,1\C,1.1518565283,1.1547370509,-0.0001055699\
 C,-0.2409055128,1.1885803465,0.0000341384\C,-0.9317892514,-0.025648734
 5,-0.000019516\C,-0.1970591109,-1.2131383231,-0.0000753423\C,1.1905168
 53,-1.1237443806,0.0000369843\N,1.8797289101,0.0295044658,-0.000097453
 1\H,1.7127313929,2.0866620134,-0.0000013308\H,-0.7711778613,2.13778145
 84,0.0001241008\H,-0.7040386089,-2.1716218268,-0.0001848573\H,1.787653
 5103,-2.0325900161,-0.0002310672\O,-2.2954530337,-0.1126925499,-0.0000
 074858\H,-2.6704558158,0.781749496,0.0001203988\\Version=EM64L-G09RevE
 .01\State=1-A\HF=-323.6901946\RMSD=6.889e-09\RMSF=9.135e-05\ZeroPoint=
 0.0913535\Thermal=0.096778\Dipole=-0.9420557,0.4950411,0.0000705\Dipol
 eDeriv=0.4603536,0.0293189,-0.0000344,-0.0039869,0.3731248,0.0000186,0
 .0000363,0.0000982,-0.0135888,-0.4162677,-0.1212728,-0.0000036,-0.3194
 011,-0.0856837,0.0000318,-0.0000237,-0.0000251,-0.1445956,1.553438,-0.
 0036567,-0.0000144,0.0033479,0.2981656,-0.0000272,-0.0000245,-0.000031
 4,0.0932185,-0.416516,0.1295338,0.0000258,0.2803375,-0.0723222,0.00002
 62,0.000056,-0.0000057,-0.1346571,0.4757728,-0.0617463,0.0000025,0.034
 0258,0.3810028,0.0000338,-0.000117,0.0001484,-0.0155166,-0.6038126,0.0
 180843,-0.0000017,-0.0191898,-0.5969884,-0.0000544,0.000027,0.0000069,
 -0.2669241,0.0263218,-0.0776688,0.0000057,-0.0646222,-0.0955707,-0.000
 0021,-0.0000359,-0.0000683,0.1026616,-0.0187948,0.0979848,0.000016,0.0
 85426,-0.0545056,-0.000014,0.0000258,-0.0000062,0.1450721,0.0408058,-0
 .0649046,-0.0000094,-0.0569524,-0.032571,-0.0000096,-0.0000275,-0.0000
 114,0.1453559,0.0227984,0.084479,0.0000022,0.0663768,-0.0863032,-0.000
 0063,0.0000743,-0.0001239,0.1035397,-1.4789342,0.0120199,0.0000195,-0.
 0101939,-0.1466603,0.000025,-0.0000031,0.0000367,-0.3263474,0.3548349,
 -0.0421715,-0.0000082,0.0048322,0.1183118,-0.0000218,0.0000123,-0.0000
 183,0.3117818\Polar=84.4494619,-1.5588436,78.5505746,-0.001008,0.00088
 17,38.3852545\PG=C01 [X(C5H5N1O1)]\NImag=0\\0.65555886,0.04703767,0.70
 150953,-0.00001443,0.00002403,0.15078696,-0.31679982,-0.03587287,0.000
 02205,0.66428988,0.02624264,-0.12519506,-0.00000530,-0.03425744,0.6936
 8896,0.00002680,-0.00000240,-0.05937652,-0.00003831,0.00003806,0.11007
 543,-0.02916714,-0.03273731,-0.00000129,-0.15174547,-0.10412920,-0.000
 00167,0.65784756,-0.07964827,0.04179115,0.00000465,-0.03626693,-0.2784
 0554,-0.00001436,-0.01296001,0.68925511,0.00000148,0.00000461,0.000775
 33,-0.00000360,-0.00001280,-0.06266008,-0.00000708,0.00003179,0.155488
 92,-0.04335587,0.03400485,0.00000212,0.05267982,0.01470007,-0.00000333
 ,-0.15176692,0.04486939,0.00000491,0.67745513,0.01690186,-0.01279130,-
 0.00000031,-0.01120575,-0.04530711,-0.00000144,0.10786099,-0.27626091,
 -0.00001254,0.03752317,0.70531130,0.00000018,0.00000082,-0.00599941,0.
 00000172,-0.00000247,0.00692291,0.00000189,-0.00001244,-0.06503318,0.0
 0002732,0.00004410,0.11503644,0.04678810,-0.01788389,-0.00000362,-0.04
 155410,-0.01663682,0.00000139,-0.03520660,0.07395491,-0.00000113,-0.32
 530915,-0.03497670,-0.00002412,0.66732545,0.02264736,-0.09480851,0.000
 00150,-0.03540998,-0.01484521,0.00000242,0.02897089,0.04662292,0.00000
 404,0.02633971,-0.12811129,-0.00000829,-0.05056460,0.69344228,-0.00000
 315,-0.00000022,0.00372584,0.00000163,0.00000203,-0.00653706,0.0000031
 4,-0.00000130,0.00093295,-0.00001407,-0.00000645,-0.05984609,-0.000034
 81,0.00004859,0.15243415,-0.17430059,0.10359235,0.00000393,-0.03358732
 ,0.03114329,0.00000317,0.01096565,0.00272313,-0.00000086,-0.02822066,-
 0.03410108,0.00000258,-0.16686279,-0.09716575,0.00001121,0.38407639,0.
 08571329,-0.26166927,-0.00000214,0.08392431,0.02253571,-0.00000198,0.0
 0259865,-0.07933433,-0.00000291,-0.08483181,0.01936788,0.00000469,-0.0
 7931772,-0.26264349,0.00000992,-0.00730182,0.61322052,-0.00000225,0.00
 000298,-0.06589997,0.00000338,-0.00000311,0.02089097,-0.00000071,0.000
 00341,-0.00715249,-0.00000147,-0.00000075,0.02023655,0.00002192,0.0000
 1954,-0.06610007,-0.00001811,-0.00001837,0.09158067,-0.13577762,-0.122
 98611,-0.00000972,-0.01204063,-0.02710311,-0.00000195,-0.00511513,0.00
 248946,0.00000081,-0.00039092,0.00082902,-0.00000009,0.00022513,0.0046
 7559,0.00000002,0.01353113,0.01914552,0.00000010,0.13943212,-0.1220657
 4,-0.23729244,-0.00001968,0.00170076,0.00346468,-0.00000054,0.00118432
 ,0.00124894,-0.00000080,0.00008949,0.00021494,0.00000015,0.00315800,-0
 .00240094,-0.00000167,-0.00650953,-0.03238042,0.00000034,0.12397099,0.
 26746845,-0.00001240,-0.00002710,-0.04019572,0.00000236,0.00000279,0.0
 0609061,0.00000168,-0.00000005,0.00792606,0.00000197,-0.00000103,-0.00
 107951,-0.00000302,-0.00000149,0.00969089,-0.00000202,0.00000446,-0.00
 340193,0.00001116,0.00002136,0.02567063,-0.00717706,0.03106794,0.00000
 096,-0.11816927,0.11168497,0.00001370,0.00747627,-0.01453473,-0.000001
 14,-0.00049347,-0.00362371,0.00000012,-0.00161260,-0.00206340,0.000000
 20,-0.00705384,0.00001018,0.00000121,0.00089054,-0.00054326,-0.0000005
 5,0.12133200,-0.00160128,0.00249710,0.00000041,0.11168428,-0.26157796,
 -0.00002047,0.01861849,-0.01880441,-0.00000163,-0.00455108,-0.00301719
 ,-0.00000070,-0.00109702,0.00017079,-0.00000008,-0.00016928,0.00223910
 ,-0.00000052,0.00045401,0.00051766,0.00000018,-0.12258499,0.27700476,0
 .00000160,-0.00000328,-0.00049810,0.00001179,-0.00001964,-0.02951996,0
 .00000055,-0.00000024,0.00280322,0.00000017,-0.00000065,0.00570233,0.0
 0000040,0.00000057,-0.00056367,0.00000015,0.00000022,0.00823784,-0.000
 00001,0.00000046,-0.00319020,-0.00001414,0.00002224,0.02124130,-0.0015
 6904,0.00192167,-0.00000013,-0.00135778,0.00335314,-0.00000030,0.01085
 011,0.01599950,0.00000131,-0.11519301,-0.11339118,-0.00001594,-0.00607
 571,-0.02990805,-0.00000114,-0.00654562,-0.00036192,-0.00000059,0.0001
 3449,-0.00026115,0.00000019,0.00050817,0.00102284,-0.00000011,0.116271
 67,0.00109276,0.00021563,-0.00000013,0.00419875,-0.00269116,-0.0000008
 6,-0.01646072,-0.01919061,-0.00000182,-0.11139686,-0.27402702,-0.00002
 510,0.00160983,0.00278311,0.00000053,0.00026628,0.00220304,-0.00000088
 ,-0.00008503,-0.00001683,0.00000014,-0.00078426,-0.00088486,0.00000004
 ,0.12262759,0.28868904,-0.00000033,0.00000073,-0.00055259,0.00000005,-
 0.00000056,0.00587123,-0.00000052,-0.00000029,0.00391847,-0.00001312,-
 0.00002582,-0.03207638,-0.00000225,-0.00000329,-0.00027587,0.00000106,
 0.00000062,0.00847990,0.00000008,0.00000001,-0.00147373,0.00000009,0.0
 0000004,0.00026171,0.00001587,0.00002721,0.02297935,0.00056971,-0.0046
 5174,0.00000165,-0.00043923,-0.00084147,0.,-0.00476795,-0.00254213,0.0
 0000045,-0.01294388,0.02658604,0.00000585,-0.14578086,0.12703542,0.000
 03419,0.01372252,-0.01747415,-0.00000333,0.00036915,-0.00061632,0.0000
 0026,0.00012405,0.00008555,-0.00000029,0.00090077,-0.00047825,-0.00000
 057,0.14984181,-0.00302760,-0.00283892,-0.00000127,-0.00012207,0.00024
 147,0.00000018,-0.00145906,0.00107197,-0.00000162,-0.00239614,0.004437
 80,-0.00000120,0.12616798,-0.22849561,-0.00005012,0.00836447,-0.032487
 55,-0.00000206,0.00066462,-0.00096298,0.00000018,0.00027941,-0.0000291
 7,0.00000010,0.00054556,0.00049158,0.00000098,-0.12905327,0.25827435,0
 .00000379,0.00000022,0.00942057,-0.00000096,-0.00000114,-0.00103080,-0
 .00000165,-0.00000105,0.00821864,-0.00000467,0.00000224,0.00633147,0.0
 0004297,-0.00006390,-0.04101391,-0.00000093,0.00000741,-0.00313641,-0.
 00000022,0.00000034,0.00054889,-0.00000016,0.00000011,-0.00139283,0.00
 000061,0.00000038,-0.00339169,-0.00003816,0.00005475,0.02604760,0.0064
 7802,-0.00430131,-0.00000144,-0.04532489,-0.00500950,0.00000094,-0.282
 76983,-0.04147381,-0.00000085,-0.04540127,0.01124049,0.00000071,0.0076
 4642,0.00244146,0.00000239,-0.00653832,-0.00061186,-0.00000037,-0.0016
 2455,-0.00014158,0.00000041,0.00433653,0.00003602,-0.00000016,0.001889
 94,-0.00048067,-0.00000037,-0.00102127,0.00024349,-0.00000028,0.459631
 54,0.00652529,-0.00980416,-0.00000199,-0.04290463,0.00375481,0.0000007
 8,0.01043982,-0.10800007,-0.00000705,0.04672297,0.00773114,0.00000056,
 -0.00433253,-0.01116828,-0.00000089,-0.00089627,0.00848093,-0.00000036
 ,-0.00186991,0.00016649,0.00000056,-0.00042123,0.00272636,0.00000049,-
 0.00129367,0.00203382,0.00000029,0.00185311,0.00023066,0.00000049,-0.1
 3418634,0.53001353,-0.00000123,-0.00000024,0.00847467,0.00000055,0.000
 00135,0.01065131,0.00000693,-0.00000900,-0.04255883,0.00000112,0.00000
 249,0.00650946,0.00000207,0.00000023,0.00562723,-0.00000022,-0.0000018
 4,-0.00355951,-0.00000013,0.00000002,-0.00070584,-0.00000040,0.0000003
 5,-0.00340162,0.00000021,0.00000043,-0.00317731,0.00000004,0.,-0.00013
 966,-0.00002748,0.00006442,0.02835707,-0.00124755,0.00080874,-0.000000
 07,0.00404880,0.00085343,-0.00000045,-0.02660054,0.04738949,0.00000569
 ,-0.00705979,-0.00364313,-0.00000023,0.00041671,0.00300134,0.00000039,
 0.00081344,-0.00149268,0.00000022,0.00036628,0.00003402,-0.00000003,-0
 .00016132,-0.00189753,0.00000005,0.00018601,-0.00010943,0.00000001,-0.
 00057483,-0.00020740,-0.00000032,-0.09730232,0.12036339,0.00001852,0.1
 2711509,0.00018203,-0.00161375,0.00000023,-0.00546845,0.00433641,0.000
 00059,-0.00192686,0.00000578,0.00000073,-0.00107377,0.00245175,-0.0000
 0012,-0.00008145,-0.00054578,-0.00000033,0.00005420,0.00046788,-0.0000
 0021,-0.00018505,-0.00002753,0.,0.00151306,-0.00084217,-0.00000033,-0.
 00025433,0.00039425,0.00000008,0.00009722,0.00006640,0.00000015,0.1722
 4362,-0.42616523,-0.00005821,-0.16510024,0.42147200,-0.00000006,-0.000
 00016,-0.00066108,-0.00000067,0.00000080,-0.00137804,-0.00000128,-0.00
 000111,-0.00265902,-0.00000096,0.00000016,0.00329540,0.00000020,0.0000
 0009,0.00192560,0.00000004,-0.00000009,-0.00017555,-0.00000005,0.,0.00
 011985,0.00000013,0.00000007,0.00031999,0.00000002,0.00000006,-0.00056
 309,-0.00000010,0.00000007,-0.00046187,0.00002652,-0.00005731,-0.00607
 697,-0.00002378,0.00005741,0.00631479\\-0.00000722,0.00006017,-0.00002
 490,0.00012354,-0.00007484,0.00000696,-0.00025328,0.00010224,-0.000003
 61,0.00015128,0.00005537,-0.00000981,-0.00014769,-0.00011563,0.0000483
 6,0.00007424,0.00006599,-0.00000925,-0.00003255,-0.00002870,0.00000908
 ,-0.00000725,0.00000277,0.00000135,-0.00001631,-0.00002834,-0.00000323
 ,-0.00003741,0.00004109,-0.00001606,0.00017616,-0.00024722,-0.00000071
 ,-0.00002350,0.00016710,0.00000183\\\@


 HERE WE GO......
 SLIDING DOWN THE RAZOR BLADE OF LIFE......
                                 TOM LEHRER
 Job cpu time:       0 days  0 hours 45 minutes 31.9 seconds.
 File lengths (MBytes):  RWF=     79 Int=      0 D2E=      0 Chk=      7 Scr=      1
 Normal termination of Gaussian 09 at Fri Aug 27 21:17:00 2021.
