 Entering Gaussian System, Link 0=g09
 AtFile(1): pc-2.gbs
            -H     0
            S    4   1.00
                  0.754230D+02           0.240650D-02
                  0.113500D+02           0.184870D-01
                  0.259930D+01           0.897420D-01
                  0.735130D+00           0.281110D+00
            S    1   1.00
                  0.231670D+00           0.100000D+01
            S    1   1.00
                  0.741470D-01           0.100000D+01
            P    1   1.00
                  0.160000D+01           0.100000D+01
            P    1   1.00
                  0.450000D+00           0.100000D+01
            D    1   1.00
                  0.125000D+01           0.100000D+01
            ****
            -C     0
            S    7   1.00
                  0.785710D+04           0.568250D-03
                  0.117870D+04           0.439150D-02
                  0.268320D+03           0.225040D-01
                  0.759480D+02           0.866530D-01
                  0.245590D+02           0.244050D+00
                  0.862120D+01           0.441480D+00
                  0.312780D+01           0.353320D+00
            S    7   1.00
                  0.117870D+04          -0.594920D-06
                  0.268320D+03          -0.627480D-04
                  0.759480D+02          -0.757730D-03
                  0.245590D+02          -0.733080D-02
                  0.862120D+01          -0.389320D-01
                  0.312780D+01          -0.889080D-01
                  0.822020D+00           0.216890D+00
            S    1   1.00
                  0.330170D+00           0.100000D+01
            S    1   1.00
                  0.114630D+00           0.100000D+01
            P    4   1.00
                  0.337750D+02           0.602940D-02
                  0.767660D+01           0.432280D-01
                  0.223570D+01           0.163010D+00
                  0.764470D+00           0.365040D+00
            P    1   1.00
                  0.262320D+00           0.100000D+01
            P    1   1.00
                  0.846380D-01           0.100000D+01
            D    1   1.00
                  0.140000D+01           0.100000D+01
            D    1   1.00
                  0.450000D+00           0.100000D+01
            F    1   1.00
                  0.950000D+00           0.100000D+01
            ****
            -N     0
            S    7   1.00
                  0.111010D+05           0.545700D-03
                  0.166530D+04           0.421810D-02
                  0.379080D+03           0.216450D-01
                  0.107300D+03           0.837760D-01
                  0.347470D+02           0.238810D+00
                  0.122490D+02           0.439940D+00
                  0.447430D+01           0.363640D+00
            S    7   1.00
                  0.166530D+04          -0.150060D-05
                  0.379080D+03          -0.587530D-04
                  0.107300D+03          -0.774530D-03
                  0.347470D+02          -0.721610D-02
                  0.122490D+02          -0.393380D-01
                  0.447430D+01          -0.906110D-01
                  0.124040D+01           0.198820D+00
            S    1   1.00
                  0.487430D+00           0.100000D+01
            S    1   1.00
                  0.164840D+00           0.100000D+01
            P    4   1.00
                  0.479340D+02           0.617060D-02
                  0.109990D+02           0.442600D-01
                  0.324720D+01           0.168250D+00
                  0.111140D+01           0.368480D+00
            P    1   1.00
                  0.379880D+00           0.100000D+01
            P    1   1.00
                  0.120680D+00           0.100000D+01
            D    1   1.00
                  0.180000D+01           0.100000D+01
            D    1   1.00
                  0.550000D+00           0.100000D+01
            F    1   1.00
                  0.102000D+01           0.100000D+01
            ****
            -O     0
            S    7   1.00
                  0.147820D+05           0.535190D-03
                  0.221730D+04           0.413750D-02
                  0.504740D+03           0.212450D-01
                  0.142870D+03           0.824530D-01
                  0.463000D+02           0.236710D+00
                  0.163370D+02           0.440390D+00
                  0.598280D+01           0.364650D+00
            S    7   1.00
                  0.221730D+04          -0.192750D-05
                  0.504740D+03          -0.579640D-04
                  0.142870D+03          -0.794940D-03
                  0.463000D+02          -0.731250D-02
                  0.163370D+02          -0.405740D-01
                  0.598280D+01          -0.915940D-01
                  0.167180D+01           0.209400D+00
            S    1   1.00
                  0.646620D+00           0.100000D+01
            S    1   1.00
                  0.216690D+00           0.100000D+01
            P    4   1.00
                  0.604240D+02           0.689490D-02
                  0.139350D+02           0.490050D-01
                  0.415310D+01           0.182550D+00
                  0.141580D+01           0.376330D+00
            P    1   1.00
                  0.475490D+00           0.100000D+01
            P    1   1.00
                  0.145290D+00           0.100000D+01
            D    1   1.00
                  0.220000D+01           0.100000D+01
            D    1   1.00
                  0.650000D+00           0.100000D+01
            F    1   1.00
                  0.110000D+01           0.100000D+01
            ****
 Initial command:
 /public3/home/sc51754/softwares/g09e01/l1.exe "./Gau-40392.inp" -scrdir="./"
 Entering Link 1 = /public3/home/sc51754/softwares/g09e01/l1.exe PID=     40393.
  
 Copyright (c) 1988,1990,1992,1993,1995,1998,2003,2009,2015,
            Gaussian, Inc.  All Rights Reserved.
  
 This is part of the Gaussian(R) 09 program.  It is based on
 the Gaussian(R) 03 system (copyright 2003, Gaussian, Inc.),
 the Gaussian(R) 98 system (copyright 1998, Gaussian, Inc.),
 the Gaussian(R) 94 system (copyright 1995, Gaussian, Inc.),
 the Gaussian 92(TM) system (copyright 1992, Gaussian, Inc.),
 the Gaussian 90(TM) system (copyright 1990, Gaussian, Inc.),
 the Gaussian 88(TM) system (copyright 1988, Gaussian, Inc.),
 the Gaussian 86(TM) system (copyright 1986, Carnegie Mellon
 University), and the Gaussian 82(TM) system (copyright 1983,
 Carnegie Mellon University). Gaussian is a federally registered
 trademark of Gaussian, Inc.
  
 This software contains proprietary and confidential information,
 including trade secrets, belonging to Gaussian, Inc.
  
 This software is provided under written license and may be
 used, copied, transmitted, or stored only in accord with that
 written license.
  
 The following legend is applicable only to US Government
 contracts under FAR:
  
                    RESTRICTED RIGHTS LEGEND
  
 Use, reproduction and disclosure by the US Government is
 subject to restrictions as set forth in subparagraphs (a)
 and (c) of the Commercial Computer Software - Restricted
 Rights clause in FAR 52.227-19.
  
 Gaussian, Inc.
 340 Quinnipiac St., Bldg. 40, Wallingford CT 06492
  
  
 ---------------------------------------------------------------
 Warning -- This program may not be used in any manner that
 competes with the business of Gaussian, Inc. or will provide
 assistance to any competitor of Gaussian, Inc.  The licensee
 of this program is prohibited from giving any competitor of
 Gaussian, Inc. access to this program.  By using this program,
 the user acknowledges that Gaussian, Inc. is engaged in the
 business of creating and licensing software in the field of
 computational chemistry and represents and warrants to the
 licensee that it is not a competitor of Gaussian, Inc. and that
 it will not use this program in any manner prohibited above.
 ---------------------------------------------------------------
  

 Cite this work as:
 Gaussian 09, Revision E.01,
 M. J. Frisch, G. W. Trucks, H. B. Schlegel, G. E. Scuseria, 
 M. A. Robb, J. R. Cheeseman, G. Scalmani, V. Barone, B. Mennucci, 
 G. A. Petersson, H. Nakatsuji, M. Caricato, X. Li, H. P. Hratchian, 
 A. F. Izmaylov, J. Bloino, G. Zheng, J. L. Sonnenberg, M. Hada, 
 M. Ehara, K. Toyota, R. Fukuda, J. Hasegawa, M. Ishida, T. Nakajima, 
 Y. Honda, O. Kitao, H. Nakai, T. Vreven, J. A. Montgomery, Jr., 
 J. E. Peralta, F. Ogliaro, M. Bearpark, J. J. Heyd, E. Brothers, 
 K. N. Kudin, V. N. Staroverov, T. Keith, R. Kobayashi, J. Normand, 
 K. Raghavachari, A. Rendell, J. C. Burant, S. S. Iyengar, J. Tomasi, 
 M. Cossi, N. Rega, J. M. Millam, M. Klene, J. E. Knox, J. B. Cross, 
 V. Bakken, C. Adamo, J. Jaramillo, R. Gomperts, R. E. Stratmann, 
 O. Yazyev, A. J. Austin, R. Cammi, C. Pomelli, J. W. Ochterski, 
 R. L. Martin, K. Morokuma, V. G. Zakrzewski, G. A. Voth, 
 P. Salvador, J. J. Dannenberg, S. Dapprich, A. D. Daniels, 
 O. Farkas, J. B. Foresman, J. V. Ortiz, J. Cioslowski, 
 and D. J. Fox, Gaussian, Inc., Wallingford CT, 2013.
 
 ******************************************
 Gaussian 09:  EM64L-G09RevE.01 30-Nov-2015
                27-Aug-2021 
 ******************************************
 %nprocshared=64
 Will use up to   64 processors via shared memory.
 %mem=128GB
 %chk=4HY_BHandHLYP_PC2_OPT_FREQ.chk
 -------------------------
 #p opt freq BHandHLYP/gen
 -------------------------
 1/14=-1,18=20,19=15,26=3,38=1/1,3;
 2/9=110,12=2,17=6,18=5,40=1/2;
 3/5=7,11=2,16=1,25=1,30=1,71=1,74=-3/1,2,3;
 4//1;
 5/5=2,38=5/2;
 6/7=2,8=2,9=2,10=2,28=1/1;
 7//1,2,3,16;
 1/14=-1,18=20,19=15,26=3/3(2);
 2/9=110/2;
 99//99;
 2/9=110/2;
 3/5=7,6=1,11=2,16=1,25=1,30=1,71=1,74=-3,82=7/1,2,3;
 4/5=5,16=3,69=1/1;
 5/5=2,38=5/2;
 7//1,2,3,16;
 1/14=-1,18=20,19=15,26=3/3(-5);
 2/9=110/2;
 6/7=2,8=2,9=2,10=2,19=2,28=1/1;
 99/9=1/99;
 Leave Link    1 at Fri Aug 27 21:20:22 2021, MaxMem= 17179869184 cpu:         3.5
 (Enter /public3/home/sc51754/softwares/g09e01/l101.exe)
 --------------------------
 4HY_BHandHLYP_PC2_OPT_FREQ
 --------------------------
 Symbolic Z-matrix:
 Charge =  0 Multiplicity = 1
 C                     1.15223   1.15341  -0.00011 
 C                    -0.24145   1.18944   0.00003 
 C                    -0.93443  -0.02499   0.00004 
 C                    -0.19715  -1.21307  -0.00009 
 C                     1.19102  -1.12281   0.00022 
 N                     1.87822   0.02956   0.00002 
 H                     1.71189   2.08718  -0.0001 
 H                    -0.77027   2.13945  -0.00002 
 H                    -0.70664  -2.17013  -0.00044 
 H                     1.78719  -2.03343  -0.00024 
 O                    -2.29029  -0.1124   -0.00001 
 H                    -2.6687    0.77737   0.00031 
 
 NAtoms=     12 NQM=       12 NQMF=       0 NMMI=      0 NMMIF=      0
                NMic=       0 NMicF=      0.
                    Isotopes and Nuclear Properties:
 (Nuclear quadrupole moments (NQMom) in fm**2, nuclear magnetic moments (NMagM)
  in nuclear magnetons)

  Atom         1           2           3           4           5           6           7           8           9          10
 IAtWgt=          12          12          12          12          12          14           1           1           1           1
 AtmWgt=  12.0000000  12.0000000  12.0000000  12.0000000  12.0000000  14.0030740   1.0078250   1.0078250   1.0078250   1.0078250
 NucSpn=           0           0           0           0           0           2           1           1           1           1
 AtZEff=   0.0000000   0.0000000   0.0000000   0.0000000   0.0000000   0.0000000   0.0000000   0.0000000   0.0000000   0.0000000
 NQMom=    0.0000000   0.0000000   0.0000000   0.0000000   0.0000000   2.0440000   0.0000000   0.0000000   0.0000000   0.0000000
 NMagM=    0.0000000   0.0000000   0.0000000   0.0000000   0.0000000   0.4037610   2.7928460   2.7928460   2.7928460   2.7928460
 AtZNuc=   6.0000000   6.0000000   6.0000000   6.0000000   6.0000000   7.0000000   1.0000000   1.0000000   1.0000000   1.0000000

  Atom        11          12
 IAtWgt=          16           1
 AtmWgt=  15.9949146   1.0078250
 NucSpn=           0           1
 AtZEff=   0.0000000   0.0000000
 NQMom=    0.0000000   0.0000000
 NMagM=    0.0000000   2.7928460
 AtZNuc=   8.0000000   1.0000000
 Leave Link  101 at Fri Aug 27 21:20:22 2021, MaxMem= 17179869184 cpu:         5.3
 (Enter /public3/home/sc51754/softwares/g09e01/l103.exe)

 GradGradGradGradGradGradGradGradGradGradGradGradGradGradGradGradGradGrad
 Berny optimization.
 Initialization pass.
                           ----------------------------
                           !    Initial Parameters    !
                           ! (Angstroms and Degrees)  !
 --------------------------                            --------------------------
 ! Name  Definition              Value          Derivative Info.                !
 --------------------------------------------------------------------------------
 ! R1    R(1,2)                  1.3941         estimate D2E/DX2                !
 ! R2    R(1,6)                  1.3379         estimate D2E/DX2                !
 ! R3    R(1,7)                  1.0886         estimate D2E/DX2                !
 ! R4    R(2,3)                  1.3982         estimate D2E/DX2                !
 ! R5    R(2,8)                  1.0873         estimate D2E/DX2                !
 ! R6    R(3,4)                  1.3983         estimate D2E/DX2                !
 ! R7    R(3,11)                 1.3587         estimate D2E/DX2                !
 ! R8    R(4,5)                  1.3911         estimate D2E/DX2                !
 ! R9    R(4,9)                  1.0842         estimate D2E/DX2                !
 ! R10   R(5,6)                  1.3417         estimate D2E/DX2                !
 ! R11   R(5,10)                 1.0884         estimate D2E/DX2                !
 ! R12   R(11,12)                0.9669         estimate D2E/DX2                !
 ! A1    A(2,1,6)              124.3426         estimate D2E/DX2                !
 ! A2    A(2,1,7)              119.4556         estimate D2E/DX2                !
 ! A3    A(6,1,7)              116.2018         estimate D2E/DX2                !
 ! A4    A(1,2,3)              118.2292         estimate D2E/DX2                !
 ! A5    A(1,2,8)              120.5831         estimate D2E/DX2                !
 ! A6    A(3,2,8)              121.1877         estimate D2E/DX2                !
 ! A7    A(2,3,4)              118.4682         estimate D2E/DX2                !
 ! A8    A(2,3,11)             123.3985         estimate D2E/DX2                !
 ! A9    A(4,3,11)             118.1333         estimate D2E/DX2                !
 ! A10   A(3,4,5)              118.1015         estimate D2E/DX2                !
 ! A11   A(3,4,9)              120.1493         estimate D2E/DX2                !
 ! A12   A(5,4,9)              121.7493         estimate D2E/DX2                !
 ! A13   A(4,5,6)              124.5296         estimate D2E/DX2                !
 ! A14   A(4,5,10)             119.4914         estimate D2E/DX2                !
 ! A15   A(6,5,10)             115.9789         estimate D2E/DX2                !
 ! A16   A(1,6,5)              116.3289         estimate D2E/DX2                !
 ! A17   A(3,11,12)            109.3507         estimate D2E/DX2                !
 ! D1    D(6,1,2,3)             -0.0135         estimate D2E/DX2                !
 ! D2    D(6,1,2,8)            179.9955         estimate D2E/DX2                !
 ! D3    D(7,1,2,3)           -179.9987         estimate D2E/DX2                !
 ! D4    D(7,1,2,8)              0.0102         estimate D2E/DX2                !
 ! D5    D(2,1,6,5)              0.0039         estimate D2E/DX2                !
 ! D6    D(7,1,6,5)            179.9896         estimate D2E/DX2                !
 ! D7    D(1,2,3,4)              0.0007         estimate D2E/DX2                !
 ! D8    D(1,2,3,11)          -179.9909         estimate D2E/DX2                !
 ! D9    D(8,2,3,4)            179.9917         estimate D2E/DX2                !
 ! D10   D(8,2,3,11)             0.0001         estimate D2E/DX2                !
 ! D11   D(2,3,4,5)              0.0198         estimate D2E/DX2                !
 ! D12   D(2,3,4,9)           -179.978          estimate D2E/DX2                !
 ! D13   D(11,3,4,5)          -179.9882         estimate D2E/DX2                !
 ! D14   D(11,3,4,9)             0.014          estimate D2E/DX2                !
 ! D15   D(2,3,11,12)           -0.0225         estimate D2E/DX2                !
 ! D16   D(4,3,11,12)          179.9859         estimate D2E/DX2                !
 ! D17   D(3,4,5,6)             -0.0313         estimate D2E/DX2                !
 ! D18   D(3,4,5,10)          -179.9777         estimate D2E/DX2                !
 ! D19   D(9,4,5,6)            179.9664         estimate D2E/DX2                !
 ! D20   D(9,4,5,10)             0.0201         estimate D2E/DX2                !
 ! D21   D(4,5,6,1)              0.0192         estimate D2E/DX2                !
 ! D22   D(10,5,6,1)           179.9673         estimate D2E/DX2                !
 --------------------------------------------------------------------------------
 Trust Radius=3.00D-01 FncErr=1.00D-07 GrdErr=1.00D-06
 Number of steps in this run=     61 maximum allowed number of steps=    100.
 GradGradGradGradGradGradGradGradGradGradGradGradGradGradGradGradGradGrad

 Leave Link  103 at Fri Aug 27 21:20:22 2021, MaxMem= 17179869184 cpu:         0.2
 (Enter /public3/home/sc51754/softwares/g09e01/l202.exe)
                          Input orientation:                          
 ---------------------------------------------------------------------
 Center     Atomic      Atomic             Coordinates (Angstroms)
 Number     Number       Type             X           Y           Z
 ---------------------------------------------------------------------
      1          6           0        1.152230    1.153409   -0.000114
      2          6           0       -0.241450    1.189435    0.000028
      3          6           0       -0.934425   -0.024989    0.000035
      4          6           0       -0.197153   -1.213074   -0.000085
      5          6           0        1.191022   -1.122808    0.000218
      6          7           0        1.878221    0.029557    0.000015
      7          1           0        1.711886    2.087182   -0.000101
      8          1           0       -0.770273    2.139452   -0.000016
      9          1           0       -0.706644   -2.170125   -0.000442
     10          1           0        1.787188   -2.033434   -0.000236
     11          8           0       -2.290294   -0.112398   -0.000014
     12          1           0       -2.668700    0.777372    0.000305
 ---------------------------------------------------------------------
                    Distance matrix (angstroms):
                    1          2          3          4          5
     1  C    0.000000
     2  C    1.394146   0.000000
     3  C    2.396404   1.398227   0.000000
     4  C    2.724165   2.402917   1.398255   0.000000
     5  C    2.276548   2.720008   2.392223   1.391107   0.000000
     6  N    1.337949   2.416262   2.813175   2.418948   1.341711
     7  H    1.088645   2.149761   3.385887   3.812626   3.251974
     8  H    2.160625   1.087284   2.170657   3.401161   3.806444
     9  H    3.808056   3.391615   2.157196   1.084218   2.167489
    10  H    3.249483   3.808183   3.382459   2.147231   1.088418
    11  O    3.667866   2.427454   1.358684   2.364895   3.624981
    12  H    3.839389   2.461979   1.910888   3.173393   4.302109
                    6          7          8          9         10
     6  N    0.000000
     7  H    2.064337   0.000000
     8  H    3.386174   2.482709   0.000000
     9  H    3.394131   4.896320   4.310047   0.000000
    10  H    2.064999   4.121304   4.894240   2.497575   0.000000
    11  O    4.170931   4.566793   2.716853   2.596572   4.507354
    12  H    4.608006   4.572213   2.336512   3.540820   5.268355
                   11         12
    11  O    0.000000
    12  H    0.966893   0.000000
 Stoichiometry    C5H5NO
 Framework group  C1[X(C5H5NO)]
 Deg. of freedom    30
 Full point group                 C1      NOp   1
 Largest Abelian subgroup         C1      NOp   1
 Largest concise Abelian subgroup C1      NOp   1
                         Standard orientation:                         
 ---------------------------------------------------------------------
 Center     Atomic      Atomic             Coordinates (Angstroms)
 Number     Number       Type             X           Y           Z
 ---------------------------------------------------------------------
      1          6           0       -1.152230    1.153409    0.000114
      2          6           0        0.241450    1.189435   -0.000028
      3          6           0        0.934425   -0.024989   -0.000035
      4          6           0        0.197153   -1.213074    0.000085
      5          6           0       -1.191022   -1.122808   -0.000218
      6          7           0       -1.878221    0.029557   -0.000015
      7          1           0       -1.711887    2.087182    0.000101
      8          1           0        0.770272    2.139452    0.000016
      9          1           0        0.706644   -2.170125    0.000442
     10          1           0       -1.787188   -2.033434    0.000236
     11          8           0        2.290294   -0.112397    0.000014
     12          1           0        2.668700    0.777373   -0.000305
 ---------------------------------------------------------------------
 Rotational constants (GHZ):      5.9862655      2.6268417      1.8257026
 Leave Link  202 at Fri Aug 27 21:20:23 2021, MaxMem= 17179869184 cpu:         5.0
 (Enter /public3/home/sc51754/softwares/g09e01/l301.exe)
 General basis read from cards:  (5D, 7F)
 Centers:       7      8      9     10     12
 S 4 1.00
     Exponent=  7.5423000000D+01 Coefficients=  2.4065000000D-03
     Exponent=  1.1350000000D+01 Coefficients=  1.8487000000D-02
     Exponent=  2.5993000000D+00 Coefficients=  8.9742000000D-02
     Exponent=  7.3513000000D-01 Coefficients=  2.8111000000D-01
 S 1 1.00
     Exponent=  2.3167000000D-01 Coefficients=  1.0000000000D+00
 S 1 1.00
     Exponent=  7.4147000000D-02 Coefficients=  1.0000000000D+00
 P 1 1.00
     Exponent=  1.6000000000D+00 Coefficients=  1.0000000000D+00
 P 1 1.00
     Exponent=  4.5000000000D-01 Coefficients=  1.0000000000D+00
 D 1 1.00
     Exponent=  1.2500000000D+00 Coefficients=  1.0000000000D+00
 ****
 Centers:       1      2      3      4      5
 S 7 1.00
     Exponent=  7.8571000000D+03 Coefficients=  5.6825000000D-04
     Exponent=  1.1787000000D+03 Coefficients=  4.3915000000D-03
     Exponent=  2.6832000000D+02 Coefficients=  2.2504000000D-02
     Exponent=  7.5948000000D+01 Coefficients=  8.6653000000D-02
     Exponent=  2.4559000000D+01 Coefficients=  2.4405000000D-01
     Exponent=  8.6212000000D+00 Coefficients=  4.4148000000D-01
     Exponent=  3.1278000000D+00 Coefficients=  3.5332000000D-01
 S 7 1.00
     Exponent=  1.1787000000D+03 Coefficients= -5.9492000000D-07
     Exponent=  2.6832000000D+02 Coefficients= -6.2748000000D-05
     Exponent=  7.5948000000D+01 Coefficients= -7.5773000000D-04
     Exponent=  2.4559000000D+01 Coefficients= -7.3308000000D-03
     Exponent=  8.6212000000D+00 Coefficients= -3.8932000000D-02
     Exponent=  3.1278000000D+00 Coefficients= -8.8908000000D-02
     Exponent=  8.2202000000D-01 Coefficients=  2.1689000000D-01
 S 1 1.00
     Exponent=  3.3017000000D-01 Coefficients=  1.0000000000D+00
 S 1 1.00
     Exponent=  1.1463000000D-01 Coefficients=  1.0000000000D+00
 P 4 1.00
     Exponent=  3.3775000000D+01 Coefficients=  6.0294000000D-03
     Exponent=  7.6766000000D+00 Coefficients=  4.3228000000D-02
     Exponent=  2.2357000000D+00 Coefficients=  1.6301000000D-01
     Exponent=  7.6447000000D-01 Coefficients=  3.6504000000D-01
 P 1 1.00
     Exponent=  2.6232000000D-01 Coefficients=  1.0000000000D+00
 P 1 1.00
     Exponent=  8.4638000000D-02 Coefficients=  1.0000000000D+00
 D 1 1.00
     Exponent=  1.4000000000D+00 Coefficients=  1.0000000000D+00
 D 1 1.00
     Exponent=  4.5000000000D-01 Coefficients=  1.0000000000D+00
 F 1 1.00
     Exponent=  9.5000000000D-01 Coefficients=  1.0000000000D+00
 ****
 Centers:       6
 S 7 1.00
     Exponent=  1.1101000000D+04 Coefficients=  5.4570000000D-04
     Exponent=  1.6653000000D+03 Coefficients=  4.2181000000D-03
     Exponent=  3.7908000000D+02 Coefficients=  2.1645000000D-02
     Exponent=  1.0730000000D+02 Coefficients=  8.3776000000D-02
     Exponent=  3.4747000000D+01 Coefficients=  2.3881000000D-01
     Exponent=  1.2249000000D+01 Coefficients=  4.3994000000D-01
     Exponent=  4.4743000000D+00 Coefficients=  3.6364000000D-01
 S 7 1.00
     Exponent=  1.6653000000D+03 Coefficients= -1.5006000000D-06
     Exponent=  3.7908000000D+02 Coefficients= -5.8753000000D-05
     Exponent=  1.0730000000D+02 Coefficients= -7.7453000000D-04
     Exponent=  3.4747000000D+01 Coefficients= -7.2161000000D-03
     Exponent=  1.2249000000D+01 Coefficients= -3.9338000000D-02
     Exponent=  4.4743000000D+00 Coefficients= -9.0611000000D-02
     Exponent=  1.2404000000D+00 Coefficients=  1.9882000000D-01
 S 1 1.00
     Exponent=  4.8743000000D-01 Coefficients=  1.0000000000D+00
 S 1 1.00
     Exponent=  1.6484000000D-01 Coefficients=  1.0000000000D+00
 P 4 1.00
     Exponent=  4.7934000000D+01 Coefficients=  6.1706000000D-03
     Exponent=  1.0999000000D+01 Coefficients=  4.4260000000D-02
     Exponent=  3.2472000000D+00 Coefficients=  1.6825000000D-01
     Exponent=  1.1114000000D+00 Coefficients=  3.6848000000D-01
 P 1 1.00
     Exponent=  3.7988000000D-01 Coefficients=  1.0000000000D+00
 P 1 1.00
     Exponent=  1.2068000000D-01 Coefficients=  1.0000000000D+00
 D 1 1.00
     Exponent=  1.8000000000D+00 Coefficients=  1.0000000000D+00
 D 1 1.00
     Exponent=  5.5000000000D-01 Coefficients=  1.0000000000D+00
 F 1 1.00
     Exponent=  1.0200000000D+00 Coefficients=  1.0000000000D+00
 ****
 Centers:      11
 S 7 1.00
     Exponent=  1.4782000000D+04 Coefficients=  5.3519000000D-04
     Exponent=  2.2173000000D+03 Coefficients=  4.1375000000D-03
     Exponent=  5.0474000000D+02 Coefficients=  2.1245000000D-02
     Exponent=  1.4287000000D+02 Coefficients=  8.2453000000D-02
     Exponent=  4.6300000000D+01 Coefficients=  2.3671000000D-01
     Exponent=  1.6337000000D+01 Coefficients=  4.4039000000D-01
     Exponent=  5.9828000000D+00 Coefficients=  3.6465000000D-01
 S 7 1.00
     Exponent=  2.2173000000D+03 Coefficients= -1.9275000000D-06
     Exponent=  5.0474000000D+02 Coefficients= -5.7964000000D-05
     Exponent=  1.4287000000D+02 Coefficients= -7.9494000000D-04
     Exponent=  4.6300000000D+01 Coefficients= -7.3125000000D-03
     Exponent=  1.6337000000D+01 Coefficients= -4.0574000000D-02
     Exponent=  5.9828000000D+00 Coefficients= -9.1594000000D-02
     Exponent=  1.6718000000D+00 Coefficients=  2.0940000000D-01
 S 1 1.00
     Exponent=  6.4662000000D-01 Coefficients=  1.0000000000D+00
 S 1 1.00
     Exponent=  2.1669000000D-01 Coefficients=  1.0000000000D+00
 P 4 1.00
     Exponent=  6.0424000000D+01 Coefficients=  6.8949000000D-03
     Exponent=  1.3935000000D+01 Coefficients=  4.9005000000D-02
     Exponent=  4.1531000000D+00 Coefficients=  1.8255000000D-01
     Exponent=  1.4158000000D+00 Coefficients=  3.7633000000D-01
 P 1 1.00
     Exponent=  4.7549000000D-01 Coefficients=  1.0000000000D+00
 P 1 1.00
     Exponent=  1.4529000000D-01 Coefficients=  1.0000000000D+00
 D 1 1.00
     Exponent=  2.2000000000D+00 Coefficients=  1.0000000000D+00
 D 1 1.00
     Exponent=  6.5000000000D-01 Coefficients=  1.0000000000D+00
 F 1 1.00
     Exponent=  1.1000000000D+00 Coefficients=  1.0000000000D+00
 ****
 Ernie: Thresh=  0.10000D-02 Tol=  0.10000D-05 Strict=F.
 Ernie:  7 primitive shells out of 220 were deleted.
 There are   320 symmetry adapted cartesian basis functions of A   symmetry.
 There are   280 symmetry adapted basis functions of A   symmetry.
   280 basis functions,   475 primitive gaussians,   320 cartesian basis functions
    25 alpha electrons       25 beta electrons
       nuclear repulsion energy       273.7666329457 Hartrees.
 IExCor=  402 DFT=T Ex+Corr=BHandHLYP ExCW=0 ScaHFX=  0.500000
 ScaDFX=  0.500000  0.500000  1.000000  1.000000 ScalE2=  1.000000  1.000000
 IRadAn=      0 IRanWt=     -1 IRanGd=            0 ICorTp=0 IEmpDi=  4
 NAtoms=   12 NActive=   12 NUniq=   12 SFac= 1.00D+00 NAtFMM=   60 NAOKFM=F Big=F
 Integral buffers will be    131072 words long.
 Raffenetti 2 integral format.
 Two-electron integral symmetry is turned on.
 Leave Link  301 at Fri Aug 27 21:20:23 2021, MaxMem= 17179869184 cpu:         3.3
 (Enter /public3/home/sc51754/softwares/g09e01/l302.exe)
 NPDir=0 NMtPBC=     1 NCelOv=     1 NCel=       1 NClECP=     1 NCelD=      1
         NCelK=      1 NCelE2=     1 NClLst=     1 CellRange=     0.0.
 One-electron integrals computed using PRISM.
 NBasis=   280 RedAO= T EigKep=  2.00D-04  NBF=   280
 NBsUse=   280 1.00D-06 EigRej= -1.00D+00 NBFU=   280
 Precomputing XC quadrature grid using
 IXCGrd= 4 IRadAn=           0 IRanWt=          -1 IRanGd=           0 AccXCQ= 0.00D+00.
 Generated NRdTot=       0 NPtTot=           0 NUsed=           0 NTot=          32
 NSgBfM=   320   320   320   320   320 MxSgAt=    12 MxSgA2=    12.
 Leave Link  302 at Fri Aug 27 21:20:24 2021, MaxMem= 17179869184 cpu:        44.5
 (Enter /public3/home/sc51754/softwares/g09e01/l303.exe)
 DipDrv:  MaxL=1.
 Leave Link  303 at Fri Aug 27 21:20:24 2021, MaxMem= 17179869184 cpu:        11.5
 (Enter /public3/home/sc51754/softwares/g09e01/l401.exe)
 ExpMin= 7.41D-02 ExpMax= 1.48D+04 ExpMxC= 5.05D+02 IAcc=2 IRadAn=         4 AccDes= 0.00D+00
 Harris functional with IExCor=  402 and IRadAn=       4 diagonalized for initial guess.
 HarFok:  IExCor=  402 AccDes= 0.00D+00 IRadAn=         4 IDoV= 1 UseB2=F ITyADJ=14
 ICtDFT=  3500011 ScaDFX=  1.000000  1.000000  1.000000  1.000000
 FoFCou: FMM=F IPFlag=           0 FMFlag=      100000 FMFlg1=           0
         NFxFlg=           0 DoJE=T BraDBF=F KetDBF=T FulRan=T
         wScrn=  0.000000 ICntrl=     500 IOpCl=  0 I1Cent=   200000004 NGrid=           0
         NMat0=    1 NMatS0=      1 NMatT0=    0 NMatD0=    1 NMtDS0=    0 NMtDT0=    0
 Petite list used in FoFCou.
 Harris En= -323.664577025252    
 JPrj=0 DoOrth=F DoCkMO=F.
 Leave Link  401 at Fri Aug 27 21:20:25 2021, MaxMem= 17179869184 cpu:        53.0
 (Enter /public3/home/sc51754/softwares/g09e01/l502.exe)
 Closed shell SCF:
 Using DIIS extrapolation, IDIIS=  1040.
 Integral symmetry usage will be decided dynamically.
 Keep R1 ints in memory in canonical form, NReq=790723944.
 IVT=      348554 IEndB=      348554 NGot= 17179869184 MDV= 16405683161
 LenX= 16405683161 LenY= 16405580320
 Requested convergence on RMS density matrix=1.00D-08 within 128 cycles.
 Requested convergence on MAX density matrix=1.00D-06.
 Requested convergence on             energy=1.00D-06.
 No special actions if energy rises.
 FoFCou: FMM=F IPFlag=           0 FMFlag=           0 FMFlg1=           0
         NFxFlg=           0 DoJE=F BraDBF=F KetDBF=F FulRan=T
         wScrn=  0.000000 ICntrl=     600 IOpCl=  0 I1Cent=           0 NGrid=           0
         NMat0=    1 NMatS0=  39340 NMatT0=    0 NMatD0=    1 NMtDS0=    0 NMtDT0=    0
 Symmetry not used in FoFCou.
 Integral accuracy reduced to 1.0D-05 until final iterations.

 Cycle   1  Pass 0  IDiag  1:
 E= -323.262198144325    
 DIIS: error= 3.91D-02 at cycle   1 NSaved=   1.
 NSaved= 1 IEnMin= 1 EnMin= -323.262198144325     IErMin= 1 ErrMin= 3.91D-02
 ErrMax= 3.91D-02  0.00D+00 EMaxC= 1.00D-01 BMatC= 2.28D-01 BMatP= 2.28D-01
 IDIUse=3 WtCom= 6.09D-01 WtEn= 3.91D-01
 Coeff-Com:  0.100D+01
 Coeff-En:   0.100D+01
 Coeff:      0.100D+01
 Gap=     0.334 Goal=   None    Shift=    0.000
 GapD=    0.334 DampG=1.000 DampE=0.500 DampFc=0.5000 IDamp=-1.
 Damping current iteration by 5.00D-01
 RMSDP=2.43D-03 MaxDP=1.30D-01              OVMax= 1.51D-01

 Cycle   2  Pass 0  IDiag  1:
 E= -323.357905498527     Delta-E=       -0.095707354202 Rises=F Damp=T
 DIIS: error= 9.61D-03 at cycle   2 NSaved=   2.
 NSaved= 2 IEnMin= 2 EnMin= -323.357905498527     IErMin= 2 ErrMin= 9.61D-03
 ErrMax= 9.61D-03  0.00D+00 EMaxC= 1.00D-01 BMatC= 2.01D-02 BMatP= 2.28D-01
 IDIUse=3 WtCom= 9.04D-01 WtEn= 9.61D-02
 Coeff-Com: -0.193D+00 0.119D+01
 Coeff-En:   0.000D+00 0.100D+01
 Coeff:     -0.174D+00 0.117D+01
 Gap=     0.370 Goal=   None    Shift=    0.000
 RMSDP=5.88D-04 MaxDP=3.14D-02 DE=-9.57D-02 OVMax= 7.44D-02

 Cycle   3  Pass 0  IDiag  1:
 E= -323.443218102639     Delta-E=       -0.085312604112 Rises=F Damp=F
 DIIS: error= 3.94D-03 at cycle   3 NSaved=   3.
 NSaved= 3 IEnMin= 3 EnMin= -323.443218102639     IErMin= 3 ErrMin= 3.94D-03
 ErrMax= 3.94D-03  0.00D+00 EMaxC= 1.00D-01 BMatC= 3.67D-03 BMatP= 2.01D-02
 IDIUse=3 WtCom= 9.61D-01 WtEn= 3.94D-02
 Coeff-Com: -0.116D+00 0.347D+00 0.769D+00
 Coeff-En:   0.000D+00 0.000D+00 0.100D+01
 Coeff:     -0.112D+00 0.334D+00 0.778D+00
 Gap=     0.324 Goal=   None    Shift=    0.000
 RMSDP=1.96D-04 MaxDP=9.67D-03 DE=-8.53D-02 OVMax= 2.58D-02

 Cycle   4  Pass 0  IDiag  1:
 E= -323.445153740827     Delta-E=       -0.001935638188 Rises=F Damp=F
 DIIS: error= 2.43D-03 at cycle   4 NSaved=   4.
 NSaved= 4 IEnMin= 4 EnMin= -323.445153740827     IErMin= 4 ErrMin= 2.43D-03
 ErrMax= 2.43D-03  0.00D+00 EMaxC= 1.00D-01 BMatC= 1.11D-03 BMatP= 3.67D-03
 IDIUse=3 WtCom= 9.76D-01 WtEn= 2.43D-02
 Coeff-Com: -0.440D-01 0.889D-01 0.409D+00 0.546D+00
 Coeff-En:   0.000D+00 0.000D+00 0.232D+00 0.768D+00
 Coeff:     -0.429D-01 0.867D-01 0.405D+00 0.552D+00
 Gap=     0.325 Goal=   None    Shift=    0.000
 RMSDP=1.01D-04 MaxDP=4.25D-03 DE=-1.94D-03 OVMax= 1.12D-02

 Cycle   5  Pass 0  IDiag  1:
 E= -323.446160575580     Delta-E=       -0.001006834753 Rises=F Damp=F
 DIIS: error= 5.80D-04 at cycle   5 NSaved=   5.
 NSaved= 5 IEnMin= 5 EnMin= -323.446160575580     IErMin= 5 ErrMin= 5.80D-04
 ErrMax= 5.80D-04  0.00D+00 EMaxC= 1.00D-01 BMatC= 4.36D-05 BMatP= 1.11D-03
 IDIUse=3 WtCom= 9.94D-01 WtEn= 5.80D-03
 Coeff-Com: -0.672D-02 0.446D-02 0.882D-01 0.221D+00 0.694D+00
 Coeff-En:   0.000D+00 0.000D+00 0.000D+00 0.000D+00 0.100D+01
 Coeff:     -0.669D-02 0.444D-02 0.877D-01 0.219D+00 0.695D+00
 Gap=     0.325 Goal=   None    Shift=    0.000
 RMSDP=1.96D-05 MaxDP=8.26D-04 DE=-1.01D-03 OVMax= 2.84D-03

 Cycle   6  Pass 0  IDiag  1:
 E= -323.446200544421     Delta-E=       -0.000039968841 Rises=F Damp=F
 DIIS: error= 9.19D-05 at cycle   6 NSaved=   6.
 NSaved= 6 IEnMin= 6 EnMin= -323.446200544421     IErMin= 6 ErrMin= 9.19D-05
 ErrMax= 9.19D-05  0.00D+00 EMaxC= 1.00D-01 BMatC= 3.00D-06 BMatP= 4.36D-05
 IDIUse=1 WtCom= 1.00D+00 WtEn= 0.00D+00
 Coeff-Com: -0.179D-02-0.911D-03 0.287D-01 0.857D-01 0.325D+00 0.563D+00
 Coeff:     -0.179D-02-0.911D-03 0.287D-01 0.857D-01 0.325D+00 0.563D+00
 Gap=     0.325 Goal=   None    Shift=    0.000
 RMSDP=5.77D-06 MaxDP=1.91D-04 DE=-4.00D-05 OVMax= 5.02D-04

 Initial convergence to 1.0D-05 achieved.  Increase integral accuracy.
 Cycle   7  Pass 1  IDiag  1:
 E= -323.446196236676     Delta-E=        0.000004307745 Rises=F Damp=F
 DIIS: error= 3.62D-05 at cycle   1 NSaved=   1.
 NSaved= 1 IEnMin= 1 EnMin= -323.446196236676     IErMin= 1 ErrMin= 3.62D-05
 ErrMax= 3.62D-05  0.00D+00 EMaxC= 1.00D-01 BMatC= 2.38D-07 BMatP= 2.38D-07
 IDIUse=1 WtCom= 1.00D+00 WtEn= 0.00D+00
 Coeff-Com:  0.100D+01
 Coeff:      0.100D+01
 Gap=     0.325 Goal=   None    Shift=    0.000
 RMSDP=5.77D-06 MaxDP=1.91D-04 DE= 4.31D-06 OVMax= 3.59D-04

 Cycle   8  Pass 1  IDiag  1:
 E= -323.446196363052     Delta-E=       -0.000000126376 Rises=F Damp=F
 DIIS: error= 2.99D-05 at cycle   2 NSaved=   2.
 NSaved= 2 IEnMin= 2 EnMin= -323.446196363052     IErMin= 2 ErrMin= 2.99D-05
 ErrMax= 2.99D-05  0.00D+00 EMaxC= 1.00D-01 BMatC= 2.50D-07 BMatP= 2.38D-07
 IDIUse=1 WtCom= 1.00D+00 WtEn= 0.00D+00
 Coeff-Com:  0.507D+00 0.493D+00
 Coeff:      0.507D+00 0.493D+00
 Gap=     0.325 Goal=   None    Shift=    0.000
 RMSDP=1.35D-06 MaxDP=5.90D-05 DE=-1.26D-07 OVMax= 1.50D-04

 Cycle   9  Pass 1  IDiag  1:
 E= -323.446196560452     Delta-E=       -0.000000197400 Rises=F Damp=F
 DIIS: error= 8.28D-06 at cycle   3 NSaved=   3.
 NSaved= 3 IEnMin= 3 EnMin= -323.446196560452     IErMin= 3 ErrMin= 8.28D-06
 ErrMax= 8.28D-06  0.00D+00 EMaxC= 1.00D-01 BMatC= 6.64D-09 BMatP= 2.38D-07
 IDIUse=1 WtCom= 1.00D+00 WtEn= 0.00D+00
 Coeff-Com: -0.646D-01 0.778D-01 0.987D+00
 Coeff:     -0.646D-01 0.778D-01 0.987D+00
 Gap=     0.325 Goal=   None    Shift=    0.000
 RMSDP=4.42D-07 MaxDP=2.01D-05 DE=-1.97D-07 OVMax= 7.43D-05

 Cycle  10  Pass 1  IDiag  1:
 E= -323.446196571030     Delta-E=       -0.000000010578 Rises=F Damp=F
 DIIS: error= 4.07D-06 at cycle   4 NSaved=   4.
 NSaved= 4 IEnMin= 4 EnMin= -323.446196571030     IErMin= 4 ErrMin= 4.07D-06
 ErrMax= 4.07D-06  0.00D+00 EMaxC= 1.00D-01 BMatC= 1.88D-09 BMatP= 6.64D-09
 IDIUse=1 WtCom= 1.00D+00 WtEn= 0.00D+00
 Coeff-Com: -0.532D-01 0.243D-02 0.457D+00 0.594D+00
 Coeff:     -0.532D-01 0.243D-02 0.457D+00 0.594D+00
 Gap=     0.325 Goal=   None    Shift=    0.000
 RMSDP=1.71D-07 MaxDP=6.43D-06 DE=-1.06D-08 OVMax= 1.69D-05

 Cycle  11  Pass 1  IDiag  1:
 E= -323.446196572972     Delta-E=       -0.000000001942 Rises=F Damp=F
 DIIS: error= 1.00D-06 at cycle   5 NSaved=   5.
 NSaved= 5 IEnMin= 5 EnMin= -323.446196572972     IErMin= 5 ErrMin= 1.00D-06
 ErrMax= 1.00D-06  0.00D+00 EMaxC= 1.00D-01 BMatC= 2.26D-10 BMatP= 1.88D-09
 IDIUse=1 WtCom= 1.00D+00 WtEn= 0.00D+00
 Coeff-Com: -0.871D-02-0.223D-01-0.158D-01 0.224D+00 0.823D+00
 Coeff:     -0.871D-02-0.223D-01-0.158D-01 0.224D+00 0.823D+00
 Gap=     0.325 Goal=   None    Shift=    0.000
 RMSDP=6.84D-08 MaxDP=3.31D-06 DE=-1.94D-09 OVMax= 1.22D-05

 Cycle  12  Pass 1  IDiag  1:
 E= -323.446196573307     Delta-E=       -0.000000000336 Rises=F Damp=F
 DIIS: error= 4.95D-07 at cycle   6 NSaved=   6.
 NSaved= 6 IEnMin= 6 EnMin= -323.446196573307     IErMin= 6 ErrMin= 4.95D-07
 ErrMax= 4.95D-07  0.00D+00 EMaxC= 1.00D-01 BMatC= 3.12D-11 BMatP= 2.26D-10
 IDIUse=1 WtCom= 1.00D+00 WtEn= 0.00D+00
 Coeff-Com:  0.519D-02-0.926D-02-0.728D-01-0.280D-01 0.285D+00 0.820D+00
 Coeff:      0.519D-02-0.926D-02-0.728D-01-0.280D-01 0.285D+00 0.820D+00
 Gap=     0.325 Goal=   None    Shift=    0.000
 RMSDP=2.95D-08 MaxDP=9.96D-07 DE=-3.36D-10 OVMax= 4.02D-06

 Cycle  13  Pass 1  IDiag  1:
 E= -323.446196573355     Delta-E=       -0.000000000048 Rises=F Damp=F
 DIIS: error= 9.63D-08 at cycle   7 NSaved=   7.
 NSaved= 7 IEnMin= 7 EnMin= -323.446196573355     IErMin= 7 ErrMin= 9.63D-08
 ErrMax= 9.63D-08  0.00D+00 EMaxC= 1.00D-01 BMatC= 2.30D-12 BMatP= 3.12D-11
 IDIUse=1 WtCom= 1.00D+00 WtEn= 0.00D+00
 Coeff-Com:  0.237D-02-0.125D-02-0.209D-01-0.269D-01 0.397D-01 0.265D+00
 Coeff-Com:  0.742D+00
 Coeff:      0.237D-02-0.125D-02-0.209D-01-0.269D-01 0.397D-01 0.265D+00
 Coeff:      0.742D+00
 Gap=     0.325 Goal=   None    Shift=    0.000
 RMSDP=7.37D-09 MaxDP=4.15D-07 DE=-4.76D-11 OVMax= 1.42D-06

 SCF Done:  E(RBHandHLYP) =  -323.446196573     A.U. after   13 cycles
            NFock= 13  Conv=0.74D-08     -V/T= 2.0045
 KE= 3.220076168726D+02 PE=-1.302018760281D+03 EE= 3.827983138898D+02
 Leave Link  502 at Fri Aug 27 21:20:36 2021, MaxMem= 17179869184 cpu:       191.1
 (Enter /public3/home/sc51754/softwares/g09e01/l601.exe)
 Copying SCF densities to generalized density rwf, IOpCl= 0 IROHF=0.

 **********************************************************************

            Population analysis using the SCF density.

 **********************************************************************

 Orbital symmetries:
       Occupied  (A) (A) (A) (A) (A) (A) (A) (A) (A) (A) (A) (A)
                 (A) (A) (A) (A) (A) (A) (A) (A) (A) (A) (A) (A)
                 (A)
       Virtual   (A) (A) (A) (A) (A) (A) (A) (A) (A) (A) (A) (A)
                 (A) (A) (A) (A) (A) (A) (A) (A) (A) (A) (A) (A)
                 (A) (A) (A) (A) (A) (A) (A) (A) (A) (A) (A) (A)
                 (A) (A) (A) (A) (A) (A) (A) (A) (A) (A) (A) (A)
                 (A) (A) (A) (A) (A) (A) (A) (A) (A) (A) (A) (A)
                 (A) (A) (A) (A) (A) (A) (A) (A) (A) (A) (A) (A)
                 (A) (A) (A) (A) (A) (A) (A) (A) (A) (A) (A) (A)
                 (A) (A) (A) (A) (A) (A) (A) (A) (A) (A) (A) (A)
                 (A) (A) (A) (A) (A) (A) (A) (A) (A) (A) (A) (A)
                 (A) (A) (A) (A) (A) (A) (A) (A) (A) (A) (A) (A)
                 (A) (A) (A) (A) (A) (A) (A) (A) (A) (A) (A) (A)
                 (A) (A) (A) (A) (A) (A) (A) (A) (A) (A) (A) (A)
                 (A) (A) (A) (A) (A) (A) (A) (A) (A) (A) (A) (A)
                 (A) (A) (A) (A) (A) (A) (A) (A) (A) (A) (A) (A)
                 (A) (A) (A) (A) (A) (A) (A) (A) (A) (A) (A) (A)
                 (A) (A) (A) (A) (A) (A) (A) (A) (A) (A) (A) (A)
                 (A) (A) (A) (A) (A) (A) (A) (A) (A) (A) (A) (A)
                 (A) (A) (A) (A) (A) (A) (A) (A) (A) (A) (A) (A)
                 (A) (A) (A) (A) (A) (A) (A) (A) (A) (A) (A) (A)
                 (A) (A) (A) (A) (A) (A) (A) (A) (A) (A) (A) (A)
                 (A) (A) (A) (A) (A) (A) (A) (A) (A) (A) (A) (A)
                 (A) (A) (A)
 The electronic state is 1-A.
 Alpha  occ. eigenvalues --  -19.73004 -14.79377 -10.67844 -10.63136 -10.62887
 Alpha  occ. eigenvalues --  -10.60143 -10.59515  -1.22402  -1.06982  -0.91630
 Alpha  occ. eigenvalues --   -0.88027  -0.74774  -0.72741  -0.65007  -0.59292
 Alpha  occ. eigenvalues --   -0.56384  -0.53261  -0.51060  -0.50820  -0.49091
 Alpha  occ. eigenvalues --   -0.44465  -0.43037  -0.33286  -0.31453  -0.30914
 Alpha virt. eigenvalues --    0.01594   0.02091   0.02621   0.05916   0.06659
 Alpha virt. eigenvalues --    0.09993   0.10515   0.15777   0.17377   0.17460
 Alpha virt. eigenvalues --    0.19336   0.20662   0.21676   0.22650   0.23279
 Alpha virt. eigenvalues --    0.25511   0.26460   0.27910   0.29892   0.31019
 Alpha virt. eigenvalues --    0.32516   0.32691   0.33882   0.36018   0.37444
 Alpha virt. eigenvalues --    0.38268   0.38863   0.39755   0.40586   0.42328
 Alpha virt. eigenvalues --    0.43938   0.46000   0.48606   0.50143   0.50727
 Alpha virt. eigenvalues --    0.53658   0.55625   0.59336   0.59656   0.63866
 Alpha virt. eigenvalues --    0.65155   0.69698   0.70390   0.70697   0.71615
 Alpha virt. eigenvalues --    0.75256   0.75585   0.80713   0.82412   0.87508
 Alpha virt. eigenvalues --    0.90177   0.91481   0.93449   0.95055   0.96597
 Alpha virt. eigenvalues --    1.01569   1.02724   1.04122   1.04751   1.09119
 Alpha virt. eigenvalues --    1.11059   1.14729   1.18190   1.19621   1.20166
 Alpha virt. eigenvalues --    1.22387   1.23386   1.24500   1.24658   1.26757
 Alpha virt. eigenvalues --    1.31543   1.34173   1.37841   1.39192   1.39677
 Alpha virt. eigenvalues --    1.40945   1.43549   1.49545   1.51512   1.52948
 Alpha virt. eigenvalues --    1.53179   1.54432   1.57146   1.62500   1.65858
 Alpha virt. eigenvalues --    1.67055   1.67932   1.68603   1.72670   1.75261
 Alpha virt. eigenvalues --    1.75771   1.77056   1.80209   1.81541   1.83505
 Alpha virt. eigenvalues --    1.87192   1.87861   1.91191   1.93291   1.94634
 Alpha virt. eigenvalues --    1.94969   2.02378   2.05122   2.07059   2.08721
 Alpha virt. eigenvalues --    2.14845   2.18023   2.20356   2.26648   2.29332
 Alpha virt. eigenvalues --    2.32651   2.33100   2.34137   2.38835   2.41511
 Alpha virt. eigenvalues --    2.50277   2.50631   2.66407   2.68716   2.88477
 Alpha virt. eigenvalues --    2.98123   3.03873   3.07693   3.11869   3.23737
 Alpha virt. eigenvalues --    3.26684   3.32570   3.33793   3.36784   3.37188
 Alpha virt. eigenvalues --    3.44275   3.45246   3.46434   3.49028   3.51576
 Alpha virt. eigenvalues --    3.53155   3.55505   3.60885   3.64002   3.66129
 Alpha virt. eigenvalues --    3.69190   3.71831   3.71921   3.75193   3.77813
 Alpha virt. eigenvalues --    3.83286   3.85683   3.87757   3.90487   3.91877
 Alpha virt. eigenvalues --    3.94688   3.98649   4.00632   4.05989   4.10777
 Alpha virt. eigenvalues --    4.12264   4.14382   4.15143   4.18293   4.18838
 Alpha virt. eigenvalues --    4.18958   4.23819   4.24534   4.25997   4.27185
 Alpha virt. eigenvalues --    4.28864   4.30860   4.31998   4.33843   4.37537
 Alpha virt. eigenvalues --    4.38020   4.39823   4.41000   4.41754   4.43509
 Alpha virt. eigenvalues --    4.45976   4.46384   4.49360   4.50574   4.51233
 Alpha virt. eigenvalues --    4.54725   4.55110   4.56138   4.57291   4.58998
 Alpha virt. eigenvalues --    4.61223   4.62196   4.63425   4.64592   4.66789
 Alpha virt. eigenvalues --    4.67687   4.69136   4.76544   4.77750   4.83350
 Alpha virt. eigenvalues --    4.87820   4.88357   4.90487   4.93803   4.98053
 Alpha virt. eigenvalues --    5.02352   5.04565   5.06705   5.09545   5.12727
 Alpha virt. eigenvalues --    5.18801   5.21724   5.21993   5.27403   5.27948
 Alpha virt. eigenvalues --    5.29321   5.35190   5.44174   5.44662   5.45382
 Alpha virt. eigenvalues --    5.45579   5.46937   5.49392   5.52271   5.59203
 Alpha virt. eigenvalues --    5.60237   5.66043   5.66825   5.68877   5.71930
 Alpha virt. eigenvalues --    5.77846   5.80743   5.81770   5.88676   5.89986
 Alpha virt. eigenvalues --    5.92657   6.06163   6.13575   6.18793   6.20910
 Alpha virt. eigenvalues --    6.24811   6.28729   6.40674   6.41040   6.43618
 Alpha virt. eigenvalues --    6.52377   6.61029   6.64559   6.70948   6.75779
 Alpha virt. eigenvalues --    7.00726   7.18375   7.49103   9.22785  12.41081
 Alpha virt. eigenvalues --   12.54533  15.66241  17.53860  18.75858  22.36895
          Condensed to atoms (all electrons):
               1          2          3          4          5          6
     1  C    4.561843   0.466864  -0.042409  -0.052369  -0.115546   0.518034
     2  C    0.466864   4.968563   0.546056  -0.012183  -0.056621  -0.032381
     3  C   -0.042409   0.546056   4.424420   0.550385  -0.047995  -0.022233
     4  C   -0.052369  -0.012183   0.550385   4.878802   0.488471  -0.029094
     5  C   -0.115546  -0.056621  -0.047995   0.488471   4.578509   0.501805
     6  N    0.518034  -0.032381  -0.022233  -0.029094   0.501805   6.572548
     7  H    0.457372  -0.065670   0.004656  -0.005050   0.006669  -0.046271
     8  H   -0.015521   0.420023  -0.036922   0.004887   0.000054   0.005214
     9  H   -0.001412   0.008051  -0.030409   0.428136  -0.026679   0.005124
    10  H    0.006764  -0.006673   0.008018  -0.069101   0.461110  -0.046968
    11  O    0.005603  -0.057303   0.288910  -0.060286   0.003323  -0.000412
    12  H    0.001150  -0.002297  -0.030412   0.005866  -0.000774   0.000240
               7          8          9         10         11         12
     1  C    0.457372  -0.015521  -0.001412   0.006764   0.005603   0.001150
     2  C   -0.065670   0.420023   0.008051  -0.006673  -0.057303  -0.002297
     3  C    0.004656  -0.036922  -0.030409   0.008018   0.288910  -0.030412
     4  C   -0.005050   0.004887   0.428136  -0.069101  -0.060286   0.005866
     5  C    0.006669   0.000054  -0.026679   0.461110   0.003323  -0.000774
     6  N   -0.046271   0.005214   0.005124  -0.046968  -0.000412   0.000240
     7  H    0.609415  -0.003816   0.000123   0.000294  -0.000354  -0.000066
     8  H   -0.003816   0.615598  -0.000274   0.000115  -0.005961   0.003173
     9  H    0.000123  -0.000274   0.583433  -0.004974   0.002936  -0.000347
    10  H    0.000294   0.000115  -0.004974   0.606533  -0.000254   0.000071
    11  O   -0.000354  -0.005961   0.002936  -0.000254   7.897881   0.352444
    12  H   -0.000066   0.003173  -0.000347   0.000071   0.352444   0.456643
 Mulliken charges:
               1
     1  C    0.209626
     2  C   -0.176431
     3  C    0.387935
     4  C   -0.128465
     5  C    0.207673
     6  N   -0.425606
     7  H    0.042699
     8  H    0.013430
     9  H    0.036292
    10  H    0.045065
    11  O   -0.426528
    12  H    0.214308
 Sum of Mulliken charges =  -0.00000
 Mulliken charges with hydrogens summed into heavy atoms:
               1
     1  C    0.252325
     2  C   -0.163001
     3  C    0.387935
     4  C   -0.092172
     5  C    0.252739
     6  N   -0.425606
    11  O   -0.212219
 Electronic spatial extent (au):  <R**2>=            642.2235
 Charge=             -0.0000 electrons
 Dipole moment (field-independent basis, Debye):
    X=              2.3077    Y=              1.3416    Z=             -0.0000  Tot=              2.6694
 Quadrupole moment (field-independent basis, Debye-Ang):
   XX=            -44.2975   YY=            -33.1792   ZZ=            -43.5062
   XY=              4.6363   XZ=             -0.0018   YZ=             -0.0017
 Traceless Quadrupole moment (field-independent basis, Debye-Ang):
   XX=             -3.9699   YY=              7.1484   ZZ=             -3.1786
   XY=              4.6363   XZ=             -0.0018   YZ=             -0.0017
 Octapole moment (field-independent basis, Debye-Ang**2):
  XXX=             32.9518  YYY=              0.5267  ZZZ=              0.0005  XYY=              1.6535
  XXY=             12.4457  XXZ=             -0.0034  XZZ=              3.5356  YZZ=              0.0142
  YYZ=              0.0037  XYZ=             -0.0017
 Hexadecapole moment (field-independent basis, Debye-Ang**3):
 XXXX=           -530.5817 YYYY=           -255.3449 ZZZZ=            -48.3002 XXXY=             39.3465
 XXXZ=             -0.0161 YYYX=              2.9541 YYYZ=             -0.0096 ZZZX=             -0.0013
 ZZZY=             -0.0018 XXYY=           -106.2268 XXZZ=            -96.7711 YYZZ=            -62.0891
 XXYZ=             -0.0069 YYXZ=             -0.0023 ZZXY=              0.5223
 N-N= 2.737666329457D+02 E-N=-1.302018745519D+03  KE= 3.220076168726D+02
 No NMR shielding tensors so no spin-rotation constants.
 Leave Link  601 at Fri Aug 27 21:20:37 2021, MaxMem= 17179869184 cpu:        53.9
 (Enter /public3/home/sc51754/softwares/g09e01/l701.exe)
 Compute integral first derivatives.
 ... and contract with generalized density number  0.
 Leave Link  701 at Fri Aug 27 21:20:38 2021, MaxMem= 17179869184 cpu:        73.0
 (Enter /public3/home/sc51754/softwares/g09e01/l702.exe)
 L702 exits ... SP integral derivatives will be done elsewhere.
 Leave Link  702 at Fri Aug 27 21:20:39 2021, MaxMem= 17179869184 cpu:         0.3
 (Enter /public3/home/sc51754/softwares/g09e01/l703.exe)
 Compute integral first derivatives, UseDBF=F ICtDFT=           0.
 Integral derivatives from FoFJK, PRISM(SPDF).
 Calling FoFJK, ICntrl=      2127 FMM=F ISym2X=0 I1Cent= 0 IOpClX= 0 NMat=1 NMatS=1 NMatT=0.
 FoFJK:  IHMeth= 1 ICntrl=    2127 DoSepK=F KAlg= 0 I1Cent=   0 FoldK=F
 IRaf=         0 NMat=   1 IRICut=       1 DoRegI=T DoRafI=F ISym2E= 0.
 FoFCou: FMM=F IPFlag=           0 FMFlag=      100000 FMFlg1=         800
         NFxFlg=           0 DoJE=F BraDBF=F KetDBF=F FulRan=T
         wScrn=  0.000000 ICntrl=    2127 IOpCl=  0 I1Cent=           0 NGrid=           0
         NMat0=    1 NMatS0=      1 NMatT0=    0 NMatD0=    1 NMtDS0=    0 NMtDT0=    0
 Symmetry not used in FoFCou.
 Leave Link  703 at Fri Aug 27 21:20:41 2021, MaxMem= 17179869184 cpu:       142.1
 (Enter /public3/home/sc51754/softwares/g09e01/l716.exe)
 Dipole        = 9.07930315D-01 5.27843749D-01-8.82667207D-06
 ***** Axes restored to original set *****
 -------------------------------------------------------------------
 Center     Atomic                   Forces (Hartrees/Bohr)
 Number     Number              X              Y              Z
 -------------------------------------------------------------------
      1        6           0.000101923   -0.008695801    0.000038806
      2        6           0.001709137   -0.007318695   -0.000008487
      3        6           0.005309926   -0.002307274   -0.000012293
      4        6           0.002305653    0.008056446    0.000025232
      5        6          -0.000761555    0.007859420   -0.000107073
      6        7          -0.021981066    0.000207288    0.000021018
      7        1          -0.004697117   -0.008197179   -0.000010748
      8        1           0.004555733   -0.007694771    0.000001950
      9        1           0.004441398    0.007541209    0.000015411
     10        1          -0.005007134    0.007976502    0.000035678
     11        8           0.008647990    0.018687876    0.000010011
     12        1           0.005375113   -0.016115021   -0.000009505
 -------------------------------------------------------------------
 Cartesian Forces:  Max     0.021981066 RMS     0.007126930
 Leave Link  716 at Fri Aug 27 21:20:41 2021, MaxMem= 17179869184 cpu:         0.4
 (Enter /public3/home/sc51754/softwares/g09e01/l103.exe)

 GradGradGradGradGradGradGradGradGradGradGradGradGradGradGradGradGradGrad
 Berny optimization.
 FormGI is forming the generalized inverse of G from B-inverse, IUseBI=4.
 Internal  Forces:  Max     0.020415225 RMS     0.007398561
 Search for a local minimum.
 Step number   1 out of a maximum of   61
 All quantities printed in internal units (Hartrees-Bohrs-Radians)
 RMS Force = .73986D-02 SwitMx=.10000D-02 MixMth= 1
 Mixed Optimization -- RFO/linear search
 Second derivative matrix not updated -- first step.
 ITU=  0
     Eigenvalues ---    0.02120   0.02139   0.02144   0.02163   0.02209
     Eigenvalues ---    0.02238   0.02269   0.02294   0.02415   0.16000
     Eigenvalues ---    0.16000   0.16000   0.16000   0.16000   0.22000
     Eigenvalues ---    0.22826   0.23882   0.25000   0.34970   0.34996
     Eigenvalues ---    0.35128   0.35490   0.42425   0.43849   0.46118
     Eigenvalues ---    0.46897   0.53214   0.54017   0.55021   0.56489
 RFO step:  Lambda=-5.73728058D-03 EMin= 2.11976327D-02
 Linear search not attempted -- first point.
 Iteration  1 RMS(Cart)=  0.02378151 RMS(Int)=  0.00004070
 Iteration  2 RMS(Cart)=  0.00005359 RMS(Int)=  0.00000086
 Iteration  3 RMS(Cart)=  0.00000001 RMS(Int)=  0.00000086
 ITry= 1 IFail=0 DXMaxC= 5.49D-02 DCOld= 1.00D+10 DXMaxT= 3.00D-01 DXLimC= 3.00D+00 Rises=F
 Variable       Old X    -DE/DX   Delta X   Delta X   Delta X     New X
                                 (Linear)    (Quad)   (Total)
    R1        2.63455  -0.01602   0.00000  -0.03399  -0.03399   2.60056
    R2        2.52836  -0.02042   0.00000  -0.03557  -0.03557   2.49279
    R3        2.05724  -0.00945   0.00000  -0.02657  -0.02657   2.03067
    R4        2.64227  -0.01785   0.00000  -0.03775  -0.03775   2.60452
    R5        2.05467  -0.00894   0.00000  -0.02504  -0.02504   2.02963
    R6        2.64232  -0.01755   0.00000  -0.03712  -0.03711   2.60520
    R7        2.56754  -0.01416   0.00000  -0.02632  -0.02632   2.54122
    R8        2.62881  -0.01635   0.00000  -0.03430  -0.03430   2.59451
    R9        2.04887  -0.00874   0.00000  -0.02425  -0.02425   2.02463
   R10        2.53547  -0.01977   0.00000  -0.03495  -0.03495   2.50052
   R11        2.05681  -0.00942   0.00000  -0.02647  -0.02647   2.03034
   R12        1.82716  -0.01693   0.00000  -0.03102  -0.03102   1.79614
    A1        2.17019   0.00009   0.00000  -0.00064  -0.00064   2.16955
    A2        2.08489   0.00014   0.00000   0.00146   0.00146   2.08635
    A3        2.02810  -0.00024   0.00000  -0.00082  -0.00082   2.02729
    A4        2.06349  -0.00086   0.00000  -0.00217  -0.00217   2.06132
    A5        2.10457   0.00019   0.00000  -0.00038  -0.00038   2.10419
    A6        2.11512   0.00067   0.00000   0.00255   0.00255   2.11768
    A7        2.06766   0.00023   0.00000   0.00361   0.00362   2.07128
    A8        2.15371  -0.00101   0.00000  -0.00529  -0.00529   2.14842
    A9        2.06181   0.00077   0.00000   0.00168   0.00168   2.06349
   A10        2.06126  -0.00077   0.00000  -0.00169  -0.00169   2.05957
   A11        2.09700   0.00077   0.00000   0.00318   0.00318   2.10018
   A12        2.12493  -0.00000   0.00000  -0.00149  -0.00149   2.12343
   A13        2.17345  -0.00007   0.00000  -0.00129  -0.00129   2.17216
   A14        2.08552   0.00022   0.00000   0.00177   0.00177   2.08729
   A15        2.02421  -0.00015   0.00000  -0.00048  -0.00048   2.02373
   A16        2.03032   0.00137   0.00000   0.00218   0.00217   2.03250
   A17        1.90853   0.00249   0.00000   0.01501   0.01501   1.92354
    D1       -0.00024   0.00001   0.00000   0.00037   0.00037   0.00013
    D2        3.14151   0.00000   0.00000   0.00017   0.00017  -3.14150
    D3       -3.14157  -0.00000   0.00000  -0.00006  -0.00006   3.14156
    D4        0.00018  -0.00001   0.00000  -0.00025  -0.00025  -0.00007
    D5        0.00007  -0.00000   0.00000  -0.00006  -0.00006   0.00001
    D6        3.14141   0.00001   0.00000   0.00035   0.00035  -3.14142
    D7        0.00001  -0.00000   0.00000  -0.00011  -0.00011  -0.00010
    D8       -3.14143  -0.00001   0.00000  -0.00026  -0.00026   3.14150
    D9        3.14145   0.00000   0.00000   0.00008   0.00008   3.14153
   D10        0.00000  -0.00000   0.00000  -0.00006  -0.00006  -0.00006
   D11        0.00034  -0.00001   0.00000  -0.00040  -0.00040  -0.00006
   D12       -3.14121  -0.00001   0.00000  -0.00040  -0.00040   3.14158
   D13       -3.14139  -0.00001   0.00000  -0.00027  -0.00027   3.14153
   D14        0.00024  -0.00001   0.00000  -0.00026  -0.00026  -0.00002
   D15       -0.00039   0.00001   0.00000   0.00019   0.00019  -0.00021
   D16        3.14135   0.00000   0.00000   0.00004   0.00004   3.14139
   D17       -0.00055   0.00002   0.00000   0.00076   0.00076   0.00021
   D18       -3.14120  -0.00002   0.00000  -0.00060  -0.00060   3.14138
   D19        3.14101   0.00002   0.00000   0.00076   0.00076  -3.14142
   D20        0.00035  -0.00002   0.00000  -0.00060  -0.00060  -0.00025
   D21        0.00034  -0.00001   0.00000  -0.00052  -0.00052  -0.00019
   D22        3.14102   0.00002   0.00000   0.00080   0.00079  -3.14137
         Item               Value     Threshold  Converged?
 Maximum Force            0.020415     0.000450     NO 
 RMS     Force            0.007399     0.000300     NO 
 Maximum Displacement     0.054887     0.001800     NO 
 RMS     Displacement     0.023800     0.001200     NO 
 Predicted change in Energy=-2.903657D-03
 Lowest energy point so far.  Saving SCF results.
 GradGradGradGradGradGradGradGradGradGradGradGradGradGradGradGradGradGrad

 Leave Link  103 at Fri Aug 27 21:20:42 2021, MaxMem= 17179869184 cpu:        36.8
 (Enter /public3/home/sc51754/softwares/g09e01/l202.exe)
                          Input orientation:                          
 ---------------------------------------------------------------------
 Center     Atomic      Atomic             Coordinates (Angstroms)
 Number     Number       Type             X           Y           Z
 ---------------------------------------------------------------------
      1          6           0        1.137715    1.138498    0.000049
      2          6           0       -0.237970    1.174671   -0.000018
      3          6           0       -0.918981   -0.023579   -0.000044
      4          6           0       -0.194283   -1.196350   -0.000122
      5          6           0        1.175799   -1.107539   -0.000241
      6          7           0        1.852289    0.029678   -0.000053
      7          1           0        1.691897    2.059154    0.000037
      8          1           0       -0.759570    2.113544   -0.000014
      9          1           0       -0.696526   -2.142723   -0.000128
     10          1           0        1.765700   -2.005521   -0.000107
     11          8           0       -2.261249   -0.105303   -0.000000
     12          1           0       -2.643212    0.765048    0.000234
 ---------------------------------------------------------------------
                    Distance matrix (angstroms):
                    1          2          3          4          5
     1  C    0.000000
     2  C    1.376160   0.000000
     3  C    2.362291   1.378252   0.000000
     4  C    2.688072   2.371423   1.378614   0.000000
     5  C    2.246360   2.684627   2.358617   1.372958   0.000000
     6  N    1.319128   2.383315   2.771781   2.385708   1.323216
     7  H    1.074582   2.122898   3.339829   3.762444   3.208474
     8  H    2.133168   1.074035   2.143060   3.357818   3.757796
     9  H    3.759102   3.348936   2.130788   1.071387   2.139441
    10  H    3.206123   3.758765   3.337006   2.120447   1.074409
    11  O    3.619391   2.394158   1.344754   2.337248   3.580192
    12  H    3.799325   2.439873   1.896024   3.137568   4.253402
                    6          7          8          9         10
     6  N    0.000000
     7  H    2.035804   0.000000
     8  H    3.341303   2.452070   0.000000
     9  H    3.348998   4.833253   4.256734   0.000000
    10  H    2.037041   4.065346   4.831531   2.466046   0.000000
    11  O    4.115752   4.506910   2.679239   2.568937   4.452769
    12  H    4.555250   4.524144   2.316581   3.499246   5.207165
                   11         12
    11  O    0.000000
    12  H    0.950477   0.000000
 Stoichiometry    C5H5NO
 Framework group  C1[X(C5H5NO)]
 Deg. of freedom    30
 Full point group                 C1      NOp   1
 RotChk:  IX=2 Diff= 2.71D-03
 Largest Abelian subgroup         C1      NOp   1
 Largest concise Abelian subgroup C1      NOp   1
                         Standard orientation:                         
 ---------------------------------------------------------------------
 Center     Atomic      Atomic             Coordinates (Angstroms)
 Number     Number       Type             X           Y           Z
 ---------------------------------------------------------------------
      1          6           0       -1.135374    1.139295   -0.000101
      2          6           0        0.240377    1.172832   -0.000034
      3          6           0        0.919091   -0.026721   -0.000008
      4          6           0        0.192148   -1.198101    0.000069
      5          6           0       -1.177762   -1.106665    0.000189
      6          7           0       -1.852071    0.031846    0.000001
      7          1           0       -1.687791    2.061011   -0.000089
      8          1           0        0.763776    2.110704   -0.000038
      9          1           0        0.692577   -2.145434    0.000076
     10          1           0       -1.769382   -2.003516    0.000055
     11          8           0        2.261200   -0.111016   -0.000052
     12          1           0        2.644830    0.758602   -0.000286
 ---------------------------------------------------------------------
 Rotational constants (GHZ):      6.1475949      2.6969208      1.8745602
 Leave Link  202 at Fri Aug 27 21:20:42 2021, MaxMem= 17179869184 cpu:         3.8
 (Enter /public3/home/sc51754/softwares/g09e01/l301.exe)
 Basis read from rwf:  (5D, 7F)
 No pseudopotential information found on rwf file.
 There are   320 symmetry adapted cartesian basis functions of A   symmetry.
 There are   280 symmetry adapted basis functions of A   symmetry.
   280 basis functions,   475 primitive gaussians,   320 cartesian basis functions
    25 alpha electrons       25 beta electrons
       nuclear repulsion energy       277.4116103608 Hartrees.
 IExCor=  402 DFT=T Ex+Corr=BHandHLYP ExCW=0 ScaHFX=  0.500000
 ScaDFX=  0.500000  0.500000  1.000000  1.000000 ScalE2=  1.000000  1.000000
 IRadAn=      0 IRanWt=     -1 IRanGd=            0 ICorTp=0 IEmpDi=  4
 NAtoms=   12 NActive=   12 NUniq=   12 SFac= 1.00D+00 NAtFMM=   60 NAOKFM=F Big=F
 Integral buffers will be    131072 words long.
 Raffenetti 2 integral format.
 Two-electron integral symmetry is turned on.
 No density basis found on file   724.
 Leave Link  301 at Fri Aug 27 21:20:42 2021, MaxMem= 17179869184 cpu:         2.5
 (Enter /public3/home/sc51754/softwares/g09e01/l302.exe)
 NPDir=0 NMtPBC=     1 NCelOv=     1 NCel=       1 NClECP=     1 NCelD=      1
         NCelK=      1 NCelE2=     1 NClLst=     1 CellRange=     0.0.
 One-electron integrals computed using PRISM.
 NBasis=   280 RedAO= T EigKep=  1.82D-04  NBF=   280
 NBsUse=   280 1.00D-06 EigRej= -1.00D+00 NBFU=   280
 Precomputing XC quadrature grid using
 IXCGrd= 4 IRadAn=           0 IRanWt=          -1 IRanGd=           0 AccXCQ= 0.00D+00.
 Generated NRdTot=       0 NPtTot=           0 NUsed=           0 NTot=          32
 NSgBfM=   320   320   320   320   320 MxSgAt=    12 MxSgA2=    12.
 Leave Link  302 at Fri Aug 27 21:20:43 2021, MaxMem= 17179869184 cpu:        46.0
 (Enter /public3/home/sc51754/softwares/g09e01/l303.exe)
 DipDrv:  MaxL=1.
 Leave Link  303 at Fri Aug 27 21:20:43 2021, MaxMem= 17179869184 cpu:        12.2
 (Enter /public3/home/sc51754/softwares/g09e01/l401.exe)
 Initial guess from the checkpoint file:  "4HY_BHandHLYP_PC2_OPT_FREQ.chk"
 B after Tr=    -0.000000    0.000000    0.000000
         Rot=    1.000000    0.000034   -0.000011    0.000669 Ang=   0.08 deg.
 Guess basis will be translated and rotated to current coordinates.
 JPrj=2 DoOrth=T DoCkMO=T.
 Generating alternative initial guess.
 ExpMin= 7.41D-02 ExpMax= 1.48D+04 ExpMxC= 5.05D+02 IAcc=2 IRadAn=         4 AccDes= 0.00D+00
 Harris functional with IExCor=  402 and IRadAn=       4 diagonalized for initial guess.
 HarFok:  IExCor=  402 AccDes= 0.00D+00 IRadAn=         4 IDoV= 1 UseB2=F ITyADJ=14
 ICtDFT=  3500011 ScaDFX=  1.000000  1.000000  1.000000  1.000000
 FoFCou: FMM=F IPFlag=           0 FMFlag=      100000 FMFlg1=           0
         NFxFlg=           0 DoJE=T BraDBF=F KetDBF=T FulRan=T
         wScrn=  0.000000 ICntrl=     500 IOpCl=  0 I1Cent=   200000004 NGrid=           0
         NMat0=    1 NMatS0=      1 NMatT0=    0 NMatD0=    1 NMtDS0=    0 NMtDT0=    0
 Petite list used in FoFCou.
 Harris En= -323.675577023319    
 Leave Link  401 at Fri Aug 27 21:20:45 2021, MaxMem= 17179869184 cpu:        66.2
 (Enter /public3/home/sc51754/softwares/g09e01/l502.exe)
 Closed shell SCF:
 Using DIIS extrapolation, IDIIS=  1040.
 Integral symmetry usage will be decided dynamically.
 Keep R1 ints in memory in canonical form, NReq=790723944.
 IVT=      348554 IEndB=      348554 NGot= 17179869184 MDV= 16405683161
 LenX= 16405683161 LenY= 16405580320
 Requested convergence on RMS density matrix=1.00D-08 within 128 cycles.
 Requested convergence on MAX density matrix=1.00D-06.
 Requested convergence on             energy=1.00D-06.
 No special actions if energy rises.
 FoFCou: FMM=F IPFlag=           0 FMFlag=           0 FMFlg1=           0
         NFxFlg=           0 DoJE=F BraDBF=F KetDBF=F FulRan=T
         wScrn=  0.000000 ICntrl=     600 IOpCl=  0 I1Cent=           0 NGrid=           0
         NMat0=    1 NMatS0=  39340 NMatT0=    0 NMatD0=    1 NMtDS0=    0 NMtDT0=    0
 Symmetry not used in FoFCou.
 Integral accuracy reduced to 1.0D-05 until final iterations.

 Cycle   1  Pass 0  IDiag  1:
 E= -323.448042886461    
 DIIS: error= 1.93D-03 at cycle   1 NSaved=   1.
 NSaved= 1 IEnMin= 1 EnMin= -323.448042886461     IErMin= 1 ErrMin= 1.93D-03
 ErrMax= 1.93D-03  0.00D+00 EMaxC= 1.00D-01 BMatC= 9.73D-04 BMatP= 9.73D-04
 IDIUse=3 WtCom= 9.81D-01 WtEn= 1.93D-02
 Coeff-Com:  0.100D+01
 Coeff-En:   0.100D+01
 Coeff:      0.100D+01
 Gap=     0.735 Goal=   None    Shift=    0.000
 GapD=    0.735 DampG=2.000 DampE=1.000 DampFc=2.0000 IDamp=-1.
 RMSDP=9.97D-05 MaxDP=3.09D-03              OVMax= 5.16D-03

 Cycle   2  Pass 0  IDiag  1:
 E= -323.448808374980     Delta-E=       -0.000765488519 Rises=F Damp=F
 DIIS: error= 7.11D-04 at cycle   2 NSaved=   2.
 NSaved= 2 IEnMin= 2 EnMin= -323.448808374980     IErMin= 2 ErrMin= 7.11D-04
 ErrMax= 7.11D-04  0.00D+00 EMaxC= 1.00D-01 BMatC= 8.53D-05 BMatP= 9.73D-04
 IDIUse=3 WtCom= 9.93D-01 WtEn= 7.11D-03
 Coeff-Com:  0.134D+00 0.866D+00
 Coeff-En:   0.000D+00 0.100D+01
 Coeff:      0.133D+00 0.867D+00
 Gap=     0.331 Goal=   None    Shift=    0.000
 RMSDP=4.92D-05 MaxDP=2.53D-03 DE=-7.65D-04 OVMax= 3.00D-03

 Cycle   3  Pass 0  IDiag  1:
 E= -323.448867583117     Delta-E=       -0.000059208137 Rises=F Damp=F
 DIIS: error= 3.92D-04 at cycle   3 NSaved=   3.
 NSaved= 3 IEnMin= 3 EnMin= -323.448867583117     IErMin= 3 ErrMin= 3.92D-04
 ErrMax= 3.92D-04  0.00D+00 EMaxC= 1.00D-01 BMatC= 2.44D-05 BMatP= 8.53D-05
 IDIUse=3 WtCom= 9.96D-01 WtEn= 3.92D-03
 Coeff-Com: -0.199D-01 0.329D+00 0.691D+00
 Coeff-En:   0.000D+00 0.973D-01 0.903D+00
 Coeff:     -0.198D-01 0.328D+00 0.692D+00
 Gap=     0.331 Goal=   None    Shift=    0.000
 RMSDP=1.49D-05 MaxDP=5.97D-04 DE=-5.92D-05 OVMax= 1.12D-03

 Cycle   4  Pass 0  IDiag  1:
 E= -323.448890880815     Delta-E=       -0.000023297698 Rises=F Damp=F
 DIIS: error= 6.16D-05 at cycle   4 NSaved=   4.
 NSaved= 4 IEnMin= 4 EnMin= -323.448890880815     IErMin= 4 ErrMin= 6.16D-05
 ErrMax= 6.16D-05  0.00D+00 EMaxC= 1.00D-01 BMatC= 1.06D-06 BMatP= 2.44D-05
 IDIUse=1 WtCom= 1.00D+00 WtEn= 0.00D+00
 Coeff-Com: -0.111D-01 0.626D-01 0.231D+00 0.718D+00
 Coeff:     -0.111D-01 0.626D-01 0.231D+00 0.718D+00
 Gap=     0.331 Goal=   None    Shift=    0.000
 RMSDP=3.99D-06 MaxDP=2.82D-04 DE=-2.33D-05 OVMax= 3.91D-04

 Initial convergence to 1.0D-05 achieved.  Increase integral accuracy.
 Cycle   5  Pass 1  IDiag  1:
 E= -323.448890352930     Delta-E=        0.000000527885 Rises=F Damp=F
 DIIS: error= 3.47D-05 at cycle   1 NSaved=   1.
 NSaved= 1 IEnMin= 1 EnMin= -323.448890352930     IErMin= 1 ErrMin= 3.47D-05
 ErrMax= 3.47D-05  0.00D+00 EMaxC= 1.00D-01 BMatC= 3.61D-07 BMatP= 3.61D-07
 IDIUse=1 WtCom= 1.00D+00 WtEn= 0.00D+00
 Coeff-Com:  0.100D+01
 Coeff:      0.100D+01
 Gap=     0.331 Goal=   None    Shift=    0.000
 RMSDP=3.99D-06 MaxDP=2.82D-04 DE= 5.28D-07 OVMax= 4.23D-04

 Cycle   6  Pass 1  IDiag  1:
 E= -323.448890250291     Delta-E=        0.000000102639 Rises=F Damp=F
 DIIS: error= 4.86D-05 at cycle   2 NSaved=   2.
 NSaved= 2 IEnMin= 1 EnMin= -323.448890352930     IErMin= 1 ErrMin= 3.47D-05
 ErrMax= 4.86D-05  0.00D+00 EMaxC= 1.00D-01 BMatC= 5.16D-07 BMatP= 3.61D-07
 IDIUse=1 WtCom= 1.00D+00 WtEn= 0.00D+00
 Coeff-Com:  0.548D+00 0.452D+00
 Coeff:      0.548D+00 0.452D+00
 Gap=     0.331 Goal=   None    Shift=    0.000
 RMSDP=2.02D-06 MaxDP=1.08D-04 DE= 1.03D-07 OVMax= 2.54D-04

 Cycle   7  Pass 1  IDiag  1:
 E= -323.448890704355     Delta-E=       -0.000000454064 Rises=F Damp=F
 DIIS: error= 6.39D-06 at cycle   3 NSaved=   3.
 NSaved= 3 IEnMin= 3 EnMin= -323.448890704355     IErMin= 3 ErrMin= 6.39D-06
 ErrMax= 6.39D-06  0.00D+00 EMaxC= 1.00D-01 BMatC= 6.93D-09 BMatP= 3.61D-07
 IDIUse=1 WtCom= 1.00D+00 WtEn= 0.00D+00
 Coeff-Com:  0.335D-01 0.986D-01 0.868D+00
 Coeff:      0.335D-01 0.986D-01 0.868D+00
 Gap=     0.331 Goal=   None    Shift=    0.000
 RMSDP=3.97D-07 MaxDP=1.15D-05 DE=-4.54D-07 OVMax= 4.58D-05

 Cycle   8  Pass 1  IDiag  1:
 E= -323.448890710429     Delta-E=       -0.000000006074 Rises=F Damp=F
 DIIS: error= 2.91D-06 at cycle   4 NSaved=   4.
 NSaved= 4 IEnMin= 4 EnMin= -323.448890710429     IErMin= 4 ErrMin= 2.91D-06
 ErrMax= 2.91D-06  0.00D+00 EMaxC= 1.00D-01 BMatC= 1.80D-09 BMatP= 6.93D-09
 IDIUse=1 WtCom= 1.00D+00 WtEn= 0.00D+00
 Coeff-Com: -0.344D-01 0.252D-02 0.404D+00 0.628D+00
 Coeff:     -0.344D-01 0.252D-02 0.404D+00 0.628D+00
 Gap=     0.331 Goal=   None    Shift=    0.000
 RMSDP=1.44D-07 MaxDP=5.50D-06 DE=-6.07D-09 OVMax= 1.46D-05

 Cycle   9  Pass 1  IDiag  1:
 E= -323.448890712225     Delta-E=       -0.000000001796 Rises=F Damp=F
 DIIS: error= 3.69D-07 at cycle   5 NSaved=   5.
 NSaved= 5 IEnMin= 5 EnMin= -323.448890712225     IErMin= 5 ErrMin= 3.69D-07
 ErrMax= 3.69D-07  0.00D+00 EMaxC= 1.00D-01 BMatC= 2.91D-11 BMatP= 1.80D-09
 IDIUse=1 WtCom= 1.00D+00 WtEn= 0.00D+00
 Coeff-Com: -0.819D-02-0.310D-02 0.484D-01 0.116D+00 0.847D+00
 Coeff:     -0.819D-02-0.310D-02 0.484D-01 0.116D+00 0.847D+00
 Gap=     0.331 Goal=   None    Shift=    0.000
 RMSDP=2.83D-08 MaxDP=1.40D-06 DE=-1.80D-09 OVMax= 2.57D-06

 Cycle  10  Pass 1  IDiag  1:
 E= -323.448890712255     Delta-E=       -0.000000000029 Rises=F Damp=F
 DIIS: error= 2.29D-07 at cycle   6 NSaved=   6.
 NSaved= 6 IEnMin= 6 EnMin= -323.448890712255     IErMin= 6 ErrMin= 2.29D-07
 ErrMax= 2.29D-07  0.00D+00 EMaxC= 1.00D-01 BMatC= 1.09D-11 BMatP= 2.91D-11
 IDIUse=1 WtCom= 1.00D+00 WtEn= 0.00D+00
 Coeff-Com:  0.281D-02-0.182D-02-0.525D-01-0.672D-01 0.397D+00 0.721D+00
 Coeff:      0.281D-02-0.182D-02-0.525D-01-0.672D-01 0.397D+00 0.721D+00
 Gap=     0.331 Goal=   None    Shift=    0.000
 RMSDP=1.15D-08 MaxDP=4.28D-07 DE=-2.94D-11 OVMax= 8.46D-07

 Cycle  11  Pass 1  IDiag  1:
 E= -323.448890712274     Delta-E=       -0.000000000019 Rises=F Damp=F
 DIIS: error= 2.10D-08 at cycle   7 NSaved=   7.
 NSaved= 7 IEnMin= 7 EnMin= -323.448890712274     IErMin= 7 ErrMin= 2.10D-08
 ErrMax= 2.10D-08  0.00D+00 EMaxC= 1.00D-01 BMatC= 5.77D-14 BMatP= 1.09D-11
 IDIUse=1 WtCom= 1.00D+00 WtEn= 0.00D+00
 Coeff-Com:  0.331D-03-0.487D-04-0.399D-02-0.679D-02 0.242D-02 0.260D-01
 Coeff-Com:  0.982D+00
 Coeff:      0.331D-03-0.487D-04-0.399D-02-0.679D-02 0.242D-02 0.260D-01
 Coeff:      0.982D+00
 Gap=     0.331 Goal=   None    Shift=    0.000
 RMSDP=1.64D-09 MaxDP=8.54D-08 DE=-1.90D-11 OVMax= 1.72D-07

 SCF Done:  E(RBHandHLYP) =  -323.448890712     A.U. after   11 cycles
            NFock= 11  Conv=0.16D-08     -V/T= 2.0030
 KE= 3.224727308676D+02 PE=-1.309683341452D+03 EE= 3.863501095114D+02
 Leave Link  502 at Fri Aug 27 21:20:54 2021, MaxMem= 17179869184 cpu:       178.1
 (Enter /public3/home/sc51754/softwares/g09e01/l701.exe)
 Compute integral first derivatives.
 ... and contract with generalized density number  0.
 Leave Link  701 at Fri Aug 27 21:20:55 2021, MaxMem= 17179869184 cpu:        70.5
 (Enter /public3/home/sc51754/softwares/g09e01/l702.exe)
 L702 exits ... SP integral derivatives will be done elsewhere.
 Leave Link  702 at Fri Aug 27 21:20:55 2021, MaxMem= 17179869184 cpu:         0.3
 (Enter /public3/home/sc51754/softwares/g09e01/l703.exe)
 Compute integral first derivatives, UseDBF=F ICtDFT=           0.
 Integral derivatives from FoFJK, PRISM(SPDF).
 Calling FoFJK, ICntrl=      2127 FMM=F ISym2X=0 I1Cent= 0 IOpClX= 0 NMat=1 NMatS=1 NMatT=0.
 FoFJK:  IHMeth= 1 ICntrl=    2127 DoSepK=F KAlg= 0 I1Cent=   0 FoldK=F
 IRaf=         0 NMat=   1 IRICut=       1 DoRegI=T DoRafI=F ISym2E= 0.
 FoFCou: FMM=F IPFlag=           0 FMFlag=      100000 FMFlg1=         800
         NFxFlg=           0 DoJE=F BraDBF=F KetDBF=F FulRan=T
         wScrn=  0.000000 ICntrl=    2127 IOpCl=  0 I1Cent=           0 NGrid=           0
         NMat0=    1 NMatS0=      1 NMatT0=    0 NMatD0=    1 NMtDS0=    0 NMtDT0=    0
 Symmetry not used in FoFCou.
 Leave Link  703 at Fri Aug 27 21:20:57 2021, MaxMem= 17179869184 cpu:       127.5
 (Enter /public3/home/sc51754/softwares/g09e01/l716.exe)
 Dipole        = 9.13036317D-01 5.20771278D-01-1.50722932D-04
 ***** Axes restored to original set *****
 -------------------------------------------------------------------
 Center     Atomic                   Forces (Hartrees/Bohr)
 Number     Number              X              Y              Z
 -------------------------------------------------------------------
      1        6           0.003441412    0.001166538   -0.000020180
      2        6          -0.000645351    0.001329369    0.000006489
      3        6          -0.004041571   -0.001207284   -0.000001356
      4        6          -0.000601617   -0.001097140   -0.000013551
      5        6           0.003444452   -0.001067813    0.000045781
      6        7          -0.002183490    0.000010998   -0.000009936
      7        1           0.000214506    0.001013196    0.000007398
      8        1          -0.000155613    0.000440118    0.000001692
      9        1          -0.000128334   -0.000508783   -0.000000855
     10        1           0.000219304   -0.000977902   -0.000015558
     11        8           0.001069222    0.001813287    0.000001569
     12        1          -0.000632919   -0.000914585   -0.000001492
 -------------------------------------------------------------------
 Cartesian Forces:  Max     0.004041571 RMS     0.001299136
 Leave Link  716 at Fri Aug 27 21:20:57 2021, MaxMem= 17179869184 cpu:         0.3
 (Enter /public3/home/sc51754/softwares/g09e01/l103.exe)

 GradGradGradGradGradGradGradGradGradGradGradGradGradGradGradGradGradGrad
 Berny optimization.
 Using GEDIIS/GDIIS optimizer.
 FormGI is forming the generalized inverse of G from B-inverse, IUseBI=4.
 Internal  Forces:  Max     0.002983572 RMS     0.000955467
 Search for a local minimum.
 Step number   2 out of a maximum of   61
 All quantities printed in internal units (Hartrees-Bohrs-Radians)
 RMS Force = .95547D-03 SwitMx=.10000D-02 MixMth= 2
 Mixed Optimization -- En-DIIS/RFO-DIIS
 Update second derivatives using D2CorX and points    1    2
 DE= -2.69D-03 DEPred=-2.90D-03 R= 9.28D-01
 TightC=F SS=  1.41D+00  RLast= 1.10D-01 DXNew= 5.0454D-01 3.3149D-01
 Trust test= 9.28D-01 RLast= 1.10D-01 DXMaxT set to 3.31D-01
 ITU=  1  0
 Use linear search instead of GDIIS.
     Eigenvalues ---    0.02120   0.02139   0.02144   0.02163   0.02210
     Eigenvalues ---    0.02238   0.02269   0.02294   0.02415   0.15835
     Eigenvalues ---    0.16000   0.16000   0.16000   0.16009   0.22000
     Eigenvalues ---    0.22745   0.23816   0.24986   0.34982   0.35077
     Eigenvalues ---    0.35293   0.35605   0.42337   0.44658   0.46134
     Eigenvalues ---    0.49487   0.52743   0.53726   0.56244   0.57164
 RFO step:  Lambda=-8.59845998D-05 EMin= 2.11971832D-02
 Quartic linear search produced a step of -0.06988.
 Iteration  1 RMS(Cart)=  0.00373964 RMS(Int)=  0.00001117
 Iteration  2 RMS(Cart)=  0.00001084 RMS(Int)=  0.00000125
 Iteration  3 RMS(Cart)=  0.00000000 RMS(Int)=  0.00000125
 ITry= 1 IFail=0 DXMaxC= 1.64D-02 DCOld= 1.00D+10 DXMaxT= 3.31D-01 DXLimC= 3.00D+00 Rises=F
 Variable       Old X    -DE/DX   Delta X   Delta X   Delta X     New X
                                 (Linear)    (Quad)   (Total)
    R1        2.60056   0.00253   0.00238   0.00202   0.00439   2.60496
    R2        2.49279   0.00067   0.00249  -0.00214   0.00035   2.49314
    R3        2.03067   0.00098   0.00186   0.00019   0.00205   2.03272
    R4        2.60452   0.00298   0.00264   0.00278   0.00541   2.60993
    R5        2.02963   0.00046   0.00175  -0.00105   0.00070   2.03033
    R6        2.60520   0.00279   0.00259   0.00243   0.00503   2.61023
    R7        2.54122  -0.00049   0.00184  -0.00319  -0.00135   2.53987
    R8        2.59451   0.00255   0.00240   0.00196   0.00436   2.59888
    R9        2.02463   0.00051   0.00169  -0.00086   0.00083   2.02546
   R10        2.50052   0.00076   0.00244  -0.00193   0.00051   2.50103
   R11        2.03034   0.00094   0.00185   0.00009   0.00194   2.03228
   R12        1.79614  -0.00058   0.00217  -0.00375  -0.00158   1.79456
    A1        2.16955  -0.00117   0.00004  -0.00506  -0.00501   2.16453
    A2        2.08635   0.00024  -0.00010   0.00064   0.00053   2.08689
    A3        2.02729   0.00093   0.00006   0.00442   0.00448   2.03177
    A4        2.06132   0.00028   0.00015   0.00137   0.00152   2.06284
    A5        2.10419  -0.00022   0.00003  -0.00128  -0.00125   2.10293
    A6        2.11768  -0.00006  -0.00018  -0.00009  -0.00027   2.11741
    A7        2.07128  -0.00048  -0.00025  -0.00093  -0.00119   2.07008
    A8        2.14842  -0.00001   0.00037  -0.00079  -0.00042   2.14800
    A9        2.06349   0.00049  -0.00012   0.00173   0.00161   2.06510
   A10        2.05957   0.00024   0.00012   0.00122   0.00134   2.06091
   A11        2.10018   0.00001  -0.00022   0.00036   0.00014   2.10032
   A12        2.12343  -0.00025   0.00010  -0.00158  -0.00148   2.12196
   A13        2.17216  -0.00111   0.00009  -0.00484  -0.00474   2.16742
   A14        2.08729   0.00020  -0.00012   0.00045   0.00032   2.08761
[...]
 Iteration  1 RMS(Cart)=  0.00016232 RMS(Int)=  0.00000002
 Iteration  2 RMS(Cart)=  0.00000002 RMS(Int)=  0.00000000
 ITry= 1 IFail=0 DXMaxC= 5.98D-04 DCOld= 1.00D+10 DXMaxT= 3.00D-01 DXLimC= 3.00D+00 Rises=F
 Variable       Old X    -DE/DX   Delta X   Delta X   Delta X     New X
                                 (Linear)    (Quad)   (Total)
    R1        2.60600  -0.00014   0.00000  -0.00031  -0.00031   2.60569
    R2        2.49243   0.00001   0.00000   0.00004   0.00004   2.49247
    R3        2.03295  -0.00002   0.00000  -0.00004  -0.00004   2.03291
    R4        2.61027  -0.00001   0.00000   0.00007   0.00007   2.61033
    R5        2.03092  -0.00001   0.00000  -0.00002  -0.00002   2.03090
    R6        2.61020   0.00002   0.00000   0.00004   0.00004   2.61024
    R7        2.53831  -0.00008   0.00000  -0.00026  -0.00026   2.53805
    R8        2.60000  -0.00011   0.00000  -0.00016  -0.00016   2.59984
    R9        2.02611  -0.00003   0.00000  -0.00007  -0.00007   2.02604
   R10        2.50020  -0.00005   0.00000  -0.00013  -0.00013   2.50007
   R11        2.03249  -0.00001   0.00000  -0.00001  -0.00001   2.03249
   R12        1.79474   0.00007   0.00000   0.00012   0.00012   1.79486
    A1        2.16480   0.00001   0.00000   0.00003   0.00003   2.16483
    A2        2.08660  -0.00004   0.00000  -0.00026  -0.00026   2.08634
    A3        2.03179   0.00004   0.00000   0.00023   0.00023   2.03202
    A4        2.06298   0.00000   0.00000   0.00008   0.00008   2.06307
    A5        2.10350   0.00000   0.00000   0.00004   0.00004   2.10354
    A6        2.11670  -0.00001   0.00000  -0.00012  -0.00012   2.11658
    A7        2.06952  -0.00002   0.00000  -0.00017  -0.00017   2.06936
    A8        2.14866  -0.00002   0.00000  -0.00004  -0.00004   2.14862
    A9        2.06500   0.00004   0.00000   0.00021   0.00021   2.06521
   A10        2.06087   0.00001   0.00000   0.00008   0.00008   2.06095
   A11        2.10011   0.00001   0.00000   0.00007   0.00007   2.10018
   A12        2.12221  -0.00002   0.00000  -0.00015  -0.00015   2.12206
   A13        2.16795  -0.00001   0.00000   0.00001   0.00001   2.16796
   A14        2.08709  -0.00004   0.00000  -0.00031  -0.00031   2.08678
   A15        2.02814   0.00005   0.00000   0.00030   0.00030   2.02845
   A16        2.04023   0.00001   0.00000  -0.00003  -0.00003   2.04020
   A17        1.93275   0.00005   0.00000   0.00029   0.00029   1.93305
    D1        0.00006  -0.00000   0.00000  -0.00006  -0.00006  -0.00000
    D2       -3.14155  -0.00000   0.00000  -0.00005  -0.00005   3.14159
    D3        3.14157   0.00000   0.00000   0.00002   0.00002   3.14159
    D4       -0.00004   0.00000   0.00000   0.00004   0.00004  -0.00000
    D5       -0.00002   0.00000   0.00000   0.00002   0.00002   0.00000
    D6       -3.14153  -0.00000   0.00000  -0.00006  -0.00006   3.14159
    D7       -0.00004   0.00000   0.00000   0.00004   0.00004   0.00000
    D8        3.14158   0.00000   0.00000   0.00001   0.00001   3.14159
    D9        3.14157   0.00000   0.00000   0.00002   0.00002  -3.14159
   D10        0.00000   0.00000   0.00000  -0.00000  -0.00000   0.00000
   D11       -0.00002   0.00000   0.00000   0.00002   0.00002   0.00000
   D12        3.14158   0.00000   0.00000   0.00002   0.00002  -3.14159
   D13        3.14154   0.00000   0.00000   0.00005   0.00005  -3.14159
   D14       -0.00004   0.00000   0.00000   0.00004   0.00004   0.00000
   D15       -0.00010   0.00000   0.00000   0.00010   0.00010  -0.00000
   D16        3.14152   0.00000   0.00000   0.00007   0.00007   3.14159
   D17        0.00007  -0.00000   0.00000  -0.00007  -0.00007  -0.00000
   D18        3.14154   0.00000   0.00000   0.00005   0.00005   3.14159
   D19       -3.14153  -0.00000   0.00000  -0.00006  -0.00006   3.14159
   D20       -0.00006   0.00000   0.00000   0.00006   0.00006   0.00000
   D21       -0.00005   0.00000   0.00000   0.00005   0.00005   0.00000
   D22       -3.14153  -0.00000   0.00000  -0.00007  -0.00007   3.14159
         Item               Value     Threshold  Converged?
 Maximum Force            0.000142     0.000450     YES
 RMS     Force            0.000034     0.000300     YES
 Maximum Displacement     0.000598     0.001800     YES
 RMS     Displacement     0.000162     0.001200     YES
 Predicted change in Energy=-9.082653D-08
 Optimization completed.
    -- Stationary point found.
                           ----------------------------
                           !   Optimized Parameters   !
                           ! (Angstroms and Degrees)  !
 --------------------------                            --------------------------
 ! Name  Definition              Value          Derivative Info.                !
 --------------------------------------------------------------------------------
 ! R1    R(1,2)                  1.379          -DE/DX =   -0.0001              !
 ! R2    R(1,6)                  1.3189         -DE/DX =    0.0                 !
 ! R3    R(1,7)                  1.0758         -DE/DX =    0.0                 !
 ! R4    R(2,3)                  1.3813         -DE/DX =    0.0                 !
 ! R5    R(2,8)                  1.0747         -DE/DX =    0.0                 !
 ! R6    R(3,4)                  1.3813         -DE/DX =    0.0                 !
 ! R7    R(3,11)                 1.3432         -DE/DX =   -0.0001              !
 ! R8    R(4,5)                  1.3759         -DE/DX =   -0.0001              !
 ! R9    R(4,9)                  1.0722         -DE/DX =    0.0                 !
 ! R10   R(5,6)                  1.323          -DE/DX =    0.0                 !
 ! R11   R(5,10)                 1.0755         -DE/DX =    0.0                 !
 ! R12   R(11,12)                0.9497         -DE/DX =    0.0001              !
 ! A1    A(2,1,6)              124.0341         -DE/DX =    0.0                 !
 ! A2    A(2,1,7)              119.5531         -DE/DX =    0.0                 !
 ! A3    A(6,1,7)              116.4128         -DE/DX =    0.0                 !
 ! A4    A(1,2,3)              118.2002         -DE/DX =    0.0                 !
 ! A5    A(1,2,8)              120.5216         -DE/DX =    0.0                 !
 ! A6    A(3,2,8)              121.2782         -DE/DX =    0.0                 !
 ! A7    A(2,3,4)              118.575          -DE/DX =    0.0                 !
 ! A8    A(2,3,11)             123.1094         -DE/DX =    0.0                 !
 ! A9    A(4,3,11)             118.3156         -DE/DX =    0.0                 !
 ! A10   A(3,4,5)              118.0792         -DE/DX =    0.0                 !
 ! A11   A(3,4,9)              120.3274         -DE/DX =    0.0                 !
 ! A12   A(5,4,9)              121.5934         -DE/DX =    0.0                 !
 ! A13   A(4,5,6)              124.2147         -DE/DX =    0.0                 !
 ! A14   A(4,5,10)             119.5812         -DE/DX =    0.0                 !
 ! A15   A(6,5,10)             116.2041         -DE/DX =    0.0                 !
 ! A16   A(1,6,5)              116.8968         -DE/DX =    0.0                 !
 ! A17   A(3,11,12)            110.7385         -DE/DX =    0.0                 !
 ! D1    D(6,1,2,3)              0.0036         -DE/DX =    0.0                 !
 ! D2    D(6,1,2,8)            180.0027         -DE/DX =    0.0                 !
 ! D3    D(7,1,2,3)            179.9986         -DE/DX =    0.0                 !
 ! D4    D(7,1,2,8)             -0.0023         -DE/DX =    0.0                 !
 ! D5    D(2,1,6,5)             -0.0012         -DE/DX =    0.0                 !
 ! D6    D(7,1,6,5)            180.0037         -DE/DX =    0.0                 !
 ! D7    D(1,2,3,4)             -0.0021         -DE/DX =    0.0                 !
 ! D8    D(1,2,3,11)           179.9993         -DE/DX =    0.0                 !
 ! D9    D(8,2,3,4)           -180.0012         -DE/DX =    0.0                 !
 ! D10   D(8,2,3,11)             0.0002         -DE/DX =    0.0                 !
 ! D11   D(2,3,4,5)             -0.0014         -DE/DX =    0.0                 !
 ! D12   D(2,3,4,9)           -180.0009         -DE/DX =    0.0                 !
 ! D13   D(11,3,4,5)          -180.0027         -DE/DX =    0.0                 !
 ! D14   D(11,3,4,9)            -0.0022         -DE/DX =    0.0                 !
 ! D15   D(2,3,11,12)           -0.0056         -DE/DX =    0.0                 !
 ! D16   D(4,3,11,12)          179.9958         -DE/DX =    0.0                 !
 ! D17   D(3,4,5,6)              0.0041         -DE/DX =    0.0                 !
 ! D18   D(3,4,5,10)           179.9972         -DE/DX =    0.0                 !
 ! D19   D(9,4,5,6)            180.0035         -DE/DX =    0.0                 !
 ! D20   D(9,4,5,10)            -0.0033         -DE/DX =    0.0                 !
 ! D21   D(4,5,6,1)             -0.0028         -DE/DX =    0.0                 !
 ! D22   D(10,5,6,1)           180.0038         -DE/DX =    0.0                 !
 --------------------------------------------------------------------------------
 GradGradGradGradGradGradGradGradGradGradGradGradGradGradGradGradGradGrad

 Leave Link  103 at Fri Aug 27 21:22:10 2021, MaxMem= 17179869184 cpu:        33.1
 (Enter /public3/home/sc51754/softwares/g09e01/l9999.exe)
 1\1\GINC-P1908\Freq\RBHandHLYP\Gen\C5H5N1O1\SC51754\27-Aug-2021\0\\#P 
 Geom=AllCheck Guess=TCheck SCRF=Check GenChk RBHandHLYP/ChkBas Freq\\4
 HY_BHandHLYP_PC2_OPT_FREQ\\0,1\C,1.1411405343,1.1411284993,0.000014261
 4\C,-0.237435403,1.1767313243,0.0000183105\C,-0.9213809701,-0.02334744
 64,-0.0000130071\C,-0.1946372116,-1.1979618336,-0.0000912429\C,1.17840
 63264,-1.1099841053,-0.000163974\N,1.850867771,0.0294246771,-0.0000860
 633\H,1.6957376278,2.0629482024,0.0000156103\H,-0.7591605121,2.1163131
 671,0.000059283\H,-0.6967869262,-2.1452699467,-0.0001034229\H,1.768082
 729,-2.0094772203,-0.0001807068\O,-2.2621921678,-0.1037079118,0.000001
 795\H,-2.6510337976,0.7627815939,0.0001221569\\Version=EM64L-G09RevE.0
 1\State=1-A\HF=-323.4489508\RMSD=3.103e-09\RMSF=5.130e-05\ZeroPoint=0.
 0966486\Thermal=0.1018047\Dipole=-0.9173473,0.5216809,0.0000953\Dipole
 Deriv=0.4957664,0.0333243,-0.0000025,-0.0241032,0.4012941,0.0000196,-0
 .0000283,-0.0000034,0.0117937,-0.4800456,-0.1466541,0.0000015,-0.31551
 6,-0.1503168,-0.0000024,-0.0000066,0.0000098,-0.1843063,1.666857,-0.00
 29592,-0.0000379,-0.0119381,0.4001952,0.000021,-0.0000225,0.0000193,0.
 1385694,-0.4787418,0.1570647,0.0000164,0.2971805,-0.1323798,-0.000014,
 0.0000223,-0.0000063,-0.1719026,0.5122835,-0.0632582,-0.0000264,0.0475
 546,0.4087938,0.0000174,0.0000105,0.0000022,0.008892,-0.6414321,0.0164
 302,0.0000112,-0.0166754,-0.6931471,-0.0000085,0.0000053,-0.0000312,-0
 .2989753,0.0394073,-0.0715751,-0.0000044,-0.055445,-0.074036,-0.000009
 4,0.0000109,0.0000118,0.1059012,0.0028121,0.0798794,0.0000062,0.076085
 5,-0.0315672,-0.0000097,0.0000009,-0.0000111,0.1621079,0.0557257,-0.05
 00015,0.000003,-0.0486783,-0.0100344,-0.0000063,0.0000076,-0.0000052,0
 .1607418,0.0364356,0.0776924,0.0000082,0.0578279,-0.0657797,-0.0000127
 ,-0.0000107,0.0000126,0.1072352,-1.6074102,0.026333,0.0000348,0.026388
 3,-0.2288357,0.000022,0.0000058,0.0000187,-0.3745796,0.3983421,-0.0562
 761,-0.0000102,-0.0326807,0.1758136,-0.0000169,0.0000049,-0.0000174,0.
 3345227\Polar=76.8135611,-1.1901085,73.3830296,-0.0012331,0.0021061,37
 .7315485\PG=C01 [X(C5H5N1O1)]\NImag=0\\0.73096608,0.04496295,0.7970787
 5,-0.00001219,0.00002817,0.17941082,-0.34847243,-0.04551181,-0.0000010
 7,0.74217873,0.03742502,-0.14984002,-0.00000398,-0.04099786,0.77388857
 ,0.00000180,-0.00000165,-0.07243549,-0.00000806,0.00002549,0.13032813,
 -0.03062395,-0.03858666,-0.00000055,-0.17689625,-0.11513808,-0.0000023
 9,0.75918164,-0.10538564,0.06045935,0.00000559,-0.02786340,-0.30807652
 ,-0.00000808,-0.01211964,0.75936786,-0.00000562,0.00000260,0.00243015,
 0.00000259,-0.00000618,-0.07563747,-0.00001602,0.00002913,0.18537989,-
 0.06485109,0.04776451,0.00000396,0.07247922,0.02349645,0.00000019,-0.1
 7359162,0.03649325,0.00000380,0.75440320,0.02642007,-0.02257008,-0.000
 00168,-0.01974204,-0.05147358,-0.00000222,0.11912421,-0.30546128,-0.00
 001426,0.04527059,0.78463023,0.00000377,-0.00000315,-0.00711031,-0.000
 00390,-0.00000340,0.00964569,0.00000927,-0.00001144,-0.07770402,-0.000
 02602,0.00002427,0.13464920,0.07272486,-0.03179391,-0.00000309,-0.0621
 7938,-0.02592056,-0.00000001,-0.03869091,0.09838090,0.00000705,-0.3581
 0334,-0.04599210,0.00001386,0.74199015,0.03824585,-0.10871031,-0.00000
 826,-0.04953059,-0.02504799,-0.00000031,0.03257022,0.06692837,0.000001
 59,0.03627917,-0.15372118,-0.00000410,-0.05110270,0.78655587,0.0000006
 3,-0.00000599,0.00480839,-0.00000164,-0.00000098,-0.00756300,0.0000026
 8,0.00000137,0.00241679,0.00001714,-0.00000196,-0.07254969,-0.00001559
 ,0.00002836,0.18065663,-0.20812005,0.12816070,0.00001200,-0.03589076,0
 .03428165,0.00000321,0.01290352,0.00375956,-0.00000002,-0.02942871,-0.
 03810251,-0.00000091,-0.19865954,-0.12023662,-0.00000635,0.45128506,0.
 08558898,-0.30382180,-0.00001744,0.11142098,0.03880198,-0.00000253,0.0
 0428703,-0.11413879,-0.00000495,-0.11298195,0.03541987,0.00000378,-0.0
 7758225,-0.30333061,-0.00001449,-0.00892090,0.70012815,0.00001145,-0.0
 0002009,-0.07803567,0.00000763,0.00000080,0.02498378,-0.00000033,-0.00
 000797,-0.00861949,-0.00000465,0.00000255,0.02417238,-0.00000625,-0.00
 001550,-0.07811295,-0.00000813,0.00004294,0.10671998,-0.15031568,-0.13
 347054,-0.00000086,-0.01180760,-0.02904151,-0.00000022,-0.00557071,0.0
 0193745,0.00000033,-0.00055066,0.00102392,0.00000007,0.00057244,0.0049
 1049,0.00000076,0.01528263,0.02083061,0.00000049,0.15222873,-0.1320151
 9,-0.26088555,-0.00000117,0.00198012,0.00442233,-0.00000002,0.00143127
 ,0.00121758,-0.00000015,-0.00000705,0.00031137,0.00000004,0.00324266,-
 0.00235481,-0.00000043,-0.00777437,-0.03449918,-0.00000165,0.13472779,
 0.29195667,0.00000022,0.00000169,-0.04804772,0.00000003,-0.00000004,0.
 00807733,-0.00000004,-0.00000062,0.00848456,-0.00000062,0.00000044,-0.
 00084693,0.00000153,-0.00000054,0.01077712,-0.00000053,-0.00000430,-0.
 00274312,-0.00000034,0.00000333,0.03001923,-0.00714472,0.03315928,0.00
 000174,-0.13157050,0.12131110,0.00000528,0.00953967,-0.01533342,-0.000
 00071,-0.00054124,-0.00386111,-0.00000013,-0.00161874,-0.00203925,-0.0
 0000013,-0.00734396,0.00037103,0.00000019,0.00089826,-0.00056131,0.000
 00003,0.13345879,-0.00174641,0.00361673,0.00000007,0.12165609,-0.28784
 378,-0.00001085,0.01994447,-0.01949953,-0.00000143,-0.00429715,-0.0033
 4503,-0.00000020,-0.00137928,0.00000561,0.00000010,-0.00035068,0.00235
 674,-0.00000012,0.00051077,0.00056025,0.00000015,-0.13341248,0.3028485
 4,-0.00000027,0.00000018,0.00030930,0.00000547,-0.00001118,-0.03436854
 ,0.00000105,-0.00000052,0.00386540,-0.00000002,-0.00000034,0.00613479,
 -0.00000020,-0.00000013,-0.00036745,0.00000046,-0.00000040,0.00864567,
 -0.00000012,0.00000008,-0.00381143,-0.00000619,0.00001199,0.02437688,-
 0.00154457,0.00188583,0.00000019,-0.00135267,0.00365341,0.00000052,0.0
 1254948,0.01689051,0.00000042,-0.12814002,-0.12309812,0.00000020,-0.00
 597471,-0.03196257,-0.00000144,-0.00688736,-0.00061142,0.00000070,0.00
 011366,-0.00020603,-0.00000011,0.00055407,0.00094518,0.00000007,0.1278
 4672,0.00132581,0.00009713,0.00000003,0.00404263,-0.00302600,-0.000000
 45,-0.01768833,-0.02001234,-0.00000042,-0.12147759,-0.29988408,-0.0000
 0461,0.00174434,0.00401249,0.00000003,0.00046759,0.00229302,-0.0000001
 8,-0.00007205,0.00000891,0.00000005,-0.00073752,-0.00087532,-0.0000000
 7,0.13356434,0.31417705,0.00000018,-0.00000022,-0.00035426,0.00000052,
 -0.00000048,0.00615893,-0.00000142,-0.00000203,0.00498140,-0.00000039,
 -0.00000439,-0.03684411,0.00000091,0.00000220,0.00042239,0.00000035,-0
 .00000056,0.00895744,-0.00000009,0.00000007,-0.00135501,-0.00000009,-0
 .00000012,0.00016811,0.00000011,0.00000512,0.02618835,0.00090835,-0.00
 488110,-0.00000038,-0.00058959,-0.00104280,-0.00000007,-0.00521491,-0.
 00200976,0.00000028,-0.01270029,0.02852326,0.00000100,-0.16073486,0.13
 764305,0.00000454,0.01549487,-0.01905058,-0.00000112,0.00032149,-0.000
 54913,-0.00000008,0.00010563,0.00007172,0.00000002,0.00091498,-0.00054
 361,-0.00000006,0.16302554,-0.00311760,-0.00279301,-0.00000033,-0.0000
 2792,0.00034319,0.00000005,-0.00169222,0.00103568,-0.00000004,-0.00265
 288,0.00546482,0.00000029,0.13616016,-0.25128701,-0.00000527,0.0097536
 0,-0.03451552,-0.00000190,0.00059288,-0.00088317,-0.00000015,0.0002184
 2,-0.00000053,0.00000005,0.00057451,0.00052677,0.,-0.13999775,0.281805
 96,-0.00000101,-0.00000057,0.01044738,0.00000040,0.00000056,-0.0008060
 9,0.00000087,-0.00000033,0.00889937,0.00000154,-0.00000173,0.00831068,
 0.00000245,-0.00000163,-0.04875752,0.00000007,-0.00000349,-0.00243432,
 0.00000009,-0.00000013,0.00020230,0.00000002,0.00000004,-0.00129795,-0
 .00000031,0.00000018,-0.00400779,-0.00000429,0.00000726,0.03027301,0.0
 0785477,-0.00263076,0.00000045,-0.05012072,-0.00887062,-0.00000003,-0.
 33635919,-0.04505985,0.00000147,-0.05226406,0.01396204,0.00000262,0.01
 029138,0.00246294,-0.00000053,-0.00952854,-0.00165673,0.00000009,-0.00
 149867,-0.00029854,-0.00000009,0.00393869,-0.00003364,-0.00000040,0.00
 172696,-0.00057389,-0.00000006,-0.00108381,0.00036889,0.00000009,0.549
 54164,0.00797616,-0.01155885,-0.00000113,-0.04966397,0.00425951,0.0000
 0019,0.00893453,-0.12442171,-0.00000685,0.05431214,0.00820496,-0.00000
 141,-0.00627923,-0.01286283,-0.00000059,-0.00061341,0.01137287,0.00000
 112,-0.00175873,0.00020420,0.00000002,0.00008867,0.00304334,0.00000048
 ,-0.00145287,0.00238658,0.00000037,0.00184750,0.00023773,-0.00000016,-
 0.16529468,0.60588010,0.00000095,-0.00000069,0.00928297,-0.00000140,-0
 .00000082,0.01292217,0.00000846,-0.00000528,-0.05181138,0.00000478,-0.
 00000038,0.00906711,-0.00000009,-0.00000151,0.00644111,-0.00000026,0.0
 0000101,-0.00343143,-0.00000005,0.00000004,-0.00083807,-0.00000013,0.0
 0000027,-0.00416646,-0.00000034,0.00000029,-0.00376056,0.00000021,0.00
 000003,-0.00043368,-0.00003423,0.00007343,0.03193267,-0.00138156,0.000
 94152,-0.00000019,0.00422197,0.00084379,-0.00000022,-0.02722677,0.0503
 1004,0.00000643,-0.00671140,-0.00352820,0.00000017,0.00038267,0.002760
 02,-0.00000009,0.00089283,-0.00169480,-0.00000007,0.00032611,0.0000297
 9,0.,-0.00027596,-0.00190859,0.00000013,0.00019347,-0.00005173,0.00000
 003,-0.00044739,-0.00018009,0.00000008,-0.12249844,0.15190389,0.000022
 12,0.15252449,0.00032000,-0.00107234,0.00000014,-0.00576222,0.00359228
 ,0.00000039,-0.00106680,0.00260132,0.00000096,-0.00219950,0.00242398,-
 0.00000009,0.00052197,-0.00018761,-0.00000015,-0.00042460,-0.00006673,
 0.00000001,-0.00019106,-0.00005860,-0.00000003,0.00079658,-0.00086704,
 -0.00000015,-0.00018278,0.00029580,0.00000003,-0.00001080,0.00006510,0
 .,0.20762484,-0.48674589,-0.00006639,-0.19942564,0.48001973,0.00000009
 ,-0.00000029,-0.00070556,-0.00000058,0.00000021,-0.00130543,-0.0000015
 9,0.00000017,-0.00268519,0.00000029,-0.00000031,0.00307522,-0.00000055
 ,-0.00000015,0.00182818,0.00000010,0.00000042,-0.00010227,-0.00000005,
 0.,0.00008175,0.00000012,0.00000010,0.00051169,-0.00000002,0.00000002,
 -0.00055489,-0.00000004,0.00000001,-0.00039539,0.00003063,-0.00006547,
 -0.00520444,-0.00002841,0.00006529,0.00545632\\0.00009043,0.00000468,0
 .00000968,-0.00014526,-0.00001926,-0.00000377,0.00011776,0.00003332,0.
 00000282,-0.00011628,0.00001634,0.00000315,0.00002013,-0.00003391,-0.0
 0001367,0.00005608,0.00004465,0.00000159,0.00004227,-0.00000544,-0.000
 00330,-0.00000044,0.00001120,-0.00000049,-0.00002301,-0.00001918,0.000
 00094,0.00003877,0.00001778,0.00000432,-0.00013536,0.00000654,-0.00000
 173,0.00005490,-0.00005671,0.00000047\\\@


 Sacred cows make the best hamburger.
                               -- Mark Twain
 Job cpu time:       0 days  0 hours 39 minutes 32.7 seconds.
 File lengths (MBytes):  RWF=     79 Int=      0 D2E=      0 Chk=      7 Scr=      1
 Normal termination of Gaussian 09 at Fri Aug 27 21:22:10 2021.
