 Entering Gaussian System, Link 0=g09
 AtFile(1): pc-2.gbs
            -H     0
            S    4   1.00
                  0.754230D+02           0.240650D-02
                  0.113500D+02           0.184870D-01
                  0.259930D+01           0.897420D-01
                  0.735130D+00           0.281110D+00
            S    1   1.00
                  0.231670D+00           0.100000D+01
            S    1   1.00
                  0.741470D-01           0.100000D+01
            P    1   1.00
                  0.160000D+01           0.100000D+01
            P    1   1.00
                  0.450000D+00           0.100000D+01
            D    1   1.00
                  0.125000D+01           0.100000D+01
            ****
            -C     0
            S    7   1.00
                  0.785710D+04           0.568250D-03
                  0.117870D+04           0.439150D-02
                  0.268320D+03           0.225040D-01
                  0.759480D+02           0.866530D-01
                  0.245590D+02           0.244050D+00
                  0.862120D+01           0.441480D+00
                  0.312780D+01           0.353320D+00
            S    7   1.00
                  0.117870D+04          -0.594920D-06
                  0.268320D+03          -0.627480D-04
                  0.759480D+02          -0.757730D-03
                  0.245590D+02          -0.733080D-02
                  0.862120D+01          -0.389320D-01
                  0.312780D+01          -0.889080D-01
                  0.822020D+00           0.216890D+00
            S    1   1.00
                  0.330170D+00           0.100000D+01
            S    1   1.00
                  0.114630D+00           0.100000D+01
            P    4   1.00
                  0.337750D+02           0.602940D-02
                  0.767660D+01           0.432280D-01
                  0.223570D+01           0.163010D+00
                  0.764470D+00           0.365040D+00
            P    1   1.00
                  0.262320D+00           0.100000D+01
            P    1   1.00
                  0.846380D-01           0.100000D+01
            D    1   1.00
                  0.140000D+01           0.100000D+01
            D    1   1.00
                  0.450000D+00           0.100000D+01
            F    1   1.00
                  0.950000D+00           0.100000D+01
            ****
            -N     0
            S    7   1.00
                  0.111010D+05           0.545700D-03
                  0.166530D+04           0.421810D-02
                  0.379080D+03           0.216450D-01
                  0.107300D+03           0.837760D-01
                  0.347470D+02           0.238810D+00
                  0.122490D+02           0.439940D+00
                  0.447430D+01           0.363640D+00
            S    7   1.00
                  0.166530D+04          -0.150060D-05
                  0.379080D+03          -0.587530D-04
                  0.107300D+03          -0.774530D-03
                  0.347470D+02          -0.721610D-02
                  0.122490D+02          -0.393380D-01
                  0.447430D+01          -0.906110D-01
                  0.124040D+01           0.198820D+00
            S    1   1.00
                  0.487430D+00           0.100000D+01
            S    1   1.00
                  0.164840D+00           0.100000D+01
            P    4   1.00
                  0.479340D+02           0.617060D-02
                  0.109990D+02           0.442600D-01
                  0.324720D+01           0.168250D+00
                  0.111140D+01           0.368480D+00
            P    1   1.00
                  0.379880D+00           0.100000D+01
            P    1   1.00
                  0.120680D+00           0.100000D+01
            D    1   1.00
                  0.180000D+01           0.100000D+01
            D    1   1.00
                  0.550000D+00           0.100000D+01
            F    1   1.00
                  0.102000D+01           0.100000D+01
            ****
            -O     0
            S    7   1.00
                  0.147820D+05           0.535190D-03
                  0.221730D+04           0.413750D-02
                  0.504740D+03           0.212450D-01
                  0.142870D+03           0.824530D-01
                  0.463000D+02           0.236710D+00
                  0.163370D+02           0.440390D+00
                  0.598280D+01           0.364650D+00
            S    7   1.00
                  0.221730D+04          -0.192750D-05
                  0.504740D+03          -0.579640D-04
                  0.142870D+03          -0.794940D-03
                  0.463000D+02          -0.731250D-02
                  0.163370D+02          -0.405740D-01
                  0.598280D+01          -0.915940D-01
                  0.167180D+01           0.209400D+00
            S    1   1.00
                  0.646620D+00           0.100000D+01
            S    1   1.00
                  0.216690D+00           0.100000D+01
            P    4   1.00
                  0.604240D+02           0.689490D-02
                  0.139350D+02           0.490050D-01
                  0.415310D+01           0.182550D+00
                  0.141580D+01           0.376330D+00
            P    1   1.00
                  0.475490D+00           0.100000D+01
            P    1   1.00
                  0.145290D+00           0.100000D+01
            D    1   1.00
                  0.220000D+01           0.100000D+01
            D    1   1.00
                  0.650000D+00           0.100000D+01
            F    1   1.00
                  0.110000D+01           0.100000D+01
            ****
 Initial command:
 /public3/home/sc51754/softwares/g09e01/l1.exe "./Gau-18341.inp" -scrdir="./"
 Entering Link 1 = /public3/home/sc51754/softwares/g09e01/l1.exe PID=     18342.
  
 Copyright (c) 1988,1990,1992,1993,1995,1998,2003,2009,2015,
            Gaussian, Inc.  All Rights Reserved.
  
 This is part of the Gaussian(R) 09 program.  It is based on
 the Gaussian(R) 03 system (copyright 2003, Gaussian, Inc.),
 the Gaussian(R) 98 system (copyright 1998, Gaussian, Inc.),
 the Gaussian(R) 94 system (copyright 1995, Gaussian, Inc.),
 the Gaussian 92(TM) system (copyright 1992, Gaussian, Inc.),
 the Gaussian 90(TM) system (copyright 1990, Gaussian, Inc.),
 the Gaussian 88(TM) system (copyright 1988, Gaussian, Inc.),
 the Gaussian 86(TM) system (copyright 1986, Carnegie Mellon
 University), and the Gaussian 82(TM) system (copyright 1983,
 Carnegie Mellon University). Gaussian is a federally registered
 trademark of Gaussian, Inc.
  
 This software contains proprietary and confidential information,
 including trade secrets, belonging to Gaussian, Inc.
  
 This software is provided under written license and may be
 used, copied, transmitted, or stored only in accord with that
 written license.
  
 The following legend is applicable only to US Government
 contracts under FAR:
  
                    RESTRICTED RIGHTS LEGEND
  
 Use, reproduction and disclosure by the US Government is
 subject to restrictions as set forth in subparagraphs (a)
 and (c) of the Commercial Computer Software - Restricted
 Rights clause in FAR 52.227-19.
  
 Gaussian, Inc.
 340 Quinnipiac St., Bldg. 40, Wallingford CT 06492
  
  
 ---------------------------------------------------------------
 Warning -- This program may not be used in any manner that
 competes with the business of Gaussian, Inc. or will provide
 assistance to any competitor of Gaussian, Inc.  The licensee
 of this program is prohibited from giving any competitor of
 Gaussian, Inc. access to this program.  By using this program,
 the user acknowledges that Gaussian, Inc. is engaged in the
 business of creating and licensing software in the field of
 computational chemistry and represents and warrants to the
 licensee that it is not a competitor of Gaussian, Inc. and that
 it will not use this program in any manner prohibited above.
 ---------------------------------------------------------------
  

 Cite this work as:
 Gaussian 09, Revision E.01,
 M. J. Frisch, G. W. Trucks, H. B. Schlegel, G. E. Scuseria, 
 M. A. Robb, J. R. Cheeseman, G. Scalmani, V. Barone, B. Mennucci, 
 G. A. Petersson, H. Nakatsuji, M. Caricato, X. Li, H. P. Hratchian, 
 A. F. Izmaylov, J. Bloino, G. Zheng, J. L. Sonnenberg, M. Hada, 
 M. Ehara, K. Toyota, R. Fukuda, J. Hasegawa, M. Ishida, T. Nakajima, 
 Y. Honda, O. Kitao, H. Nakai, T. Vreven, J. A. Montgomery, Jr., 
 J. E. Peralta, F. Ogliaro, M. Bearpark, J. J. Heyd, E. Brothers, 
 K. N. Kudin, V. N. Staroverov, T. Keith, R. Kobayashi, J. Normand, 
 K. Raghavachari, A. Rendell, J. C. Burant, S. S. Iyengar, J. Tomasi, 
 M. Cossi, N. Rega, J. M. Millam, M. Klene, J. E. Knox, J. B. Cross, 
 V. Bakken, C. Adamo, J. Jaramillo, R. Gomperts, R. E. Stratmann, 
 O. Yazyev, A. J. Austin, R. Cammi, C. Pomelli, J. W. Ochterski, 
 R. L. Martin, K. Morokuma, V. G. Zakrzewski, G. A. Voth, 
 P. Salvador, J. J. Dannenberg, S. Dapprich, A. D. Daniels, 
 O. Farkas, J. B. Foresman, J. V. Ortiz, J. Cioslowski, 
 and D. J. Fox, Gaussian, Inc., Wallingford CT, 2013.
 
 ******************************************
 Gaussian 09:  EM64L-G09RevE.01 30-Nov-2015
                27-Aug-2021 
 ******************************************
 %nprocshared=64
 Will use up to   64 processors via shared memory.
 %mem=128GB
 %chk=4HY_BP86_PC2_OPT_FREQ.chk
 --------------------
 #p opt freq BP86/gen
 --------------------
 1/14=-1,18=20,19=15,26=3,38=1/1,3;
 2/9=110,12=2,17=6,18=5,40=1/2;
 3/5=7,11=2,16=1,25=1,30=1,71=1,74=404/1,2,3;
 4//1;
 5/5=2,38=5/2;
 6/7=2,8=2,9=2,10=2,28=1/1;
 7//1,2,3,16;
 1/14=-1,18=20,19=15,26=3/3(2);
 2/9=110/2;
 99//99;
 2/9=110/2;
 3/5=7,6=1,11=2,16=1,25=1,30=1,71=1,74=404,82=7/1,2,3;
 4/5=5,16=3,69=1/1;
 5/5=2,38=5/2;
 7//1,2,3,16;
 1/14=-1,18=20,19=15,26=3/3(-5);
 2/9=110/2;
 6/7=2,8=2,9=2,10=2,19=2,28=1/1;
 99/9=1/99;
 Leave Link    1 at Fri Aug 27 21:11:43 2021, MaxMem= 17179869184 cpu:         5.3
 (Enter /public3/home/sc51754/softwares/g09e01/l101.exe)
 ---------------------
 4HY_BP86_PC2_OPT_FREQ
 ---------------------
 Symbolic Z-matrix:
 Charge =  0 Multiplicity = 1
 C                     1.15223   1.15341  -0.00011 
 C                    -0.24145   1.18944   0.00003 
 C                    -0.93443  -0.02499   0.00004 
 C                    -0.19715  -1.21307  -0.00009 
 C                     1.19102  -1.12281   0.00022 
 N                     1.87822   0.02956   0.00002 
 H                     1.71189   2.08718  -0.0001 
 H                    -0.77027   2.13945  -0.00002 
 H                    -0.70664  -2.17013  -0.00044 
 H                     1.78719  -2.03343  -0.00024 
 O                    -2.29029  -0.1124   -0.00001 
 H                    -2.6687    0.77737   0.00031 
 
 NAtoms=     12 NQM=       12 NQMF=       0 NMMI=      0 NMMIF=      0
                NMic=       0 NMicF=      0.
                    Isotopes and Nuclear Properties:
 (Nuclear quadrupole moments (NQMom) in fm**2, nuclear magnetic moments (NMagM)
  in nuclear magnetons)

  Atom         1           2           3           4           5           6           7           8           9          10
 IAtWgt=          12          12          12          12          12          14           1           1           1           1
 AtmWgt=  12.0000000  12.0000000  12.0000000  12.0000000  12.0000000  14.0030740   1.0078250   1.0078250   1.0078250   1.0078250
 NucSpn=           0           0           0           0           0           2           1           1           1           1
 AtZEff=   0.0000000   0.0000000   0.0000000   0.0000000   0.0000000   0.0000000   0.0000000   0.0000000   0.0000000   0.0000000
 NQMom=    0.0000000   0.0000000   0.0000000   0.0000000   0.0000000   2.0440000   0.0000000   0.0000000   0.0000000   0.0000000
 NMagM=    0.0000000   0.0000000   0.0000000   0.0000000   0.0000000   0.4037610   2.7928460   2.7928460   2.7928460   2.7928460
 AtZNuc=   6.0000000   6.0000000   6.0000000   6.0000000   6.0000000   7.0000000   1.0000000   1.0000000   1.0000000   1.0000000

  Atom        11          12
 IAtWgt=          16           1
 AtmWgt=  15.9949146   1.0078250
 NucSpn=           0           1
 AtZEff=   0.0000000   0.0000000
 NQMom=    0.0000000   0.0000000
 NMagM=    0.0000000   2.7928460
 AtZNuc=   8.0000000   1.0000000
 Leave Link  101 at Fri Aug 27 21:11:43 2021, MaxMem= 17179869184 cpu:         6.8
 (Enter /public3/home/sc51754/softwares/g09e01/l103.exe)

 GradGradGradGradGradGradGradGradGradGradGradGradGradGradGradGradGradGrad
 Berny optimization.
 Initialization pass.
                           ----------------------------
                           !    Initial Parameters    !
                           ! (Angstroms and Degrees)  !
 --------------------------                            --------------------------
 ! Name  Definition              Value          Derivative Info.                !
 --------------------------------------------------------------------------------
 ! R1    R(1,2)                  1.3941         estimate D2E/DX2                !
 ! R2    R(1,6)                  1.3379         estimate D2E/DX2                !
 ! R3    R(1,7)                  1.0886         estimate D2E/DX2                !
 ! R4    R(2,3)                  1.3982         estimate D2E/DX2                !
 ! R5    R(2,8)                  1.0873         estimate D2E/DX2                !
 ! R6    R(3,4)                  1.3983         estimate D2E/DX2                !
 ! R7    R(3,11)                 1.3587         estimate D2E/DX2                !
 ! R8    R(4,5)                  1.3911         estimate D2E/DX2                !
 ! R9    R(4,9)                  1.0842         estimate D2E/DX2                !
 ! R10   R(5,6)                  1.3417         estimate D2E/DX2                !
 ! R11   R(5,10)                 1.0884         estimate D2E/DX2                !
 ! R12   R(11,12)                0.9669         estimate D2E/DX2                !
 ! A1    A(2,1,6)              124.3426         estimate D2E/DX2                !
 ! A2    A(2,1,7)              119.4556         estimate D2E/DX2                !
 ! A3    A(6,1,7)              116.2018         estimate D2E/DX2                !
 ! A4    A(1,2,3)              118.2292         estimate D2E/DX2                !
 ! A5    A(1,2,8)              120.5831         estimate D2E/DX2                !
 ! A6    A(3,2,8)              121.1877         estimate D2E/DX2                !
 ! A7    A(2,3,4)              118.4682         estimate D2E/DX2                !
 ! A8    A(2,3,11)             123.3985         estimate D2E/DX2                !
 ! A9    A(4,3,11)             118.1333         estimate D2E/DX2                !
 ! A10   A(3,4,5)              118.1015         estimate D2E/DX2                !
 ! A11   A(3,4,9)              120.1493         estimate D2E/DX2                !
 ! A12   A(5,4,9)              121.7493         estimate D2E/DX2                !
 ! A13   A(4,5,6)              124.5296         estimate D2E/DX2                !
 ! A14   A(4,5,10)             119.4914         estimate D2E/DX2                !
 ! A15   A(6,5,10)             115.9789         estimate D2E/DX2                !
 ! A16   A(1,6,5)              116.3289         estimate D2E/DX2                !
 ! A17   A(3,11,12)            109.3507         estimate D2E/DX2                !
 ! D1    D(6,1,2,3)             -0.0135         estimate D2E/DX2                !
 ! D2    D(6,1,2,8)            179.9955         estimate D2E/DX2                !
 ! D3    D(7,1,2,3)           -179.9987         estimate D2E/DX2                !
 ! D4    D(7,1,2,8)              0.0102         estimate D2E/DX2                !
 ! D5    D(2,1,6,5)              0.0039         estimate D2E/DX2                !
 ! D6    D(7,1,6,5)            179.9896         estimate D2E/DX2                !
 ! D7    D(1,2,3,4)              0.0007         estimate D2E/DX2                !
 ! D8    D(1,2,3,11)          -179.9909         estimate D2E/DX2                !
 ! D9    D(8,2,3,4)            179.9917         estimate D2E/DX2                !
 ! D10   D(8,2,3,11)             0.0001         estimate D2E/DX2                !
 ! D11   D(2,3,4,5)              0.0198         estimate D2E/DX2                !
 ! D12   D(2,3,4,9)           -179.978          estimate D2E/DX2                !
 ! D13   D(11,3,4,5)          -179.9882         estimate D2E/DX2                !
 ! D14   D(11,3,4,9)             0.014          estimate D2E/DX2                !
 ! D15   D(2,3,11,12)           -0.0225         estimate D2E/DX2                !
 ! D16   D(4,3,11,12)          179.9859         estimate D2E/DX2                !
 ! D17   D(3,4,5,6)             -0.0313         estimate D2E/DX2                !
 ! D18   D(3,4,5,10)          -179.9777         estimate D2E/DX2                !
 ! D19   D(9,4,5,6)            179.9664         estimate D2E/DX2                !
 ! D20   D(9,4,5,10)             0.0201         estimate D2E/DX2                !
 ! D21   D(4,5,6,1)              0.0192         estimate D2E/DX2                !
 ! D22   D(10,5,6,1)           179.9673         estimate D2E/DX2                !
 --------------------------------------------------------------------------------
 Trust Radius=3.00D-01 FncErr=1.00D-07 GrdErr=1.00D-06
 Number of steps in this run=     61 maximum allowed number of steps=    100.
 GradGradGradGradGradGradGradGradGradGradGradGradGradGradGradGradGradGrad

 Leave Link  103 at Fri Aug 27 21:11:43 2021, MaxMem= 17179869184 cpu:         0.1
 (Enter /public3/home/sc51754/softwares/g09e01/l202.exe)
                          Input orientation:                          
 ---------------------------------------------------------------------
 Center     Atomic      Atomic             Coordinates (Angstroms)
 Number     Number       Type             X           Y           Z
 ---------------------------------------------------------------------
      1          6           0        1.152230    1.153409   -0.000114
      2          6           0       -0.241450    1.189435    0.000028
      3          6           0       -0.934425   -0.024989    0.000035
      4          6           0       -0.197153   -1.213074   -0.000085
      5          6           0        1.191022   -1.122808    0.000218
      6          7           0        1.878221    0.029557    0.000015
      7          1           0        1.711886    2.087182   -0.000101
      8          1           0       -0.770273    2.139452   -0.000016
      9          1           0       -0.706644   -2.170125   -0.000442
     10          1           0        1.787188   -2.033434   -0.000236
     11          8           0       -2.290294   -0.112398   -0.000014
     12          1           0       -2.668700    0.777372    0.000305
 ---------------------------------------------------------------------
                    Distance matrix (angstroms):
                    1          2          3          4          5
     1  C    0.000000
     2  C    1.394146   0.000000
     3  C    2.396404   1.398227   0.000000
     4  C    2.724165   2.402917   1.398255   0.000000
     5  C    2.276548   2.720008   2.392223   1.391107   0.000000
     6  N    1.337949   2.416262   2.813175   2.418948   1.341711
     7  H    1.088645   2.149761   3.385887   3.812626   3.251974
     8  H    2.160625   1.087284   2.170657   3.401161   3.806444
     9  H    3.808056   3.391615   2.157196   1.084218   2.167489
    10  H    3.249483   3.808183   3.382459   2.147231   1.088418
    11  O    3.667866   2.427454   1.358684   2.364895   3.624981
    12  H    3.839389   2.461979   1.910888   3.173393   4.302109
                    6          7          8          9         10
     6  N    0.000000
     7  H    2.064337   0.000000
     8  H    3.386174   2.482709   0.000000
     9  H    3.394131   4.896320   4.310047   0.000000
    10  H    2.064999   4.121304   4.894240   2.497575   0.000000
    11  O    4.170931   4.566793   2.716853   2.596572   4.507354
    12  H    4.608006   4.572213   2.336512   3.540820   5.268355
                   11         12
    11  O    0.000000
    12  H    0.966893   0.000000
 Stoichiometry    C5H5NO
 Framework group  C1[X(C5H5NO)]
 Deg. of freedom    30
 Full point group                 C1      NOp   1
 Largest Abelian subgroup         C1      NOp   1
 Largest concise Abelian subgroup C1      NOp   1
                         Standard orientation:                         
 ---------------------------------------------------------------------
 Center     Atomic      Atomic             Coordinates (Angstroms)
 Number     Number       Type             X           Y           Z
 ---------------------------------------------------------------------
      1          6           0       -1.152230    1.153409    0.000114
      2          6           0        0.241450    1.189435   -0.000028
      3          6           0        0.934425   -0.024989   -0.000035
      4          6           0        0.197153   -1.213074    0.000085
      5          6           0       -1.191022   -1.122808   -0.000218
      6          7           0       -1.878221    0.029557   -0.000015
      7          1           0       -1.711887    2.087182    0.000101
      8          1           0        0.770272    2.139452    0.000016
      9          1           0        0.706644   -2.170125    0.000442
     10          1           0       -1.787188   -2.033434    0.000236
     11          8           0        2.290294   -0.112397    0.000014
     12          1           0        2.668700    0.777373   -0.000305
 ---------------------------------------------------------------------
 Rotational constants (GHZ):      5.9862655      2.6268417      1.8257026
 Leave Link  202 at Fri Aug 27 21:11:43 2021, MaxMem= 17179869184 cpu:         2.9
 (Enter /public3/home/sc51754/softwares/g09e01/l301.exe)
 General basis read from cards:  (5D, 7F)
 Centers:       7      8      9     10     12
 S 4 1.00
     Exponent=  7.5423000000D+01 Coefficients=  2.4065000000D-03
     Exponent=  1.1350000000D+01 Coefficients=  1.8487000000D-02
     Exponent=  2.5993000000D+00 Coefficients=  8.9742000000D-02
     Exponent=  7.3513000000D-01 Coefficients=  2.8111000000D-01
 S 1 1.00
     Exponent=  2.3167000000D-01 Coefficients=  1.0000000000D+00
 S 1 1.00
     Exponent=  7.4147000000D-02 Coefficients=  1.0000000000D+00
 P 1 1.00
     Exponent=  1.6000000000D+00 Coefficients=  1.0000000000D+00
 P 1 1.00
     Exponent=  4.5000000000D-01 Coefficients=  1.0000000000D+00
 D 1 1.00
     Exponent=  1.2500000000D+00 Coefficients=  1.0000000000D+00
 ****
 Centers:       1      2      3      4      5
 S 7 1.00
     Exponent=  7.8571000000D+03 Coefficients=  5.6825000000D-04
     Exponent=  1.1787000000D+03 Coefficients=  4.3915000000D-03
     Exponent=  2.6832000000D+02 Coefficients=  2.2504000000D-02
     Exponent=  7.5948000000D+01 Coefficients=  8.6653000000D-02
     Exponent=  2.4559000000D+01 Coefficients=  2.4405000000D-01
     Exponent=  8.6212000000D+00 Coefficients=  4.4148000000D-01
     Exponent=  3.1278000000D+00 Coefficients=  3.5332000000D-01
 S 7 1.00
     Exponent=  1.1787000000D+03 Coefficients= -5.9492000000D-07
     Exponent=  2.6832000000D+02 Coefficients= -6.2748000000D-05
     Exponent=  7.5948000000D+01 Coefficients= -7.5773000000D-04
     Exponent=  2.4559000000D+01 Coefficients= -7.3308000000D-03
     Exponent=  8.6212000000D+00 Coefficients= -3.8932000000D-02
     Exponent=  3.1278000000D+00 Coefficients= -8.8908000000D-02
     Exponent=  8.2202000000D-01 Coefficients=  2.1689000000D-01
 S 1 1.00
     Exponent=  3.3017000000D-01 Coefficients=  1.0000000000D+00
 S 1 1.00
     Exponent=  1.1463000000D-01 Coefficients=  1.0000000000D+00
 P 4 1.00
     Exponent=  3.3775000000D+01 Coefficients=  6.0294000000D-03
     Exponent=  7.6766000000D+00 Coefficients=  4.3228000000D-02
     Exponent=  2.2357000000D+00 Coefficients=  1.6301000000D-01
     Exponent=  7.6447000000D-01 Coefficients=  3.6504000000D-01
 P 1 1.00
     Exponent=  2.6232000000D-01 Coefficients=  1.0000000000D+00
 P 1 1.00
     Exponent=  8.4638000000D-02 Coefficients=  1.0000000000D+00
 D 1 1.00
     Exponent=  1.4000000000D+00 Coefficients=  1.0000000000D+00
 D 1 1.00
     Exponent=  4.5000000000D-01 Coefficients=  1.0000000000D+00
 F 1 1.00
     Exponent=  9.5000000000D-01 Coefficients=  1.0000000000D+00
 ****
 Centers:       6
 S 7 1.00
     Exponent=  1.1101000000D+04 Coefficients=  5.4570000000D-04
     Exponent=  1.6653000000D+03 Coefficients=  4.2181000000D-03
     Exponent=  3.7908000000D+02 Coefficients=  2.1645000000D-02
     Exponent=  1.0730000000D+02 Coefficients=  8.3776000000D-02
     Exponent=  3.4747000000D+01 Coefficients=  2.3881000000D-01
     Exponent=  1.2249000000D+01 Coefficients=  4.3994000000D-01
     Exponent=  4.4743000000D+00 Coefficients=  3.6364000000D-01
 S 7 1.00
     Exponent=  1.6653000000D+03 Coefficients= -1.5006000000D-06
     Exponent=  3.7908000000D+02 Coefficients= -5.8753000000D-05
     Exponent=  1.0730000000D+02 Coefficients= -7.7453000000D-04
     Exponent=  3.4747000000D+01 Coefficients= -7.2161000000D-03
     Exponent=  1.2249000000D+01 Coefficients= -3.9338000000D-02
     Exponent=  4.4743000000D+00 Coefficients= -9.0611000000D-02
     Exponent=  1.2404000000D+00 Coefficients=  1.9882000000D-01
 S 1 1.00
     Exponent=  4.8743000000D-01 Coefficients=  1.0000000000D+00
 S 1 1.00
     Exponent=  1.6484000000D-01 Coefficients=  1.0000000000D+00
 P 4 1.00
     Exponent=  4.7934000000D+01 Coefficients=  6.1706000000D-03
     Exponent=  1.0999000000D+01 Coefficients=  4.4260000000D-02
     Exponent=  3.2472000000D+00 Coefficients=  1.6825000000D-01
     Exponent=  1.1114000000D+00 Coefficients=  3.6848000000D-01
 P 1 1.00
     Exponent=  3.7988000000D-01 Coefficients=  1.0000000000D+00
 P 1 1.00
     Exponent=  1.2068000000D-01 Coefficients=  1.0000000000D+00
 D 1 1.00
     Exponent=  1.8000000000D+00 Coefficients=  1.0000000000D+00
 D 1 1.00
     Exponent=  5.5000000000D-01 Coefficients=  1.0000000000D+00
 F 1 1.00
     Exponent=  1.0200000000D+00 Coefficients=  1.0000000000D+00
 ****
 Centers:      11
 S 7 1.00
     Exponent=  1.4782000000D+04 Coefficients=  5.3519000000D-04
     Exponent=  2.2173000000D+03 Coefficients=  4.1375000000D-03
     Exponent=  5.0474000000D+02 Coefficients=  2.1245000000D-02
     Exponent=  1.4287000000D+02 Coefficients=  8.2453000000D-02
     Exponent=  4.6300000000D+01 Coefficients=  2.3671000000D-01
     Exponent=  1.6337000000D+01 Coefficients=  4.4039000000D-01
     Exponent=  5.9828000000D+00 Coefficients=  3.6465000000D-01
 S 7 1.00
     Exponent=  2.2173000000D+03 Coefficients= -1.9275000000D-06
     Exponent=  5.0474000000D+02 Coefficients= -5.7964000000D-05
     Exponent=  1.4287000000D+02 Coefficients= -7.9494000000D-04
     Exponent=  4.6300000000D+01 Coefficients= -7.3125000000D-03
     Exponent=  1.6337000000D+01 Coefficients= -4.0574000000D-02
     Exponent=  5.9828000000D+00 Coefficients= -9.1594000000D-02
     Exponent=  1.6718000000D+00 Coefficients=  2.0940000000D-01
 S 1 1.00
     Exponent=  6.4662000000D-01 Coefficients=  1.0000000000D+00
 S 1 1.00
     Exponent=  2.1669000000D-01 Coefficients=  1.0000000000D+00
 P 4 1.00
     Exponent=  6.0424000000D+01 Coefficients=  6.8949000000D-03
     Exponent=  1.3935000000D+01 Coefficients=  4.9005000000D-02
     Exponent=  4.1531000000D+00 Coefficients=  1.8255000000D-01
     Exponent=  1.4158000000D+00 Coefficients=  3.7633000000D-01
 P 1 1.00
     Exponent=  4.7549000000D-01 Coefficients=  1.0000000000D+00
 P 1 1.00
     Exponent=  1.4529000000D-01 Coefficients=  1.0000000000D+00
 D 1 1.00
     Exponent=  2.2000000000D+00 Coefficients=  1.0000000000D+00
 D 1 1.00
     Exponent=  6.5000000000D-01 Coefficients=  1.0000000000D+00
 F 1 1.00
     Exponent=  1.1000000000D+00 Coefficients=  1.0000000000D+00
 ****
 Ernie: Thresh=  0.10000D-02 Tol=  0.10000D-05 Strict=F.
 Ernie:  7 primitive shells out of 220 were deleted.
 There are   320 symmetry adapted cartesian basis functions of A   symmetry.
 There are   280 symmetry adapted basis functions of A   symmetry.
   280 basis functions,   475 primitive gaussians,   320 cartesian basis functions
    25 alpha electrons       25 beta electrons
       nuclear repulsion energy       273.7666329457 Hartrees.
 IExCor=  404 DFT=T Ex=B Corr=P86 ExCW=0 ScaHFX=  0.000000
 ScaDFX=  1.000000  1.000000  1.000000  1.000000 ScalE2=  1.000000  1.000000
 IRadAn=      0 IRanWt=     -1 IRanGd=            0 ICorTp=0 IEmpDi=  4
 NAtoms=   12 NActive=   12 NUniq=   12 SFac= 1.00D+00 NAtFMM=   60 NAOKFM=F Big=F
 Integral buffers will be    131072 words long.
 Raffenetti 2 integral format.
 Two-electron integral symmetry is turned on.
 Leave Link  301 at Fri Aug 27 21:11:43 2021, MaxMem= 17179869184 cpu:         1.1
 (Enter /public3/home/sc51754/softwares/g09e01/l302.exe)
 NPDir=0 NMtPBC=     1 NCelOv=     1 NCel=       1 NClECP=     1 NCelD=      1
         NCelK=      1 NCelE2=     1 NClLst=     1 CellRange=     0.0.
 One-electron integrals computed using PRISM.
 NBasis=   280 RedAO= T EigKep=  2.00D-04  NBF=   280
 NBsUse=   280 1.00D-06 EigRej= -1.00D+00 NBFU=   280
 Precomputing XC quadrature grid using
 IXCGrd= 4 IRadAn=           0 IRanWt=          -1 IRanGd=           0 AccXCQ= 0.00D+00.
 Generated NRdTot=       0 NPtTot=           0 NUsed=           0 NTot=          32
 NSgBfM=   320   320   320   320   320 MxSgAt=    12 MxSgA2=    12.
 Leave Link  302 at Fri Aug 27 21:11:44 2021, MaxMem= 17179869184 cpu:        38.9
 (Enter /public3/home/sc51754/softwares/g09e01/l303.exe)
 DipDrv:  MaxL=1.
 Leave Link  303 at Fri Aug 27 21:11:44 2021, MaxMem= 17179869184 cpu:        10.3
 (Enter /public3/home/sc51754/softwares/g09e01/l401.exe)
 ExpMin= 7.41D-02 ExpMax= 1.48D+04 ExpMxC= 5.05D+02 IAcc=2 IRadAn=         4 AccDes= 0.00D+00
 Harris functional with IExCor=  404 and IRadAn=       4 diagonalized for initial guess.
 HarFok:  IExCor=  404 AccDes= 0.00D+00 IRadAn=         4 IDoV= 1 UseB2=F ITyADJ=14
 ICtDFT=  3500011 ScaDFX=  1.000000  1.000000  1.000000  1.000000
 FoFCou: FMM=F IPFlag=           0 FMFlag=      100000 FMFlg1=           0
         NFxFlg=           0 DoJE=T BraDBF=F KetDBF=T FulRan=T
         wScrn=  0.000000 ICntrl=     500 IOpCl=  0 I1Cent=   200000004 NGrid=           0
         NMat0=    1 NMatS0=      1 NMatT0=    0 NMatD0=    1 NMtDS0=    0 NMtDT0=    0
 Petite list used in FoFCou.
 Harris En= -323.744054100505    
 JPrj=0 DoOrth=F DoCkMO=F.
 Leave Link  401 at Fri Aug 27 21:11:46 2021, MaxMem= 17179869184 cpu:        53.3
 (Enter /public3/home/sc51754/softwares/g09e01/l502.exe)
 Closed shell SCF:
 Using DIIS extrapolation, IDIIS=  1040.
 Integral symmetry usage will be decided dynamically.
 Keep J ints in memory in canonical form, NReq=790723944.
 IVT=      348554 IEndB=      348554 NGot= 17179869184 MDV= 16405683161
 LenX= 16405683161 LenY= 16405580320
 Requested convergence on RMS density matrix=1.00D-08 within 128 cycles.
 Requested convergence on MAX density matrix=1.00D-06.
 Requested convergence on             energy=1.00D-06.
 No special actions if energy rises.
 FoFCou: FMM=F IPFlag=           0 FMFlag=           0 FMFlg1=           0
         NFxFlg=           0 DoJE=F BraDBF=F KetDBF=F FulRan=T
         wScrn=  0.000000 ICntrl=     600 IOpCl=  0 I1Cent=           0 NGrid=           0
         NMat0=    1 NMatS0=  39340 NMatT0=    0 NMatD0=    1 NMtDS0=    0 NMtDT0=    0
 Symmetry not used in FoFCou.
 Integral accuracy reduced to 1.0D-05 until final iterations.

 Cycle   1  Pass 0  IDiag  1:
 E= -323.512605438037    
 DIIS: error= 2.77D-02 at cycle   1 NSaved=   1.
 NSaved= 1 IEnMin= 1 EnMin= -323.512605438037     IErMin= 1 ErrMin= 2.77D-02
 ErrMax= 2.77D-02  0.00D+00 EMaxC= 1.00D-01 BMatC= 1.40D-01 BMatP= 1.40D-01
 IDIUse=3 WtCom= 7.23D-01 WtEn= 2.77D-01
 Coeff-Com:  0.100D+01
 Coeff-En:   0.100D+01
 Coeff:      0.100D+01
 Gap=     0.172 Goal=   None    Shift=    0.000
 GapD=    0.172 DampG=1.000 DampE=0.500 DampFc=0.5000 IDamp=-1.
 Damping current iteration by 5.00D-01
 RMSDP=3.24D-03 MaxDP=1.14D-01              OVMax= 1.96D-01

 Cycle   2  Pass 0  IDiag  1:
 E= -323.554730233784     Delta-E=       -0.042124795748 Rises=F Damp=T
 DIIS: error= 6.31D-03 at cycle   2 NSaved=   2.
 NSaved= 2 IEnMin= 2 EnMin= -323.554730233784     IErMin= 2 ErrMin= 6.31D-03
 ErrMax= 6.31D-03  0.00D+00 EMaxC= 1.00D-01 BMatC= 1.42D-02 BMatP= 1.40D-01
 IDIUse=3 WtCom= 9.37D-01 WtEn= 6.31D-02
 Coeff-Com:  0.187D+00 0.813D+00
 Coeff-En:   0.314D+00 0.686D+00
 Coeff:      0.195D+00 0.805D+00
 Gap=     0.214 Goal=   None    Shift=    0.000
 RMSDP=7.77D-04 MaxDP=2.63D-02 DE=-4.21D-02 OVMax= 1.61D-01

 Cycle   3  Pass 0  IDiag  1:
 E= -323.636071643992     Delta-E=       -0.081341410208 Rises=F Damp=F
 DIIS: error= 7.37D-03 at cycle   3 NSaved=   3.
 NSaved= 3 IEnMin= 3 EnMin= -323.636071643992     IErMin= 2 ErrMin= 6.31D-03
 ErrMax= 7.37D-03  0.00D+00 EMaxC= 1.00D-01 BMatC= 1.16D-02 BMatP= 1.42D-02
 IDIUse=3 WtCom= 9.26D-01 WtEn= 7.37D-02
 Coeff-Com:  0.726D-01 0.487D+00 0.441D+00
 Coeff-En:   0.000D+00 0.000D+00 0.100D+01
 Coeff:      0.673D-01 0.451D+00 0.482D+00
 Gap=     0.150 Goal=   None    Shift=    0.000
 RMSDP=4.62D-04 MaxDP=2.30D-02 DE=-8.13D-02 OVMax= 8.16D-02

 Cycle   4  Pass 0  IDiag  1:
 E= -323.641279669095     Delta-E=       -0.005208025103 Rises=F Damp=F
 DIIS: error= 6.57D-03 at cycle   4 NSaved=   4.
 NSaved= 4 IEnMin= 4 EnMin= -323.641279669095     IErMin= 2 ErrMin= 6.31D-03
 ErrMax= 6.57D-03  0.00D+00 EMaxC= 1.00D-01 BMatC= 5.78D-03 BMatP= 1.16D-02
 IDIUse=3 WtCom= 9.34D-01 WtEn= 6.57D-02
 Coeff-Com:  0.149D-01 0.196D+00 0.387D+00 0.402D+00
 Coeff-En:   0.000D+00 0.000D+00 0.385D+00 0.615D+00
 Coeff:      0.139D-01 0.183D+00 0.387D+00 0.416D+00
 Gap=     0.164 Goal=   None    Shift=    0.000
 RMSDP=2.58D-04 MaxDP=1.02D-02 DE=-5.21D-03 OVMax= 3.66D-02

 Cycle   5  Pass 0  IDiag  1:
 E= -323.646915493326     Delta-E=       -0.005635824232 Rises=F Damp=F
 DIIS: error= 1.74D-03 at cycle   5 NSaved=   5.
 NSaved= 5 IEnMin= 5 EnMin= -323.646915493326     IErMin= 5 ErrMin= 1.74D-03
 ErrMax= 1.74D-03  0.00D+00 EMaxC= 1.00D-01 BMatC= 2.41D-04 BMatP= 5.78D-03
 IDIUse=3 WtCom= 9.83D-01 WtEn= 1.74D-02
 Coeff-Com:  0.332D-02 0.700D-01 0.191D+00 0.257D+00 0.478D+00
 Coeff-En:   0.000D+00 0.000D+00 0.000D+00 0.414D-03 0.100D+01
 Coeff:      0.326D-02 0.688D-01 0.188D+00 0.252D+00 0.487D+00
 Gap=     0.163 Goal=   None    Shift=    0.000
 RMSDP=6.33D-05 MaxDP=2.30D-03 DE=-5.64D-03 OVMax= 1.02D-02

 Cycle   6  Pass 0  IDiag  1:
 E= -323.647121157774     Delta-E=       -0.000205664448 Rises=F Damp=F
 DIIS: error= 5.24D-04 at cycle   6 NSaved=   6.
 NSaved= 6 IEnMin= 6 EnMin= -323.647121157774     IErMin= 6 ErrMin= 5.24D-04
 ErrMax= 5.24D-04  0.00D+00 EMaxC= 1.00D-01 BMatC= 5.57D-05 BMatP= 2.41D-04
 IDIUse=3 WtCom= 9.95D-01 WtEn= 5.24D-03
 Coeff-Com: -0.903D-03 0.135D-01 0.610D-01 0.102D+00 0.352D+00 0.473D+00
 Coeff-En:   0.000D+00 0.000D+00 0.000D+00 0.000D+00 0.211D+00 0.789D+00
 Coeff:     -0.898D-03 0.134D-01 0.606D-01 0.101D+00 0.351D+00 0.475D+00
 Gap=     0.162 Goal=   None    Shift=    0.000
 RMSDP=2.15D-05 MaxDP=6.95D-04 DE=-2.06D-04 OVMax= 3.21D-03

 Cycle   7  Pass 0  IDiag  1:
 E= -323.647172484706     Delta-E=       -0.000051326932 Rises=F Damp=F
 DIIS: error= 1.20D-04 at cycle   7 NSaved=   7.
 NSaved= 7 IEnMin= 7 EnMin= -323.647172484706     IErMin= 7 ErrMin= 1.20D-04
 ErrMax= 1.20D-04  0.00D+00 EMaxC= 1.00D-01 BMatC= 2.99D-06 BMatP= 5.57D-05
 IDIUse=3 WtCom= 9.99D-01 WtEn= 1.20D-03
 Coeff-Com: -0.661D-03 0.547D-02 0.302D-01 0.530D-01 0.201D+00 0.297D+00
 Coeff-Com:  0.414D+00
 Coeff-En:   0.000D+00 0.000D+00 0.000D+00 0.000D+00 0.000D+00 0.000D+00
 Coeff-En:   0.100D+01
 Coeff:     -0.660D-03 0.547D-02 0.302D-01 0.530D-01 0.201D+00 0.296D+00
 Coeff:      0.414D+00
 Gap=     0.162 Goal=   None    Shift=    0.000
 RMSDP=6.14D-06 MaxDP=2.37D-04 DE=-5.13D-05 OVMax= 9.22D-04

 Initial convergence to 1.0D-05 achieved.  Increase integral accuracy.
 Cycle   8  Pass 1  IDiag  1:
 E= -323.647159237356     Delta-E=        0.000013247349 Rises=F Damp=F
 DIIS: error= 4.73D-05 at cycle   1 NSaved=   1.
 NSaved= 1 IEnMin= 1 EnMin= -323.647159237356     IErMin= 1 ErrMin= 4.73D-05
 ErrMax= 4.73D-05  0.00D+00 EMaxC= 1.00D-01 BMatC= 5.30D-07 BMatP= 5.30D-07
 IDIUse=1 WtCom= 1.00D+00 WtEn= 0.00D+00
 Coeff-Com:  0.100D+01
 Coeff:      0.100D+01
 Gap=     0.163 Goal=   None    Shift=    0.000
 RMSDP=6.14D-06 MaxDP=2.37D-04 DE= 1.32D-05 OVMax= 9.19D-04

 Cycle   9  Pass 1  IDiag  1:
 E= -323.647157868531     Delta-E=        0.000001368825 Rises=F Damp=F
 DIIS: error= 1.08D-04 at cycle   2 NSaved=   2.
 NSaved= 2 IEnMin= 1 EnMin= -323.647159237356     IErMin= 1 ErrMin= 4.73D-05
 ErrMax= 1.08D-04  0.00D+00 EMaxC= 1.00D-01 BMatC= 1.79D-06 BMatP= 5.30D-07
 IDIUse=3 WtCom= 4.90D-01 WtEn= 5.10D-01
 Coeff-Com:  0.669D+00 0.331D+00
 Coeff-En:   0.745D+00 0.255D+00
 Coeff:      0.707D+00 0.293D+00
 Gap=     0.163 Goal=   None    Shift=    0.000
 RMSDP=3.93D-06 MaxDP=1.45D-04 DE= 1.37D-06 OVMax= 6.41D-04

 Cycle  10  Pass 1  IDiag  1:
 E= -323.647159848868     Delta-E=       -0.000001980336 Rises=F Damp=F
 DIIS: error= 8.74D-06 at cycle   3 NSaved=   3.
 NSaved= 3 IEnMin= 3 EnMin= -323.647159848868     IErMin= 3 ErrMin= 8.74D-06
 ErrMax= 8.74D-06  0.00D+00 EMaxC= 1.00D-01 BMatC= 1.77D-08 BMatP= 5.30D-07
 IDIUse=1 WtCom= 1.00D+00 WtEn= 0.00D+00
 Coeff-Com:  0.100D+00 0.743D-01 0.825D+00
 Coeff:      0.100D+00 0.743D-01 0.825D+00
 Gap=     0.163 Goal=   None    Shift=    0.000
 RMSDP=7.70D-07 MaxDP=3.58D-05 DE=-1.98D-06 OVMax= 1.31D-04

 Cycle  11  Pass 1  IDiag  1:
 E= -323.647159835337     Delta-E=        0.000000013531 Rises=F Damp=F
 DIIS: error= 1.81D-05 at cycle   4 NSaved=   4.
 NSaved= 4 IEnMin= 3 EnMin= -323.647159848868     IErMin= 3 ErrMin= 8.74D-06
 ErrMax= 1.81D-05  0.00D+00 EMaxC= 1.00D-01 BMatC= 3.01D-08 BMatP= 1.77D-08
 IDIUse=1 WtCom= 1.00D+00 WtEn= 0.00D+00
 Coeff-Com:  0.445D-02 0.197D-01 0.572D+00 0.403D+00
 Coeff:      0.445D-02 0.197D-01 0.572D+00 0.403D+00
 Gap=     0.163 Goal=   None    Shift=    0.000
 RMSDP=5.59D-07 MaxDP=2.33D-05 DE= 1.35D-08 OVMax= 1.10D-04

 Cycle  12  Pass 1  IDiag  1:
 E= -323.647159863506     Delta-E=       -0.000000028169 Rises=F Damp=F
 DIIS: error= 6.06D-06 at cycle   5 NSaved=   5.
 NSaved= 5 IEnMin= 5 EnMin= -323.647159863506     IErMin= 5 ErrMin= 6.06D-06
 ErrMax= 6.06D-06  0.00D+00 EMaxC= 1.00D-01 BMatC= 2.41D-09 BMatP= 1.77D-08
 IDIUse=1 WtCom= 1.00D+00 WtEn= 0.00D+00
 Coeff-Com: -0.351D-02 0.850D-02 0.318D+00 0.277D+00 0.401D+00
 Coeff:     -0.351D-02 0.850D-02 0.318D+00 0.277D+00 0.401D+00
 Gap=     0.163 Goal=   None    Shift=    0.000
 RMSDP=1.96D-07 MaxDP=6.28D-06 DE=-2.82D-08 OVMax= 3.13D-05

 Cycle  13  Pass 1  IDiag  1:
 E= -323.647159865910     Delta-E=       -0.000000002404 Rises=F Damp=F
 DIIS: error= 1.09D-06 at cycle   6 NSaved=   6.
 NSaved= 6 IEnMin= 6 EnMin= -323.647159865910     IErMin= 6 ErrMin= 1.09D-06
 ErrMax= 1.09D-06  0.00D+00 EMaxC= 1.00D-01 BMatC= 3.81D-10 BMatP= 2.41D-09
 IDIUse=1 WtCom= 1.00D+00 WtEn= 0.00D+00
 Coeff-Com: -0.348D-02 0.377D-02 0.161D+00 0.154D+00 0.296D+00 0.388D+00
 Coeff:     -0.348D-02 0.377D-02 0.161D+00 0.154D+00 0.296D+00 0.388D+00
 Gap=     0.163 Goal=   None    Shift=    0.000
 RMSDP=5.29D-08 MaxDP=2.72D-06 DE=-2.40D-09 OVMax= 9.99D-06

 Cycle  14  Pass 1  IDiag  1:
 E= -323.647159866285     Delta-E=       -0.000000000374 Rises=F Damp=F
 DIIS: error= 1.78D-07 at cycle   7 NSaved=   7.
 NSaved= 7 IEnMin= 7 EnMin= -323.647159866285     IErMin= 7 ErrMin= 1.78D-07
 ErrMax= 1.78D-07  0.00D+00 EMaxC= 1.00D-01 BMatC= 7.27D-12 BMatP= 3.81D-10
 IDIUse=1 WtCom= 1.00D+00 WtEn= 0.00D+00
 Coeff-Com: -0.135D-02 0.137D-02 0.573D-01 0.566D-01 0.119D+00 0.188D+00
 Coeff-Com:  0.579D+00
 Coeff:     -0.135D-02 0.137D-02 0.573D-01 0.566D-01 0.119D+00 0.188D+00
 Coeff:      0.579D+00
 Gap=     0.163 Goal=   None    Shift=    0.000
 RMSDP=1.17D-08 MaxDP=5.07D-07 DE=-3.74D-10 OVMax= 1.02D-06

 Cycle  15  Pass 1  IDiag  1:
 E= -323.647159866292     Delta-E=       -0.000000000008 Rises=F Damp=F
 DIIS: error= 9.11D-08 at cycle   8 NSaved=   8.
 NSaved= 8 IEnMin= 8 EnMin= -323.647159866292     IErMin= 8 ErrMin= 9.11D-08
 ErrMax= 9.11D-08  0.00D+00 EMaxC= 1.00D-01 BMatC= 2.29D-12 BMatP= 7.27D-12
 IDIUse=1 WtCom= 1.00D+00 WtEn= 0.00D+00
 Coeff-Com: -0.357D-03 0.282D-03 0.118D-01 0.122D-01 0.308D-01 0.603D-01
 Coeff-Com:  0.383D+00 0.502D+00
 Coeff:     -0.357D-03 0.282D-03 0.118D-01 0.122D-01 0.308D-01 0.603D-01
 Coeff:      0.383D+00 0.502D+00
 Gap=     0.163 Goal=   None    Shift=    0.000
 RMSDP=4.57D-09 MaxDP=2.29D-07 DE=-7.50D-12 OVMax= 4.26D-07

 SCF Done:  E(RB-P86) =  -323.647159866     A.U. after   15 cycles
            NFock= 15  Conv=0.46D-08     -V/T= 2.0038
 KE= 3.224091263939D+02 PE=-1.302639360726D+03 EE= 3.828164415204D+02
 Leave Link  502 at Fri Aug 27 21:11:56 2021, MaxMem= 17179869184 cpu:       195.2
 (Enter /public3/home/sc51754/softwares/g09e01/l601.exe)
 Copying SCF densities to generalized density rwf, IOpCl= 0 IROHF=0.

 **********************************************************************

            Population analysis using the SCF density.

 **********************************************************************

 Orbital symmetries:
       Occupied  (A) (A) (A) (A) (A) (A) (A) (A) (A) (A) (A) (A)
                 (A) (A) (A) (A) (A) (A) (A) (A) (A) (A) (A) (A)
                 (A)
       Virtual   (A) (A) (A) (A) (A) (A) (A) (A) (A) (A) (A) (A)
                 (A) (A) (A) (A) (A) (A) (A) (A) (A) (A) (A) (A)
                 (A) (A) (A) (A) (A) (A) (A) (A) (A) (A) (A) (A)
                 (A) (A) (A) (A) (A) (A) (A) (A) (A) (A) (A) (A)
                 (A) (A) (A) (A) (A) (A) (A) (A) (A) (A) (A) (A)
                 (A) (A) (A) (A) (A) (A) (A) (A) (A) (A) (A) (A)
                 (A) (A) (A) (A) (A) (A) (A) (A) (A) (A) (A) (A)
                 (A) (A) (A) (A) (A) (A) (A) (A) (A) (A) (A) (A)
                 (A) (A) (A) (A) (A) (A) (A) (A) (A) (A) (A) (A)
                 (A) (A) (A) (A) (A) (A) (A) (A) (A) (A) (A) (A)
                 (A) (A) (A) (A) (A) (A) (A) (A) (A) (A) (A) (A)
                 (A) (A) (A) (A) (A) (A) (A) (A) (A) (A) (A) (A)
                 (A) (A) (A) (A) (A) (A) (A) (A) (A) (A) (A) (A)
                 (A) (A) (A) (A) (A) (A) (A) (A) (A) (A) (A) (A)
                 (A) (A) (A) (A) (A) (A) (A) (A) (A) (A) (A) (A)
                 (A) (A) (A) (A) (A) (A) (A) (A) (A) (A) (A) (A)
                 (A) (A) (A) (A) (A) (A) (A) (A) (A) (A) (A) (A)
                 (A) (A) (A) (A) (A) (A) (A) (A) (A) (A) (A) (A)
                 (A) (A) (A) (A) (A) (A) (A) (A) (A) (A) (A) (A)
                 (A) (A) (A) (A) (A) (A) (A) (A) (A) (A) (A) (A)
                 (A) (A) (A) (A) (A) (A) (A) (A) (A) (A) (A) (A)
                 (A) (A) (A)
 The electronic state is 1-A.
 Alpha  occ. eigenvalues --  -18.82345 -13.99382  -9.98513  -9.93944  -9.93740
 Alpha  occ. eigenvalues --   -9.91741  -9.91166  -1.00299  -0.86454  -0.73322
 Alpha  occ. eigenvalues --   -0.70104  -0.59802  -0.57646  -0.51909  -0.46281
 Alpha  occ. eigenvalues --   -0.43903  -0.41005  -0.39330  -0.39123  -0.36793
 Alpha  occ. eigenvalues --   -0.34030  -0.32047  -0.24952  -0.23592  -0.22156
 Alpha virt. eigenvalues --   -0.05905  -0.05484  -0.01589   0.01940   0.03442
 Alpha virt. eigenvalues --    0.06848   0.06953   0.08175   0.10258   0.11047
 Alpha virt. eigenvalues --    0.14457   0.15707   0.16634   0.17756   0.18443
 Alpha virt. eigenvalues --    0.20139   0.20255   0.20766   0.22655   0.25210
 Alpha virt. eigenvalues --    0.25337   0.26314   0.26713   0.27510   0.29139
 Alpha virt. eigenvalues --    0.30339   0.30682   0.31425   0.32237   0.34190
 Alpha virt. eigenvalues --    0.35114   0.38309   0.39882   0.42537   0.43662
 Alpha virt. eigenvalues --    0.46058   0.47906   0.50950   0.52769   0.54651
 Alpha virt. eigenvalues --    0.55759   0.56263   0.59351   0.60614   0.61571
 Alpha virt. eigenvalues --    0.64934   0.67305   0.69000   0.70977   0.76519
 Alpha virt. eigenvalues --    0.77893   0.79256   0.81409   0.83484   0.85428
 Alpha virt. eigenvalues --    0.89399   0.90895   0.91205   0.92931   0.96739
 Alpha virt. eigenvalues --    0.98661   1.02989   1.05317   1.05338   1.07671
 Alpha virt. eigenvalues --    1.08482   1.09149   1.11040   1.12258   1.13934
 Alpha virt. eigenvalues --    1.17884   1.18322   1.23012   1.23811   1.24508
 Alpha virt. eigenvalues --    1.26211   1.28103   1.35628   1.36296   1.38317
 Alpha virt. eigenvalues --    1.39685   1.40775   1.43578   1.48564   1.50335
 Alpha virt. eigenvalues --    1.51404   1.52800   1.53468   1.57218   1.60060
 Alpha virt. eigenvalues --    1.60127   1.62194   1.64741   1.66544   1.69555
 Alpha virt. eigenvalues --    1.70686   1.71743   1.74811   1.76993   1.77942
 Alpha virt. eigenvalues --    1.78510   1.85388   1.87955   1.90050   1.90098
 Alpha virt. eigenvalues --    1.96167   2.00621   2.01885   2.08593   2.10623
 Alpha virt. eigenvalues --    2.12973   2.14914   2.15987   2.19817   2.22669
 Alpha virt. eigenvalues --    2.27698   2.31760   2.46001   2.49052   2.68242
 Alpha virt. eigenvalues --    2.77937   2.82262   2.87142   2.89905   3.02187
 Alpha virt. eigenvalues --    3.06260   3.11884   3.13411   3.15811   3.16908
 Alpha virt. eigenvalues --    3.23189   3.23270   3.25152   3.27389   3.30643
 Alpha virt. eigenvalues --    3.31613   3.34517   3.39657   3.42495   3.44704
 Alpha virt. eigenvalues --    3.48079   3.50687   3.51385   3.54846   3.56610
 Alpha virt. eigenvalues --    3.61790   3.64280   3.65984   3.68813   3.70415
 Alpha virt. eigenvalues --    3.73037   3.76474   3.79101   3.84563   3.90460
 Alpha virt. eigenvalues --    3.90987   3.93169   3.93375   3.97219   3.97494
 Alpha virt. eigenvalues --    3.98686   4.02434   4.03395   4.04640   4.05963
 Alpha virt. eigenvalues --    4.07677   4.08714   4.10715   4.12946   4.16289
 Alpha virt. eigenvalues --    4.16581   4.18386   4.19165   4.20355   4.21744
 Alpha virt. eigenvalues --    4.24178   4.24664   4.27915   4.29394   4.30734
 Alpha virt. eigenvalues --    4.33216   4.33757   4.35094   4.35685   4.38244
 Alpha virt. eigenvalues --    4.39748   4.41121   4.42266   4.43117   4.45849
 Alpha virt. eigenvalues --    4.46171   4.48312   4.54607   4.56355   4.61486
 Alpha virt. eigenvalues --    4.65768   4.67314   4.69006   4.72106   4.75960
 Alpha virt. eigenvalues --    4.79890   4.82131   4.84145   4.86710   4.90888
 Alpha virt. eigenvalues --    4.96097   4.98233   4.98887   5.04545   5.06170
 Alpha virt. eigenvalues --    5.07722   5.11835   5.21327   5.21404   5.21814
 Alpha virt. eigenvalues --    5.22675   5.23387   5.26066   5.30337   5.34246
 Alpha virt. eigenvalues --    5.36829   5.42249   5.44372   5.46057   5.47556
 Alpha virt. eigenvalues --    5.54877   5.56498   5.59426   5.65314   5.65884
 Alpha virt. eigenvalues --    5.69242   5.81113   5.89603   5.94964   5.97050
 Alpha virt. eigenvalues --    6.00159   6.03691   6.09355   6.15122   6.18146
 Alpha virt. eigenvalues --    6.27373   6.33786   6.34975   6.43584   6.47750
 Alpha virt. eigenvalues --    6.70022   6.91961   7.18866   8.95724  12.08157
 Alpha virt. eigenvalues --   12.21225  15.28705  17.07883  18.30845  21.80873
          Condensed to atoms (all electrons):
               1          2          3          4          5          6
     1  C    4.705136   0.407503  -0.036019  -0.056676  -0.100883   0.504143
     2  C    0.407503   5.120617   0.501207  -0.007362  -0.059148  -0.039857
     3  C   -0.036019   0.501207   4.554491   0.508200  -0.046931  -0.022800
     4  C   -0.056676  -0.007362   0.508200   5.013482   0.438315  -0.036648
     5  C   -0.100883  -0.059148  -0.046931   0.438315   4.712735   0.488948
     6  N    0.504143  -0.039857  -0.022800  -0.036648   0.488948   6.541064
     7  H    0.455184  -0.079957   0.004926  -0.004623   0.008801  -0.046926
     8  H   -0.018294   0.414226  -0.048241   0.005294   0.000118   0.006874
     9  H   -0.001701   0.009737  -0.043270   0.422210  -0.029984   0.006786
    10  H    0.009004  -0.006864   0.009878  -0.085025   0.460183  -0.047746
    11  O    0.006830  -0.069582   0.308971  -0.060866   0.004553  -0.000486
    12  H    0.001994  -0.000908  -0.033448   0.006618  -0.000683   0.000500
               7          8          9         10         11         12
     1  C    0.455184  -0.018294  -0.001701   0.009004   0.006830   0.001994
     2  C   -0.079957   0.414226   0.009737  -0.006864  -0.069582  -0.000908
     3  C    0.004926  -0.048241  -0.043270   0.009878   0.308971  -0.033448
     4  C   -0.004623   0.005294   0.422210  -0.085025  -0.060866   0.006618
     5  C    0.008801   0.000118  -0.029984   0.460183   0.004553  -0.000683
     6  N   -0.046926   0.006874   0.006786  -0.047746  -0.000486   0.000500
     7  H    0.600237  -0.005813   0.000234  -0.000042  -0.000427  -0.000084
     8  H   -0.005813   0.609523  -0.000417   0.000196  -0.006745   0.005588
     9  H    0.000234  -0.000417   0.580335  -0.007474   0.004656  -0.000704
    10  H   -0.000042   0.000196  -0.007474   0.596101  -0.000238   0.000130
    11  O   -0.000427  -0.006745   0.004656  -0.000238   7.824048   0.336481
    12  H   -0.000084   0.005588  -0.000704   0.000130   0.336481   0.479409
 Mulliken charges:
               1
     1  C    0.123779
     2  C   -0.189611
     3  C    0.343035
     4  C   -0.142918
     5  C    0.123977
     6  N   -0.353851
     7  H    0.068492
     8  H    0.037692
     9  H    0.059593
    10  H    0.071898
    11  O   -0.347195
    12  H    0.205109
 Sum of Mulliken charges =  -0.00000
 Mulliken charges with hydrogens summed into heavy atoms:
               1
     1  C    0.192271
     2  C   -0.151919
     3  C    0.343035
     4  C   -0.083325
     5  C    0.195875
     6  N   -0.353851
    11  O   -0.142086
 Electronic spatial extent (au):  <R**2>=            642.0371
 Charge=             -0.0000 electrons
 Dipole moment (field-independent basis, Debye):
    X=              2.4816    Y=              1.2545    Z=             -0.0000  Tot=              2.7807
 Quadrupole moment (field-independent basis, Debye-Ang):
   XX=            -43.7567   YY=            -33.8343   ZZ=            -43.1411
   XY=              4.3972   XZ=             -0.0017   YZ=             -0.0017
 Traceless Quadrupole moment (field-independent basis, Debye-Ang):
   XX=             -3.5127   YY=              6.4098   ZZ=             -2.8971
   XY=              4.3972   XZ=             -0.0017   YZ=             -0.0017
 Octapole moment (field-independent basis, Debye-Ang**2):
  XXX=             33.7303  YYY=              0.3292  ZZZ=              0.0004  XYY=              2.1349
  XXY=             11.8104  XXZ=             -0.0032  XZZ=              3.4421  YZZ=             -0.0097
  YYZ=              0.0034  XYZ=             -0.0014
 Hexadecapole moment (field-independent basis, Debye-Ang**3):
 XXXX=           -527.7730 YYYY=           -260.5017 ZZZZ=            -47.0510 XXXY=             37.4212
 XXXZ=             -0.0153 YYYX=              2.6445 YYYZ=             -0.0091 ZZZX=             -0.0012
 ZZZY=             -0.0018 XXYY=           -109.2235 XXZZ=            -96.3959 YYZZ=            -61.7609
 XXYZ=             -0.0067 YYXZ=             -0.0022 ZZXY=              0.4735
 N-N= 2.737666329457D+02 E-N=-1.302639347642D+03  KE= 3.224091263939D+02
 No NMR shielding tensors so no spin-rotation constants.
 Leave Link  601 at Fri Aug 27 21:11:57 2021, MaxMem= 17179869184 cpu:        52.7
 (Enter /public3/home/sc51754/softwares/g09e01/l701.exe)
 Compute integral first derivatives.
 ... and contract with generalized density number  0.
 Leave Link  701 at Fri Aug 27 21:11:59 2021, MaxMem= 17179869184 cpu:        74.7
 (Enter /public3/home/sc51754/softwares/g09e01/l702.exe)
 L702 exits ... SP integral derivatives will be done elsewhere.
 Leave Link  702 at Fri Aug 27 21:11:59 2021, MaxMem= 17179869184 cpu:         0.2
 (Enter /public3/home/sc51754/softwares/g09e01/l703.exe)
 Compute integral first derivatives, UseDBF=F ICtDFT=           0.
 Integral derivatives from FoFJK, PRISM(SPDF).
 Calling FoFJK, ICntrl=      2527 FMM=F ISym2X=0 I1Cent= 0 IOpClX= 0 NMat=1 NMatS=1 NMatT=0.
 FoFJK:  IHMeth= 1 ICntrl=    2527 DoSepK=F KAlg= 0 I1Cent=   0 FoldK=F
 IRaf=         0 NMat=   1 IRICut=       1 DoRegI=T DoRafI=F ISym2E= 0.
 FoFCou: FMM=F IPFlag=           0 FMFlag=      100000 FMFlg1=         800
         NFxFlg=           0 DoJE=F BraDBF=F KetDBF=F FulRan=T
         wScrn=  0.000000 ICntrl=    2527 IOpCl=  0 I1Cent=           0 NGrid=           0
         NMat0=    1 NMatS0=      1 NMatT0=    0 NMatD0=    1 NMtDS0=    0 NMtDT0=    0
 Symmetry not used in FoFCou.
 Leave Link  703 at Fri Aug 27 21:12:01 2021, MaxMem= 17179869184 cpu:       134.7
 (Enter /public3/home/sc51754/softwares/g09e01/l716.exe)
 Dipole        = 9.76340688D-01 4.93540010D-01-2.31631673D-06
 ***** Axes restored to original set *****
 -------------------------------------------------------------------
 Center     Atomic                   Forces (Hartrees/Bohr)
 Number     Number              X              Y              Z
 -------------------------------------------------------------------
      1        6          -0.001430961    0.000924162    0.000030331
      2        6           0.000646093   -0.001478318   -0.000005026
      3        6           0.002937748   -0.000142865   -0.000008335
      4        6           0.000222418    0.001844274    0.000020145
      5        6          -0.001099269   -0.000519395   -0.000082801
      6        7           0.003577989   -0.000277944    0.000017936
      7        1           0.001823293    0.002928476   -0.000009554
      8        1          -0.001684701    0.003067357    0.000001229
      9        1          -0.001472458   -0.003313821    0.000010066
     10        1           0.001887993   -0.002864163    0.000026347
     11        8          -0.003397659   -0.005099360    0.000002329
     12        1          -0.002010485    0.004931597   -0.000002668
 -------------------------------------------------------------------
 Cartesian Forces:  Max     0.005099360 RMS     0.002020369
 Leave Link  716 at Fri Aug 27 21:12:01 2021, MaxMem= 17179869184 cpu:         0.5
 (Enter /public3/home/sc51754/softwares/g09e01/l103.exe)

 GradGradGradGradGradGradGradGradGradGradGradGradGradGradGradGradGradGrad
 Berny optimization.
 FormGI is forming the generalized inverse of G from B-inverse, IUseBI=4.
 Internal  Forces:  Max     0.005408568 RMS     0.001752903
 Search for a local minimum.
 Step number   1 out of a maximum of   61
 All quantities printed in internal units (Hartrees-Bohrs-Radians)
 RMS Force = .17529D-02 SwitMx=.10000D-02 MixMth= 1
 Mixed Optimization -- RFO/linear search
 Second derivative matrix not updated -- first step.
 ITU=  0
     Eigenvalues ---    0.02120   0.02139   0.02144   0.02163   0.02209
     Eigenvalues ---    0.02238   0.02269   0.02294   0.02415   0.16000
     Eigenvalues ---    0.16000   0.16000   0.16000   0.16000   0.22000
     Eigenvalues ---    0.22826   0.23882   0.25000   0.34970   0.34996
     Eigenvalues ---    0.35128   0.35490   0.42425   0.43849   0.46118
     Eigenvalues ---    0.46897   0.53214   0.54017   0.55021   0.56489
 RFO step:  Lambda=-3.45750021D-04 EMin= 2.11976327D-02
 Linear search not attempted -- first point.
 Iteration  1 RMS(Cart)=  0.00584147 RMS(Int)=  0.00000260
 Iteration  2 RMS(Cart)=  0.00000445 RMS(Int)=  0.00000027
 Iteration  3 RMS(Cart)=  0.00000000 RMS(Int)=  0.00000027
 ITry= 1 IFail=0 DXMaxC= 1.58D-02 DCOld= 1.00D+10 DXMaxT= 3.00D-01 DXLimC= 3.00D+00 Rises=F
 Variable       Old X    -DE/DX   Delta X   Delta X   Delta X     New X
                                 (Linear)    (Quad)   (Total)
    R1        2.63455   0.00227   0.00000   0.00489   0.00489   2.63945
    R2        2.52836   0.00386   0.00000   0.00686   0.00686   2.53521
    R3        2.05724   0.00345   0.00000   0.00985   0.00985   2.06709
    R4        2.64227   0.00242   0.00000   0.00506   0.00506   2.64733
    R5        2.05467   0.00350   0.00000   0.00995   0.00995   2.06462
    R6        2.64232   0.00214   0.00000   0.00444   0.00444   2.64676
    R7        2.56754   0.00541   0.00000   0.01016   0.01016   2.57770
    R8        2.62881   0.00245   0.00000   0.00519   0.00519   2.63400
    R9        2.04887   0.00362   0.00000   0.01018   0.01018   2.05906
   R10        2.53547   0.00351   0.00000   0.00635   0.00635   2.54181
   R11        2.05681   0.00343   0.00000   0.00979   0.00979   2.06660
   R12        1.82716   0.00532   0.00000   0.00985   0.00985   1.83701
    A1        2.17019  -0.00049   0.00000  -0.00177  -0.00177   2.16842
    A2        2.08489   0.00030   0.00000   0.00124   0.00124   2.08614
    A3        2.02810   0.00019   0.00000   0.00053   0.00053   2.02863
    A4        2.06349   0.00043   0.00000   0.00146   0.00146   2.06495
    A5        2.10457  -0.00023   0.00000  -0.00084  -0.00084   2.10373
    A6        2.11512  -0.00020   0.00000  -0.00062  -0.00062   2.11451
    A7        2.06766   0.00013   0.00000  -0.00036  -0.00036   2.06730
    A8        2.15371  -0.00036   0.00000  -0.00101  -0.00101   2.15270
    A9        2.06181   0.00023   0.00000   0.00137   0.00137   2.06318
   A10        2.06126   0.00031   0.00000   0.00084   0.00084   2.06210
   A11        2.09700   0.00011   0.00000   0.00124   0.00124   2.09824
   A12        2.12493  -0.00042   0.00000  -0.00208  -0.00208   2.12285
   A13        2.17345  -0.00030   0.00000  -0.00098  -0.00098   2.17247
   A14        2.08552   0.00016   0.00000   0.00058   0.00058   2.08610
   A15        2.02421   0.00013   0.00000   0.00041   0.00041   2.02462
   A16        2.03032  -0.00008   0.00000   0.00082   0.00082   2.03114
   A17        1.90853  -0.00014   0.00000  -0.00089  -0.00089   1.90764
    D1       -0.00024   0.00001   0.00000   0.00040   0.00040   0.00017
    D2        3.14151   0.00000   0.00000   0.00019   0.00019  -3.14148
    D3       -3.14157  -0.00000   0.00000  -0.00007  -0.00007   3.14155
    D4        0.00018  -0.00001   0.00000  -0.00028  -0.00028  -0.00010
    D5        0.00007  -0.00000   0.00000  -0.00006  -0.00006   0.00001
    D6        3.14141   0.00001   0.00000   0.00039   0.00039  -3.14138
    D7        0.00001  -0.00000   0.00000  -0.00012  -0.00012  -0.00011
    D8       -3.14143  -0.00001   0.00000  -0.00028  -0.00028   3.14148
    D9        3.14145   0.00000   0.00000   0.00009   0.00009   3.14154
   D10        0.00000  -0.00000   0.00000  -0.00006  -0.00006  -0.00006
   D11        0.00034  -0.00001   0.00000  -0.00044  -0.00044  -0.00010
   D12       -3.14121  -0.00001   0.00000  -0.00044  -0.00044   3.14154
   D13       -3.14139  -0.00001   0.00000  -0.00030  -0.00030   3.14150
   D14        0.00024  -0.00001   0.00000  -0.00029  -0.00029  -0.00005
   D15       -0.00039   0.00001   0.00000   0.00024   0.00024  -0.00015
   D16        3.14135   0.00000   0.00000   0.00009   0.00009   3.14144
   D17       -0.00055   0.00002   0.00000   0.00083   0.00083   0.00029
   D18       -3.14120  -0.00002   0.00000  -0.00065  -0.00065   3.14134
   D19        3.14101   0.00002   0.00000   0.00083   0.00083  -3.14135
   D20        0.00035  -0.00002   0.00000  -0.00065  -0.00065  -0.00030
   D21        0.00034  -0.00001   0.00000  -0.00057  -0.00057  -0.00024
   D22        3.14102   0.00002   0.00000   0.00086   0.00086  -3.14131
         Item               Value     Threshold  Converged?
 Maximum Force            0.005409     0.000450     NO 
 RMS     Force            0.001753     0.000300     NO 
 Maximum Displacement     0.015830     0.001800     NO 
 RMS     Displacement     0.005841     0.001200     NO 
 Predicted change in Energy=-1.730134D-04
 Lowest energy point so far.  Saving SCF results.
 GradGradGradGradGradGradGradGradGradGradGradGradGradGradGradGradGradGrad

 Leave Link  103 at Fri Aug 27 21:12:02 2021, MaxMem= 17179869184 cpu:        35.8
 (Enter /public3/home/sc51754/softwares/g09e01/l202.exe)
                          Input orientation:                          
 ---------------------------------------------------------------------
 Center     Atomic      Atomic             Coordinates (Angstroms)
 Number     Number       Type             X           Y           Z
 ---------------------------------------------------------------------
      1          6           0        1.154673    1.156610    0.000067
      2          6           0       -0.241647    1.190683   -0.000015
      3          6           0       -0.935964   -0.026057   -0.000043
      4          6           0       -0.197037   -1.215883   -0.000123
      5          6           0        1.193925   -1.126117   -0.000288
      6          7           0        1.882271    0.029476   -0.000060
      7          1           0        1.716819    2.094971    0.000048
      8          1           0       -0.773608    2.144982   -0.000007
      9          1           0       -0.707530   -2.178502   -0.000093
     10          1           0        1.793012   -2.041024   -0.000109
     11          8           0       -2.297285   -0.112426    0.000011
     12          1           0       -2.676021    0.782865    0.000204
 ---------------------------------------------------------------------
                    Distance matrix (angstroms):
                    1          2          3          4          5
     1  C    0.000000
     2  C    1.396736   0.000000
     3  C    2.401971   1.400905   0.000000
     4  C    2.730539   2.406979   1.400606   0.000000
     5  C    2.283065   2.725515   2.397198   1.393855   0.000000
     6  N    1.341578   2.420626   2.818782   2.423724   1.345071
     7  H    1.093859   2.157157   3.396471   3.824211   3.263254
     8  H    2.166828   1.092551   2.177101   3.409962   3.817233
     9  H    3.819787   3.401243   2.164532   1.089605   2.173256
    10  H    3.260727   3.818870   3.392256   2.154333   1.093600
    11  O    3.677835   2.433874   1.364058   2.372480   3.635398
    12  H    3.848883   2.468297   1.918894   3.184393   4.315170
                    6          7          8          9         10
     6  N    0.000000
     7  H    2.072111   0.000000
     8  H    3.395446   2.490929   0.000000
     9  H    3.403268   4.913251   4.323988   0.000000
    10  H    2.072423   4.136697   4.910212   2.504318   0.000000
    11  O    4.181964   4.581008   2.723505   2.606913   4.522170
    12  H    4.620132   4.584611   2.339773   3.555932   5.286455
                   11         12
    11  O    0.000000
    12  H    0.972104   0.000000
 Stoichiometry    C5H5NO
 Framework group  C1[X(C5H5NO)]
 Deg. of freedom    30
 Full point group                 C1      NOp   1
 RotChk:  IX=2 Diff= 4.84D-04
 Largest Abelian subgroup         C1      NOp   1
 Largest concise Abelian subgroup C1      NOp   1
                         Standard orientation:                         
 ---------------------------------------------------------------------
 Center     Atomic      Atomic             Coordinates (Angstroms)
 Number     Number       Type             X           Y           Z
 ---------------------------------------------------------------------
      1          6           0       -1.154398    1.157292   -0.000121
      2          6           0        0.241934    1.190888   -0.000038
      3          6           0        0.935835   -0.026090   -0.000011
      4          6           0        0.196501   -1.215663    0.000069
      5          6           0       -1.194430   -1.125421    0.000234
      6          7           0       -1.882381    0.030407    0.000006
      7          1           0       -1.716222    2.095845   -0.000102
      8          1           0        0.774221    2.145004   -0.000047
      9          1           0        0.706664   -2.178456    0.000039
     10          1           0       -1.793830   -2.040123    0.000055
     11          8           0        2.297127   -0.112924   -0.000065
     12          1           0        2.676168    0.782237   -0.000258
 ---------------------------------------------------------------------
 Rotational constants (GHZ):      5.9559587      2.6133187      1.8163513
 Leave Link  202 at Fri Aug 27 21:12:02 2021, MaxMem= 17179869184 cpu:         3.5
 (Enter /public3/home/sc51754/softwares/g09e01/l301.exe)
 Basis read from rwf:  (5D, 7F)
 No pseudopotential information found on rwf file.
 There are   320 symmetry adapted cartesian basis functions of A   symmetry.
 There are   280 symmetry adapted basis functions of A   symmetry.
   280 basis functions,   475 primitive gaussians,   320 cartesian basis functions
    25 alpha electrons       25 beta electrons
       nuclear repulsion energy       273.0385972873 Hartrees.
 IExCor=  404 DFT=T Ex=B Corr=P86 ExCW=0 ScaHFX=  0.000000
 ScaDFX=  1.000000  1.000000  1.000000  1.000000 ScalE2=  1.000000  1.000000
 IRadAn=      0 IRanWt=     -1 IRanGd=            0 ICorTp=0 IEmpDi=  4
 NAtoms=   12 NActive=   12 NUniq=   12 SFac= 1.00D+00 NAtFMM=   60 NAOKFM=F Big=F
 Integral buffers will be    131072 words long.
 Raffenetti 2 integral format.
 Two-electron integral symmetry is turned on.
 No density basis found on file   724.
 Leave Link  301 at Fri Aug 27 21:12:02 2021, MaxMem= 17179869184 cpu:         1.0
 (Enter /public3/home/sc51754/softwares/g09e01/l302.exe)
 NPDir=0 NMtPBC=     1 NCelOv=     1 NCel=       1 NClECP=     1 NCelD=      1
         NCelK=      1 NCelE2=     1 NClLst=     1 CellRange=     0.0.
 One-electron integrals computed using PRISM.
 NBasis=   280 RedAO= T EigKep=  2.04D-04  NBF=   280
 NBsUse=   280 1.00D-06 EigRej= -1.00D+00 NBFU=   280
 Precomputing XC quadrature grid using
 IXCGrd= 4 IRadAn=           0 IRanWt=          -1 IRanGd=           0 AccXCQ= 0.00D+00.
 Generated NRdTot=       0 NPtTot=           0 NUsed=           0 NTot=          32
 NSgBfM=   320   320   320   320   320 MxSgAt=    12 MxSgA2=    12.
 Leave Link  302 at Fri Aug 27 21:12:03 2021, MaxMem= 17179869184 cpu:        42.8
 (Enter /public3/home/sc51754/softwares/g09e01/l303.exe)
 DipDrv:  MaxL=1.
 Leave Link  303 at Fri Aug 27 21:12:04 2021, MaxMem= 17179869184 cpu:        10.1
 (Enter /public3/home/sc51754/softwares/g09e01/l401.exe)
 Initial guess from the checkpoint file:  "4HY_BP86_PC2_OPT_FREQ.chk"
 B after Tr=    -0.000000   -0.000000    0.000000
         Rot=    1.000000    0.000037   -0.000013    0.000178 Ang=   0.02 deg.
 Guess basis will be translated and rotated to current coordinates.
 JPrj=2 DoOrth=T DoCkMO=T.
 Leave Link  401 at Fri Aug 27 21:12:04 2021, MaxMem= 17179869184 cpu:        23.1
 (Enter /public3/home/sc51754/softwares/g09e01/l502.exe)
 Closed shell SCF:
 Using DIIS extrapolation, IDIIS=  1040.
 Integral symmetry usage will be decided dynamically.
 Keep J ints in memory in canonical form, NReq=790723944.
 IVT=      348554 IEndB=      348554 NGot= 17179869184 MDV= 16405683161
 LenX= 16405683161 LenY= 16405580320
 Requested convergence on RMS density matrix=1.00D-08 within 128 cycles.
 Requested convergence on MAX density matrix=1.00D-06.
 Requested convergence on             energy=1.00D-06.
 No special actions if energy rises.
 FoFCou: FMM=F IPFlag=           0 FMFlag=           0 FMFlg1=           0
         NFxFlg=           0 DoJE=F BraDBF=F KetDBF=F FulRan=T
         wScrn=  0.000000 ICntrl=     600 IOpCl=  0 I1Cent=           0 NGrid=           0
         NMat0=    1 NMatS0=  39340 NMatT0=    0 NMatD0=    1 NMtDS0=    0 NMtDT0=    0
 Symmetry not used in FoFCou.

 Cycle   1  Pass 1  IDiag  1:
 E= -323.647292581213    
 DIIS: error= 3.72D-04 at cycle   1 NSaved=   1.
 NSaved= 1 IEnMin= 1 EnMin= -323.647292581213     IErMin= 1 ErrMin= 3.72D-04
 ErrMax= 3.72D-04  0.00D+00 EMaxC= 1.00D-01 BMatC= 5.25D-05 BMatP= 5.25D-05
 IDIUse=3 WtCom= 9.96D-01 WtEn= 3.72D-03
 Coeff-Com:  0.100D+01
 Coeff-En:   0.100D+01
 Coeff:      0.100D+01
 Gap=     0.554 Goal=   None    Shift=    0.000
 RMSDP=2.89D-05 MaxDP=8.23D-04              OVMax= 1.60D-03

 Cycle   2  Pass 1  IDiag  1:
 E= -323.647330542349     Delta-E=       -0.000037961136 Rises=F Damp=F
 DIIS: error= 2.85D-04 at cycle   2 NSaved=   2.
 NSaved= 2 IEnMin= 2 EnMin= -323.647330542349     IErMin= 2 ErrMin= 2.85D-04
 ErrMax= 2.85D-04  0.00D+00 EMaxC= 1.00D-01 BMatC= 9.78D-06 BMatP= 5.25D-05
 IDIUse=3 WtCom= 9.97D-01 WtEn= 2.85D-03
 Coeff-Com:  0.242D+00 0.758D+00
 Coeff-En:   0.000D+00 0.100D+01
 Coeff:      0.241D+00 0.759D+00
 Gap=     0.162 Goal=   None    Shift=    0.000
 RMSDP=1.65D-05 MaxDP=6.15D-04 DE=-3.80D-05 OVMax= 1.05D-03

 Cycle   3  Pass 1  IDiag  1:
 E= -323.647331386922     Delta-E=       -0.000000844573 Rises=F Damp=F
 DIIS: error= 2.44D-04 at cycle   3 NSaved=   3.
 NSaved= 3 IEnMin= 3 EnMin= -323.647331386922     IErMin= 3 ErrMin= 2.44D-04
 ErrMax= 2.44D-04  0.00D+00 EMaxC= 1.00D-01 BMatC= 8.57D-06 BMatP= 9.78D-06
 IDIUse=3 WtCom= 9.98D-01 WtEn= 2.44D-03
 Coeff-Com:  0.563D-01 0.480D+00 0.463D+00
 Coeff-En:   0.000D+00 0.475D+00 0.525D+00
 Coeff:      0.562D-01 0.480D+00 0.463D+00
 Gap=     0.162 Goal=   None    Shift=    0.000
 RMSDP=9.08D-06 MaxDP=3.40D-04 DE=-8.45D-07 OVMax= 8.65D-04

 Cycle   4  Pass 1  IDiag  1:
 E= -323.647337545878     Delta-E=       -0.000006158956 Rises=F Damp=F
 DIIS: error= 7.29D-05 at cycle   4 NSaved=   4.
 NSaved= 4 IEnMin= 4 EnMin= -323.647337545878     IErMin= 4 ErrMin= 7.29D-05
 ErrMax= 7.29D-05  0.00D+00 EMaxC= 1.00D-01 BMatC= 9.80D-07 BMatP= 8.57D-06
 IDIUse=1 WtCom= 1.00D+00 WtEn= 0.00D+00
 Coeff-Com:  0.174D-01 0.251D+00 0.313D+00 0.419D+00
 Coeff:      0.174D-01 0.251D+00 0.313D+00 0.419D+00
 Gap=     0.162 Goal=   None    Shift=    0.000
 RMSDP=3.35D-06 MaxDP=1.30D-04 DE=-6.16D-06 OVMax= 4.18D-04

 Cycle   5  Pass 1  IDiag  1:
 E= -323.647338232602     Delta-E=       -0.000000686724 Rises=F Damp=F
 DIIS: error= 3.42D-05 at cycle   5 NSaved=   5.
 NSaved= 5 IEnMin= 5 EnMin= -323.647338232602     IErMin= 5 ErrMin= 3.42D-05
 ErrMax= 3.42D-05  0.00D+00 EMaxC= 1.00D-01 BMatC= 1.31D-07 BMatP= 9.80D-07
 IDIUse=1 WtCom= 1.00D+00 WtEn= 0.00D+00
 Coeff-Com:  0.271D-02 0.957D-01 0.145D+00 0.294D+00 0.462D+00
 Coeff:      0.271D-02 0.957D-01 0.145D+00 0.294D+00 0.462D+00
 Gap=     0.162 Goal=   None    Shift=    0.000
 RMSDP=1.30D-06 MaxDP=4.81D-05 DE=-6.87D-07 OVMax= 2.06D-04

 Cycle   6  Pass 1  IDiag  1:
 E= -323.647338349495     Delta-E=       -0.000000116893 Rises=F Damp=F
 DIIS: error= 1.07D-05 at cycle   6 NSaved=   6.
 NSaved= 6 IEnMin= 6 EnMin= -323.647338349495     IErMin= 6 ErrMin= 1.07D-05
 ErrMax= 1.07D-05  0.00D+00 EMaxC= 1.00D-01 BMatC= 2.21D-08 BMatP= 1.31D-07
 IDIUse=1 WtCom= 1.00D+00 WtEn= 0.00D+00
 Coeff-Com:  0.364D-03 0.466D-01 0.765D-01 0.175D+00 0.338D+00 0.364D+00
 Coeff:      0.364D-03 0.466D-01 0.765D-01 0.175D+00 0.338D+00 0.364D+00
 Gap=     0.162 Goal=   None    Shift=    0.000
 RMSDP=4.77D-07 MaxDP=1.72D-05 DE=-1.17D-07 OVMax= 7.95D-05

 Cycle   7  Pass 1  IDiag  1:
 E= -323.647338370983     Delta-E=       -0.000000021488 Rises=F Damp=F
 DIIS: error= 1.35D-06 at cycle   7 NSaved=   7.
 NSaved= 7 IEnMin= 7 EnMin= -323.647338370983     IErMin= 7 ErrMin= 1.35D-06
 ErrMax= 1.35D-06  0.00D+00 EMaxC= 1.00D-01 BMatC= 5.67D-10 BMatP= 2.21D-08
 IDIUse=1 WtCom= 1.00D+00 WtEn= 0.00D+00
 Coeff-Com: -0.122D-03 0.123D-01 0.221D-01 0.561D-01 0.118D+00 0.186D+00
 Coeff-Com:  0.605D+00
 Coeff:     -0.122D-03 0.123D-01 0.221D-01 0.561D-01 0.118D+00 0.186D+00
 Coeff:      0.605D+00
 Gap=     0.162 Goal=   None    Shift=    0.000
 RMSDP=6.99D-08 MaxDP=3.30D-06 DE=-2.15D-08 OVMax= 1.25D-05

 Cycle   8  Pass 1  IDiag  1:
 E= -323.647338371438     Delta-E=       -0.000000000455 Rises=F Damp=F
 DIIS: error= 4.91D-07 at cycle   8 NSaved=   8.
 NSaved= 8 IEnMin= 8 EnMin= -323.647338371438     IErMin= 8 ErrMin= 4.91D-07
 ErrMax= 4.91D-07  0.00D+00 EMaxC= 1.00D-01 BMatC= 6.83D-11 BMatP= 5.67D-10
 IDIUse=1 WtCom= 1.00D+00 WtEn= 0.00D+00
 Coeff-Com: -0.101D-03 0.555D-02 0.101D-01 0.268D-01 0.575D-01 0.970D-01
 Coeff-Com:  0.366D+00 0.437D+00
 Coeff:     -0.101D-03 0.555D-02 0.101D-01 0.268D-01 0.575D-01 0.970D-01
 Coeff:      0.366D+00 0.437D+00
 Gap=     0.162 Goal=   None    Shift=    0.000
 RMSDP=2.90D-08 MaxDP=1.58D-06 DE=-4.55D-10 OVMax= 4.60D-06

 Cycle   9  Pass 1  IDiag  1:
 E= -323.647338371508     Delta-E=       -0.000000000070 Rises=F Damp=F
 DIIS: error= 2.17D-07 at cycle   9 NSaved=   9.
 NSaved= 9 IEnMin= 9 EnMin= -323.647338371508     IErMin= 9 ErrMin= 2.17D-07
 ErrMax= 2.17D-07  0.00D+00 EMaxC= 1.00D-01 BMatC= 7.67D-12 BMatP= 6.83D-11
 IDIUse=1 WtCom= 1.00D+00 WtEn= 0.00D+00
 Coeff-Com: -0.306D-04 0.118D-02 0.216D-02 0.613D-02 0.138D-01 0.250D-01
 Coeff-Com:  0.111D+00 0.271D+00 0.570D+00
 Coeff:     -0.306D-04 0.118D-02 0.216D-02 0.613D-02 0.138D-01 0.250D-01
 Coeff:      0.111D+00 0.271D+00 0.570D+00
 Gap=     0.162 Goal=   None    Shift=    0.000
 RMSDP=1.08D-08 MaxDP=3.94D-07 DE=-6.99D-11 OVMax= 1.75D-06

 Cycle  10  Pass 1  IDiag  1:
 E= -323.647338371510     Delta-E=       -0.000000000002 Rises=F Damp=F
 DIIS: error= 9.86D-08 at cycle  10 NSaved=  10.
 NSaved=10 IEnMin=10 EnMin= -323.647338371510     IErMin=10 ErrMin= 9.86D-08
 ErrMax= 9.86D-08  0.00D+00 EMaxC= 1.00D-01 BMatC= 1.78D-12 BMatP= 7.67D-12
 IDIUse=1 WtCom= 1.00D+00 WtEn= 0.00D+00
 Coeff-Com: -0.131D-04 0.428D-03 0.795D-03 0.239D-02 0.571D-02 0.108D-01
 Coeff-Com:  0.516D-01 0.159D+00 0.404D+00 0.365D+00
 Coeff:     -0.131D-04 0.428D-03 0.795D-03 0.239D-02 0.571D-02 0.108D-01
 Coeff:      0.516D-01 0.159D+00 0.404D+00 0.365D+00
 Gap=     0.162 Goal=   None    Shift=    0.000
 RMSDP=4.05D-09 MaxDP=1.58D-07 DE=-2.39D-12 OVMax= 6.32D-07

 SCF Done:  E(RB-P86) =  -323.647338372     A.U. after   10 cycles
            NFock= 10  Conv=0.40D-08     -V/T= 2.0041
 KE= 3.223134672435D+02 PE=-1.301113549477D+03 EE= 3.821141465746D+02
 Leave Link  502 at Fri Aug 27 21:12:12 2021, MaxMem= 17179869184 cpu:       162.8
 (Enter /public3/home/sc51754/softwares/g09e01/l701.exe)
 Compute integral first derivatives.
 ... and contract with generalized density number  0.
 Leave Link  701 at Fri Aug 27 21:12:14 2021, MaxMem= 17179869184 cpu:        68.9
 (Enter /public3/home/sc51754/softwares/g09e01/l702.exe)
 L702 exits ... SP integral derivatives will be done elsewhere.
 Leave Link  702 at Fri Aug 27 21:12:14 2021, MaxMem= 17179869184 cpu:         0.3
 (Enter /public3/home/sc51754/softwares/g09e01/l703.exe)
 Compute integral first derivatives, UseDBF=F ICtDFT=           0.
 Integral derivatives from FoFJK, PRISM(SPDF).
 Calling FoFJK, ICntrl=      2527 FMM=F ISym2X=0 I1Cent= 0 IOpClX= 0 NMat=1 NMatS=1 NMatT=0.
 FoFJK:  IHMeth= 1 ICntrl=    2527 DoSepK=F KAlg= 0 I1Cent=   0 FoldK=F
 IRaf=         0 NMat=   1 IRICut=       1 DoRegI=T DoRafI=F ISym2E= 0.
 FoFCou: FMM=F IPFlag=           0 FMFlag=      100000 FMFlg1=         800
         NFxFlg=           0 DoJE=F BraDBF=F KetDBF=F FulRan=T
         wScrn=  0.000000 ICntrl=    2527 IOpCl=  0 I1Cent=           0 NGrid=           0
         NMat0=    1 NMatS0=      1 NMatT0=    0 NMatD0=    1 NMtDS0=    0 NMtDT0=    0
 Symmetry not used in FoFCou.
 Leave Link  703 at Fri Aug 27 21:12:16 2021, MaxMem= 17179869184 cpu:       131.8
 (Enter /public3/home/sc51754/softwares/g09e01/l716.exe)
 Dipole        = 9.68317594D-01 4.93979888D-01-1.40785665D-04
 ***** Axes restored to original set *****
 -------------------------------------------------------------------
 Center     Atomic                   Forces (Hartrees/Bohr)
 Number     Number              X              Y              Z
 -------------------------------------------------------------------
      1        6          -0.000761511    0.000089754   -0.000021351
      2        6           0.000106983   -0.000342160    0.000006288
      3        6           0.001691964    0.000275281   -0.000001031
      4        6          -0.000433910    0.000435862   -0.000013289
      5        6          -0.000477174    0.000185579    0.000049066
      6        7           0.000696853   -0.000191928   -0.000010813
      7        1           0.000069987   -0.000127332    0.000007675
      8        1          -0.000067177    0.000049633    0.000001555
      9        1           0.000050891   -0.000079511   -0.000002207
     10        1           0.000035656    0.000096836   -0.000016115
     11        8          -0.001153737   -0.000928299    0.000000900
     12        1           0.000241176    0.000536287   -0.000000679
 -------------------------------------------------------------------
 Cartesian Forces:  Max     0.001691964 RMS     0.000453616
 Leave Link  716 at Fri Aug 27 21:12:16 2021, MaxMem= 17179869184 cpu:         0.4
 (Enter /public3/home/sc51754/softwares/g09e01/l103.exe)

 GradGradGradGradGradGradGradGradGradGradGradGradGradGradGradGradGradGrad
 Berny optimization.
 Using GEDIIS/GDIIS optimizer.
 FormGI is forming the generalized inverse of G from B-inverse, IUseBI=4.
 Internal  Forces:  Max     0.000936435 RMS     0.000238599
 Search for a local minimum.
 Step number   2 out of a maximum of   61
 All quantities printed in internal units (Hartrees-Bohrs-Radians)
 RMS Force = .23860D-03 SwitMx=.10000D-02 MixMth= 2
 Mixed Optimization -- En-DIIS/RFO-DIIS
 Update second derivatives using D2CorX and points    1    2
 DE= -1.79D-04 DEPred=-1.73D-04 R= 1.03D+00
 TightC=F SS=  1.41D+00  RLast= 2.84D-02 DXNew= 5.0454D-01 8.5096D-02
 Trust test= 1.03D+00 RLast= 2.84D-02 DXMaxT set to 3.00D-01
 ITU=  1  0
 Use linear search instead of GDIIS.
     Eigenvalues ---    0.02120   0.02139   0.02144   0.02163   0.02210
     Eigenvalues ---    0.02238   0.02269   0.02294   0.02415   0.15746
     Eigenvalues ---    0.16000   0.16000   0.16000   0.16029   0.21985
     Eigenvalues ---    0.22946   0.23871   0.25016   0.34909   0.34984
     Eigenvalues ---    0.35230   0.35419   0.42440   0.44498   0.46077
     Eigenvalues ---    0.48066   0.49941   0.54002   0.55941   0.56437
 RFO step:  Lambda=-9.81198378D-06 EMin= 2.11976768D-02
 Quartic linear search produced a step of  0.02065.
 Iteration  1 RMS(Cart)=  0.00115511 RMS(Int)=  0.00000306
 Iteration  2 RMS(Cart)=  0.00000294 RMS(Int)=  0.00000010
 Iteration  3 RMS(Cart)=  0.00000000 RMS(Int)=  0.00000010
 ITry= 1 IFail=0 DXMaxC= 6.20D-03 DCOld= 1.00D+10 DXMaxT= 3.00D-01 DXLimC= 3.00D+00 Rises=F
 Variable       Old X    -DE/DX   Delta X   Delta X   Delta X     New X
                                 (Linear)    (Quad)   (Total)
    R1        2.63945  -0.00031   0.00010  -0.00063  -0.00053   2.63892
    R2        2.53521   0.00022   0.00014   0.00047   0.00061   2.53583
    R3        2.06709  -0.00007   0.00020  -0.00015   0.00006   2.06715
    R4        2.64733  -0.00043   0.00010  -0.00096  -0.00085   2.64647
    R5        2.06462   0.00008   0.00021   0.00029   0.00050   2.06512
    R6        2.64676  -0.00066   0.00009  -0.00148  -0.00139   2.64537
    R7        2.57770   0.00094   0.00021   0.00187   0.00208   2.57978
    R8        2.63400  -0.00012   0.00011  -0.00023  -0.00012   2.63388
    R9        2.05906   0.00005   0.00021   0.00020   0.00041   2.05947
   R10        2.54181   0.00000   0.00013   0.00009   0.00022   2.54203
   R11        2.06660  -0.00006   0.00020  -0.00011   0.00009   2.06669
   R12        1.83701   0.00040   0.00020   0.00082   0.00103   1.83804
    A1        2.16842   0.00014  -0.00004   0.00072   0.00069   2.16911
    A2        2.08614   0.00006   0.00003   0.00045   0.00047   2.08661
    A3        2.02863  -0.00020   0.00001  -0.00117  -0.00116   2.02747
    A4        2.06495  -0.00000   0.00003  -0.00014  -0.00011   2.06484
    A5        2.10373   0.00004  -0.00002   0.00031   0.00029   2.10402
    A6        2.11451  -0.00004  -0.00001  -0.00017  -0.00019   2.11432
    A7        2.06730   0.00017  -0.00001   0.00048   0.00048   2.06777
    A8        2.15270  -0.00004  -0.00002  -0.00008  -0.00010   2.15261
[...]
 Iteration  2 RMS(Cart)=  0.00000001 RMS(Int)=  0.00000000
 ITry= 1 IFail=0 DXMaxC= 1.59D-04 DCOld= 1.00D+10 DXMaxT= 3.00D-01 DXLimC= 3.00D+00 Rises=F
 Variable       Old X    -DE/DX   Delta X   Delta X   Delta X     New X
                                 (Linear)    (Quad)   (Total)
    R1        2.63850  -0.00000   0.00000  -0.00003  -0.00003   2.63847
    R2        2.53623   0.00002   0.00000   0.00008   0.00008   2.53631
    R3        2.06693  -0.00002   0.00000  -0.00006  -0.00006   2.06687
    R4        2.64623   0.00001   0.00000   0.00006   0.00006   2.64628
    R5        2.06494  -0.00003   0.00000  -0.00009  -0.00009   2.06485
    R6        2.64500  -0.00004   0.00000  -0.00015  -0.00015   2.64485
    R7        2.58102   0.00004   0.00000   0.00014   0.00014   2.58117
    R8        2.63377   0.00004   0.00000   0.00015   0.00015   2.63393
    R9        2.05919  -0.00002   0.00000  -0.00008  -0.00008   2.05911
   R10        2.54213  -0.00003   0.00000  -0.00013  -0.00013   2.54200
   R11        2.06653  -0.00002   0.00000  -0.00004  -0.00004   2.06648
   R12        1.83816  -0.00007   0.00000  -0.00016  -0.00016   1.83800
    A1        2.16910  -0.00002   0.00000  -0.00009  -0.00009   2.16901
    A2        2.08685   0.00002   0.00000   0.00016   0.00016   2.08701
    A3        2.02723  -0.00000   0.00000  -0.00007  -0.00007   2.02716
    A4        2.06474  -0.00001   0.00000  -0.00004  -0.00004   2.06469
    A5        2.10401   0.00000   0.00000   0.00003   0.00003   2.10404
    A6        2.11444   0.00001   0.00000   0.00001   0.00001   2.11445
    A7        2.06815   0.00002   0.00000   0.00015   0.00015   2.06830
    A8        2.15209  -0.00002   0.00000  -0.00014  -0.00014   2.15195
    A9        2.06295  -0.00001   0.00000  -0.00001  -0.00001   2.06294
   A10        2.06145  -0.00002   0.00000  -0.00011  -0.00011   2.06134
   A11        2.09962   0.00002   0.00000   0.00016   0.00016   2.09977
   A12        2.12212  -0.00000   0.00000  -0.00005  -0.00005   2.12208
   A13        2.17360  -0.00000   0.00000  -0.00000  -0.00000   2.17360
   A14        2.08622   0.00000   0.00000  -0.00002  -0.00002   2.08620
   A15        2.02336   0.00000   0.00000   0.00003   0.00003   2.02339
   A16        2.02933   0.00002   0.00000   0.00010   0.00010   2.02944
   A17        1.90210   0.00001   0.00000   0.00003   0.00003   1.90213
    D1        0.00008  -0.00000   0.00000  -0.00008  -0.00008  -0.00000
    D2       -3.14153  -0.00000   0.00000  -0.00006  -0.00006   3.14159
    D3        3.14156   0.00000   0.00000   0.00003   0.00003   3.14159
    D4       -0.00006   0.00000   0.00000   0.00006   0.00006  -0.00000
    D5       -0.00002   0.00000   0.00000   0.00002   0.00002   0.00000
    D6       -3.14150  -0.00000   0.00000  -0.00009  -0.00009   3.14159
    D7       -0.00005   0.00000   0.00000   0.00005   0.00005   0.00000
    D8        3.14157   0.00000   0.00000   0.00003   0.00003  -3.14159
    D9        3.14157   0.00000   0.00000   0.00003   0.00003  -3.14159
   D10       -0.00000   0.00000   0.00000   0.00000   0.00000   0.00000
   D11       -0.00004   0.00000   0.00000   0.00004   0.00004   0.00000
   D12        3.14156   0.00000   0.00000   0.00003   0.00003  -3.14159
   D13        3.14153   0.00000   0.00000   0.00006   0.00006  -3.14159
   D14       -0.00005   0.00000   0.00000   0.00005   0.00005   0.00000
   D15       -0.00005   0.00000   0.00000   0.00005   0.00005  -0.00000
   D16        3.14157  -0.00000   0.00000   0.00003   0.00003   3.14159
   D17        0.00011  -0.00000   0.00000  -0.00011  -0.00011  -0.00000
   D18        3.14151   0.00000   0.00000   0.00008   0.00008   3.14159
   D19       -3.14149  -0.00000   0.00000  -0.00010  -0.00010   3.14159
   D20       -0.00009   0.00000   0.00000   0.00009   0.00009  -0.00000
   D21       -0.00008   0.00000   0.00000   0.00008   0.00008   0.00000
   D22       -3.14148  -0.00000   0.00000  -0.00011  -0.00011   3.14159
         Item               Value     Threshold  Converged?
 Maximum Force            0.000074     0.000450     YES
 RMS     Force            0.000018     0.000300     YES
 Maximum Displacement     0.000159     0.001800     YES
 RMS     Displacement     0.000062     0.001200     YES
 Predicted change in Energy=-3.105572D-08
 Optimization completed.
    -- Stationary point found.
                           ----------------------------
                           !   Optimized Parameters   !
                           ! (Angstroms and Degrees)  !
 --------------------------                            --------------------------
 ! Name  Definition              Value          Derivative Info.                !
 --------------------------------------------------------------------------------
 ! R1    R(1,2)                  1.3962         -DE/DX =    0.0                 !
 ! R2    R(1,6)                  1.3421         -DE/DX =    0.0                 !
 ! R3    R(1,7)                  1.0938         -DE/DX =    0.0                 !
 ! R4    R(2,3)                  1.4003         -DE/DX =    0.0                 !
 ! R5    R(2,8)                  1.0927         -DE/DX =    0.0                 !
 ! R6    R(3,4)                  1.3997         -DE/DX =    0.0                 !
 ! R7    R(3,11)                 1.3658         -DE/DX =    0.0                 !
 ! R8    R(4,5)                  1.3937         -DE/DX =    0.0                 !
 ! R9    R(4,9)                  1.0897         -DE/DX =    0.0                 !
 ! R10   R(5,6)                  1.3452         -DE/DX =    0.0                 !
 ! R11   R(5,10)                 1.0936         -DE/DX =    0.0                 !
 ! R12   R(11,12)                0.9727         -DE/DX =   -0.0001              !
 ! A1    A(2,1,6)              124.2804         -DE/DX =    0.0                 !
 ! A2    A(2,1,7)              119.5677         -DE/DX =    0.0                 !
 ! A3    A(6,1,7)              116.1519         -DE/DX =    0.0                 !
 ! A4    A(1,2,3)              118.3007         -DE/DX =    0.0                 !
 ! A5    A(1,2,8)              120.5508         -DE/DX =    0.0                 !
 ! A6    A(3,2,8)              121.1485         -DE/DX =    0.0                 !
 ! A7    A(2,3,4)              118.4962         -DE/DX =    0.0                 !
 ! A8    A(2,3,11)             123.3056         -DE/DX =    0.0                 !
 ! A9    A(4,3,11)             118.1982         -DE/DX =    0.0                 !
 ! A10   A(3,4,5)              118.1123         -DE/DX =    0.0                 !
 ! A11   A(3,4,9)              120.2991         -DE/DX =    0.0                 !
 ! A12   A(5,4,9)              121.5887         -DE/DX =    0.0                 !
 ! A13   A(4,5,6)              124.5383         -DE/DX =    0.0                 !
 ! A14   A(4,5,10)             119.5315         -DE/DX =    0.0                 !
 ! A15   A(6,5,10)             115.9302         -DE/DX =    0.0                 !
 ! A16   A(1,6,5)              116.2722         -DE/DX =    0.0                 !
 ! A17   A(3,11,12)            108.9824         -DE/DX =    0.0                 !
 ! D1    D(6,1,2,3)              0.0047         -DE/DX =    0.0                 !
 ! D2    D(6,1,2,8)            180.0034         -DE/DX =    0.0                 !
 ! D3    D(7,1,2,3)            179.9981         -DE/DX =    0.0                 !
 ! D4    D(7,1,2,8)             -0.0032         -DE/DX =    0.0                 !
 ! D5    D(2,1,6,5)             -0.0012         -DE/DX =    0.0                 !
 ! D6    D(7,1,6,5)            180.0052         -DE/DX =    0.0                 !
 ! D7    D(1,2,3,4)             -0.0027         -DE/DX =    0.0                 !
 ! D8    D(1,2,3,11)          -180.0014         -DE/DX =    0.0                 !
 ! D9    D(8,2,3,4)           -180.0014         -DE/DX =    0.0                 !
 ! D10   D(8,2,3,11)            -0.0001         -DE/DX =    0.0                 !
 ! D11   D(2,3,4,5)             -0.0023         -DE/DX =    0.0                 !
 ! D12   D(2,3,4,9)           -180.0017         -DE/DX =    0.0                 !
 ! D13   D(11,3,4,5)          -180.0035         -DE/DX =    0.0                 !
 ! D14   D(11,3,4,9)            -0.0029         -DE/DX =    0.0                 !
 ! D15   D(2,3,11,12)           -0.0029         -DE/DX =    0.0                 !
 ! D16   D(4,3,11,12)          179.9984         -DE/DX =    0.0                 !
 ! D17   D(3,4,5,6)              0.0062         -DE/DX =    0.0                 !
 ! D18   D(3,4,5,10)           179.9952         -DE/DX =    0.0                 !
 ! D19   D(9,4,5,6)            180.0056         -DE/DX =    0.0                 !
 ! D20   D(9,4,5,10)            -0.0054         -DE/DX =    0.0                 !
 ! D21   D(4,5,6,1)             -0.0045         -DE/DX =    0.0                 !
 ! D22   D(10,5,6,1)           180.0062         -DE/DX =    0.0                 !
 --------------------------------------------------------------------------------
 GradGradGradGradGradGradGradGradGradGradGradGradGradGradGradGradGradGrad

 Leave Link  103 at Fri Aug 27 21:13:27 2021, MaxMem= 17179869184 cpu:        66.2
 (Enter /public3/home/sc51754/softwares/g09e01/l9999.exe)
 1\1\GINC-P1908\Freq\RBP86\Gen\C5H5N1O1\SC51754\27-Aug-2021\0\\#P Geom=
 AllCheck Guess=TCheck SCRF=Check GenChk RBP86/ChkBas Freq\\4HY_BP86_PC
 2_OPT_FREQ\\0,1\C,1.153772465,1.1564205496,0.0000260092\C,-0.242055947
 9,1.1900473256,0.0000227031\C,-0.9354484153,-0.0265502734,-0.000008103
 6\C,-0.1974024982,-1.2158246996,-0.0000929363\C,1.1934088299,-1.125620
 3034,-0.0001912068\N,1.8827830009,0.0295560997,-0.0000901215\H,1.71625
 14398,2.0944798456,0.0000184728\H,-0.7746637229,2.1441778978,0.0000648
 847\H,-0.706921935,-2.1790418194,-0.0000914688\H,1.7928774204,-2.04022
 8616,-0.0001794648\O,-2.2985347662,-0.1129032297,0.0000144581\H,-2.672
 4578705,0.7850662232,0.0000997739\\Version=EM64L-G09RevE.01\State=1-A\
 HF=-323.6473446\RMSD=6.551e-09\RMSF=3.731e-05\ZeroPoint=0.090109\Therm
 al=0.0955974\Dipole=-0.9613873,0.4944735,0.0000778\DipoleDeriv=0.44963
 96,0.0197825,-0.0000041,-0.0080155,0.3620664,0.000019,-0.0000348,-0.00
 00162,-0.0191454,-0.4166951,-0.1129666,0.0000054,-0.3214791,-0.0953044
 ,0.0000003,-0.0000061,0.0000165,-0.146549,1.5385549,-0.0005754,-0.0000
 42,0.0035183,0.2953131,0.00002,-0.0000259,0.000023,0.0914758,-0.419051
 9,0.1195411,0.0000083,0.2792954,-0.0823518,-0.0000161,0.0000145,-0.000
 0024,-0.1368252,0.4650048,-0.0519846,-0.0000249,0.0405594,0.3711546,0.
 0000142,0.0000245,-0.0000218,-0.0206554,-0.5991336,0.0185237,0.0000142
 ,-0.0196662,-0.5884558,-0.000001,0.0000028,-0.0000279,-0.2637656,0.032
 8594,-0.0750236,-0.0000047,-0.060428,-0.0911712,-0.00001,0.0000158,0.0
 000191,0.1049771,-0.0157122,0.0936685,0.0000068,0.0830482,-0.0443025,-
 0.0000101,-0.0000002,-0.0000127,0.1472032,0.0444819,-0.0612692,0.00000
 36,-0.0546452,-0.0227671,-0.0000054,0.0000111,-0.0000035,0.1472224,0.0
 291652,0.0818606,0.0000085,0.0623421,-0.0818359,-0.0000132,-0.00002,0.
 0000289,0.1057495,-1.4640772,0.0119161,0.0000345,-0.0089415,-0.1432853
 ,0.0000176,0.0000137,0.0000119,-0.3197897,0.354964,-0.0434731,-0.00000
 56,0.0044121,0.1209399,-0.0000152,0.0000045,-0.0000148,0.3101023\Polar
 =85.975983,-1.5715086,79.9332413,-0.0015932,0.0025219,39.3287398\PG=C0
 1 [X(C5H5N1O1)]\NImag=0\\0.64185731,0.04384941,0.68670117,-0.00001184,
 0.00002500,0.14589190,-0.31206028,-0.03423820,-0.00000163,0.65170423,0
 .02393427,-0.12021717,-0.00000294,-0.03132613,0.67812302,-0.00000012,-
 0.00000124,-0.05791903,-0.00000614,0.00002282,0.10610827,-0.02844812,-
 0.03110947,-0.00000033,-0.14852833,-0.10299434,-0.00000247,0.65237790,
 -0.07654478,0.03960037,0.00000398,-0.03810146,-0.27272125,-0.00000681,
 -0.01254262,0.67505470,-0.00000460,0.00000162,0.00105105,0.00000216,-0
 .00000518,-0.06142163,-0.00001571,0.00002518,0.15257752,-0.04148261,0.
 03234859,0.00000292,0.05000467,0.01430728,0.00000038,-0.14895730,0.046
 65389,0.00000414,0.66433750,0.01519355,-0.01273020,-0.00000086,-0.0107
 6102,-0.04467073,-0.00000222,0.10620193,-0.27037442,-0.00001300,0.0348
 9207,0.68908247,0.00000261,-0.00000242,-0.00577633,-0.00000322,-0.0000
 0294,0.00721438,0.00000937,-0.00001070,-0.06362526,-0.00003096,0.00001
 897,0.11078354,0.04307285,-0.01657012,-0.00000150,-0.03975861,-0.01503
 126,-0.00000006,-0.03408071,0.07105061,0.00000650,-0.31989563,-0.03257
 390,0.00001800,0.65222200,0.02139469,-0.09342818,-0.00000796,-0.033654
 26,-0.01463806,-0.00000028,0.02776901,0.04417940,0.00000035,0.02460590
 ,-0.12278956,-0.00000235,-0.04735046,0.67885853,0.00000061,-0.00000597
 ,0.00398613,-0.00000154,-0.00000062,-0.00631253,0.00000223,0.00000061,
 0.00116932,0.00001895,-0.00000089,-0.05830213,-0.00001288,0.00002118,0
 .14742298,-0.16966182,0.10180089,0.00001043,-0.03347769,0.03000174,0.0
 0000305,0.00957390,0.00257938,-0.00000007,-0.02830587,-0.03294159,-0.0
 0000096,-0.16199989,-0.09540026,-0.00000651,0.37630713,0.08742499,-0.2
 5875135,-0.00001704,0.08146476,0.02107730,-0.00000273,0.00239188,-0.07
 589098,-0.00000342,-0.08238164,0.01788678,0.00000194,-0.08108402,-0.26
 031748,-0.00001411,-0.00717237,0.60643753,0.00001226,-0.00001955,-0.06
 445698,0.00000632,-0.00000003,0.02060937,-0.00000032,-0.00000633,-0.00
 697217,-0.00000316,0.00000165,0.01997677,-0.00000942,-0.00001692,-0.06
 462271,-0.00000638,0.00004362,0.08950128,-0.13055480,-0.11934720,0.000
 00021,-0.01181016,-0.02577506,-0.00000009,-0.00469814,0.00225726,0.000
 00029,-0.00043406,0.00079748,0.00000006,0.00051668,0.00459262,0.000000
 76,0.01270762,0.01790576,0.00000040,0.13428776,-0.11903095,-0.22991004
 ,0.00000081,0.00125845,0.00291297,-0.00000003,0.00111893,0.00136652,-0
 .00000011,0.00009286,0.00020088,0.00000002,0.00269380,-0.00220460,-0.0
 0000029,-0.00540237,-0.03178924,-0.00000178,0.12061409,0.25972736,0.00
 000149,0.00000395,-0.03831138,-0.00000030,-0.00000025,0.00590389,-0.00
 000014,-0.00000045,0.00751653,-0.00000074,0.00000044,-0.00111930,0.000
 00174,-0.00000043,0.00932554,-0.00000028,-0.00000457,-0.00332394,-0.00
 000148,0.00000140,0.02443008,-0.00709485,0.02953043,0.00000178,-0.1135
 4810,0.10931412,0.00000457,0.00652783,-0.01331831,-0.00000057,-0.00023
 983,-0.00343198,-0.00000011,-0.00156284,-0.00196273,-0.00000018,-0.006
 53069,-0.00007357,0.00000009,0.00072393,-0.00042680,0.00000007,0.11726
 481,-0.00134355,0.00202309,0.,0.10934137,-0.25488159,-0.00000989,0.017
 81830,-0.01797813,-0.00000138,-0.00434027,-0.00284905,-0.00000009,-0.0
 0105859,0.00015965,0.00000014,-0.00009273,0.00226349,-0.00000009,0.000
 35688,0.00045864,0.00000013,-0.11996209,0.26991106,-0.00000039,0.00000
 040,-0.00051146,0.00000500,-0.00001028,-0.02794795,0.00000100,-0.00000
 056,0.00276009,-0.00000008,-0.00000024,0.00535586,-0.00000023,-0.00000
 017,-0.00052739,0.00000050,-0.00000044,0.00788631,-0.00000011,0.000000
 05,-0.00305679,-0.00000552,0.00001100,0.02007013,-0.00150088,0.0018403
 7,0.00000022,-0.00113032,0.00313170,0.00000057,0.01009267,0.01477802,0
 .00000025,-0.11081828,-0.11104217,0.00000224,-0.00593592,-0.02837344,-
 0.00000134,-0.00606247,-0.00028067,0.00000085,0.00011934,-0.00026009,-
 0.00000016,0.00043501,0.00095832,0.00000010,0.11228111,0.00105393,0.00
 021082,0.00000007,0.00398006,-0.00252505,-0.00000036,-0.01572978,-0.01
 836753,-0.00000016,-0.10916583,-0.26704996,-0.00000115,0.00138915,0.00
 229878,-0.00000011,0.00018605,0.00221551,-0.00000004,-0.00007954,-0.00
 002344,0.00000004,-0.00072278,-0.00079354,-0.00000007,0.12009273,0.281
 37845,0.00000020,-0.00000032,-0.00051793,0.00000054,-0.00000043,0.0055
 4224,-0.00000126,-0.00000209,0.00385368,0.00000138,-0.00000076,-0.0304
 0490,0.00000112,0.00000263,-0.00036183,0.00000026,-0.00000065,0.008129
 08,-0.00000011,0.00000010,-0.00141296,-0.00000009,-0.00000013,0.000244
 28,-0.00000200,0.00000144,0.02178156,0.00084368,-0.00455284,-0.0000005
 5,-0.00047714,-0.00081460,-0.00000008,-0.00438971,-0.00228476,0.000000
 24,-0.01270918,0.02526013,0.00000043,-0.14024787,0.12324125,0.00000057
 ,0.01290481,-0.01626419,-0.00000066,0.00031785,-0.00053443,-0.00000012
 ,0.00010843,0.00007975,0.00000005,0.00073738,-0.00038716,0.,0.14437499
 ,-0.00256064,-0.00262250,-0.00000023,-0.00012877,0.00023266,0.00000002
 ,-0.00139245,0.00118189,0.00000015,-0.00193035,0.00385651,0.00000036,0
 .12294452,-0.22100782,0.00000064,0.00725374,-0.03189481,-0.00000164,0.
 00057698,-0.00083105,-0.00000019,0.00027816,-0.00003573,0.00000005,0.0
 0042667,0.00043810,-0.00000012,-0.12552724,0.25043075,-0.00000127,-0.0
 0000061,0.00907258,0.00000040,0.00000056,-0.00107149,0.00000108,0.,0.0
 0779081,0.00000221,-0.00000201,0.00610924,-0.00000242,0.00000552,-0.03
 904305,0.00000003,-0.00000408,-0.00307296,0.00000013,-0.00000019,0.000
 58519,0.00000004,0.00000003,-0.00133205,-0.00000035,0.00000013,-0.0032
 3501,-0.00000005,0.00000091,0.02475226,0.00622672,-0.00429178,0.000000
 37,-0.04471341,-0.00559809,0.00000051,-0.28298201,-0.04063595,0.000003
 15,-0.04483187,0.01182071,0.00000231,0.00722397,0.00231962,-0.00000060
 ,-0.00621258,-0.00049107,0.00000016,-0.00151315,-0.00015960,-0.0000001
 0,0.00417170,0.00010386,-0.00000036,0.00164547,-0.00050586,-0.00000004
 ,-0.00093395,0.00025087,0.00000008,0.45616515,0.00649945,-0.00914599,-
 0.00000078,-0.04205523,0.00291726,0.00000035,0.00960646,-0.10509936,-0
 .00000435,0.04578399,0.00683780,-0.00000158,-0.00430234,-0.01047875,-0
 .00000056,-0.00091915,0.00824186,0.00000103,-0.00172232,0.00012349,-0.
 00000006,-0.00070015,0.00262753,0.00000035,-0.00100558,0.00181838,0.00
 000032,0.00166180,0.00018540,-0.00000021,-0.13144709,0.52106514,0.0000
 0096,-0.00000067,0.00816794,-0.00000116,-0.00000087,0.01072606,0.00000
 692,-0.00000228,-0.04216541,0.00000437,-0.00000091,0.00649727,-0.00000
 046,-0.00000131,0.00543701,-0.00000014,0.00000115,-0.00350141,-0.00000
 004,0.00000005,-0.00065326,-0.00000017,0.00000024,-0.00331770,-0.00000
 036,0.00000019,-0.00305879,0.00000018,0.00000002,-0.00011939,-0.000021
 91,0.00004326,0.02773205,-0.00119719,0.00073993,-0.00000009,0.00379515
 ,0.00085038,-0.00000012,-0.02648799,0.04610872,0.00000421,-0.00666754,
 -0.00341521,0.00000023,0.00044598,0.00281806,-0.00000008,0.00075756,-0
 .00143986,-0.00000013,0.00033713,0.00003612,0.,-0.00025538,-0.00186124
 ,0.00000004,0.00013689,-0.00011098,0.,-0.00052929,-0.00019148,0.000000
 13,-0.09424603,0.11860015,0.00001181,0.12391070,0.00012963,-0.00173001
 ,-0.00000004,-0.00577957,0.00439065,0.00000036,-0.00113784,-0.00095121
 ,0.00000029,-0.00086648,0.00259948,-0.00000006,-0.00010739,-0.00063191
 ,-0.00000002,0.00010666,0.00052139,0.00000009,-0.00017697,-0.00003149,
 -0.00000001,0.00147571,-0.00090542,-0.00000009,-0.00026586,0.00039948,
 0.00000002,0.00012230,0.00006659,-0.00000006,0.16863440,-0.41909276,-0
 .00003887,-0.16213459,0.41536521,0.00000008,-0.00000019,-0.00067647,-0
 .00000043,0.00000016,-0.00143157,-0.00000037,-0.00000056,-0.00253453,0
 .00000060,-0.00000019,0.00329087,-0.00000039,-0.00000026,0.00182867,0.
 00000006,0.00000034,-0.00015265,-0.00000003,-0.00000001,0.00011639,0.0
 0000010,0.00000005,0.00037667,-0.00000003,0.00000004,-0.00055941,0.,0.
 00000002,-0.00043613,0.00001643,-0.00003777,-0.00574438,-0.00001602,0.
 00003837,0.00592255\\-0.00000092,-0.00004779,0.00001093,0.00002426,-0.
 00003836,-0.00000364,-0.00009112,0.00004586,0.00000268,0.00009714,0.00
 000482,0.00000381,-0.00006897,-0.00001526,-0.00001806,0.00002532,0.000
 04608,0.00000279,-0.00000267,0.00002158,-0.00000382,-0.00001834,0.0000
 2356,-0.00000062,-0.00001658,-0.00001808,0.00000136,0.00001122,-0.0000
 1161,0.00000578,0.00006617,-0.00007715,-0.00000119,-0.00002550,0.00006
 636,-0.00000001\\\@


 THE MORE ACCURATE THE CALCULATIONS BECOME, THE MORE THE CONCEPTS
 TEND TO VANISH INTO THIN AIR.
     -- R.S. MULLIKEN, J.C.P. 43,S2(1965)
 Job cpu time:       0 days  0 hours 37 minutes 24.1 seconds.
 File lengths (MBytes):  RWF=     79 Int=      0 D2E=      0 Chk=      7 Scr=      1
 Normal termination of Gaussian 09 at Fri Aug 27 21:13:27 2021.
