 Entering Gaussian System, Link 0=g09
 AtFile(1): pc-2.gbs
            -H     0
            S    4   1.00
                  0.754230D+02           0.240650D-02
                  0.113500D+02           0.184870D-01
                  0.259930D+01           0.897420D-01
                  0.735130D+00           0.281110D+00
            S    1   1.00
                  0.231670D+00           0.100000D+01
            S    1   1.00
                  0.741470D-01           0.100000D+01
            P    1   1.00
                  0.160000D+01           0.100000D+01
            P    1   1.00
                  0.450000D+00           0.100000D+01
            D    1   1.00
                  0.125000D+01           0.100000D+01
            ****
            -C     0
            S    7   1.00
                  0.785710D+04           0.568250D-03
                  0.117870D+04           0.439150D-02
                  0.268320D+03           0.225040D-01
                  0.759480D+02           0.866530D-01
                  0.245590D+02           0.244050D+00
                  0.862120D+01           0.441480D+00
                  0.312780D+01           0.353320D+00
            S    7   1.00
                  0.117870D+04          -0.594920D-06
                  0.268320D+03          -0.627480D-04
                  0.759480D+02          -0.757730D-03
                  0.245590D+02          -0.733080D-02
                  0.862120D+01          -0.389320D-01
                  0.312780D+01          -0.889080D-01
                  0.822020D+00           0.216890D+00
            S    1   1.00
                  0.330170D+00           0.100000D+01
            S    1   1.00
                  0.114630D+00           0.100000D+01
            P    4   1.00
                  0.337750D+02           0.602940D-02
                  0.767660D+01           0.432280D-01
                  0.223570D+01           0.163010D+00
                  0.764470D+00           0.365040D+00
            P    1   1.00
                  0.262320D+00           0.100000D+01
            P    1   1.00
                  0.846380D-01           0.100000D+01
            D    1   1.00
                  0.140000D+01           0.100000D+01
            D    1   1.00
                  0.450000D+00           0.100000D+01
            F    1   1.00
                  0.950000D+00           0.100000D+01
            ****
            -N     0
            S    7   1.00
                  0.111010D+05           0.545700D-03
                  0.166530D+04           0.421810D-02
                  0.379080D+03           0.216450D-01
                  0.107300D+03           0.837760D-01
                  0.347470D+02           0.238810D+00
                  0.122490D+02           0.439940D+00
                  0.447430D+01           0.363640D+00
            S    7   1.00
                  0.166530D+04          -0.150060D-05
                  0.379080D+03          -0.587530D-04
                  0.107300D+03          -0.774530D-03
                  0.347470D+02          -0.721610D-02
                  0.122490D+02          -0.393380D-01
                  0.447430D+01          -0.906110D-01
                  0.124040D+01           0.198820D+00
            S    1   1.00
                  0.487430D+00           0.100000D+01
            S    1   1.00
                  0.164840D+00           0.100000D+01
            P    4   1.00
                  0.479340D+02           0.617060D-02
                  0.109990D+02           0.442600D-01
                  0.324720D+01           0.168250D+00
                  0.111140D+01           0.368480D+00
            P    1   1.00
                  0.379880D+00           0.100000D+01
            P    1   1.00
                  0.120680D+00           0.100000D+01
            D    1   1.00
                  0.180000D+01           0.100000D+01
            D    1   1.00
                  0.550000D+00           0.100000D+01
            F    1   1.00
                  0.102000D+01           0.100000D+01
            ****
            -O     0
            S    7   1.00
                  0.147820D+05           0.535190D-03
                  0.221730D+04           0.413750D-02
                  0.504740D+03           0.212450D-01
                  0.142870D+03           0.824530D-01
                  0.463000D+02           0.236710D+00
                  0.163370D+02           0.440390D+00
                  0.598280D+01           0.364650D+00
            S    7   1.00
                  0.221730D+04          -0.192750D-05
                  0.504740D+03          -0.579640D-04
                  0.142870D+03          -0.794940D-03
                  0.463000D+02          -0.731250D-02
                  0.163370D+02          -0.405740D-01
                  0.598280D+01          -0.915940D-01
                  0.167180D+01           0.209400D+00
            S    1   1.00
                  0.646620D+00           0.100000D+01
            S    1   1.00
                  0.216690D+00           0.100000D+01
            P    4   1.00
                  0.604240D+02           0.689490D-02
                  0.139350D+02           0.490050D-01
                  0.415310D+01           0.182550D+00
                  0.141580D+01           0.376330D+00
            P    1   1.00
                  0.475490D+00           0.100000D+01
            P    1   1.00
                  0.145290D+00           0.100000D+01
            D    1   1.00
                  0.220000D+01           0.100000D+01
            D    1   1.00
                  0.650000D+00           0.100000D+01
            F    1   1.00
                  0.110000D+01           0.100000D+01
            ****
 Initial command:
 /public3/home/sc51754/softwares/g09e01/l1.exe "./Gau-49271.inp" -scrdir="./"
 Entering Link 1 = /public3/home/sc51754/softwares/g09e01/l1.exe PID=     49272.
  
 Copyright (c) 1988,1990,1992,1993,1995,1998,2003,2009,2015,
            Gaussian, Inc.  All Rights Reserved.
  
 This is part of the Gaussian(R) 09 program.  It is based on
 the Gaussian(R) 03 system (copyright 2003, Gaussian, Inc.),
 the Gaussian(R) 98 system (copyright 1998, Gaussian, Inc.),
 the Gaussian(R) 94 system (copyright 1995, Gaussian, Inc.),
 the Gaussian 92(TM) system (copyright 1992, Gaussian, Inc.),
 the Gaussian 90(TM) system (copyright 1990, Gaussian, Inc.),
 the Gaussian 88(TM) system (copyright 1988, Gaussian, Inc.),
 the Gaussian 86(TM) system (copyright 1986, Carnegie Mellon
 University), and the Gaussian 82(TM) system (copyright 1983,
 Carnegie Mellon University). Gaussian is a federally registered
 trademark of Gaussian, Inc.
  
 This software contains proprietary and confidential information,
 including trade secrets, belonging to Gaussian, Inc.
  
 This software is provided under written license and may be
 used, copied, transmitted, or stored only in accord with that
 written license.
  
 The following legend is applicable only to US Government
 contracts under FAR:
  
                    RESTRICTED RIGHTS LEGEND
  
 Use, reproduction and disclosure by the US Government is
 subject to restrictions as set forth in subparagraphs (a)
 and (c) of the Commercial Computer Software - Restricted
 Rights clause in FAR 52.227-19.
  
 Gaussian, Inc.
 340 Quinnipiac St., Bldg. 40, Wallingford CT 06492
  
  
 ---------------------------------------------------------------
 Warning -- This program may not be used in any manner that
 competes with the business of Gaussian, Inc. or will provide
 assistance to any competitor of Gaussian, Inc.  The licensee
 of this program is prohibited from giving any competitor of
 Gaussian, Inc. access to this program.  By using this program,
 the user acknowledges that Gaussian, Inc. is engaged in the
 business of creating and licensing software in the field of
 computational chemistry and represents and warrants to the
 licensee that it is not a competitor of Gaussian, Inc. and that
 it will not use this program in any manner prohibited above.
 ---------------------------------------------------------------
  

 Cite this work as:
 Gaussian 09, Revision E.01,
 M. J. Frisch, G. W. Trucks, H. B. Schlegel, G. E. Scuseria, 
 M. A. Robb, J. R. Cheeseman, G. Scalmani, V. Barone, B. Mennucci, 
 G. A. Petersson, H. Nakatsuji, M. Caricato, X. Li, H. P. Hratchian, 
 A. F. Izmaylov, J. Bloino, G. Zheng, J. L. Sonnenberg, M. Hada, 
 M. Ehara, K. Toyota, R. Fukuda, J. Hasegawa, M. Ishida, T. Nakajima, 
 Y. Honda, O. Kitao, H. Nakai, T. Vreven, J. A. Montgomery, Jr., 
 J. E. Peralta, F. Ogliaro, M. Bearpark, J. J. Heyd, E. Brothers, 
 K. N. Kudin, V. N. Staroverov, T. Keith, R. Kobayashi, J. Normand, 
 K. Raghavachari, A. Rendell, J. C. Burant, S. S. Iyengar, J. Tomasi, 
 M. Cossi, N. Rega, J. M. Millam, M. Klene, J. E. Knox, J. B. Cross, 
 V. Bakken, C. Adamo, J. Jaramillo, R. Gomperts, R. E. Stratmann, 
 O. Yazyev, A. J. Austin, R. Cammi, C. Pomelli, J. W. Ochterski, 
 R. L. Martin, K. Morokuma, V. G. Zakrzewski, G. A. Voth, 
 P. Salvador, J. J. Dannenberg, S. Dapprich, A. D. Daniels, 
 O. Farkas, J. B. Foresman, J. V. Ortiz, J. Cioslowski, 
 and D. J. Fox, Gaussian, Inc., Wallingford CT, 2013.
 
 ******************************************
 Gaussian 09:  EM64L-G09RevE.01 30-Nov-2015
                27-Aug-2021 
 ******************************************
 %nprocshared=64
 Will use up to   64 processors via shared memory.
 %mem=128GB
 %chk=4HY_LC-wPBE_PC2_OPT_FREQ.chk
 -----------------------
 #p opt freq LC-wPBE/gen
 -----------------------
 1/14=-1,18=20,19=15,26=3,38=1/1,3;
 2/9=110,12=2,17=6,18=5,40=1/2;
 3/5=7,11=2,16=1,25=1,30=1,71=1,74=-41/1,2,3;
 4//1;
 5/5=2,38=5/2;
 6/7=2,8=2,9=2,10=2,28=1/1;
 7//1,2,3,16;
 1/14=-1,18=20,19=15,26=3/3(2);
 2/9=110/2;
 99//99;
 2/9=110/2;
 3/5=7,6=1,11=2,16=1,25=1,30=1,71=1,74=-41,82=7/1,2,3;
 4/5=5,16=3,69=1/1;
 5/5=2,38=5/2;
 7//1,2,3,16;
 1/14=-1,18=20,19=15,26=3/3(-5);
 2/9=110/2;
 6/7=2,8=2,9=2,10=2,19=2,28=1/1;
 99/9=1/99;
 Leave Link    1 at Fri Aug 27 21:24:07 2021, MaxMem= 17179869184 cpu:       322.2
 (Enter /public3/home/sc51754/softwares/g09e01/l101.exe)
 ------------------------
 4HY_LC-wPBE_PC2_OPT_FREQ
 ------------------------
 Symbolic Z-matrix:
 Charge =  0 Multiplicity = 1
 C                     1.15223   1.15341  -0.00011 
 C                    -0.24145   1.18944   0.00003 
 C                    -0.93443  -0.02499   0.00004 
 C                    -0.19715  -1.21307  -0.00009 
 C                     1.19102  -1.12281   0.00022 
 N                     1.87822   0.02956   0.00002 
 H                     1.71189   2.08718  -0.0001 
 H                    -0.77027   2.13945  -0.00002 
 H                    -0.70664  -2.17013  -0.00044 
 H                     1.78719  -2.03343  -0.00024 
 O                    -2.29029  -0.1124   -0.00001 
 H                    -2.6687    0.77737   0.00031 
 
 NAtoms=     12 NQM=       12 NQMF=       0 NMMI=      0 NMMIF=      0
                NMic=       0 NMicF=      0.
                    Isotopes and Nuclear Properties:
 (Nuclear quadrupole moments (NQMom) in fm**2, nuclear magnetic moments (NMagM)
  in nuclear magnetons)

  Atom         1           2           3           4           5           6           7           8           9          10
 IAtWgt=          12          12          12          12          12          14           1           1           1           1
 AtmWgt=  12.0000000  12.0000000  12.0000000  12.0000000  12.0000000  14.0030740   1.0078250   1.0078250   1.0078250   1.0078250
 NucSpn=           0           0           0           0           0           2           1           1           1           1
 AtZEff=   0.0000000   0.0000000   0.0000000   0.0000000   0.0000000   0.0000000   0.0000000   0.0000000   0.0000000   0.0000000
 NQMom=    0.0000000   0.0000000   0.0000000   0.0000000   0.0000000   2.0440000   0.0000000   0.0000000   0.0000000   0.0000000
 NMagM=    0.0000000   0.0000000   0.0000000   0.0000000   0.0000000   0.4037610   2.7928460   2.7928460   2.7928460   2.7928460
 AtZNuc=   6.0000000   6.0000000   6.0000000   6.0000000   6.0000000   7.0000000   1.0000000   1.0000000   1.0000000   1.0000000

  Atom        11          12
 IAtWgt=          16           1
 AtmWgt=  15.9949146   1.0078250
 NucSpn=           0           1
 AtZEff=   0.0000000   0.0000000
 NQMom=    0.0000000   0.0000000
 NMagM=    0.0000000   2.7928460
 AtZNuc=   8.0000000   1.0000000
 Leave Link  101 at Fri Aug 27 21:24:07 2021, MaxMem= 17179869184 cpu:         6.2
 (Enter /public3/home/sc51754/softwares/g09e01/l103.exe)

 GradGradGradGradGradGradGradGradGradGradGradGradGradGradGradGradGradGrad
 Berny optimization.
 Initialization pass.
                           ----------------------------
                           !    Initial Parameters    !
                           ! (Angstroms and Degrees)  !
 --------------------------                            --------------------------
 ! Name  Definition              Value          Derivative Info.                !
 --------------------------------------------------------------------------------
 ! R1    R(1,2)                  1.3941         estimate D2E/DX2                !
 ! R2    R(1,6)                  1.3379         estimate D2E/DX2                !
 ! R3    R(1,7)                  1.0886         estimate D2E/DX2                !
 ! R4    R(2,3)                  1.3982         estimate D2E/DX2                !
 ! R5    R(2,8)                  1.0873         estimate D2E/DX2                !
 ! R6    R(3,4)                  1.3983         estimate D2E/DX2                !
 ! R7    R(3,11)                 1.3587         estimate D2E/DX2                !
 ! R8    R(4,5)                  1.3911         estimate D2E/DX2                !
 ! R9    R(4,9)                  1.0842         estimate D2E/DX2                !
 ! R10   R(5,6)                  1.3417         estimate D2E/DX2                !
 ! R11   R(5,10)                 1.0884         estimate D2E/DX2                !
 ! R12   R(11,12)                0.9669         estimate D2E/DX2                !
 ! A1    A(2,1,6)              124.3426         estimate D2E/DX2                !
 ! A2    A(2,1,7)              119.4556         estimate D2E/DX2                !
 ! A3    A(6,1,7)              116.2018         estimate D2E/DX2                !
 ! A4    A(1,2,3)              118.2292         estimate D2E/DX2                !
 ! A5    A(1,2,8)              120.5831         estimate D2E/DX2                !
 ! A6    A(3,2,8)              121.1877         estimate D2E/DX2                !
 ! A7    A(2,3,4)              118.4682         estimate D2E/DX2                !
 ! A8    A(2,3,11)             123.3985         estimate D2E/DX2                !
 ! A9    A(4,3,11)             118.1333         estimate D2E/DX2                !
 ! A10   A(3,4,5)              118.1015         estimate D2E/DX2                !
 ! A11   A(3,4,9)              120.1493         estimate D2E/DX2                !
 ! A12   A(5,4,9)              121.7493         estimate D2E/DX2                !
 ! A13   A(4,5,6)              124.5296         estimate D2E/DX2                !
 ! A14   A(4,5,10)             119.4914         estimate D2E/DX2                !
 ! A15   A(6,5,10)             115.9789         estimate D2E/DX2                !
 ! A16   A(1,6,5)              116.3289         estimate D2E/DX2                !
 ! A17   A(3,11,12)            109.3507         estimate D2E/DX2                !
 ! D1    D(6,1,2,3)             -0.0135         estimate D2E/DX2                !
 ! D2    D(6,1,2,8)            179.9955         estimate D2E/DX2                !
 ! D3    D(7,1,2,3)           -179.9987         estimate D2E/DX2                !
 ! D4    D(7,1,2,8)              0.0102         estimate D2E/DX2                !
 ! D5    D(2,1,6,5)              0.0039         estimate D2E/DX2                !
 ! D6    D(7,1,6,5)            179.9896         estimate D2E/DX2                !
 ! D7    D(1,2,3,4)              0.0007         estimate D2E/DX2                !
 ! D8    D(1,2,3,11)          -179.9909         estimate D2E/DX2                !
 ! D9    D(8,2,3,4)            179.9917         estimate D2E/DX2                !
 ! D10   D(8,2,3,11)             0.0001         estimate D2E/DX2                !
 ! D11   D(2,3,4,5)              0.0198         estimate D2E/DX2                !
 ! D12   D(2,3,4,9)           -179.978          estimate D2E/DX2                !
 ! D13   D(11,3,4,5)          -179.9882         estimate D2E/DX2                !
 ! D14   D(11,3,4,9)             0.014          estimate D2E/DX2                !
 ! D15   D(2,3,11,12)           -0.0225         estimate D2E/DX2                !
 ! D16   D(4,3,11,12)          179.9859         estimate D2E/DX2                !
 ! D17   D(3,4,5,6)             -0.0313         estimate D2E/DX2                !
 ! D18   D(3,4,5,10)          -179.9777         estimate D2E/DX2                !
 ! D19   D(9,4,5,6)            179.9664         estimate D2E/DX2                !
 ! D20   D(9,4,5,10)             0.0201         estimate D2E/DX2                !
 ! D21   D(4,5,6,1)              0.0192         estimate D2E/DX2                !
 ! D22   D(10,5,6,1)           179.9673         estimate D2E/DX2                !
 --------------------------------------------------------------------------------
 Trust Radius=3.00D-01 FncErr=1.00D-07 GrdErr=1.00D-06
 Number of steps in this run=     61 maximum allowed number of steps=    100.
 GradGradGradGradGradGradGradGradGradGradGradGradGradGradGradGradGradGrad

 Leave Link  103 at Fri Aug 27 21:24:07 2021, MaxMem= 17179869184 cpu:         0.1
 (Enter /public3/home/sc51754/softwares/g09e01/l202.exe)
                          Input orientation:                          
 ---------------------------------------------------------------------
 Center     Atomic      Atomic             Coordinates (Angstroms)
 Number     Number       Type             X           Y           Z
 ---------------------------------------------------------------------
      1          6           0        1.152230    1.153409   -0.000114
      2          6           0       -0.241450    1.189435    0.000028
      3          6           0       -0.934425   -0.024989    0.000035
      4          6           0       -0.197153   -1.213074   -0.000085
      5          6           0        1.191022   -1.122808    0.000218
      6          7           0        1.878221    0.029557    0.000015
      7          1           0        1.711886    2.087182   -0.000101
      8          1           0       -0.770273    2.139452   -0.000016
      9          1           0       -0.706644   -2.170125   -0.000442
     10          1           0        1.787188   -2.033434   -0.000236
     11          8           0       -2.290294   -0.112398   -0.000014
     12          1           0       -2.668700    0.777372    0.000305
 ---------------------------------------------------------------------
                    Distance matrix (angstroms):
                    1          2          3          4          5
     1  C    0.000000
     2  C    1.394146   0.000000
     3  C    2.396404   1.398227   0.000000
     4  C    2.724165   2.402917   1.398255   0.000000
     5  C    2.276548   2.720008   2.392223   1.391107   0.000000
     6  N    1.337949   2.416262   2.813175   2.418948   1.341711
     7  H    1.088645   2.149761   3.385887   3.812626   3.251974
     8  H    2.160625   1.087284   2.170657   3.401161   3.806444
     9  H    3.808056   3.391615   2.157196   1.084218   2.167489
    10  H    3.249483   3.808183   3.382459   2.147231   1.088418
    11  O    3.667866   2.427454   1.358684   2.364895   3.624981
    12  H    3.839389   2.461979   1.910888   3.173393   4.302109
                    6          7          8          9         10
     6  N    0.000000
     7  H    2.064337   0.000000
     8  H    3.386174   2.482709   0.000000
     9  H    3.394131   4.896320   4.310047   0.000000
    10  H    2.064999   4.121304   4.894240   2.497575   0.000000
    11  O    4.170931   4.566793   2.716853   2.596572   4.507354
    12  H    4.608006   4.572213   2.336512   3.540820   5.268355
                   11         12
    11  O    0.000000
    12  H    0.966893   0.000000
 Stoichiometry    C5H5NO
 Framework group  C1[X(C5H5NO)]
 Deg. of freedom    30
 Full point group                 C1      NOp   1
 Largest Abelian subgroup         C1      NOp   1
 Largest concise Abelian subgroup C1      NOp   1
                         Standard orientation:                         
 ---------------------------------------------------------------------
 Center     Atomic      Atomic             Coordinates (Angstroms)
 Number     Number       Type             X           Y           Z
 ---------------------------------------------------------------------
      1          6           0       -1.152230    1.153409    0.000114
      2          6           0        0.241450    1.189435   -0.000028
      3          6           0        0.934425   -0.024989   -0.000035
      4          6           0        0.197153   -1.213074    0.000085
      5          6           0       -1.191022   -1.122808   -0.000218
      6          7           0       -1.878221    0.029557   -0.000015
      7          1           0       -1.711887    2.087182    0.000101
      8          1           0        0.770272    2.139452    0.000016
      9          1           0        0.706644   -2.170125    0.000442
     10          1           0       -1.787188   -2.033434    0.000236
     11          8           0        2.290294   -0.112397    0.000014
     12          1           0        2.668700    0.777373   -0.000305
 ---------------------------------------------------------------------
 Rotational constants (GHZ):      5.9862655      2.6268417      1.8257026
 Leave Link  202 at Fri Aug 27 21:24:08 2021, MaxMem= 17179869184 cpu:         2.2
 (Enter /public3/home/sc51754/softwares/g09e01/l301.exe)
 General basis read from cards:  (5D, 7F)
 Centers:       7      8      9     10     12
 S 4 1.00
     Exponent=  7.5423000000D+01 Coefficients=  2.4065000000D-03
     Exponent=  1.1350000000D+01 Coefficients=  1.8487000000D-02
     Exponent=  2.5993000000D+00 Coefficients=  8.9742000000D-02
     Exponent=  7.3513000000D-01 Coefficients=  2.8111000000D-01
 S 1 1.00
     Exponent=  2.3167000000D-01 Coefficients=  1.0000000000D+00
 S 1 1.00
     Exponent=  7.4147000000D-02 Coefficients=  1.0000000000D+00
 P 1 1.00
     Exponent=  1.6000000000D+00 Coefficients=  1.0000000000D+00
 P 1 1.00
     Exponent=  4.5000000000D-01 Coefficients=  1.0000000000D+00
 D 1 1.00
     Exponent=  1.2500000000D+00 Coefficients=  1.0000000000D+00
 ****
 Centers:       1      2      3      4      5
 S 7 1.00
     Exponent=  7.8571000000D+03 Coefficients=  5.6825000000D-04
     Exponent=  1.1787000000D+03 Coefficients=  4.3915000000D-03
     Exponent=  2.6832000000D+02 Coefficients=  2.2504000000D-02
     Exponent=  7.5948000000D+01 Coefficients=  8.6653000000D-02
     Exponent=  2.4559000000D+01 Coefficients=  2.4405000000D-01
     Exponent=  8.6212000000D+00 Coefficients=  4.4148000000D-01
     Exponent=  3.1278000000D+00 Coefficients=  3.5332000000D-01
 S 7 1.00
     Exponent=  1.1787000000D+03 Coefficients= -5.9492000000D-07
     Exponent=  2.6832000000D+02 Coefficients= -6.2748000000D-05
     Exponent=  7.5948000000D+01 Coefficients= -7.5773000000D-04
     Exponent=  2.4559000000D+01 Coefficients= -7.3308000000D-03
     Exponent=  8.6212000000D+00 Coefficients= -3.8932000000D-02
     Exponent=  3.1278000000D+00 Coefficients= -8.8908000000D-02
     Exponent=  8.2202000000D-01 Coefficients=  2.1689000000D-01
 S 1 1.00
     Exponent=  3.3017000000D-01 Coefficients=  1.0000000000D+00
 S 1 1.00
     Exponent=  1.1463000000D-01 Coefficients=  1.0000000000D+00
 P 4 1.00
     Exponent=  3.3775000000D+01 Coefficients=  6.0294000000D-03
     Exponent=  7.6766000000D+00 Coefficients=  4.3228000000D-02
     Exponent=  2.2357000000D+00 Coefficients=  1.6301000000D-01
     Exponent=  7.6447000000D-01 Coefficients=  3.6504000000D-01
 P 1 1.00
     Exponent=  2.6232000000D-01 Coefficients=  1.0000000000D+00
 P 1 1.00
     Exponent=  8.4638000000D-02 Coefficients=  1.0000000000D+00
 D 1 1.00
     Exponent=  1.4000000000D+00 Coefficients=  1.0000000000D+00
 D 1 1.00
     Exponent=  4.5000000000D-01 Coefficients=  1.0000000000D+00
 F 1 1.00
     Exponent=  9.5000000000D-01 Coefficients=  1.0000000000D+00
 ****
 Centers:       6
 S 7 1.00
     Exponent=  1.1101000000D+04 Coefficients=  5.4570000000D-04
     Exponent=  1.6653000000D+03 Coefficients=  4.2181000000D-03
     Exponent=  3.7908000000D+02 Coefficients=  2.1645000000D-02
     Exponent=  1.0730000000D+02 Coefficients=  8.3776000000D-02
     Exponent=  3.4747000000D+01 Coefficients=  2.3881000000D-01
     Exponent=  1.2249000000D+01 Coefficients=  4.3994000000D-01
     Exponent=  4.4743000000D+00 Coefficients=  3.6364000000D-01
 S 7 1.00
     Exponent=  1.6653000000D+03 Coefficients= -1.5006000000D-06
     Exponent=  3.7908000000D+02 Coefficients= -5.8753000000D-05
     Exponent=  1.0730000000D+02 Coefficients= -7.7453000000D-04
     Exponent=  3.4747000000D+01 Coefficients= -7.2161000000D-03
     Exponent=  1.2249000000D+01 Coefficients= -3.9338000000D-02
     Exponent=  4.4743000000D+00 Coefficients= -9.0611000000D-02
     Exponent=  1.2404000000D+00 Coefficients=  1.9882000000D-01
 S 1 1.00
     Exponent=  4.8743000000D-01 Coefficients=  1.0000000000D+00
 S 1 1.00
     Exponent=  1.6484000000D-01 Coefficients=  1.0000000000D+00
 P 4 1.00
     Exponent=  4.7934000000D+01 Coefficients=  6.1706000000D-03
     Exponent=  1.0999000000D+01 Coefficients=  4.4260000000D-02
     Exponent=  3.2472000000D+00 Coefficients=  1.6825000000D-01
     Exponent=  1.1114000000D+00 Coefficients=  3.6848000000D-01
 P 1 1.00
     Exponent=  3.7988000000D-01 Coefficients=  1.0000000000D+00
 P 1 1.00
     Exponent=  1.2068000000D-01 Coefficients=  1.0000000000D+00
 D 1 1.00
     Exponent=  1.8000000000D+00 Coefficients=  1.0000000000D+00
 D 1 1.00
     Exponent=  5.5000000000D-01 Coefficients=  1.0000000000D+00
 F 1 1.00
     Exponent=  1.0200000000D+00 Coefficients=  1.0000000000D+00
 ****
 Centers:      11
 S 7 1.00
     Exponent=  1.4782000000D+04 Coefficients=  5.3519000000D-04
     Exponent=  2.2173000000D+03 Coefficients=  4.1375000000D-03
     Exponent=  5.0474000000D+02 Coefficients=  2.1245000000D-02
     Exponent=  1.4287000000D+02 Coefficients=  8.2453000000D-02
     Exponent=  4.6300000000D+01 Coefficients=  2.3671000000D-01
     Exponent=  1.6337000000D+01 Coefficients=  4.4039000000D-01
     Exponent=  5.9828000000D+00 Coefficients=  3.6465000000D-01
 S 7 1.00
     Exponent=  2.2173000000D+03 Coefficients= -1.9275000000D-06
     Exponent=  5.0474000000D+02 Coefficients= -5.7964000000D-05
     Exponent=  1.4287000000D+02 Coefficients= -7.9494000000D-04
     Exponent=  4.6300000000D+01 Coefficients= -7.3125000000D-03
     Exponent=  1.6337000000D+01 Coefficients= -4.0574000000D-02
     Exponent=  5.9828000000D+00 Coefficients= -9.1594000000D-02
     Exponent=  1.6718000000D+00 Coefficients=  2.0940000000D-01
 S 1 1.00
     Exponent=  6.4662000000D-01 Coefficients=  1.0000000000D+00
 S 1 1.00
     Exponent=  2.1669000000D-01 Coefficients=  1.0000000000D+00
 P 4 1.00
     Exponent=  6.0424000000D+01 Coefficients=  6.8949000000D-03
     Exponent=  1.3935000000D+01 Coefficients=  4.9005000000D-02
     Exponent=  4.1531000000D+00 Coefficients=  1.8255000000D-01
     Exponent=  1.4158000000D+00 Coefficients=  3.7633000000D-01
 P 1 1.00
     Exponent=  4.7549000000D-01 Coefficients=  1.0000000000D+00
 P 1 1.00
     Exponent=  1.4529000000D-01 Coefficients=  1.0000000000D+00
 D 1 1.00
     Exponent=  2.2000000000D+00 Coefficients=  1.0000000000D+00
 D 1 1.00
     Exponent=  6.5000000000D-01 Coefficients=  1.0000000000D+00
 F 1 1.00
     Exponent=  1.1000000000D+00 Coefficients=  1.0000000000D+00
 ****
 Ernie: Thresh=  0.10000D-02 Tol=  0.10000D-05 Strict=F.
 Ernie:  7 primitive shells out of 220 were deleted.
 There are   320 symmetry adapted cartesian basis functions of A   symmetry.
 There are   280 symmetry adapted basis functions of A   symmetry.
   280 basis functions,   475 primitive gaussians,   320 cartesian basis functions
    25 alpha electrons       25 beta electrons
       nuclear repulsion energy       273.7666329457 Hartrees.
 IExCor=32609 DFT=T Ex+Corr=LC-wPBE ExCW=0 ScaHFX=  1.000000
 ScaDFX=  1.000000  0.000000  1.000000  1.000000 ScalE2=  1.000000  1.000000
 IRadAn=      0 IRanWt=     -1 IRanGd=            0 ICorTp=0 IEmpDi=  4
  HFx wShort=  0.000000 wLong=  0.400000 cFull=  0.000000 cShort=  0.000000 cLong=  1.000000
  DFx wShort=  0.000000 wLong=  0.400000 cFull=  0.000000 cShort=  0.000000 cLong=  1.000000
 NAtoms=   12 NActive=   12 NUniq=   12 SFac= 1.00D+00 NAtFMM=   60 NAOKFM=F Big=F
 Integral buffers will be    131072 words long.
 Raffenetti 2 integral format.
 Two-electron integral symmetry is turned on.
 Leave Link  301 at Fri Aug 27 21:24:08 2021, MaxMem= 17179869184 cpu:         3.9
 (Enter /public3/home/sc51754/softwares/g09e01/l302.exe)
 NPDir=0 NMtPBC=     1 NCelOv=     1 NCel=       1 NClECP=     1 NCelD=      1
         NCelK=      1 NCelE2=     1 NClLst=     1 CellRange=     0.0.
 One-electron integrals computed using PRISM.
 NBasis=   280 RedAO= T EigKep=  2.00D-04  NBF=   280
 NBsUse=   280 1.00D-06 EigRej= -1.00D+00 NBFU=   280
 Precomputing XC quadrature grid using
 IXCGrd= 4 IRadAn=           0 IRanWt=          -1 IRanGd=           0 AccXCQ= 0.00D+00.
 Generated NRdTot=       0 NPtTot=           0 NUsed=           0 NTot=          32
 NSgBfM=   320   320   320   320   320 MxSgAt=    12 MxSgA2=    12.
 Leave Link  302 at Fri Aug 27 21:24:09 2021, MaxMem= 17179869184 cpu:        47.5
 (Enter /public3/home/sc51754/softwares/g09e01/l303.exe)
 DipDrv:  MaxL=1.
 Leave Link  303 at Fri Aug 27 21:24:09 2021, MaxMem= 17179869184 cpu:        14.1
 (Enter /public3/home/sc51754/softwares/g09e01/l401.exe)
 ExpMin= 7.41D-02 ExpMax= 1.48D+04 ExpMxC= 5.05D+02 IAcc=2 IRadAn=         4 AccDes= 0.00D+00
 Harris functional with IExCor=32609 and IRadAn=       4 diagonalized for initial guess.
 HarFok:  IExCor=32609 AccDes= 0.00D+00 IRadAn=         4 IDoV= 1 UseB2=F ITyADJ=14
 ICtDFT=  3500011 ScaDFX=  1.000000  1.000000  1.000000  1.000000
 FoFCou: FMM=F IPFlag=           0 FMFlag=      100000 FMFlg1=           0
         NFxFlg=           0 DoJE=T BraDBF=F KetDBF=T FulRan=T
         wScrn=  0.000000 ICntrl=     500 IOpCl=  0 I1Cent=   200000004 NGrid=           0
         NMat0=    1 NMatS0=      1 NMatT0=    0 NMatD0=    1 NMtDS0=    0 NMtDT0=    0
 Petite list used in FoFCou.
 Harris En= -323.400192416035    
 JPrj=0 DoOrth=F DoCkMO=F.
 Leave Link  401 at Fri Aug 27 21:24:10 2021, MaxMem= 17179869184 cpu:        50.9
 (Enter /public3/home/sc51754/softwares/g09e01/l502.exe)
 Closed shell SCF:
 Using DIIS extrapolation, IDIIS=  1040.
 Integral symmetry usage will be decided dynamically.
 Keep R1 ints in memory in canonical form, NReq=1564561414.
 IVT=      348554 IEndB=      348554 NGot= 17179869184 MDV= 15631845691
 LenX= 15631845691 LenY= 15631742850
 Requested convergence on RMS density matrix=1.00D-08 within 128 cycles.
 Requested convergence on MAX density matrix=1.00D-06.
 Requested convergence on             energy=1.00D-06.
 No special actions if energy rises.
 FoFCou: FMM=F IPFlag=           0 FMFlag=           0 FMFlg1=           0
         NFxFlg=           0 DoJE=F BraDBF=F KetDBF=F FulRan=T
         wScrn=  0.000000 ICntrl=     600 IOpCl=  0 I1Cent=           0 NGrid=           0
         NMat0=    1 NMatS0=  39340 NMatT0=    0 NMatD0=    1 NMtDS0=    0 NMtDT0=    0
 Symmetry not used in FoFCou.
 Integral accuracy reduced to 1.0D-05 until final iterations.

 Cycle   1  Pass 0  IDiag  1:
 E= -323.281659662659    
 DIIS: error= 2.97D-02 at cycle   1 NSaved=   1.
 NSaved= 1 IEnMin= 1 EnMin= -323.281659662659     IErMin= 1 ErrMin= 2.97D-02
 ErrMax= 2.97D-02  0.00D+00 EMaxC= 1.00D-01 BMatC= 1.49D-01 BMatP= 1.49D-01
 IDIUse=3 WtCom= 7.03D-01 WtEn= 2.97D-01
 Coeff-Com:  0.100D+01
 Coeff-En:   0.100D+01
 Coeff:      0.100D+01
 Gap=     0.429 Goal=   None    Shift=    0.000
 GapD=    0.429 DampG=2.000 DampE=0.500 DampFc=1.0000 IDamp=-1.
 RMSDP=1.79D-03 MaxDP=1.03D-01              OVMax= 1.08D-01

 Cycle   2  Pass 0  IDiag  1:
 E= -323.365767339584     Delta-E=       -0.084107676924 Rises=F Damp=F
 DIIS: error= 2.02D-02 at cycle   2 NSaved=   2.
 NSaved= 2 IEnMin= 2 EnMin= -323.365767339584     IErMin= 2 ErrMin= 2.02D-02
 ErrMax= 2.02D-02  0.00D+00 EMaxC= 1.00D-01 BMatC= 6.37D-02 BMatP= 1.49D-01
 IDIUse=3 WtCom= 7.98D-01 WtEn= 2.02D-01
 Coeff-Com:  0.389D+00 0.611D+00
 Coeff-En:   0.146D+00 0.854D+00
 Coeff:      0.340D+00 0.660D+00
 Gap=     0.459 Goal=   None    Shift=    0.000
 RMSDP=7.42D-04 MaxDP=3.48D-02 DE=-8.41D-02 OVMax= 4.33D-02

 Cycle   3  Pass 0  IDiag  1:
 E= -323.413069915777     Delta-E=       -0.047302576194 Rises=F Damp=F
 DIIS: error= 4.35D-03 at cycle   3 NSaved=   3.
 NSaved= 3 IEnMin= 3 EnMin= -323.413069915777     IErMin= 3 ErrMin= 4.35D-03
 ErrMax= 4.35D-03  0.00D+00 EMaxC= 1.00D-01 BMatC= 3.50D-03 BMatP= 6.37D-02
 IDIUse=3 WtCom= 9.57D-01 WtEn= 4.35D-02
 Coeff-Com:  0.890D-01 0.248D+00 0.663D+00
 Coeff-En:   0.000D+00 0.000D+00 0.100D+01
 Coeff:      0.851D-01 0.237D+00 0.678D+00
 Gap=     0.422 Goal=   None    Shift=    0.000
 RMSDP=1.45D-04 MaxDP=7.94D-03 DE=-4.73D-02 OVMax= 1.29D-02

 Cycle   4  Pass 0  IDiag  1:
 E= -323.415258967808     Delta-E=       -0.002189052031 Rises=F Damp=F
 DIIS: error= 1.06D-03 at cycle   4 NSaved=   4.
 NSaved= 4 IEnMin= 4 EnMin= -323.415258967808     IErMin= 4 ErrMin= 1.06D-03
 ErrMax= 1.06D-03  0.00D+00 EMaxC= 1.00D-01 BMatC= 3.16D-04 BMatP= 3.50D-03
 IDIUse=3 WtCom= 9.89D-01 WtEn= 1.06D-02
 Coeff-Com:  0.569D-02 0.467D-01 0.291D+00 0.656D+00
 Coeff-En:   0.000D+00 0.000D+00 0.000D+00 0.100D+01
 Coeff:      0.563D-02 0.462D-01 0.288D+00 0.660D+00
 Gap=     0.424 Goal=   None    Shift=    0.000
 RMSDP=4.74D-05 MaxDP=2.08D-03 DE=-2.19D-03 OVMax= 4.37D-03

 Cycle   5  Pass 0  IDiag  1:
 E= -323.415513798791     Delta-E=       -0.000254830983 Rises=F Damp=F
 DIIS: error= 1.68D-04 at cycle   5 NSaved=   5.
 NSaved= 5 IEnMin= 5 EnMin= -323.415513798791     IErMin= 5 ErrMin= 1.68D-04
 ErrMax= 1.68D-04  0.00D+00 EMaxC= 1.00D-01 BMatC= 1.02D-05 BMatP= 3.16D-04
 IDIUse=3 WtCom= 9.98D-01 WtEn= 1.68D-03
 Coeff-Com: -0.455D-02-0.755D-02 0.143D-01 0.166D+00 0.832D+00
 Coeff-En:   0.000D+00 0.000D+00 0.000D+00 0.000D+00 0.100D+01
 Coeff:     -0.454D-02-0.754D-02 0.143D-01 0.165D+00 0.832D+00
 Gap=     0.424 Goal=   None    Shift=    0.000
 RMSDP=1.20D-05 MaxDP=4.14D-04 DE=-2.55D-04 OVMax= 1.46D-03

 Cycle   6  Pass 0  IDiag  1:
 E= -323.415525028249     Delta-E=       -0.000011229458 Rises=F Damp=F
 DIIS: error= 5.62D-05 at cycle   6 NSaved=   6.
 NSaved= 6 IEnMin= 6 EnMin= -323.415525028249     IErMin= 6 ErrMin= 5.62D-05
 ErrMax= 5.62D-05  0.00D+00 EMaxC= 1.00D-01 BMatC= 8.33D-07 BMatP= 1.02D-05
 IDIUse=1 WtCom= 1.00D+00 WtEn= 0.00D+00
 Coeff-Com: -0.160D-02-0.475D-02-0.118D-01 0.105D-01 0.197D+00 0.811D+00
 Coeff:     -0.160D-02-0.475D-02-0.118D-01 0.105D-01 0.197D+00 0.811D+00
 Gap=     0.424 Goal=   None    Shift=    0.000
 RMSDP=5.50D-06 MaxDP=1.41D-04 DE=-1.12D-05 OVMax= 5.03D-04

 Initial convergence to 1.0D-05 achieved.  Increase integral accuracy.
 Cycle   7  Pass 1  IDiag  1:
 E= -323.415476195467     Delta-E=        0.000048832782 Rises=F Damp=F
 DIIS: error= 3.99D-05 at cycle   1 NSaved=   1.
 NSaved= 1 IEnMin= 1 EnMin= -323.415476195467     IErMin= 1 ErrMin= 3.99D-05
 ErrMax= 3.99D-05  0.00D+00 EMaxC= 1.00D-01 BMatC= 2.71D-07 BMatP= 2.71D-07
 IDIUse=1 WtCom= 1.00D+00 WtEn= 0.00D+00
 Coeff-Com:  0.100D+01
 Coeff:      0.100D+01
 Gap=     0.424 Goal=   None    Shift=    0.000
 RMSDP=5.50D-06 MaxDP=1.41D-04 DE= 4.88D-05 OVMax= 4.66D-04

 Cycle   8  Pass 1  IDiag  1:
 E= -323.415476444490     Delta-E=       -0.000000249023 Rises=F Damp=F
 DIIS: error= 3.21D-05 at cycle   2 NSaved=   2.
 NSaved= 2 IEnMin= 2 EnMin= -323.415476444490     IErMin= 2 ErrMin= 3.21D-05
 ErrMax= 3.21D-05  0.00D+00 EMaxC= 1.00D-01 BMatC= 2.13D-07 BMatP= 2.71D-07
 IDIUse=1 WtCom= 1.00D+00 WtEn= 0.00D+00
 Coeff-Com:  0.462D+00 0.538D+00
 Coeff:      0.462D+00 0.538D+00
 Gap=     0.424 Goal=   None    Shift=    0.000
 RMSDP=1.34D-06 MaxDP=7.81D-05 DE=-2.49D-07 OVMax= 1.12D-04

 Cycle   9  Pass 1  IDiag  1:
 E= -323.415476643077     Delta-E=       -0.000000198587 Rises=F Damp=F
 DIIS: error= 1.24D-05 at cycle   3 NSaved=   3.
 NSaved= 3 IEnMin= 3 EnMin= -323.415476643077     IErMin= 3 ErrMin= 1.24D-05
 ErrMax= 1.24D-05  0.00D+00 EMaxC= 1.00D-01 BMatC= 1.08D-08 BMatP= 2.13D-07
 IDIUse=1 WtCom= 1.00D+00 WtEn= 0.00D+00
 Coeff-Com: -0.108D+00 0.569D-01 0.105D+01
 Coeff:     -0.108D+00 0.569D-01 0.105D+01
 Gap=     0.424 Goal=   None    Shift=    0.000
 RMSDP=7.90D-07 MaxDP=2.76D-05 DE=-1.99D-07 OVMax= 1.63D-04

 Cycle  10  Pass 1  IDiag  1:
 E= -323.415476682595     Delta-E=       -0.000000039518 Rises=F Damp=F
 DIIS: error= 5.05D-06 at cycle   4 NSaved=   4.
 NSaved= 4 IEnMin= 4 EnMin= -323.415476682595     IErMin= 4 ErrMin= 5.05D-06
 ErrMax= 5.05D-06  0.00D+00 EMaxC= 1.00D-01 BMatC= 3.09D-09 BMatP= 1.08D-08
 IDIUse=1 WtCom= 1.00D+00 WtEn= 0.00D+00
 Coeff-Com: -0.886D-01-0.741D-01 0.262D+00 0.901D+00
 Coeff:     -0.886D-01-0.741D-01 0.262D+00 0.901D+00
 Gap=     0.424 Goal=   None    Shift=    0.000
 RMSDP=3.84D-07 MaxDP=1.48D-05 DE=-3.95D-08 OVMax= 5.18D-05

 Cycle  11  Pass 1  IDiag  1:
 E= -323.415476707322     Delta-E=       -0.000000024727 Rises=F Damp=F
 DIIS: error= 1.80D-06 at cycle   5 NSaved=   5.
 NSaved= 5 IEnMin= 5 EnMin= -323.415476707322     IErMin= 5 ErrMin= 1.80D-06
 ErrMax= 1.80D-06  0.00D+00 EMaxC= 1.00D-01 BMatC= 3.29D-10 BMatP= 3.09D-09
 IDIUse=1 WtCom= 1.00D+00 WtEn= 0.00D+00
 Coeff-Com:  0.181D-02-0.365D-01-0.153D+00 0.200D+00 0.988D+00
 Coeff:      0.181D-02-0.365D-01-0.153D+00 0.200D+00 0.988D+00
 Gap=     0.424 Goal=   None    Shift=    0.000
 RMSDP=1.80D-07 MaxDP=5.57D-06 DE=-2.47D-08 OVMax= 3.62D-05

 Cycle  12  Pass 1  IDiag  1:
 E= -323.415476708818     Delta-E=       -0.000000001496 Rises=F Damp=F
 DIIS: error= 8.86D-07 at cycle   6 NSaved=   6.
 NSaved= 6 IEnMin= 6 EnMin= -323.415476708818     IErMin= 6 ErrMin= 8.86D-07
 ErrMax= 8.86D-07  0.00D+00 EMaxC= 1.00D-01 BMatC= 4.65D-11 BMatP= 3.29D-10
 IDIUse=1 WtCom= 1.00D+00 WtEn= 0.00D+00
 Coeff-Com:  0.696D-02-0.728D-03-0.448D-01-0.538D-01 0.228D+00 0.864D+00
 Coeff:      0.696D-02-0.728D-03-0.448D-01-0.538D-01 0.228D+00 0.864D+00
 Gap=     0.424 Goal=   None    Shift=    0.000
 RMSDP=3.96D-08 MaxDP=1.61D-06 DE=-1.50D-09 OVMax= 7.73D-06

 Cycle  13  Pass 1  IDiag  1:
 E= -323.415476708949     Delta-E=       -0.000000000131 Rises=F Damp=F
 DIIS: error= 2.79D-07 at cycle   7 NSaved=   7.
 NSaved= 7 IEnMin= 7 EnMin= -323.415476708949     IErMin= 7 ErrMin= 2.79D-07
 ErrMax= 2.79D-07  0.00D+00 EMaxC= 1.00D-01 BMatC= 1.09D-11 BMatP= 4.65D-11
 IDIUse=1 WtCom= 1.00D+00 WtEn= 0.00D+00
 Coeff-Com:  0.196D-02 0.669D-02 0.105D-01-0.621D-01-0.943D-01 0.276D+00
 Coeff-Com:  0.861D+00
 Coeff:      0.196D-02 0.669D-02 0.105D-01-0.621D-01-0.943D-01 0.276D+00
 Coeff:      0.861D+00
 Gap=     0.424 Goal=   None    Shift=    0.000
 RMSDP=2.17D-08 MaxDP=6.92D-07 DE=-1.31D-10 OVMax= 3.50D-06

 Cycle  14  Pass 1  IDiag  1:
 E= -323.415476708984     Delta-E=       -0.000000000035 Rises=F Damp=F
 DIIS: error= 1.17D-07 at cycle   8 NSaved=   8.
 NSaved= 8 IEnMin= 8 EnMin= -323.415476708984     IErMin= 8 ErrMin= 1.17D-07
 ErrMax= 1.17D-07  0.00D+00 EMaxC= 1.00D-01 BMatC= 1.89D-12 BMatP= 1.09D-11
 IDIUse=1 WtCom= 1.00D+00 WtEn= 0.00D+00
 Coeff-Com: -0.127D-02 0.255D-02 0.153D-01-0.189D-02-0.835D-01-0.149D+00
 Coeff-Com:  0.245D+00 0.972D+00
 Coeff:     -0.127D-02 0.255D-02 0.153D-01-0.189D-02-0.835D-01-0.149D+00
 Coeff:      0.245D+00 0.972D+00
 Gap=     0.424 Goal=   None    Shift=    0.000
 RMSDP=1.15D-08 MaxDP=2.79D-07 DE=-3.48D-11 OVMax= 1.97D-06

 Cycle  15  Pass 1  IDiag  1:
 E= -323.415476708991     Delta-E=       -0.000000000007 Rises=F Damp=F
 DIIS: error= 4.89D-08 at cycle   9 NSaved=   9.
 NSaved= 9 IEnMin= 9 EnMin= -323.415476708991     IErMin= 9 ErrMin= 4.89D-08
 ErrMax= 4.89D-08  0.00D+00 EMaxC= 1.00D-01 BMatC= 1.81D-13 BMatP= 1.89D-12
 IDIUse=1 WtCom= 1.00D+00 WtEn= 0.00D+00
 Coeff-Com: -0.400D-03-0.133D-03 0.115D-02 0.610D-02-0.739D-02-0.423D-01
 Coeff-Com: -0.273D-01 0.151D+00 0.920D+00
 Coeff:     -0.400D-03-0.133D-03 0.115D-02 0.610D-02-0.739D-02-0.423D-01
 Coeff:     -0.273D-01 0.151D+00 0.920D+00
 Gap=     0.424 Goal=   None    Shift=    0.000
 RMSDP=2.89D-09 MaxDP=8.78D-08 DE=-6.93D-12 OVMax= 5.63D-07

 SCF Done:  E(RLC-wPBE) =  -323.415476709     A.U. after   15 cycles
            NFock= 15  Conv=0.29D-08     -V/T= 2.0046
 KE= 3.219433210036D+02 PE=-1.302239871976D+03 EE= 3.831144413173D+02
 Leave Link  502 at Fri Aug 27 21:24:23 2021, MaxMem= 17179869184 cpu:       270.7
 (Enter /public3/home/sc51754/softwares/g09e01/l601.exe)
 Copying SCF densities to generalized density rwf, IOpCl= 0 IROHF=0.

 **********************************************************************

            Population analysis using the SCF density.

 **********************************************************************

 Orbital symmetries:
       Occupied  (A) (A) (A) (A) (A) (A) (A) (A) (A) (A) (A) (A)
                 (A) (A) (A) (A) (A) (A) (A) (A) (A) (A) (A) (A)
                 (A)
       Virtual   (A) (A) (A) (A) (A) (A) (A) (A) (A) (A) (A) (A)
                 (A) (A) (A) (A) (A) (A) (A) (A) (A) (A) (A) (A)
                 (A) (A) (A) (A) (A) (A) (A) (A) (A) (A) (A) (A)
                 (A) (A) (A) (A) (A) (A) (A) (A) (A) (A) (A) (A)
                 (A) (A) (A) (A) (A) (A) (A) (A) (A) (A) (A) (A)
                 (A) (A) (A) (A) (A) (A) (A) (A) (A) (A) (A) (A)
                 (A) (A) (A) (A) (A) (A) (A) (A) (A) (A) (A) (A)
                 (A) (A) (A) (A) (A) (A) (A) (A) (A) (A) (A) (A)
                 (A) (A) (A) (A) (A) (A) (A) (A) (A) (A) (A) (A)
                 (A) (A) (A) (A) (A) (A) (A) (A) (A) (A) (A) (A)
                 (A) (A) (A) (A) (A) (A) (A) (A) (A) (A) (A) (A)
                 (A) (A) (A) (A) (A) (A) (A) (A) (A) (A) (A) (A)
                 (A) (A) (A) (A) (A) (A) (A) (A) (A) (A) (A) (A)
                 (A) (A) (A) (A) (A) (A) (A) (A) (A) (A) (A) (A)
                 (A) (A) (A) (A) (A) (A) (A) (A) (A) (A) (A) (A)
                 (A) (A) (A) (A) (A) (A) (A) (A) (A) (A) (A) (A)
                 (A) (A) (A) (A) (A) (A) (A) (A) (A) (A) (A) (A)
                 (A) (A) (A) (A) (A) (A) (A) (A) (A) (A) (A) (A)
                 (A) (A) (A) (A) (A) (A) (A) (A) (A) (A) (A) (A)
                 (A) (A) (A) (A) (A) (A) (A) (A) (A) (A) (A) (A)
                 (A) (A) (A) (A) (A) (A) (A) (A) (A) (A) (A) (A)
                 (A) (A) (A)
 The electronic state is 1-A.
 Alpha  occ. eigenvalues --  -19.01667 -14.19737 -10.20209 -10.15409 -10.15152
 Alpha  occ. eigenvalues --  -10.12615 -10.11958  -1.21921  -1.08794  -0.94550
 Alpha  occ. eigenvalues --   -0.91516  -0.79101  -0.76895  -0.69995  -0.64119
 Alpha  occ. eigenvalues --   -0.61239  -0.58026  -0.57217  -0.55808  -0.53496
 Alpha  occ. eigenvalues --   -0.50738  -0.47657  -0.37946  -0.37884  -0.36751
 Alpha virt. eigenvalues --    0.05618   0.06027   0.07413   0.10749   0.11133
 Alpha virt. eigenvalues --    0.14184   0.14948   0.21113   0.22329   0.22609
 Alpha virt. eigenvalues --    0.24776   0.26133   0.27060   0.28019   0.28604
 Alpha virt. eigenvalues --    0.30657   0.31570   0.32359   0.34876   0.36086
 Alpha virt. eigenvalues --    0.37101   0.37683   0.38237   0.40932   0.41948
 Alpha virt. eigenvalues --    0.43042   0.43596   0.44713   0.45326   0.47340
 Alpha virt. eigenvalues --    0.48448   0.51914   0.53497   0.55491   0.56033
 Alpha virt. eigenvalues --    0.58912   0.60559   0.64201   0.64558   0.68681
 Alpha virt. eigenvalues --    0.69402   0.72872   0.74731   0.75078   0.75751
 Alpha virt. eigenvalues --    0.79617   0.79997   0.85167   0.86829   0.91707
 Alpha virt. eigenvalues --    0.93865   0.95627   0.97595   0.99582   1.00960
 Alpha virt. eigenvalues --    1.05924   1.07058   1.07884   1.08741   1.13224
 Alpha virt. eigenvalues --    1.15052   1.18694   1.21821   1.22577   1.24268
 Alpha virt. eigenvalues --    1.25068   1.26853   1.27319   1.28273   1.30296
 Alpha virt. eigenvalues --    1.35103   1.35802   1.40855   1.41243   1.42039
 Alpha virt. eigenvalues --    1.43953   1.45902   1.52703   1.54106   1.56029
 Alpha virt. eigenvalues --    1.56297   1.57788   1.60839   1.65728   1.68338
 Alpha virt. eigenvalues --    1.69553   1.70771   1.71071   1.75018   1.77736
 Alpha virt. eigenvalues --    1.78121   1.79778   1.82484   1.84260   1.86719
 Alpha virt. eigenvalues --    1.89326   1.89449   1.92927   1.95035   1.96481
 Alpha virt. eigenvalues --    1.96873   2.03780   2.06458   2.08522   2.09328
 Alpha virt. eigenvalues --    2.15407   2.19432   2.20807   2.27620   2.29907
 Alpha virt. eigenvalues --    2.32136   2.33799   2.35039   2.39031   2.41914
 Alpha virt. eigenvalues --    2.47977   2.50834   2.65695   2.68660   2.88020
 Alpha virt. eigenvalues --    2.97709   3.01969   3.06880   3.09703   3.22176
 Alpha virt. eigenvalues --    3.26045   3.31640   3.33038   3.35746   3.36404
 Alpha virt. eigenvalues --    3.42987   3.43484   3.45071   3.47568   3.50429
 Alpha virt. eigenvalues --    3.51664   3.54323   3.59657   3.62564   3.64685
 Alpha virt. eigenvalues --    3.67871   3.70711   3.71094   3.74251   3.76465
 Alpha virt. eigenvalues --    3.81813   3.84299   3.86039   3.88784   3.90453
 Alpha virt. eigenvalues --    3.93012   3.96588   3.99141   4.04378   4.10166
 Alpha virt. eigenvalues --    4.10818   4.13019   4.13475   4.17231   4.17286
 Alpha virt. eigenvalues --    4.18322   4.22534   4.23113   4.24384   4.25835
 Alpha virt. eigenvalues --    4.27579   4.28850   4.30541   4.32556   4.36099
 Alpha virt. eigenvalues --    4.36254   4.38022   4.39113   4.40265   4.41816
 Alpha virt. eigenvalues --    4.44112   4.44589   4.47772   4.49436   4.50494
 Alpha virt. eigenvalues --    4.53329   4.53602   4.54730   4.55549   4.58180
 Alpha virt. eigenvalues --    4.59738   4.60986   4.62015   4.62956   4.65582
 Alpha virt. eigenvalues --    4.66082   4.68074   4.74495   4.76170   4.81435
 Alpha virt. eigenvalues --    4.85707   4.86966   4.88377   4.91556   4.96109
 Alpha virt. eigenvalues --    5.00018   5.01989   5.04015   5.07028   5.10566
 Alpha virt. eigenvalues --    5.16217   5.18444   5.19028   5.24707   5.25688
 Alpha virt. eigenvalues --    5.27513   5.32344   5.41678   5.41683   5.42350
 Alpha virt. eigenvalues --    5.42636   5.43746   5.46294   5.50255   5.54907
 Alpha virt. eigenvalues --    5.57170   5.62761   5.64481   5.66118   5.68389
 Alpha virt. eigenvalues --    5.74818   5.76776   5.79402   5.85852   5.86080
 Alpha virt. eigenvalues --    5.89924   6.01888   6.10170   6.15474   6.17404
 Alpha virt. eigenvalues --    6.21083   6.24484   6.31668   6.36180   6.38988
 Alpha virt. eigenvalues --    6.48214   6.55785   6.56019   6.64955   6.68835
 Alpha virt. eigenvalues --    6.91771   7.12745   7.40554   9.14419  12.27016
 Alpha virt. eigenvalues --   12.39889  15.48774  17.27101  18.50557  22.01083
          Condensed to atoms (all electrons):
               1          2          3          4          5          6
     1  C    4.609669   0.456059  -0.040318  -0.047957  -0.109604   0.518276
     2  C    0.456059   5.023387   0.529870  -0.016020  -0.050809  -0.038019
     3  C   -0.040318   0.529870   4.460672   0.539658  -0.048861  -0.017961
     4  C   -0.047957  -0.016020   0.539658   4.928541   0.479338  -0.035217
     5  C   -0.109604  -0.050809  -0.048861   0.479338   4.624063   0.502692
     6  N    0.518276  -0.038019  -0.017961  -0.035217   0.502692   6.511794
     7  H    0.456320  -0.064057   0.003803  -0.004449   0.005682  -0.042358
     8  H   -0.013973   0.423746  -0.036671   0.004627  -0.000433   0.004619
     9  H   -0.001951   0.008124  -0.029022   0.428191  -0.024402   0.004537
    10  H    0.005861  -0.006089   0.007200  -0.067632   0.460078  -0.043114
    11  O    0.005466  -0.060170   0.323220  -0.060693   0.003202  -0.000387
    12  H    0.001171  -0.002563  -0.031168   0.005837  -0.000753   0.000197
               7          8          9         10         11         12
     1  C    0.456320  -0.013973  -0.001951   0.005861   0.005466   0.001171
     2  C   -0.064057   0.423746   0.008124  -0.006089  -0.060170  -0.002563
     3  C    0.003803  -0.036671  -0.029022   0.007200   0.323220  -0.031168
     4  C   -0.004449   0.004627   0.428191  -0.067632  -0.060693   0.005837
     5  C    0.005682  -0.000433  -0.024402   0.460078   0.003202  -0.000753
     6  N   -0.042358   0.004619   0.004537  -0.043114  -0.000387   0.000197
     7  H    0.588025  -0.003449   0.000080   0.000240  -0.000311  -0.000060
     8  H   -0.003449   0.591622  -0.000182   0.000064  -0.005877   0.002145
     9  H    0.000080  -0.000182   0.559486  -0.004524   0.003513  -0.000390
    10  H    0.000240   0.000064  -0.004524   0.585248  -0.000216   0.000061
    11  O   -0.000311  -0.005877   0.003513  -0.000216   7.803263   0.350666
    12  H   -0.000060   0.002145  -0.000390   0.000061   0.350666   0.464463
 Mulliken charges:
               1
     1  C    0.160980
     2  C   -0.203459
     3  C    0.339579
     4  C   -0.154223
     5  C    0.159805
     6  N   -0.365060
     7  H    0.060535
     8  H    0.033763
     9  H    0.056541
    10  H    0.062821
    11  O   -0.361677
    12  H    0.210395
 Sum of Mulliken charges =  -0.00000
 Mulliken charges with hydrogens summed into heavy atoms:
               1
     1  C    0.221514
     2  C   -0.169696
     3  C    0.339579
     4  C   -0.097682
     5  C    0.222626
     6  N   -0.365060
    11  O   -0.151282
 Electronic spatial extent (au):  <R**2>=            641.1771
 Charge=             -0.0000 electrons
 Dipole moment (field-independent basis, Debye):
    X=              2.3765    Y=              1.3433    Z=             -0.0000  Tot=              2.7299
 Quadrupole moment (field-independent basis, Debye-Ang):
   XX=            -43.7662   YY=            -32.7773   ZZ=            -43.0320
   XY=              4.6245   XZ=             -0.0017   YZ=             -0.0017
 Traceless Quadrupole moment (field-independent basis, Debye-Ang):
   XX=             -3.9077   YY=              7.0812   ZZ=             -3.1735
   XY=              4.6245   XZ=             -0.0017   YZ=             -0.0017
 Octapole moment (field-independent basis, Debye-Ang**2):
  XXX=             33.1597  YYY=              0.5946  ZZZ=              0.0004  XYY=              1.6043
  XXY=             12.4337  XXZ=             -0.0034  XZZ=              3.3340  YZZ=              0.0321
  YYZ=              0.0036  XYZ=             -0.0016
 Hexadecapole moment (field-independent basis, Debye-Ang**3):
 XXXX=           -527.7243 YYYY=           -251.8314 ZZZZ=            -46.1275 XXXY=             39.3586
 XXXZ=             -0.0159 YYYX=              3.0470 YYYZ=             -0.0095 ZZZX=             -0.0012
 ZZZY=             -0.0016 XXYY=           -105.3691 XXZZ=            -95.9111 YYZZ=            -60.9631
 XXYZ=             -0.0069 YYXZ=             -0.0023 ZZXY=              0.5566
 N-N= 2.737666329457D+02 E-N=-1.302239873348D+03  KE= 3.219433210036D+02
 No NMR shielding tensors so no spin-rotation constants.
 Leave Link  601 at Fri Aug 27 21:24:24 2021, MaxMem= 17179869184 cpu:        50.7
 (Enter /public3/home/sc51754/softwares/g09e01/l701.exe)
 Compute integral first derivatives.
 ... and contract with generalized density number  0.
 Leave Link  701 at Fri Aug 27 21:24:25 2021, MaxMem= 17179869184 cpu:        65.0
 (Enter /public3/home/sc51754/softwares/g09e01/l702.exe)
 L702 exits ... SP integral derivatives will be done elsewhere.
 Leave Link  702 at Fri Aug 27 21:24:25 2021, MaxMem= 17179869184 cpu:         0.3
 (Enter /public3/home/sc51754/softwares/g09e01/l703.exe)
 Compute integral first derivatives, UseDBF=F ICtDFT=           0.
 Integral derivatives from FoFJK, PRISM(SPDF).
 Calling FoFJK, ICntrl=      2127 FMM=F ISym2X=0 I1Cent= 0 IOpClX= 0 NMat=1 NMatS=1 NMatT=0.
 FoFJK:  IHMeth= 1 ICntrl=    2127 DoSepK=T KAlg= 0 I1Cent=   0 FoldK=F
 IRaf=         1 NMat=   1 IRICut=       1 DoRegI=T DoRafI=F ISym2E= 0.
 FoFCou: FMM=F IPFlag=           0 FMFlag=      100000 FMFlg1=         800
         NFxFlg=           0 DoJE=F BraDBF=F KetDBF=F FulRan=T
         wScrn=  0.000000 ICntrl=    2527 IOpCl=  0 I1Cent=           0 NGrid=           0
         NMat0=    1 NMatS0=      1 NMatT0=    0 NMatD0=    1 NMtDS0=    0 NMtDT0=    0
 Symmetry not used in FoFCou.
 Leave Link  703 at Fri Aug 27 21:24:29 2021, MaxMem= 17179869184 cpu:       248.3
 (Enter /public3/home/sc51754/softwares/g09e01/l716.exe)
 Dipole        = 9.35002445D-01 5.28502196D-01-1.35739453D-05
 ***** Axes restored to original set *****
 -------------------------------------------------------------------
 Center     Atomic                   Forces (Hartrees/Bohr)
 Number     Number              X              Y              Z
 -------------------------------------------------------------------
      1        6          -0.004238541   -0.011372196    0.000037068
      2        6           0.003858194   -0.010084829   -0.000007288
      3        6           0.007194674   -0.001832714   -0.000011612
      4        6           0.005076675    0.011097527    0.000025873
      5        6          -0.005299556    0.010335512   -0.000100919
      6        7          -0.016515377    0.000341327    0.000020499
      7        1          -0.001154094   -0.002347965   -0.000010697
      8        1           0.001611839   -0.002208458    0.000001647
      9        1           0.001370659    0.001974296    0.000012716
     10        1          -0.001222722    0.002248705    0.000032364
     11        8           0.006970242    0.008531366    0.000006743
     12        1           0.002348007   -0.006682571   -0.000006394
 -------------------------------------------------------------------
 Cartesian Forces:  Max     0.016515377 RMS     0.005461773
 Leave Link  716 at Fri Aug 27 21:24:29 2021, MaxMem= 17179869184 cpu:         0.4
 (Enter /public3/home/sc51754/softwares/g09e01/l103.exe)

 GradGradGradGradGradGradGradGradGradGradGradGradGradGradGradGradGradGrad
 Berny optimization.
 FormGI is forming the generalized inverse of G from B-inverse, IUseBI=4.
 Internal  Forces:  Max     0.016113420 RMS     0.005451786
 Search for a local minimum.
 Step number   1 out of a maximum of   61
 All quantities printed in internal units (Hartrees-Bohrs-Radians)
 RMS Force = .54518D-02 SwitMx=.10000D-02 MixMth= 1
 Mixed Optimization -- RFO/linear search
 Second derivative matrix not updated -- first step.
 ITU=  0
     Eigenvalues ---    0.02120   0.02139   0.02144   0.02163   0.02209
     Eigenvalues ---    0.02238   0.02269   0.02294   0.02415   0.16000
     Eigenvalues ---    0.16000   0.16000   0.16000   0.16000   0.22000
     Eigenvalues ---    0.22826   0.23882   0.25000   0.34970   0.34996
     Eigenvalues ---    0.35128   0.35490   0.42425   0.43849   0.46118
     Eigenvalues ---    0.46897   0.53214   0.54017   0.55021   0.56489
 RFO step:  Lambda=-3.03541184D-03 EMin= 2.11976327D-02
 Linear search not attempted -- first point.
 Iteration  1 RMS(Cart)=  0.01732756 RMS(Int)=  0.00001457
 Iteration  2 RMS(Cart)=  0.00001635 RMS(Int)=  0.00000201
 Iteration  3 RMS(Cart)=  0.00000000 RMS(Int)=  0.00000201
 ITry= 1 IFail=0 DXMaxC= 4.51D-02 DCOld= 1.00D+10 DXMaxT= 3.00D-01 DXLimC= 3.00D+00 Rises=F
 Variable       Old X    -DE/DX   Delta X   Delta X   Delta X     New X
                                 (Linear)    (Quad)   (Total)
    R1        2.63455  -0.01400   0.00000  -0.02987  -0.02987   2.60468
    R2        2.52836  -0.01611   0.00000  -0.02815  -0.02816   2.50020
    R3        2.05724  -0.00261   0.00000  -0.00739  -0.00739   2.04985
    R4        2.64227  -0.01500   0.00000  -0.03200  -0.03200   2.61027
    R5        2.05467  -0.00271   0.00000  -0.00766  -0.00766   2.04701
    R6        2.64232  -0.01472   0.00000  -0.03141  -0.03140   2.61091
    R7        2.56754  -0.00942   0.00000  -0.01760  -0.01760   2.54994
    R8        2.62881  -0.01444   0.00000  -0.03046  -0.03046   2.59835
    R9        2.04887  -0.00239   0.00000  -0.00667  -0.00667   2.04221
   R10        2.53547  -0.01545   0.00000  -0.02740  -0.02740   2.50806
   R11        2.05681  -0.00255   0.00000  -0.00723  -0.00723   2.04958
   R12        1.82716  -0.00707   0.00000  -0.01301  -0.01301   1.81415
    A1        2.17019   0.00039   0.00000   0.00100   0.00099   2.17118
    A2        2.08489   0.00003   0.00000   0.00087   0.00087   2.08576
    A3        2.02810  -0.00042   0.00000  -0.00186  -0.00186   2.02624
    A4        2.06349  -0.00080   0.00000  -0.00244  -0.00244   2.06105
    A5        2.10457   0.00006   0.00000  -0.00088  -0.00089   2.10369
    A6        2.11512   0.00074   0.00000   0.00332   0.00332   2.11845
    A7        2.06766   0.00043   0.00000   0.00357   0.00358   2.07124
    A8        2.15371  -0.00139   0.00000  -0.00646  -0.00646   2.14725
    A9        2.06181   0.00097   0.00000   0.00289   0.00288   2.06470
   A10        2.06126  -0.00060   0.00000  -0.00154  -0.00153   2.05972
   A11        2.09700   0.00059   0.00000   0.00254   0.00254   2.09954
   A12        2.12493   0.00001   0.00000  -0.00101  -0.00101   2.12392
   A13        2.17345   0.00016   0.00000   0.00000  -0.00000   2.17345
   A14        2.08552   0.00013   0.00000   0.00132   0.00132   2.08684
   A15        2.02421  -0.00030   0.00000  -0.00132  -0.00132   2.02290
   A16        2.03032   0.00042   0.00000  -0.00059  -0.00060   2.02972
   A17        1.90853   0.00083   0.00000   0.00510   0.00510   1.91363
    D1       -0.00024   0.00001   0.00000   0.00038   0.00038   0.00015
    D2        3.14151   0.00000   0.00000   0.00018   0.00018  -3.14149
    D3       -3.14157  -0.00000   0.00000  -0.00007  -0.00007   3.14154
    D4        0.00018  -0.00001   0.00000  -0.00027  -0.00027  -0.00010
    D5        0.00007  -0.00000   0.00000  -0.00006  -0.00006   0.00001
    D6        3.14141   0.00001   0.00000   0.00039   0.00039  -3.14139
    D7        0.00001  -0.00000   0.00000  -0.00012  -0.00012  -0.00010
    D8       -3.14143  -0.00001   0.00000  -0.00027  -0.00027   3.14148
    D9        3.14145   0.00000   0.00000   0.00009   0.00009   3.14154
   D10        0.00000  -0.00000   0.00000  -0.00007  -0.00007  -0.00007
   D11        0.00034  -0.00001   0.00000  -0.00043  -0.00043  -0.00009
   D12       -3.14121  -0.00001   0.00000  -0.00043  -0.00043   3.14155
   D13       -3.14139  -0.00001   0.00000  -0.00028  -0.00028   3.14152
   D14        0.00024  -0.00001   0.00000  -0.00028  -0.00028  -0.00004
   D15       -0.00039   0.00001   0.00000   0.00021   0.00021  -0.00018
   D16        3.14135   0.00000   0.00000   0.00006   0.00006   3.14140
   D17       -0.00055   0.00002   0.00000   0.00081   0.00081   0.00027
   D18       -3.14120  -0.00002   0.00000  -0.00066  -0.00066   3.14132
   D19        3.14101   0.00002   0.00000   0.00081   0.00081  -3.14137
   D20        0.00035  -0.00002   0.00000  -0.00066  -0.00066  -0.00031
   D21        0.00034  -0.00001   0.00000  -0.00056  -0.00056  -0.00023
   D22        3.14102   0.00002   0.00000   0.00086   0.00086  -3.14130
         Item               Value     Threshold  Converged?
 Maximum Force            0.016113     0.000450     NO 
 RMS     Force            0.005452     0.000300     NO 
 Maximum Displacement     0.045102     0.001800     NO 
 RMS     Displacement     0.017330     0.001200     NO 
 Predicted change in Energy=-1.527089D-03
 Lowest energy point so far.  Saving SCF results.
 GradGradGradGradGradGradGradGradGradGradGradGradGradGradGradGradGradGrad

 Leave Link  103 at Fri Aug 27 21:24:30 2021, MaxMem= 17179869184 cpu:        50.9
 (Enter /public3/home/sc51754/softwares/g09e01/l202.exe)
                          Input orientation:                          
 ---------------------------------------------------------------------
 Center     Atomic      Atomic             Coordinates (Angstroms)
 Number     Number       Type             X           Y           Z
 ---------------------------------------------------------------------
      1          6           0        1.138197    1.140496    0.000060
      2          6           0       -0.239688    1.175808   -0.000017
      3          6           0       -0.921081   -0.025724   -0.000050
      4          6           0       -0.193653   -1.200358   -0.000129
      5          6           0        1.178384   -1.110296   -0.000276
      6          7           0        1.857453    0.030032   -0.000057
      7          1           0        1.696445    2.070552    0.000040
      8          1           0       -0.765911    2.122634   -0.000008
      9          1           0       -0.699937   -2.155117   -0.000113
     10          1           0        1.774210   -2.016571   -0.000089
     11          8           0       -2.267978   -0.107412    0.000004
     12          1           0       -2.644833    0.775534    0.000227
 ---------------------------------------------------------------------
                    Distance matrix (angstroms):
                    1          2          3          4          5
     1  C    0.000000
     2  C    1.378337   0.000000
     3  C    2.366578   1.381295   0.000000
     4  C    2.693217   2.376612   1.381636   0.000000
     5  C    2.251151   2.690204   2.363060   1.374989   0.000000
     6  N    1.323049   2.389728   2.779093   2.391839   1.327209
     7  H    1.084733   2.132880   3.353478   3.777741   3.222760
     8  H    2.142480   1.083231   2.153954   3.371907   3.772548
     9  H    3.773566   3.362572   2.140846   1.080689   2.149358
    10  H    3.220494   3.774529   3.350831   2.130419   1.084594
    11  O    3.627574   2.400128   1.349372   2.344644   3.589315
    12  H    3.800593   2.438225   1.900877   3.148402   4.263020
                    6          7          8          9         10
     6  N    0.000000
     7  H    2.046862   0.000000
     8  H    3.355744   2.462907   0.000000
     9  H    3.363795   4.857873   4.278260   0.000000
    10  H    2.048295   4.087863   4.856463   2.478023   0.000000
    11  O    4.127719   4.523292   2.688737   2.579118   4.470366
    12  H    4.563589   4.530316   2.311931   3.517290   5.227216
                   11         12
    11  O    0.000000
    12  H    0.960006   0.000000
 Stoichiometry    C5H5NO
 Framework group  C1[X(C5H5NO)]
 Deg. of freedom    30
 Full point group                 C1      NOp   1
 RotChk:  IX=2 Diff= 3.06D-03
 Largest Abelian subgroup         C1      NOp   1
 Largest concise Abelian subgroup C1      NOp   1
                         Standard orientation:                         
 ---------------------------------------------------------------------
 Center     Atomic      Atomic             Coordinates (Angstroms)
 Number     Number       Type             X           Y           Z
 ---------------------------------------------------------------------
      1          6           0       -1.135903    1.142405   -0.000116
      2          6           0        0.242055    1.174737   -0.000039
      3          6           0        0.920848   -0.028266   -0.000006
      4          6           0        0.190880   -1.201324    0.000074
      5          6           0       -1.180959   -1.108294    0.000221
      6          7           0       -1.857559    0.033500    0.000001
      7          1           0       -1.692138    2.073667   -0.000096
      8          1           0        0.770325    2.120422   -0.000048
      9          1           0        0.695098   -2.157176    0.000058
     10          1           0       -1.778744   -2.013278    0.000033
     11          8           0        2.267564   -0.112868   -0.000060
     12          1           0        2.646329    0.769261   -0.000283
 ---------------------------------------------------------------------
 Rotational constants (GHZ):      6.1116568      2.6831015      1.8645419
 Leave Link  202 at Fri Aug 27 21:24:31 2021, MaxMem= 17179869184 cpu:         2.5
 (Enter /public3/home/sc51754/softwares/g09e01/l301.exe)
 Basis read from rwf:  (5D, 7F)
 No pseudopotential information found on rwf file.
 There are   320 symmetry adapted cartesian basis functions of A   symmetry.
 There are   280 symmetry adapted basis functions of A   symmetry.
   280 basis functions,   475 primitive gaussians,   320 cartesian basis functions
    25 alpha electrons       25 beta electrons
       nuclear repulsion energy       276.5701675940 Hartrees.
 IExCor=32609 DFT=T Ex+Corr=LC-wPBE ExCW=0 ScaHFX=  1.000000
 ScaDFX=  1.000000  0.000000  1.000000  1.000000 ScalE2=  1.000000  1.000000
 IRadAn=      0 IRanWt=     -1 IRanGd=            0 ICorTp=0 IEmpDi=  4
  HFx wShort=  0.000000 wLong=  0.400000 cFull=  0.000000 cShort=  0.000000 cLong=  1.000000
  DFx wShort=  0.000000 wLong=  0.400000 cFull=  0.000000 cShort=  0.000000 cLong=  1.000000
 NAtoms=   12 NActive=   12 NUniq=   12 SFac= 1.00D+00 NAtFMM=   60 NAOKFM=F Big=F
 Integral buffers will be    131072 words long.
 Raffenetti 2 integral format.
 Two-electron integral symmetry is turned on.
 No density basis found on file   724.
 Leave Link  301 at Fri Aug 27 21:24:31 2021, MaxMem= 17179869184 cpu:         1.2
 (Enter /public3/home/sc51754/softwares/g09e01/l302.exe)
 NPDir=0 NMtPBC=     1 NCelOv=     1 NCel=       1 NClECP=     1 NCelD=      1
         NCelK=      1 NCelE2=     1 NClLst=     1 CellRange=     0.0.
 One-electron integrals computed using PRISM.
 NBasis=   280 RedAO= T EigKep=  1.86D-04  NBF=   280
 NBsUse=   280 1.00D-06 EigRej= -1.00D+00 NBFU=   280
 Precomputing XC quadrature grid using
 IXCGrd= 4 IRadAn=           0 IRanWt=          -1 IRanGd=           0 AccXCQ= 0.00D+00.
 Generated NRdTot=       0 NPtTot=           0 NUsed=           0 NTot=          32
 NSgBfM=   320   320   320   320   320 MxSgAt=    12 MxSgA2=    12.
 Leave Link  302 at Fri Aug 27 21:24:32 2021, MaxMem= 17179869184 cpu:        41.9
 (Enter /public3/home/sc51754/softwares/g09e01/l303.exe)
 DipDrv:  MaxL=1.
 Leave Link  303 at Fri Aug 27 21:24:32 2021, MaxMem= 17179869184 cpu:        13.4
 (Enter /public3/home/sc51754/softwares/g09e01/l401.exe)
 Initial guess from the checkpoint file:  "4HY_LC-wPBE_PC2_OPT_FREQ.chk"
 B after Tr=    -0.000000   -0.000000    0.000000
         Rot=    0.999999    0.000037   -0.000012    0.001005 Ang=   0.12 deg.
 Guess basis will be translated and rotated to current coordinates.
 JPrj=2 DoOrth=T DoCkMO=T.
 Generating alternative initial guess.
 ExpMin= 7.41D-02 ExpMax= 1.48D+04 ExpMxC= 5.05D+02 IAcc=2 IRadAn=         4 AccDes= 0.00D+00
 Harris functional with IExCor=32609 and IRadAn=       4 diagonalized for initial guess.
 HarFok:  IExCor=32609 AccDes= 0.00D+00 IRadAn=         4 IDoV= 1 UseB2=F ITyADJ=14
 ICtDFT=  3500011 ScaDFX=  1.000000  1.000000  1.000000  1.000000
 FoFCou: FMM=F IPFlag=           0 FMFlag=      100000 FMFlg1=           0
         NFxFlg=           0 DoJE=T BraDBF=F KetDBF=T FulRan=T
         wScrn=  0.000000 ICntrl=     500 IOpCl=  0 I1Cent=   200000004 NGrid=           0
         NMat0=    1 NMatS0=      1 NMatT0=    0 NMatD0=    1 NMtDS0=    0 NMtDT0=    0
 Petite list used in FoFCou.
 Harris En= -323.408547171582    
 Leave Link  401 at Fri Aug 27 21:24:33 2021, MaxMem= 17179869184 cpu:        64.6
 (Enter /public3/home/sc51754/softwares/g09e01/l502.exe)
 Closed shell SCF:
 Using DIIS extrapolation, IDIIS=  1040.
 Integral symmetry usage will be decided dynamically.
 Keep R1 ints in memory in canonical form, NReq=1564561414.
 IVT=      348554 IEndB=      348554 NGot= 17179869184 MDV= 15631845691
 LenX= 15631845691 LenY= 15631742850
 Requested convergence on RMS density matrix=1.00D-08 within 128 cycles.
 Requested convergence on MAX density matrix=1.00D-06.
 Requested convergence on             energy=1.00D-06.
 No special actions if energy rises.
 FoFCou: FMM=F IPFlag=           0 FMFlag=           0 FMFlg1=           0
         NFxFlg=           0 DoJE=F BraDBF=F KetDBF=F FulRan=T
         wScrn=  0.000000 ICntrl=     600 IOpCl=  0 I1Cent=           0 NGrid=           0
         NMat0=    1 NMatS0=  39340 NMatT0=    0 NMatD0=    1 NMtDS0=    0 NMtDT0=    0
 Symmetry not used in FoFCou.
 Integral accuracy reduced to 1.0D-05 until final iterations.

 Cycle   1  Pass 0  IDiag  1:
 E= -323.416480327135    
 DIIS: error= 1.48D-03 at cycle   1 NSaved=   1.
 NSaved= 1 IEnMin= 1 EnMin= -323.416480327135     IErMin= 1 ErrMin= 1.48D-03
 ErrMax= 1.48D-03  0.00D+00 EMaxC= 1.00D-01 BMatC= 4.61D-04 BMatP= 4.61D-04
 IDIUse=3 WtCom= 9.85D-01 WtEn= 1.48D-02
 Coeff-Com:  0.100D+01
 Coeff-En:   0.100D+01
 Coeff:      0.100D+01
 Gap=     0.847 Goal=   None    Shift=    0.000
 GapD=    0.847 DampG=2.000 DampE=1.000 DampFc=2.0000 IDamp=-1.
 RMSDP=6.87D-05 MaxDP=2.09D-03              OVMax= 3.81D-03

 Cycle   2  Pass 0  IDiag  1:
 E= -323.416856112999     Delta-E=       -0.000375785864 Rises=F Damp=F
 DIIS: error= 3.65D-04 at cycle   2 NSaved=   2.
 NSaved= 2 IEnMin= 2 EnMin= -323.416856112999     IErMin= 2 ErrMin= 3.65D-04
 ErrMax= 3.65D-04  0.00D+00 EMaxC= 1.00D-01 BMatC= 3.78D-05 BMatP= 4.61D-04
 IDIUse=3 WtCom= 9.96D-01 WtEn= 3.65D-03
 Coeff-Com:  0.110D+00 0.890D+00
 Coeff-En:   0.000D+00 0.100D+01
 Coeff:      0.110D+00 0.890D+00
 Gap=     0.429 Goal=   None    Shift=    0.000
 RMSDP=3.12D-05 MaxDP=1.69D-03 DE=-3.76D-04 OVMax= 1.93D-03

 Cycle   3  Pass 0  IDiag  1:
 E= -323.416888074503     Delta-E=       -0.000031961504 Rises=F Damp=F
 DIIS: error= 2.51D-04 at cycle   3 NSaved=   3.
 NSaved= 3 IEnMin= 3 EnMin= -323.416888074503     IErMin= 3 ErrMin= 2.51D-04
 ErrMax= 2.51D-04  0.00D+00 EMaxC= 1.00D-01 BMatC= 8.62D-06 BMatP= 3.78D-05
 IDIUse=3 WtCom= 9.97D-01 WtEn= 2.51D-03
 Coeff-Com: -0.359D-01 0.280D+00 0.755D+00
 Coeff-En:   0.000D+00 0.000D+00 0.100D+01
 Coeff:     -0.358D-01 0.280D+00 0.756D+00
 Gap=     0.429 Goal=   None    Shift=    0.000
 RMSDP=7.96D-06 MaxDP=3.03D-04 DE=-3.20D-05 OVMax= 6.82D-04

 Initial convergence to 1.0D-05 achieved.  Increase integral accuracy.
 Cycle   4  Pass 1  IDiag  1:
 E= -323.416854184701     Delta-E=        0.000033889803 Rises=F Damp=F
 DIIS: error= 4.92D-05 at cycle   1 NSaved=   1.
 NSaved= 1 IEnMin= 1 EnMin= -323.416854184701     IErMin= 1 ErrMin= 4.92D-05
 ErrMax= 4.92D-05  0.00D+00 EMaxC= 1.00D-01 BMatC= 7.50D-07 BMatP= 7.50D-07
 IDIUse=1 WtCom= 1.00D+00 WtEn= 0.00D+00
 Coeff-Com:  0.100D+01
 Coeff:      0.100D+01
 Gap=     0.429 Goal=   None    Shift=    0.000
 RMSDP=7.96D-06 MaxDP=3.03D-04 DE= 3.39D-05 OVMax= 3.01D-04

 Cycle   5  Pass 1  IDiag  1:
 E= -323.416854254992     Delta-E=       -0.000000070291 Rises=F Damp=F
 DIIS: error= 6.90D-05 at cycle   2 NSaved=   2.
 NSaved= 2 IEnMin= 2 EnMin= -323.416854254992     IErMin= 1 ErrMin= 4.92D-05
 ErrMax= 6.90D-05  0.00D+00 EMaxC= 1.00D-01 BMatC= 7.20D-07 BMatP= 7.50D-07
 IDIUse=1 WtCom= 1.00D+00 WtEn= 0.00D+00
 Coeff-Com:  0.494D+00 0.506D+00
 Coeff:      0.494D+00 0.506D+00
 Gap=     0.429 Goal=   None    Shift=    0.000
 RMSDP=1.86D-06 MaxDP=1.03D-04 DE=-7.03D-08 OVMax= 2.00D-04

 Cycle   6  Pass 1  IDiag  1:
 E= -323.416854825095     Delta-E=       -0.000000570103 Rises=F Damp=F
 DIIS: error= 4.20D-06 at cycle   3 NSaved=   3.
 NSaved= 3 IEnMin= 3 EnMin= -323.416854825095     IErMin= 3 ErrMin= 4.20D-06
 ErrMax= 4.20D-06  0.00D+00 EMaxC= 1.00D-01 BMatC= 8.92D-09 BMatP= 7.20D-07
 IDIUse=1 WtCom= 1.00D+00 WtEn= 0.00D+00
 Coeff-Com: -0.470D-01 0.357D-01 0.101D+01
 Coeff:     -0.470D-01 0.357D-01 0.101D+01
 Gap=     0.429 Goal=   None    Shift=    0.000
 RMSDP=6.96D-07 MaxDP=3.32D-05 DE=-5.70D-07 OVMax= 5.95D-05

 Cycle   7  Pass 1  IDiag  1:
 E= -323.416854838595     Delta-E=       -0.000000013500 Rises=F Damp=F
 DIIS: error= 3.09D-06 at cycle   4 NSaved=   4.
 NSaved= 4 IEnMin= 4 EnMin= -323.416854838595     IErMin= 4 ErrMin= 3.09D-06
 ErrMax= 3.09D-06  0.00D+00 EMaxC= 1.00D-01 BMatC= 1.65D-09 BMatP= 8.92D-09
 IDIUse=1 WtCom= 1.00D+00 WtEn= 0.00D+00
 Coeff-Com: -0.554D-01-0.260D-01 0.341D+00 0.741D+00
 Coeff:     -0.554D-01-0.260D-01 0.341D+00 0.741D+00
 Gap=     0.429 Goal=   None    Shift=    0.000
 RMSDP=2.26D-07 MaxDP=9.39D-06 DE=-1.35D-08 OVMax= 1.86D-05

 Cycle   8  Pass 1  IDiag  1:
 E= -323.416854840656     Delta-E=       -0.000000002061 Rises=F Damp=F
 DIIS: error= 1.26D-06 at cycle   5 NSaved=   5.
 NSaved= 5 IEnMin= 5 EnMin= -323.416854840656     IErMin= 5 ErrMin= 1.26D-06
 ErrMax= 1.26D-06  0.00D+00 EMaxC= 1.00D-01 BMatC= 2.05D-10 BMatP= 1.65D-09
 IDIUse=1 WtCom= 1.00D+00 WtEn= 0.00D+00
 Coeff-Com: -0.112D-01-0.127D-01-0.477D-01 0.242D+00 0.830D+00
 Coeff:     -0.112D-01-0.127D-01-0.477D-01 0.242D+00 0.830D+00
 Gap=     0.429 Goal=   None    Shift=    0.000
 RMSDP=9.87D-08 MaxDP=4.81D-06 DE=-2.06D-09 OVMax= 7.37D-06

 Cycle   9  Pass 1  IDiag  1:
 E= -323.416854840955     Delta-E=       -0.000000000299 Rises=F Damp=F
 DIIS: error= 1.55D-07 at cycle   6 NSaved=   6.
 NSaved= 6 IEnMin= 6 EnMin= -323.416854840955     IErMin= 6 ErrMin= 1.55D-07
 ErrMax= 1.55D-07  0.00D+00 EMaxC= 1.00D-01 BMatC= 9.53D-12 BMatP= 2.05D-10
 IDIUse=1 WtCom= 1.00D+00 WtEn= 0.00D+00
 Coeff-Com:  0.115D-02-0.611D-03-0.325D-01 0.721D-02 0.182D+00 0.843D+00
 Coeff:      0.115D-02-0.611D-03-0.325D-01 0.721D-02 0.182D+00 0.843D+00
 Gap=     0.429 Goal=   None    Shift=    0.000
 RMSDP=2.15D-08 MaxDP=7.91D-07 DE=-2.99D-10 OVMax= 1.46D-06

 Cycle  10  Pass 1  IDiag  1:
 E= -323.416854840961     Delta-E=       -0.000000000005 Rises=F Damp=F
 DIIS: error= 1.21D-07 at cycle   7 NSaved=   7.
 NSaved= 7 IEnMin= 7 EnMin= -323.416854840961     IErMin= 7 ErrMin= 1.21D-07
 ErrMax= 1.21D-07  0.00D+00 EMaxC= 1.00D-01 BMatC= 3.09D-12 BMatP= 9.53D-12
 IDIUse=1 WtCom= 1.00D+00 WtEn= 0.00D+00
 Coeff-Com:  0.177D-02 0.117D-02-0.109D-01-0.217D-01-0.246D-02 0.395D+00
 Coeff-Com:  0.637D+00
 Coeff:      0.177D-02 0.117D-02-0.109D-01-0.217D-01-0.246D-02 0.395D+00
 Coeff:      0.637D+00
 Gap=     0.429 Goal=   None    Shift=    0.000
 RMSDP=6.48D-09 MaxDP=3.16D-07 DE=-5.12D-12 OVMax= 5.45D-07

 SCF Done:  E(RLC-wPBE) =  -323.416854841     A.U. after   10 cycles
            NFock= 10  Conv=0.65D-08     -V/T= 2.0036
 KE= 3.222649414747D+02 PE=-1.308106754646D+03 EE= 3.858547907367D+02
 Leave Link  502 at Fri Aug 27 21:24:42 2021, MaxMem= 17179869184 cpu:       234.8
 (Enter /public3/home/sc51754/softwares/g09e01/l701.exe)
 Compute integral first derivatives.
 ... and contract with generalized density number  0.
 Leave Link  701 at Fri Aug 27 21:24:44 2021, MaxMem= 17179869184 cpu:        60.9
 (Enter /public3/home/sc51754/softwares/g09e01/l702.exe)
 L702 exits ... SP integral derivatives will be done elsewhere.
 Leave Link  702 at Fri Aug 27 21:24:44 2021, MaxMem= 17179869184 cpu:         0.3
 (Enter /public3/home/sc51754/softwares/g09e01/l703.exe)
 Compute integral first derivatives, UseDBF=F ICtDFT=           0.
 Integral derivatives from FoFJK, PRISM(SPDF).
 Calling FoFJK, ICntrl=      2127 FMM=F ISym2X=0 I1Cent= 0 IOpClX= 0 NMat=1 NMatS=1 NMatT=0.
 FoFJK:  IHMeth= 1 ICntrl=    2127 DoSepK=T KAlg= 0 I1Cent=   0 FoldK=F
 IRaf=         1 NMat=   1 IRICut=       1 DoRegI=T DoRafI=F ISym2E= 0.
 FoFCou: FMM=F IPFlag=           0 FMFlag=      100000 FMFlg1=         800
         NFxFlg=           0 DoJE=F BraDBF=F KetDBF=F FulRan=T
         wScrn=  0.000000 ICntrl=    2527 IOpCl=  0 I1Cent=           0 NGrid=           0
         NMat0=    1 NMatS0=      1 NMatT0=    0 NMatD0=    1 NMtDS0=    0 NMtDT0=    0
 Symmetry not used in FoFCou.
 Leave Link  703 at Fri Aug 27 21:24:47 2021, MaxMem= 17179869184 cpu:       218.5
 (Enter /public3/home/sc51754/softwares/g09e01/l716.exe)
 Dipole        = 9.32598491D-01 5.23366900D-01-1.56281616D-04
 ***** Axes restored to original set *****
 -------------------------------------------------------------------
 Center     Atomic                   Forces (Hartrees/Bohr)
 Number     Number              X              Y              Z
 -------------------------------------------------------------------
      1        6           0.002506402    0.001206865   -0.000023353
      2        6          -0.000549287    0.001209189    0.000006496
      3        6          -0.002506044   -0.000948086   -0.000000411
      4        6          -0.000479614   -0.001075809   -0.000015834
      5        6           0.002489816   -0.001117069    0.000055375
      6        7          -0.001270012    0.000045254   -0.000012084
      7        1           0.000161405    0.000688345    0.000008787
      8        1          -0.000031434    0.000247731    0.000001616
      9        1          -0.000035626   -0.000217674   -0.000001637
     10        1           0.000151973   -0.000643683   -0.000019011
     11        8          -0.000022512    0.001163007    0.000001345
     12        1          -0.000415066   -0.000558070   -0.000001287
 -------------------------------------------------------------------
 Cartesian Forces:  Max     0.002506402 RMS     0.000913184
 Leave Link  716 at Fri Aug 27 21:24:47 2021, MaxMem= 17179869184 cpu:         0.3
 (Enter /public3/home/sc51754/softwares/g09e01/l103.exe)

 GradGradGradGradGradGradGradGradGradGradGradGradGradGradGradGradGradGrad
 Berny optimization.
 Using GEDIIS/GDIIS optimizer.
 FormGI is forming the generalized inverse of G from B-inverse, IUseBI=4.
 Internal  Forces:  Max     0.002463264 RMS     0.000745466
 Search for a local minimum.
 Step number   2 out of a maximum of   61
 All quantities printed in internal units (Hartrees-Bohrs-Radians)
 RMS Force = .74547D-03 SwitMx=.10000D-02 MixMth= 2
 Mixed Optimization -- En-DIIS/RFO-DIIS
 Update second derivatives using D2CorX and points    1    2
 DE= -1.38D-03 DEPred=-1.53D-03 R= 9.02D-01
 TightC=F SS=  1.41D+00  RLast= 7.87D-02 DXNew= 5.0454D-01 2.3608D-01
 Trust test= 9.02D-01 RLast= 7.87D-02 DXMaxT set to 3.00D-01
 ITU=  1  0
 Use linear search instead of GDIIS.
     Eigenvalues ---    0.02120   0.02139   0.02144   0.02163   0.02210
     Eigenvalues ---    0.02238   0.02269   0.02294   0.02415   0.15920
     Eigenvalues ---    0.16000   0.16000   0.16000   0.16012   0.22001
     Eigenvalues ---    0.22831   0.23824   0.24962   0.34981   0.35055
     Eigenvalues ---    0.35172   0.35505   0.42352   0.44684   0.46131
     Eigenvalues ---    0.49754   0.53261   0.53726   0.56302   0.57297
 RFO step:  Lambda=-3.48103073D-05 EMin= 2.11971838D-02
 Quartic linear search produced a step of -0.09379.
 Iteration  1 RMS(Cart)=  0.00279692 RMS(Int)=  0.00000408
 Iteration  2 RMS(Cart)=  0.00000394 RMS(Int)=  0.00000075
 Iteration  3 RMS(Cart)=  0.00000000 RMS(Int)=  0.00000075
 ITry= 1 IFail=0 DXMaxC= 1.17D-02 DCOld= 1.00D+10 DXMaxT= 3.00D-01 DXLimC= 3.00D+00 Rises=F
 Variable       Old X    -DE/DX   Delta X   Delta X   Delta X     New X
                                 (Linear)    (Quad)   (Total)
    R1        2.60468   0.00199   0.00280   0.00057   0.00338   2.60806
    R2        2.50020   0.00075   0.00264  -0.00194   0.00070   2.50091
    R3        2.04985   0.00067   0.00069   0.00092   0.00161   2.05146
    R4        2.61027   0.00246   0.00300   0.00140   0.00440   2.61466
    R5        2.04701   0.00023   0.00072  -0.00026   0.00046   2.04747
    R6        2.61091   0.00223   0.00295   0.00100   0.00394   2.61486
    R7        2.54994   0.00040   0.00165  -0.00125   0.00040   2.55035
    R8        2.59835   0.00201   0.00286   0.00050   0.00335   2.60171
    R9        2.04221   0.00021   0.00063  -0.00021   0.00041   2.04262
   R10        2.50806   0.00087   0.00257  -0.00166   0.00091   2.50897
   R11        2.04958   0.00062   0.00068   0.00080   0.00148   2.05106
[...]
 Variable       Old X    -DE/DX   Delta X   Delta X   Delta X     New X
                                 (Linear)    (Quad)   (Total)
    R1        2.60806   0.00032   0.00000   0.00057   0.00057   2.60863
    R2        2.50091  -0.00023   0.00000  -0.00042  -0.00042   2.50049
    R3        2.05146  -0.00002   0.00000  -0.00005  -0.00005   2.05141
    R4        2.61466   0.00007   0.00000   0.00032   0.00032   2.61498
    R5        2.04747   0.00007   0.00000   0.00022   0.00022   2.04769
    R6        2.61486  -0.00006   0.00000  -0.00007  -0.00007   2.61479
    R7        2.55035  -0.00042   0.00000  -0.00096  -0.00096   2.54939
    R8        2.60171   0.00037   0.00000   0.00080   0.00080   2.60251
    R9        2.04262   0.00008   0.00000   0.00023   0.00023   2.04285
   R10        2.50897  -0.00029   0.00000  -0.00071  -0.00071   2.50826
   R11        2.05106  -0.00002   0.00000  -0.00004  -0.00004   2.05102
   R12        1.81336  -0.00005   0.00000  -0.00006  -0.00006   1.81330
    A1        2.16751   0.00000   0.00000  -0.00013  -0.00013   2.16737
    A2        2.08638  -0.00002   0.00000  -0.00023  -0.00023   2.08615
    A3        2.02930   0.00002   0.00000   0.00037   0.00037   2.02967
    A4        2.06233   0.00002   0.00000   0.00022   0.00022   2.06255
    A5        2.10246   0.00005   0.00000   0.00032   0.00032   2.10277
    A6        2.11840  -0.00006   0.00000  -0.00054  -0.00054   2.11786
    A7        2.07023  -0.00010   0.00000  -0.00041  -0.00041   2.06982
    A8        2.14672   0.00010   0.00000   0.00029   0.00029   2.14702
    A9        2.06623  -0.00000   0.00000   0.00012   0.00012   2.06635
   A10        2.06075  -0.00001   0.00000   0.00006   0.00006   2.06081
   A11        2.09949  -0.00002   0.00000  -0.00008  -0.00008   2.09940
   A12        2.12295   0.00003   0.00000   0.00002   0.00002   2.12297
   A13        2.17011   0.00005   0.00000   0.00009   0.00009   2.17021
   A14        2.08723  -0.00005   0.00000  -0.00048  -0.00048   2.08675
   A15        2.02584   0.00000   0.00000   0.00038   0.00038   2.02622
   A16        2.03544   0.00004   0.00000   0.00017   0.00017   2.03560
   A17        1.91994  -0.00012   0.00000  -0.00038  -0.00038   1.91955
    D1       -0.00007   0.00000   0.00000   0.00007   0.00007  -0.00000
    D2        3.14155   0.00000   0.00000   0.00004   0.00004   3.14159
    D3       -3.14156  -0.00000   0.00000  -0.00004  -0.00004  -3.14159
    D4        0.00006  -0.00000   0.00000  -0.00006  -0.00006   0.00000
    D5        0.00001  -0.00000   0.00000  -0.00001  -0.00001   0.00000
    D6        3.14151   0.00000   0.00000   0.00009   0.00009   3.14159
    D7        0.00004  -0.00000   0.00000  -0.00004  -0.00004  -0.00000
    D8       -3.14156  -0.00000   0.00000  -0.00003  -0.00003   3.14159
    D9       -3.14158  -0.00000   0.00000  -0.00002  -0.00002   3.14159
   D10        0.00001  -0.00000   0.00000  -0.00001  -0.00001  -0.00000
   D11        0.00003  -0.00000   0.00000  -0.00003  -0.00003   0.00000
   D12       -3.14158  -0.00000   0.00000  -0.00001  -0.00001  -3.14159
   D13       -3.14155  -0.00000   0.00000  -0.00004  -0.00004  -3.14159
   D14        0.00002  -0.00000   0.00000  -0.00002  -0.00002   0.00000
   D15       -0.00012   0.00000   0.00000   0.00012   0.00012   0.00000
   D16        3.14146   0.00000   0.00000   0.00013   0.00013  -3.14159
   D17       -0.00009   0.00000   0.00000   0.00009   0.00009   0.00000
   D18       -3.14152  -0.00000   0.00000  -0.00007  -0.00007  -3.14159
   D19        3.14152   0.00000   0.00000   0.00007   0.00007  -3.14159
   D20        0.00009  -0.00000   0.00000  -0.00009  -0.00009   0.00000
   D21        0.00007  -0.00000   0.00000  -0.00007  -0.00007  -0.00000
   D22        3.14150   0.00000   0.00000   0.00009   0.00009   3.14159
         Item               Value     Threshold  Converged?
 Maximum Force            0.000417     0.000450     YES
 RMS     Force            0.000111     0.000300     YES
 Maximum Displacement     0.000826     0.001800     YES
 RMS     Displacement     0.000244     0.001200     YES
 Predicted change in Energy=-7.364013D-07
 Optimization completed.
    -- Stationary point found.
                           ----------------------------
                           !   Optimized Parameters   !
                           ! (Angstroms and Degrees)  !
 --------------------------                            --------------------------
 ! Name  Definition              Value          Derivative Info.                !
 --------------------------------------------------------------------------------
 ! R1    R(1,2)                  1.3801         -DE/DX =    0.0003              !
 ! R2    R(1,6)                  1.3234         -DE/DX =   -0.0002              !
 ! R3    R(1,7)                  1.0856         -DE/DX =    0.0                 !
 ! R4    R(2,3)                  1.3836         -DE/DX =    0.0001              !
 ! R5    R(2,8)                  1.0835         -DE/DX =    0.0001              !
 ! R6    R(3,4)                  1.3837         -DE/DX =   -0.0001              !
 ! R7    R(3,11)                 1.3496         -DE/DX =   -0.0004              !
 ! R8    R(4,5)                  1.3768         -DE/DX =    0.0004              !
 ! R9    R(4,9)                  1.0809         -DE/DX =    0.0001              !
 ! R10   R(5,6)                  1.3277         -DE/DX =   -0.0003              !
 ! R11   R(5,10)                 1.0854         -DE/DX =    0.0                 !
 ! R12   R(11,12)                0.9596         -DE/DX =    0.0                 !
 ! A1    A(2,1,6)              124.1889         -DE/DX =    0.0                 !
 ! A2    A(2,1,7)              119.5408         -DE/DX =    0.0                 !
 ! A3    A(6,1,7)              116.2703         -DE/DX =    0.0                 !
 ! A4    A(1,2,3)              118.1629         -DE/DX =    0.0                 !
 ! A5    A(1,2,8)              120.4619         -DE/DX =    0.0                 !
 ! A6    A(3,2,8)              121.3752         -DE/DX =   -0.0001              !
 ! A7    A(2,3,4)              118.6156         -DE/DX =   -0.0001              !
 ! A8    A(2,3,11)             122.9982         -DE/DX =    0.0001              !
 ! A9    A(4,3,11)             118.3862         -DE/DX =    0.0                 !
 ! A10   A(3,4,5)              118.0723         -DE/DX =    0.0                 !
 ! A11   A(3,4,9)              120.2917         -DE/DX =    0.0                 !
 ! A12   A(5,4,9)              121.636          -DE/DX =    0.0                 !
 ! A13   A(4,5,6)              124.3384         -DE/DX =    0.0001              !
 ! A14   A(4,5,10)             119.5894         -DE/DX =   -0.0001              !
 ! A15   A(6,5,10)             116.0721         -DE/DX =    0.0                 !
 ! A16   A(1,6,5)              116.6219         -DE/DX =    0.0                 !
 ! A17   A(3,11,12)            110.0042         -DE/DX =   -0.0001              !
 ! D1    D(6,1,2,3)             -0.0037         -DE/DX =    0.0                 !
 ! D2    D(6,1,2,8)            179.9977         -DE/DX =    0.0                 !
 ! D3    D(7,1,2,3)           -179.998          -DE/DX =    0.0                 !
 ! D4    D(7,1,2,8)              0.0035         -DE/DX =    0.0                 !
 ! D5    D(2,1,6,5)              0.0007         -DE/DX =    0.0                 !
 ! D6    D(7,1,6,5)            179.9951         -DE/DX =    0.0                 !
 ! D7    D(1,2,3,4)              0.0024         -DE/DX =    0.0                 !
 ! D8    D(1,2,3,11)           180.0018         -DE/DX =    0.0                 !
 ! D9    D(8,2,3,4)            180.0009         -DE/DX =    0.0                 !
 ! D10   D(8,2,3,11)             0.0004         -DE/DX =    0.0                 !
 ! D11   D(2,3,4,5)              0.0016         -DE/DX =    0.0                 !
 ! D12   D(2,3,4,9)           -179.9992         -DE/DX =    0.0                 !
 ! D13   D(11,3,4,5)          -179.9978         -DE/DX =    0.0                 !
 ! D14   D(11,3,4,9)             0.0014         -DE/DX =    0.0                 !
 ! D15   D(2,3,11,12)           -0.007          -DE/DX =    0.0                 !
 ! D16   D(4,3,11,12)         -180.0076         -DE/DX =    0.0                 !
 ! D17   D(3,4,5,6)             -0.005          -DE/DX =    0.0                 !
 ! D18   D(3,4,5,10)          -179.9958         -DE/DX =    0.0                 !
 ! D19   D(9,4,5,6)           -180.0042         -DE/DX =    0.0                 !
 ! D20   D(9,4,5,10)             0.005          -DE/DX =    0.0                 !
 ! D21   D(4,5,6,1)              0.0039         -DE/DX =    0.0                 !
 ! D22   D(10,5,6,1)           179.995          -DE/DX =    0.0                 !
 --------------------------------------------------------------------------------
 GradGradGradGradGradGradGradGradGradGradGradGradGradGradGradGradGradGrad

 Leave Link  103 at Fri Aug 27 21:26:00 2021, MaxMem= 17179869184 cpu:        43.4
 (Enter /public3/home/sc51754/softwares/g09e01/l9999.exe)
 1\1\GINC-P1908\Freq\RLC-wPBE\Gen\C5H5N1O1\SC51754\27-Aug-2021\0\\#P Ge
 om=AllCheck Guess=TCheck SCRF=Check GenChk RLC-wPBE/ChkBas Freq\\4HY_L
 C-wPBE_PC2_OPT_FREQ\\0,1\C,1.1404079767,1.1428436491,-0.0000506295\C,-
 0.2392857026,1.1772878958,0.0000167395\C,-0.9225673736,-0.0258467506,-
 0.0000318351\C,-0.1935837247,-1.2019718878,-0.0000944992\C,1.180281307
 6,-1.1126681027,-0.0000706083\N,1.856516879,0.0299044094,-0.000087614\
 H,1.6990533296,2.0736563335,0.0000188931\H,-0.7650902926,2.124624694,0
 .0000817596\H,-0.6996538799,-2.1570920295,-0.0001464919\H,1.7763127892
 ,-2.0197442969,-0.0001869535\O,-2.2697699955,-0.1060087183,-0.00000938
 21\H,-2.6510133133,0.7745938041,0.0001536215\\Version=EM64L-G09RevE.01
 \State=1-A\HF=-323.4168881\RMSD=2.524e-09\RMSF=1.921e-04\ZeroPoint=0.0
 948638\Thermal=0.1001137\Dipole=-0.9326705,0.524865,0.0001134\DipoleDe
 riv=0.4769423,0.0267425,-0.0000216,-0.0359187,0.3843546,0.0000214,0.00
 0008,0.0000407,0.0106888,-0.4886706,-0.135621,0.0000049,-0.3135428,-0.
 1696258,0.000016,-0.0000185,-0.0000044,-0.1775867,1.6620423,-0.0030562
 ,-0.0000294,-0.0179344,0.3965279,-0.0000119,-0.0000321,-0.0000091,0.13
 95069,-0.4868929,0.1460518,0.0000126,0.2980738,-0.1522098,0.0000059,0.
 0000372,0.0000038,-0.1667287,0.4943362,-0.0536528,0.0000002,0.057827,0
 .3910986,0.000019,-0.0000351,0.0000425,0.0073235,-0.6215108,0.0147975,
 0.0000057,-0.0164728,-0.6778047,-0.0000325,0.000008,-0.000004,-0.29636
 1,0.0475323,-0.0692548,0.0000012,-0.0511594,-0.0634921,-0.0000042,-0.0
 000122,-0.0000281,0.1030408,0.0102177,0.0758702,0.0000102,0.0707242,-0
 .0155344,-0.0000102,0.0000123,-0.000008,0.1568613,0.062061,-0.047625,-
 0.0000034,-0.044149,0.0049297,-0.0000056,-0.0000077,-0.0000067,0.15622
 73,0.0444796,0.0753532,0.0000022,0.0542941,-0.0551506,-0.000005,0.0000
 222,-0.0000386,0.1044144,-1.5956505,0.0304375,0.0000311,0.0408431,-0.2
 162492,0.0000289,0.0000101,0.0000327,-0.3687567,0.3951133,-0.060043,-0
 .0000138,-0.0425851,0.1731559,-0.0000217,0.0000078,-0.0000208,0.331370
 1\Polar=77.8385256,-1.1132551,73.3805377,-0.0009579,0.0014791,37.25153
 64\PG=C01 [X(C5H5N1O1)]\NImag=0\\0.72188346,0.03721810,0.77538126,-0.0
 0000962,0.00002847,0.17274388,-0.35247225,-0.04871633,0.00001101,0.731
 78156,0.04185026,-0.14358169,-0.00000501,-0.03646136,0.75749335,0.0000
 1556,-0.00000219,-0.07056699,-0.00002278,0.00003432,0.12596783,-0.0279
 6393,-0.03631220,-0.00000119,-0.17243964,-0.12113952,-0.00000277,0.745
 46676,-0.11030935,0.06441772,0.00000531,-0.02831544,-0.30851867,-0.000
 01345,-0.01126250,0.74645660,-0.00000250,0.00000399,0.00331296,-0.0000
 0117,-0.00001117,-0.07367660,-0.00001334,0.00003346,0.17977993,-0.0709
 6155,0.05086311,0.00000352,0.07689532,0.02656417,-0.00000177,-0.170130
 85,0.03691898,0.00000469,0.74504668,0.02962344,-0.02419072,-0.00000104
 ,-0.02257752,-0.04933191,-0.00000164,0.12544889,-0.30462056,-0.0000137
 2,0.04126061,0.76668471,0.00000142,-0.00000073,-0.00815181,-0.00000072
 ,-0.00000276,0.01028849,0.00000562,-0.00001218,-0.07546434,0.00000267,
 0.00003250,0.12977996,0.07742234,-0.03506369,-0.00000352,-0.06783205,-
 0.02920137,0.00000094,-0.03664773,0.10322408,0.00000332,-0.36269043,-0
 .05149908,-0.00000765,0.73308423,0.04198767,-0.10543132,-0.00000374,-0
 .05304091,-0.02704000,0.00000119,0.02982793,0.07120340,0.00000307,0.03
 891488,-0.14770104,-0.00000489,-0.04285361,0.76499105,-0.00000060,-0.0
 0000274,0.00508292,-0.00000009,0.00000087,-0.00855103,0.00000225,-0.00
 000047,0.00325019,-0.00000218,-0.00000326,-0.07052714,-0.00001787,0.00
 003161,0.17371411,-0.20380326,0.13588744,0.00000643,-0.03397902,0.0314
 8006,0.00000250,0.01274738,0.00385364,-0.00000040,-0.02716635,-0.03535
 294,0.00000067,-0.19360589,-0.12749272,0.00000208,0.43878341,0.0834951
 9,-0.30211165,-0.00000791,0.11608006,0.04354780,-0.00000208,0.00471633
 ,-0.12191917,-0.00000463,-0.11792336,0.03995576,0.00000328,-0.07505275
 ,-0.30190312,-0.00000071,-0.00946392,0.68991187,0.00000288,-0.00000735
 ,-0.07480108,0.00000512,-0.00000122,0.02517930,-0.00000049,-0.00000170
 ,-0.00972221,-0.00000304,0.00000019,0.02439351,0.00000668,0.00000286,-
 0.07484325,-0.00001075,0.00001004,0.10121003,-0.14336840,-0.13006283,-
 0.00000773,-0.01072971,-0.02688842,-0.00000147,-0.00513357,0.00143023,
 0.00000038,-0.00069304,0.00102898,0.00000001,0.00070894,0.00472850,0.0
 0000014,0.01415909,0.01967035,0.00000063,0.14504150,-0.12893693,-0.252
 66020,-0.00001405,0.00240601,0.00395864,-0.00000054,0.00130671,0.00116
 015,-0.00000063,0.00013311,0.00025239,0.00000009,0.00236290,-0.0027166
 2,-0.00000103,-0.00686034,-0.03153321,-0.00000085,0.13099383,0.2816679
 1,-0.00000882,-0.00001724,-0.04646579,0.00000109,0.00000109,0.00826587
 ,0.00000077,0.,0.00814939,0.00000085,-0.00000047,-0.00097239,-0.000001
 01,-0.00000097,0.01045192,-0.00000101,0.00000066,-0.00244112,0.0000081
 8,0.00001643,0.02865004,-0.00627366,0.03067568,0.00000138,-0.12592685,
 0.11969303,0.00000962,0.00879814,-0.01453451,-0.00000093,-0.00043326,-
 0.00347967,0.00000003,-0.00157052,-0.00201822,0.00000001,-0.00683029,0
 .00060224,0.00000058,0.00070679,-0.00044045,-0.00000025,0.12762047,-0.
 00212911,0.00346852,0.00000024,0.12026514,-0.28089848,-0.00001618,0.01
 872104,-0.01715761,-0.00000146,-0.00367670,-0.00334323,-0.00000050,-0.
 00141516,-0.00008560,0.,-0.00039975,0.00226019,-0.00000033,0.00042429,
 0.00051810,0.00000018,-0.13085836,0.29414733,0.00000080,-0.00000160,0.
 00078093,0.00000861,-0.00001577,-0.03353358,0.00000097,-0.00000065,0.0
 0404994,-0.00000004,-0.00000052,0.00588878,-0.00000002,0.00000017,-0.0
 0028953,0.00000024,0.00000005,0.00814215,0.,0.00000038,-0.00372205,-0.
 00001028,0.00001753,0.02339006,-0.00150534,0.00186223,0.00000003,-0.00
 118374,0.00333316,0.00000009,0.01171982,0.01603608,0.00000073,-0.12245
 631,-0.12136049,-0.00000721,-0.00512817,-0.02950506,-0.00000109,-0.006
 40703,-0.00081773,-0.00000003,0.00009220,-0.00019480,0.00000003,0.0004
 9091,0.00084031,0.,0.12205370,0.00135525,0.00001249,-0.00000006,0.0034
 9452,-0.00303920,-0.00000058,-0.01677840,-0.01775350,-0.00000096,-0.11
 981209,-0.29244125,-0.00001336,0.00214668,0.00383022,0.00000018,0.0004
 7443,0.00219493,-0.00000040,-0.00006009,-0.00000193,0.00000008,-0.0006
 5327,-0.00082391,-0.00000002,0.13095609,0.30509090,0.00000008,0.000000
 13,-0.00028345,0.00000017,-0.00000062,0.00588698,-0.00000093,-0.000000
 80,0.00510120,-0.00000599,-0.00001363,-0.03572012,-0.00000070,-0.00000
 065,0.00085420,0.00000052,0.00000014,0.00843650,0.00000001,0.00000008,
 -0.00132351,0.,-0.00000003,0.00008192,0.00000737,0.00001451,0.02502755
 ,0.00102156,-0.00466960,0.00000052,-0.00072257,-0.00104997,-0.00000003
 ,-0.00483761,-0.00150369,0.00000030,-0.01158429,0.02638414,0.00000275,
 -0.15398727,0.13425905,0.00001604,0.01438812,-0.01792099,-0.00000163,0
 .00030379,-0.00046586,0.00000004,0.00008369,0.00006110,-0.00000010,0.0
 0073576,-0.00046786,-0.00000030,0.15599869,-0.00223398,-0.00310234,-0.
 00000084,-0.00016139,0.00027933,0.00000010,-0.00154687,0.00097427,-0.0
 0000076,-0.00306325,0.00498792,-0.00000061,0.13309599,-0.24264156,-0.0
 0002360,0.00882210,-0.03157558,-0.00000151,0.00050659,-0.00074874,0.00
 000002,0.00020822,-0.00001138,0.00000008,0.00045264,0.00048332,0.00000
 048,-0.13628827,0.27110738,0.00000137,-0.00000027,0.01012404,-0.000000
 43,-0.00000053,-0.00093245,-0.00000031,-0.00000031,0.00855624,-0.00000
 123,0.00000032,0.00846691,0.00001881,-0.00002817,-0.04708070,-0.000000
 23,0.00000180,-0.00214029,-0.00000006,0.00000007,0.00018330,-0.0000000
 6,0.00000008,-0.00127936,0.00000014,0.00000024,-0.00390405,-0.00001767
 ,0.00002657,0.02885218,0.00737072,-0.00258356,-0.00000060,-0.04743317,
 -0.00914289,0.00000051,-0.33513198,-0.04290562,0.00000108,-0.04939690,
 0.01347845,0.00000229,0.00986136,0.00267405,0.00000130,-0.00912956,-0.
 00170985,-0.00000006,-0.00138142,-0.00032846,0.00000011,0.00354465,0.0
 0006500,-0.00000032,0.00146907,-0.00058994,-0.00000027,-0.00100086,0.0
 0035250,-0.00000023,0.53224046,0.00770813,-0.01108858,-0.00000155,-0.0
 4731495,0.00364112,0.00000050,0.00777033,-0.11518493,-0.00000811,0.051
 52531,0.00752540,-0.00000065,-0.00644277,-0.01234034,-0.00000067,-0.00
 046003,0.01126159,0.00000032,-0.00158771,0.00016572,0.00000023,-0.0001
 0255,0.00287350,0.00000057,-0.00141635,0.00212142,0.00000036,0.0016518
 9,0.00019949,0.00000019,-0.15350794,0.57688686,-0.00000056,-0.00000019
 ,0.00890635,-0.00000001,0.00000020,0.01323323,0.00001161,-0.00000837,-
 0.05101119,0.00000284,0.00000141,0.00878513,0.00000135,-0.00000050,0.0
 0630379,-0.00000017,-0.00000088,-0.00333134,-0.00000004,0.00000005,-0.
 00085709,-0.00000033,0.00000034,-0.00402355,-0.00000009,0.00000034,-0.
 00363589,0.00000016,0.00000005,-0.00048382,-0.00004326,0.00009249,0.03
 190183,-0.00134969,0.00090163,-0.00000024,0.00404213,0.00096284,-0.000
 00041,-0.02644681,0.04736811,0.00000784,-0.00642903,-0.00295482,0.0000
 0012,0.00038520,0.00251846,0.,0.00084339,-0.00167558,0.00000011,0.0002
 9384,0.00002429,0.00000002,-0.00021004,-0.00189780,0.00000013,0.000119
 14,-0.00006532,0.00000004,-0.00039898,-0.00014427,-0.00000008,-0.11101
 237,0.14217666,0.00002850,0.14016322,0.00037133,-0.00111349,0.00000015
 ,-0.00565783,0.00348973,0.00000056,-0.00075174,0.00094230,0.00000090,-
 0.00170476,0.00222254,-0.00000019,0.00069879,-0.00016506,-0.00000017,-
 0.00048797,-0.00008941,-0.00000005,-0.00018372,-0.00006219,-0.00000002
 ,0.00090786,-0.00094743,-0.00000023,-0.00018607,0.00032650,0.00000004,
 0.00001006,0.00004790,0.00000002,0.19419826,-0.46606125,-0.00008494,-0
 .18721421,0.46140987,-0.00000001,-0.00000029,-0.00068195,-0.00000078,0
 .00000060,-0.00156106,-0.00000217,-0.00000085,-0.00232552,-0.00000033,
 -0.00000014,0.00323303,-0.00000034,0.,0.00163453,0.00000012,0.00000024
 ,-0.00008221,-0.00000007,0.,0.00008143,0.00000021,0.00000011,0.0005142
 8,0.00000002,0.00000004,-0.00052134,-0.00000007,0.00000003,-0.00036198
 ,0.00003945,-0.00008368,-0.00578745,-0.00003601,0.00008393,0.00585824\
 \-0.00048940,0.00020672,-0.00001118,0.00011068,-0.00000266,0.00000343,
 0.00055285,0.00002362,-0.00000210,0.00030055,-0.00006162,-0.00000360,-
 0.00054168,-0.00032930,0.00001794,0.00028789,0.00007255,-0.00000297,0.
 00002375,0.00000579,0.00000419,0.00008160,-0.00003462,0.00000039,0.000
 05900,0.00006411,-0.00000090,0.00003620,-0.00000478,-0.00000578,-0.000
 34315,0.00004227,-0.00000095,-0.00007828,0.00001791,0.00000153\\\@


 "WOULD YOU TELL ME PLEASE, WHICH WAY I OUGHT TO WALK FROM HERE?"
 "THAT DEPENDS A GREAT DEAL ON WHERE YOU WANT TO GO," SAID THE CAT.
 "I DON'T MUCH CARE WHERE -- ", SAID ALICE.
 "THEN IT DOESN'T MATTER WHICH WAY YOU WALK," SAID THE CAT.

                                      -- LEWIS CARROLL
 Job cpu time:       0 days  0 hours 52 minutes  2.0 seconds.
 File lengths (MBytes):  RWF=     79 Int=      0 D2E=      0 Chk=      7 Scr=      1
 Normal termination of Gaussian 09 at Fri Aug 27 21:26:01 2021.
