 Entering Gaussian System, Link 0=g09
 AtFile(1): pc-2.gbs
            -H     0
            S    4   1.00
                  0.754230D+02           0.240650D-02
                  0.113500D+02           0.184870D-01
                  0.259930D+01           0.897420D-01
                  0.735130D+00           0.281110D+00
            S    1   1.00
                  0.231670D+00           0.100000D+01
            S    1   1.00
                  0.741470D-01           0.100000D+01
            P    1   1.00
                  0.160000D+01           0.100000D+01
            P    1   1.00
                  0.450000D+00           0.100000D+01
            D    1   1.00
                  0.125000D+01           0.100000D+01
            ****
            -C     0
            S    7   1.00
                  0.785710D+04           0.568250D-03
                  0.117870D+04           0.439150D-02
                  0.268320D+03           0.225040D-01
                  0.759480D+02           0.866530D-01
                  0.245590D+02           0.244050D+00
                  0.862120D+01           0.441480D+00
                  0.312780D+01           0.353320D+00
            S    7   1.00
                  0.117870D+04          -0.594920D-06
                  0.268320D+03          -0.627480D-04
                  0.759480D+02          -0.757730D-03
                  0.245590D+02          -0.733080D-02
                  0.862120D+01          -0.389320D-01
                  0.312780D+01          -0.889080D-01
                  0.822020D+00           0.216890D+00
            S    1   1.00
                  0.330170D+00           0.100000D+01
            S    1   1.00
                  0.114630D+00           0.100000D+01
            P    4   1.00
                  0.337750D+02           0.602940D-02
                  0.767660D+01           0.432280D-01
                  0.223570D+01           0.163010D+00
                  0.764470D+00           0.365040D+00
            P    1   1.00
                  0.262320D+00           0.100000D+01
            P    1   1.00
                  0.846380D-01           0.100000D+01
            D    1   1.00
                  0.140000D+01           0.100000D+01
            D    1   1.00
                  0.450000D+00           0.100000D+01
            F    1   1.00
                  0.950000D+00           0.100000D+01
            ****
            -N     0
            S    7   1.00
                  0.111010D+05           0.545700D-03
                  0.166530D+04           0.421810D-02
                  0.379080D+03           0.216450D-01
                  0.107300D+03           0.837760D-01
                  0.347470D+02           0.238810D+00
                  0.122490D+02           0.439940D+00
                  0.447430D+01           0.363640D+00
            S    7   1.00
                  0.166530D+04          -0.150060D-05
                  0.379080D+03          -0.587530D-04
                  0.107300D+03          -0.774530D-03
                  0.347470D+02          -0.721610D-02
                  0.122490D+02          -0.393380D-01
                  0.447430D+01          -0.906110D-01
                  0.124040D+01           0.198820D+00
            S    1   1.00
                  0.487430D+00           0.100000D+01
            S    1   1.00
                  0.164840D+00           0.100000D+01
            P    4   1.00
                  0.479340D+02           0.617060D-02
                  0.109990D+02           0.442600D-01
                  0.324720D+01           0.168250D+00
                  0.111140D+01           0.368480D+00
            P    1   1.00
                  0.379880D+00           0.100000D+01
            P    1   1.00
                  0.120680D+00           0.100000D+01
            D    1   1.00
                  0.180000D+01           0.100000D+01
            D    1   1.00
                  0.550000D+00           0.100000D+01
            F    1   1.00
                  0.102000D+01           0.100000D+01
            ****
            -O     0
            S    7   1.00
                  0.147820D+05           0.535190D-03
                  0.221730D+04           0.413750D-02
                  0.504740D+03           0.212450D-01
                  0.142870D+03           0.824530D-01
                  0.463000D+02           0.236710D+00
                  0.163370D+02           0.440390D+00
                  0.598280D+01           0.364650D+00
            S    7   1.00
                  0.221730D+04          -0.192750D-05
                  0.504740D+03          -0.579640D-04
                  0.142870D+03          -0.794940D-03
                  0.463000D+02          -0.731250D-02
                  0.163370D+02          -0.405740D-01
                  0.598280D+01          -0.915940D-01
                  0.167180D+01           0.209400D+00
            S    1   1.00
                  0.646620D+00           0.100000D+01
            S    1   1.00
                  0.216690D+00           0.100000D+01
            P    4   1.00
                  0.604240D+02           0.689490D-02
                  0.139350D+02           0.490050D-01
                  0.415310D+01           0.182550D+00
                  0.141580D+01           0.376330D+00
            P    1   1.00
                  0.475490D+00           0.100000D+01
            P    1   1.00
                  0.145290D+00           0.100000D+01
            D    1   1.00
                  0.220000D+01           0.100000D+01
            D    1   1.00
                  0.650000D+00           0.100000D+01
            F    1   1.00
                  0.110000D+01           0.100000D+01
            ****
 Initial command:
 /public3/home/sc51754/softwares/g09e01/l1.exe "./Gau-62432.inp" -scrdir="./"
 Entering Link 1 = /public3/home/sc51754/softwares/g09e01/l1.exe PID=     62433.
  
 Copyright (c) 1988,1990,1992,1993,1995,1998,2003,2009,2015,
            Gaussian, Inc.  All Rights Reserved.
  
 This is part of the Gaussian(R) 09 program.  It is based on
 the Gaussian(R) 03 system (copyright 2003, Gaussian, Inc.),
 the Gaussian(R) 98 system (copyright 1998, Gaussian, Inc.),
 the Gaussian(R) 94 system (copyright 1995, Gaussian, Inc.),
 the Gaussian 92(TM) system (copyright 1992, Gaussian, Inc.),
 the Gaussian 90(TM) system (copyright 1990, Gaussian, Inc.),
 the Gaussian 88(TM) system (copyright 1988, Gaussian, Inc.),
 the Gaussian 86(TM) system (copyright 1986, Carnegie Mellon
 University), and the Gaussian 82(TM) system (copyright 1983,
 Carnegie Mellon University). Gaussian is a federally registered
 trademark of Gaussian, Inc.
  
 This software contains proprietary and confidential information,
 including trade secrets, belonging to Gaussian, Inc.
  
 This software is provided under written license and may be
 used, copied, transmitted, or stored only in accord with that
 written license.
  
 The following legend is applicable only to US Government
 contracts under FAR:
  
                    RESTRICTED RIGHTS LEGEND
  
 Use, reproduction and disclosure by the US Government is
 subject to restrictions as set forth in subparagraphs (a)
 and (c) of the Commercial Computer Software - Restricted
 Rights clause in FAR 52.227-19.
  
 Gaussian, Inc.
 340 Quinnipiac St., Bldg. 40, Wallingford CT 06492
  
  
 ---------------------------------------------------------------
 Warning -- This program may not be used in any manner that
 competes with the business of Gaussian, Inc. or will provide
 assistance to any competitor of Gaussian, Inc.  The licensee
 of this program is prohibited from giving any competitor of
 Gaussian, Inc. access to this program.  By using this program,
 the user acknowledges that Gaussian, Inc. is engaged in the
 business of creating and licensing software in the field of
 computational chemistry and represents and warrants to the
 licensee that it is not a competitor of Gaussian, Inc. and that
 it will not use this program in any manner prohibited above.
 ---------------------------------------------------------------
  

 Cite this work as:
 Gaussian 09, Revision E.01,
 M. J. Frisch, G. W. Trucks, H. B. Schlegel, G. E. Scuseria, 
 M. A. Robb, J. R. Cheeseman, G. Scalmani, V. Barone, B. Mennucci, 
 G. A. Petersson, H. Nakatsuji, M. Caricato, X. Li, H. P. Hratchian, 
 A. F. Izmaylov, J. Bloino, G. Zheng, J. L. Sonnenberg, M. Hada, 
 M. Ehara, K. Toyota, R. Fukuda, J. Hasegawa, M. Ishida, T. Nakajima, 
 Y. Honda, O. Kitao, H. Nakai, T. Vreven, J. A. Montgomery, Jr., 
 J. E. Peralta, F. Ogliaro, M. Bearpark, J. J. Heyd, E. Brothers, 
 K. N. Kudin, V. N. Staroverov, T. Keith, R. Kobayashi, J. Normand, 
 K. Raghavachari, A. Rendell, J. C. Burant, S. S. Iyengar, J. Tomasi, 
 M. Cossi, N. Rega, J. M. Millam, M. Klene, J. E. Knox, J. B. Cross, 
 V. Bakken, C. Adamo, J. Jaramillo, R. Gomperts, R. E. Stratmann, 
 O. Yazyev, A. J. Austin, R. Cammi, C. Pomelli, J. W. Ochterski, 
 R. L. Martin, K. Morokuma, V. G. Zakrzewski, G. A. Voth, 
 P. Salvador, J. J. Dannenberg, S. Dapprich, A. D. Daniels, 
 O. Farkas, J. B. Foresman, J. V. Ortiz, J. Cioslowski, 
 and D. J. Fox, Gaussian, Inc., Wallingford CT, 2013.
 
 ******************************************
 Gaussian 09:  EM64L-G09RevE.01 30-Nov-2015
                27-Aug-2021 
 ******************************************
 %nprocshared=64
 Will use up to   64 processors via shared memory.
 %mem=128GB
 %chk=4HY_M062X_PC2_OPT_FREQ.chk
 ---------------------
 #p opt freq M062X/gen
 ---------------------
 1/14=-1,18=20,19=15,26=3,38=1/1,3;
 2/9=110,12=2,17=6,18=5,40=1/2;
 3/5=7,11=2,16=1,25=1,30=1,71=1,74=-55/1,2,3;
 4//1;
 5/5=2,38=5/2;
 6/7=2,8=2,9=2,10=2,28=1/1;
 7//1,2,3,16;
 1/14=-1,18=20,19=15,26=3/3(2);
 2/9=110/2;
 99//99;
 2/9=110/2;
 3/5=7,6=1,11=2,16=1,25=1,30=1,71=1,74=-55,82=7/1,2,3;
 4/5=5,16=3,69=1/1;
 5/5=2,38=5/2;
 7//1,2,3,16;
 1/14=-1,18=20,19=15,26=3/3(-5);
 2/9=110/2;
 6/7=2,8=2,9=2,10=2,19=2,28=1/1;
 99/9=1/99;
 Leave Link    1 at Fri Aug 27 21:30:00 2021, MaxMem= 17179869184 cpu:         6.0
 (Enter /public3/home/sc51754/softwares/g09e01/l101.exe)
 ----------------------
 4HY_M062X_PC2_OPT_FREQ
 ----------------------
 Symbolic Z-matrix:
 Charge =  0 Multiplicity = 1
 C                     1.15223   1.15341  -0.00011 
 C                    -0.24145   1.18944   0.00003 
 C                    -0.93443  -0.02499   0.00004 
 C                    -0.19715  -1.21307  -0.00009 
 C                     1.19102  -1.12281   0.00022 
 N                     1.87822   0.02956   0.00002 
 H                     1.71189   2.08718  -0.0001 
 H                    -0.77027   2.13945  -0.00002 
 H                    -0.70664  -2.17013  -0.00044 
 H                     1.78719  -2.03343  -0.00024 
 O                    -2.29029  -0.1124   -0.00001 
 H                    -2.6687    0.77737   0.00031 
 
 NAtoms=     12 NQM=       12 NQMF=       0 NMMI=      0 NMMIF=      0
                NMic=       0 NMicF=      0.
                    Isotopes and Nuclear Properties:
 (Nuclear quadrupole moments (NQMom) in fm**2, nuclear magnetic moments (NMagM)
  in nuclear magnetons)

  Atom         1           2           3           4           5           6           7           8           9          10
 IAtWgt=          12          12          12          12          12          14           1           1           1           1
 AtmWgt=  12.0000000  12.0000000  12.0000000  12.0000000  12.0000000  14.0030740   1.0078250   1.0078250   1.0078250   1.0078250
 NucSpn=           0           0           0           0           0           2           1           1           1           1
 AtZEff=   0.0000000   0.0000000   0.0000000   0.0000000   0.0000000   0.0000000   0.0000000   0.0000000   0.0000000   0.0000000
 NQMom=    0.0000000   0.0000000   0.0000000   0.0000000   0.0000000   2.0440000   0.0000000   0.0000000   0.0000000   0.0000000
 NMagM=    0.0000000   0.0000000   0.0000000   0.0000000   0.0000000   0.4037610   2.7928460   2.7928460   2.7928460   2.7928460
 AtZNuc=   6.0000000   6.0000000   6.0000000   6.0000000   6.0000000   7.0000000   1.0000000   1.0000000   1.0000000   1.0000000

  Atom        11          12
 IAtWgt=          16           1
 AtmWgt=  15.9949146   1.0078250
 NucSpn=           0           1
 AtZEff=   0.0000000   0.0000000
 NQMom=    0.0000000   0.0000000
 NMagM=    0.0000000   2.7928460
 AtZNuc=   8.0000000   1.0000000
 Leave Link  101 at Fri Aug 27 21:30:00 2021, MaxMem= 17179869184 cpu:         5.5
 (Enter /public3/home/sc51754/softwares/g09e01/l103.exe)

 GradGradGradGradGradGradGradGradGradGradGradGradGradGradGradGradGradGrad
 Berny optimization.
 Initialization pass.
                           ----------------------------
                           !    Initial Parameters    !
                           ! (Angstroms and Degrees)  !
 --------------------------                            --------------------------
 ! Name  Definition              Value          Derivative Info.                !
 --------------------------------------------------------------------------------
 ! R1    R(1,2)                  1.3941         estimate D2E/DX2                !
 ! R2    R(1,6)                  1.3379         estimate D2E/DX2                !
 ! R3    R(1,7)                  1.0886         estimate D2E/DX2                !
 ! R4    R(2,3)                  1.3982         estimate D2E/DX2                !
 ! R5    R(2,8)                  1.0873         estimate D2E/DX2                !
 ! R6    R(3,4)                  1.3983         estimate D2E/DX2                !
 ! R7    R(3,11)                 1.3587         estimate D2E/DX2                !
 ! R8    R(4,5)                  1.3911         estimate D2E/DX2                !
 ! R9    R(4,9)                  1.0842         estimate D2E/DX2                !
 ! R10   R(5,6)                  1.3417         estimate D2E/DX2                !
 ! R11   R(5,10)                 1.0884         estimate D2E/DX2                !
 ! R12   R(11,12)                0.9669         estimate D2E/DX2                !
 ! A1    A(2,1,6)              124.3426         estimate D2E/DX2                !
 ! A2    A(2,1,7)              119.4556         estimate D2E/DX2                !
 ! A3    A(6,1,7)              116.2018         estimate D2E/DX2                !
 ! A4    A(1,2,3)              118.2292         estimate D2E/DX2                !
 ! A5    A(1,2,8)              120.5831         estimate D2E/DX2                !
 ! A6    A(3,2,8)              121.1877         estimate D2E/DX2                !
 ! A7    A(2,3,4)              118.4682         estimate D2E/DX2                !
 ! A8    A(2,3,11)             123.3985         estimate D2E/DX2                !
 ! A9    A(4,3,11)             118.1333         estimate D2E/DX2                !
 ! A10   A(3,4,5)              118.1015         estimate D2E/DX2                !
 ! A11   A(3,4,9)              120.1493         estimate D2E/DX2                !
 ! A12   A(5,4,9)              121.7493         estimate D2E/DX2                !
 ! A13   A(4,5,6)              124.5296         estimate D2E/DX2                !
 ! A14   A(4,5,10)             119.4914         estimate D2E/DX2                !
 ! A15   A(6,5,10)             115.9789         estimate D2E/DX2                !
 ! A16   A(1,6,5)              116.3289         estimate D2E/DX2                !
 ! A17   A(3,11,12)            109.3507         estimate D2E/DX2                !
 ! D1    D(6,1,2,3)             -0.0135         estimate D2E/DX2                !
 ! D2    D(6,1,2,8)            179.9955         estimate D2E/DX2                !
 ! D3    D(7,1,2,3)           -179.9987         estimate D2E/DX2                !
 ! D4    D(7,1,2,8)              0.0102         estimate D2E/DX2                !
 ! D5    D(2,1,6,5)              0.0039         estimate D2E/DX2                !
 ! D6    D(7,1,6,5)            179.9896         estimate D2E/DX2                !
 ! D7    D(1,2,3,4)              0.0007         estimate D2E/DX2                !
 ! D8    D(1,2,3,11)          -179.9909         estimate D2E/DX2                !
 ! D9    D(8,2,3,4)            179.9917         estimate D2E/DX2                !
 ! D10   D(8,2,3,11)             0.0001         estimate D2E/DX2                !
 ! D11   D(2,3,4,5)              0.0198         estimate D2E/DX2                !
 ! D12   D(2,3,4,9)           -179.978          estimate D2E/DX2                !
 ! D13   D(11,3,4,5)          -179.9882         estimate D2E/DX2                !
 ! D14   D(11,3,4,9)             0.014          estimate D2E/DX2                !
 ! D15   D(2,3,11,12)           -0.0225         estimate D2E/DX2                !
 ! D16   D(4,3,11,12)          179.9859         estimate D2E/DX2                !
 ! D17   D(3,4,5,6)             -0.0313         estimate D2E/DX2                !
 ! D18   D(3,4,5,10)          -179.9777         estimate D2E/DX2                !
 ! D19   D(9,4,5,6)            179.9664         estimate D2E/DX2                !
 ! D20   D(9,4,5,10)             0.0201         estimate D2E/DX2                !
 ! D21   D(4,5,6,1)              0.0192         estimate D2E/DX2                !
 ! D22   D(10,5,6,1)           179.9673         estimate D2E/DX2                !
 --------------------------------------------------------------------------------
 Trust Radius=3.00D-01 FncErr=1.00D-07 GrdErr=1.00D-06
 Number of steps in this run=     61 maximum allowed number of steps=    100.
 GradGradGradGradGradGradGradGradGradGradGradGradGradGradGradGradGradGrad

 Leave Link  103 at Fri Aug 27 21:30:00 2021, MaxMem= 17179869184 cpu:         0.1
 (Enter /public3/home/sc51754/softwares/g09e01/l202.exe)
                          Input orientation:                          
 ---------------------------------------------------------------------
 Center     Atomic      Atomic             Coordinates (Angstroms)
 Number     Number       Type             X           Y           Z
 ---------------------------------------------------------------------
      1          6           0        1.152230    1.153409   -0.000114
      2          6           0       -0.241450    1.189435    0.000028
      3          6           0       -0.934425   -0.024989    0.000035
      4          6           0       -0.197153   -1.213074   -0.000085
      5          6           0        1.191022   -1.122808    0.000218
      6          7           0        1.878221    0.029557    0.000015
      7          1           0        1.711886    2.087182   -0.000101
      8          1           0       -0.770273    2.139452   -0.000016
      9          1           0       -0.706644   -2.170125   -0.000442
     10          1           0        1.787188   -2.033434   -0.000236
     11          8           0       -2.290294   -0.112398   -0.000014
     12          1           0       -2.668700    0.777372    0.000305
 ---------------------------------------------------------------------
                    Distance matrix (angstroms):
                    1          2          3          4          5
     1  C    0.000000
     2  C    1.394146   0.000000
     3  C    2.396404   1.398227   0.000000
     4  C    2.724165   2.402917   1.398255   0.000000
     5  C    2.276548   2.720008   2.392223   1.391107   0.000000
     6  N    1.337949   2.416262   2.813175   2.418948   1.341711
     7  H    1.088645   2.149761   3.385887   3.812626   3.251974
     8  H    2.160625   1.087284   2.170657   3.401161   3.806444
     9  H    3.808056   3.391615   2.157196   1.084218   2.167489
    10  H    3.249483   3.808183   3.382459   2.147231   1.088418
    11  O    3.667866   2.427454   1.358684   2.364895   3.624981
    12  H    3.839389   2.461979   1.910888   3.173393   4.302109
                    6          7          8          9         10
     6  N    0.000000
     7  H    2.064337   0.000000
     8  H    3.386174   2.482709   0.000000
     9  H    3.394131   4.896320   4.310047   0.000000
    10  H    2.064999   4.121304   4.894240   2.497575   0.000000
    11  O    4.170931   4.566793   2.716853   2.596572   4.507354
    12  H    4.608006   4.572213   2.336512   3.540820   5.268355
                   11         12
    11  O    0.000000
    12  H    0.966893   0.000000
 Stoichiometry    C5H5NO
 Framework group  C1[X(C5H5NO)]
 Deg. of freedom    30
 Full point group                 C1      NOp   1
 Largest Abelian subgroup         C1      NOp   1
 Largest concise Abelian subgroup C1      NOp   1
                         Standard orientation:                         
 ---------------------------------------------------------------------
 Center     Atomic      Atomic             Coordinates (Angstroms)
 Number     Number       Type             X           Y           Z
 ---------------------------------------------------------------------
      1          6           0       -1.152230    1.153409    0.000114
      2          6           0        0.241450    1.189435   -0.000028
      3          6           0        0.934425   -0.024989   -0.000035
      4          6           0        0.197153   -1.213074    0.000085
      5          6           0       -1.191022   -1.122808   -0.000218
      6          7           0       -1.878221    0.029557   -0.000015
      7          1           0       -1.711887    2.087182    0.000101
      8          1           0        0.770272    2.139452    0.000016
      9          1           0        0.706644   -2.170125    0.000442
     10          1           0       -1.787188   -2.033434    0.000236
     11          8           0        2.290294   -0.112397    0.000014
     12          1           0        2.668700    0.777373   -0.000305
 ---------------------------------------------------------------------
 Rotational constants (GHZ):      5.9862655      2.6268417      1.8257026
 Leave Link  202 at Fri Aug 27 21:30:00 2021, MaxMem= 17179869184 cpu:         1.9
 (Enter /public3/home/sc51754/softwares/g09e01/l301.exe)
 General basis read from cards:  (5D, 7F)
 Centers:       7      8      9     10     12
 S 4 1.00
     Exponent=  7.5423000000D+01 Coefficients=  2.4065000000D-03
     Exponent=  1.1350000000D+01 Coefficients=  1.8487000000D-02
     Exponent=  2.5993000000D+00 Coefficients=  8.9742000000D-02
     Exponent=  7.3513000000D-01 Coefficients=  2.8111000000D-01
 S 1 1.00
     Exponent=  2.3167000000D-01 Coefficients=  1.0000000000D+00
 S 1 1.00
     Exponent=  7.4147000000D-02 Coefficients=  1.0000000000D+00
 P 1 1.00
     Exponent=  1.6000000000D+00 Coefficients=  1.0000000000D+00
 P 1 1.00
     Exponent=  4.5000000000D-01 Coefficients=  1.0000000000D+00
 D 1 1.00
     Exponent=  1.2500000000D+00 Coefficients=  1.0000000000D+00
 ****
 Centers:       1      2      3      4      5
 S 7 1.00
     Exponent=  7.8571000000D+03 Coefficients=  5.6825000000D-04
     Exponent=  1.1787000000D+03 Coefficients=  4.3915000000D-03
     Exponent=  2.6832000000D+02 Coefficients=  2.2504000000D-02
     Exponent=  7.5948000000D+01 Coefficients=  8.6653000000D-02
     Exponent=  2.4559000000D+01 Coefficients=  2.4405000000D-01
     Exponent=  8.6212000000D+00 Coefficients=  4.4148000000D-01
     Exponent=  3.1278000000D+00 Coefficients=  3.5332000000D-01
 S 7 1.00
     Exponent=  1.1787000000D+03 Coefficients= -5.9492000000D-07
     Exponent=  2.6832000000D+02 Coefficients= -6.2748000000D-05
     Exponent=  7.5948000000D+01 Coefficients= -7.5773000000D-04
     Exponent=  2.4559000000D+01 Coefficients= -7.3308000000D-03
     Exponent=  8.6212000000D+00 Coefficients= -3.8932000000D-02
     Exponent=  3.1278000000D+00 Coefficients= -8.8908000000D-02
     Exponent=  8.2202000000D-01 Coefficients=  2.1689000000D-01
 S 1 1.00
     Exponent=  3.3017000000D-01 Coefficients=  1.0000000000D+00
 S 1 1.00
     Exponent=  1.1463000000D-01 Coefficients=  1.0000000000D+00
 P 4 1.00
     Exponent=  3.3775000000D+01 Coefficients=  6.0294000000D-03
     Exponent=  7.6766000000D+00 Coefficients=  4.3228000000D-02
     Exponent=  2.2357000000D+00 Coefficients=  1.6301000000D-01
     Exponent=  7.6447000000D-01 Coefficients=  3.6504000000D-01
 P 1 1.00
     Exponent=  2.6232000000D-01 Coefficients=  1.0000000000D+00
 P 1 1.00
     Exponent=  8.4638000000D-02 Coefficients=  1.0000000000D+00
 D 1 1.00
     Exponent=  1.4000000000D+00 Coefficients=  1.0000000000D+00
 D 1 1.00
     Exponent=  4.5000000000D-01 Coefficients=  1.0000000000D+00
 F 1 1.00
     Exponent=  9.5000000000D-01 Coefficients=  1.0000000000D+00
 ****
 Centers:       6
 S 7 1.00
     Exponent=  1.1101000000D+04 Coefficients=  5.4570000000D-04
     Exponent=  1.6653000000D+03 Coefficients=  4.2181000000D-03
     Exponent=  3.7908000000D+02 Coefficients=  2.1645000000D-02
     Exponent=  1.0730000000D+02 Coefficients=  8.3776000000D-02
     Exponent=  3.4747000000D+01 Coefficients=  2.3881000000D-01
     Exponent=  1.2249000000D+01 Coefficients=  4.3994000000D-01
     Exponent=  4.4743000000D+00 Coefficients=  3.6364000000D-01
 S 7 1.00
     Exponent=  1.6653000000D+03 Coefficients= -1.5006000000D-06
     Exponent=  3.7908000000D+02 Coefficients= -5.8753000000D-05
     Exponent=  1.0730000000D+02 Coefficients= -7.7453000000D-04
     Exponent=  3.4747000000D+01 Coefficients= -7.2161000000D-03
     Exponent=  1.2249000000D+01 Coefficients= -3.9338000000D-02
     Exponent=  4.4743000000D+00 Coefficients= -9.0611000000D-02
     Exponent=  1.2404000000D+00 Coefficients=  1.9882000000D-01
 S 1 1.00
     Exponent=  4.8743000000D-01 Coefficients=  1.0000000000D+00
 S 1 1.00
     Exponent=  1.6484000000D-01 Coefficients=  1.0000000000D+00
 P 4 1.00
     Exponent=  4.7934000000D+01 Coefficients=  6.1706000000D-03
     Exponent=  1.0999000000D+01 Coefficients=  4.4260000000D-02
     Exponent=  3.2472000000D+00 Coefficients=  1.6825000000D-01
     Exponent=  1.1114000000D+00 Coefficients=  3.6848000000D-01
 P 1 1.00
     Exponent=  3.7988000000D-01 Coefficients=  1.0000000000D+00
 P 1 1.00
     Exponent=  1.2068000000D-01 Coefficients=  1.0000000000D+00
 D 1 1.00
     Exponent=  1.8000000000D+00 Coefficients=  1.0000000000D+00
 D 1 1.00
     Exponent=  5.5000000000D-01 Coefficients=  1.0000000000D+00
 F 1 1.00
     Exponent=  1.0200000000D+00 Coefficients=  1.0000000000D+00
 ****
 Centers:      11
 S 7 1.00
     Exponent=  1.4782000000D+04 Coefficients=  5.3519000000D-04
     Exponent=  2.2173000000D+03 Coefficients=  4.1375000000D-03
     Exponent=  5.0474000000D+02 Coefficients=  2.1245000000D-02
     Exponent=  1.4287000000D+02 Coefficients=  8.2453000000D-02
     Exponent=  4.6300000000D+01 Coefficients=  2.3671000000D-01
     Exponent=  1.6337000000D+01 Coefficients=  4.4039000000D-01
     Exponent=  5.9828000000D+00 Coefficients=  3.6465000000D-01
 S 7 1.00
     Exponent=  2.2173000000D+03 Coefficients= -1.9275000000D-06
     Exponent=  5.0474000000D+02 Coefficients= -5.7964000000D-05
     Exponent=  1.4287000000D+02 Coefficients= -7.9494000000D-04
     Exponent=  4.6300000000D+01 Coefficients= -7.3125000000D-03
     Exponent=  1.6337000000D+01 Coefficients= -4.0574000000D-02
     Exponent=  5.9828000000D+00 Coefficients= -9.1594000000D-02
     Exponent=  1.6718000000D+00 Coefficients=  2.0940000000D-01
 S 1 1.00
     Exponent=  6.4662000000D-01 Coefficients=  1.0000000000D+00
 S 1 1.00
     Exponent=  2.1669000000D-01 Coefficients=  1.0000000000D+00
 P 4 1.00
     Exponent=  6.0424000000D+01 Coefficients=  6.8949000000D-03
     Exponent=  1.3935000000D+01 Coefficients=  4.9005000000D-02
     Exponent=  4.1531000000D+00 Coefficients=  1.8255000000D-01
     Exponent=  1.4158000000D+00 Coefficients=  3.7633000000D-01
 P 1 1.00
     Exponent=  4.7549000000D-01 Coefficients=  1.0000000000D+00
 P 1 1.00
     Exponent=  1.4529000000D-01 Coefficients=  1.0000000000D+00
 D 1 1.00
     Exponent=  2.2000000000D+00 Coefficients=  1.0000000000D+00
 D 1 1.00
     Exponent=  6.5000000000D-01 Coefficients=  1.0000000000D+00
 F 1 1.00
     Exponent=  1.1000000000D+00 Coefficients=  1.0000000000D+00
 ****
 Ernie: Thresh=  0.10000D-02 Tol=  0.10000D-05 Strict=F.
 Ernie:  7 primitive shells out of 220 were deleted.
 There are   320 symmetry adapted cartesian basis functions of A   symmetry.
 There are   280 symmetry adapted basis functions of A   symmetry.
   280 basis functions,   475 primitive gaussians,   320 cartesian basis functions
    25 alpha electrons       25 beta electrons
       nuclear repulsion energy       273.7666329457 Hartrees.
 IExCor= 4336 DFT=T Ex+Corr=M062X ExCW=0 ScaHFX=  0.540000
 ScaDFX=  1.000000  1.000000  1.000000  1.000000 ScalE2=  1.000000  1.000000
 IRadAn=      0 IRanWt=     -1 IRanGd=            0 ICorTp=0 IEmpDi=  4
 NAtoms=   12 NActive=   12 NUniq=   12 SFac= 1.00D+00 NAtFMM=   60 NAOKFM=F Big=F
 Integral buffers will be    131072 words long.
 Raffenetti 2 integral format.
 Two-electron integral symmetry is turned on.
 Leave Link  301 at Fri Aug 27 21:30:01 2021, MaxMem= 17179869184 cpu:         2.0
 (Enter /public3/home/sc51754/softwares/g09e01/l302.exe)
 NPDir=0 NMtPBC=     1 NCelOv=     1 NCel=       1 NClECP=     1 NCelD=      1
         NCelK=      1 NCelE2=     1 NClLst=     1 CellRange=     0.0.
 One-electron integrals computed using PRISM.
 NBasis=   280 RedAO= T EigKep=  2.00D-04  NBF=   280
 NBsUse=   280 1.00D-06 EigRej= -1.00D+00 NBFU=   280
 Precomputing XC quadrature grid using
 IXCGrd= 4 IRadAn=           0 IRanWt=          -1 IRanGd=           0 AccXCQ= 0.00D+00.
 Generated NRdTot=       0 NPtTot=           0 NUsed=           0 NTot=          32
 NSgBfM=   320   320   320   320   320 MxSgAt=    12 MxSgA2=    12.
 Leave Link  302 at Fri Aug 27 21:30:02 2021, MaxMem= 17179869184 cpu:        51.9
 (Enter /public3/home/sc51754/softwares/g09e01/l303.exe)
 DipDrv:  MaxL=1.
 Leave Link  303 at Fri Aug 27 21:30:02 2021, MaxMem= 17179869184 cpu:         9.4
 (Enter /public3/home/sc51754/softwares/g09e01/l401.exe)
 ExpMin= 7.41D-02 ExpMax= 1.48D+04 ExpMxC= 5.05D+02 IAcc=2 IRadAn=         4 AccDes= 0.00D+00
 Harris functional with IExCor= 1009 and IRadAn=       4 diagonalized for initial guess.
 HarFok:  IExCor= 1009 AccDes= 0.00D+00 IRadAn=         4 IDoV= 1 UseB2=F ITyADJ=14
 ICtDFT=  3500011 ScaDFX=  1.000000  1.000000  1.000000  1.000000
 FoFCou: FMM=F IPFlag=           0 FMFlag=      100000 FMFlg1=           0
         NFxFlg=           0 DoJE=T BraDBF=F KetDBF=T FulRan=T
         wScrn=  0.000000 ICntrl=     500 IOpCl=  0 I1Cent=   200000004 NGrid=           0
         NMat0=    1 NMatS0=      1 NMatT0=    0 NMatD0=    1 NMtDS0=    0 NMtDT0=    0
 Petite list used in FoFCou.
 Harris En= -323.354402034469    
 JPrj=0 DoOrth=F DoCkMO=F.
 Leave Link  401 at Fri Aug 27 21:30:03 2021, MaxMem= 17179869184 cpu:        43.4
 (Enter /public3/home/sc51754/softwares/g09e01/l502.exe)
 Closed shell SCF:
 Using DIIS extrapolation, IDIIS=  1040.
 Integral symmetry usage will be decided dynamically.
 Keep R1 ints in memory in canonical form, NReq=790723944.
 IVT=      348554 IEndB=      348554 NGot= 17179869184 MDV= 16405683161
 LenX= 16405683161 LenY= 16405580320
 Requested convergence on RMS density matrix=1.00D-08 within 128 cycles.
 Requested convergence on MAX density matrix=1.00D-06.
 Requested convergence on             energy=1.00D-06.
 No special actions if energy rises.
 FoFCou: FMM=F IPFlag=           0 FMFlag=           0 FMFlg1=           0
         NFxFlg=           0 DoJE=F BraDBF=F KetDBF=F FulRan=T
         wScrn=  0.000000 ICntrl=     600 IOpCl=  0 I1Cent=           0 NGrid=           0
         NMat0=    1 NMatS0=  39340 NMatT0=    0 NMatD0=    1 NMtDS0=    0 NMtDT0=    0
 Symmetry not used in FoFCou.
 Integral accuracy reduced to 1.0D-05 until final iterations.

 Cycle   1  Pass 0  IDiag  1:
 E= -323.358527118961    
 DIIS: error= 3.37D-02 at cycle   1 NSaved=   1.
 NSaved= 1 IEnMin= 1 EnMin= -323.358527118961     IErMin= 1 ErrMin= 3.37D-02
 ErrMax= 3.37D-02  0.00D+00 EMaxC= 1.00D-01 BMatC= 1.85D-01 BMatP= 1.85D-01
 IDIUse=3 WtCom= 6.63D-01 WtEn= 3.37D-01
 Coeff-Com:  0.100D+01
 Coeff-En:   0.100D+01
 Coeff:      0.100D+01
 Gap=     0.336 Goal=   None    Shift=    0.000
 GapD=    0.336 DampG=1.000 DampE=0.500 DampFc=0.5000 IDamp=-1.
 Damping current iteration by 5.00D-01
 RMSDP=2.24D-03 MaxDP=1.17D-01              OVMax= 1.41D-01

 Cycle   2  Pass 0  IDiag  1:
 E= -323.438696148864     Delta-E=       -0.080169029903 Rises=F Damp=T
 DIIS: error= 8.27D-03 at cycle   2 NSaved=   2.
 NSaved= 2 IEnMin= 2 EnMin= -323.438696148864     IErMin= 2 ErrMin= 8.27D-03
 ErrMax= 8.27D-03  0.00D+00 EMaxC= 1.00D-01 BMatC= 1.54D-02 BMatP= 1.85D-01
 IDIUse=3 WtCom= 9.17D-01 WtEn= 8.27D-02
 Coeff-Com: -0.164D+00 0.116D+01
 Coeff-En:   0.000D+00 0.100D+01
 Coeff:     -0.150D+00 0.115D+01
 Gap=     0.360 Goal=   None    Shift=    0.000
 RMSDP=5.17D-04 MaxDP=2.50D-02 DE=-8.02D-02 OVMax= 6.79D-02

 Cycle   3  Pass 0  IDiag  1:
 E= -323.509865502293     Delta-E=       -0.071169353429 Rises=F Damp=F
 DIIS: error= 3.25D-03 at cycle   3 NSaved=   3.
 NSaved= 3 IEnMin= 3 EnMin= -323.509865502293     IErMin= 3 ErrMin= 3.25D-03
 ErrMax= 3.25D-03  0.00D+00 EMaxC= 1.00D-01 BMatC= 2.48D-03 BMatP= 1.54D-02
 IDIUse=3 WtCom= 9.68D-01 WtEn= 3.25D-02
 Coeff-Com: -0.938D-01 0.321D+00 0.773D+00
 Coeff-En:   0.000D+00 0.000D+00 0.100D+01
 Coeff:     -0.907D-01 0.311D+00 0.780D+00
 Gap=     0.325 Goal=   None    Shift=    0.000
 RMSDP=1.74D-04 MaxDP=1.02D-02 DE=-7.12D-02 OVMax= 2.41D-02

 Cycle   4  Pass 0  IDiag  1:
 E= -323.511105737863     Delta-E=       -0.001240235570 Rises=F Damp=F
 DIIS: error= 2.06D-03 at cycle   4 NSaved=   4.
 NSaved= 4 IEnMin= 4 EnMin= -323.511105737863     IErMin= 4 ErrMin= 2.06D-03
 ErrMax= 2.06D-03  0.00D+00 EMaxC= 1.00D-01 BMatC= 8.87D-04 BMatP= 2.48D-03
 IDIUse=3 WtCom= 9.79D-01 WtEn= 2.06D-02
 Coeff-Com: -0.354D-01 0.886D-01 0.420D+00 0.527D+00
 Coeff-En:   0.000D+00 0.000D+00 0.267D+00 0.733D+00
 Coeff:     -0.347D-01 0.868D-01 0.417D+00 0.531D+00
 Gap=     0.326 Goal=   None    Shift=    0.000
 RMSDP=8.77D-05 MaxDP=3.78D-03 DE=-1.24D-03 OVMax= 9.71D-03

 Cycle   5  Pass 0  IDiag  1:
 E= -323.511886020961     Delta-E=       -0.000780283097 Rises=F Damp=F
 DIIS: error= 5.02D-04 at cycle   5 NSaved=   5.
 NSaved= 5 IEnMin= 5 EnMin= -323.511886020961     IErMin= 5 ErrMin= 5.02D-04
 ErrMax= 5.02D-04  0.00D+00 EMaxC= 1.00D-01 BMatC= 3.86D-05 BMatP= 8.87D-04
 IDIUse=3 WtCom= 9.95D-01 WtEn= 5.02D-03
 Coeff-Com: -0.532D-02 0.675D-02 0.104D+00 0.228D+00 0.666D+00
 Coeff-En:   0.000D+00 0.000D+00 0.000D+00 0.000D+00 0.100D+01
 Coeff:     -0.529D-02 0.672D-02 0.104D+00 0.227D+00 0.668D+00
 Gap=     0.326 Goal=   None    Shift=    0.000
 RMSDP=1.89D-05 MaxDP=7.66D-04 DE=-7.80D-04 OVMax= 2.54D-03

 Cycle   6  Pass 0  IDiag  1:
 E= -323.511921500532     Delta-E=       -0.000035479571 Rises=F Damp=F
 DIIS: error= 1.03D-04 at cycle   6 NSaved=   6.
 NSaved= 6 IEnMin= 6 EnMin= -323.511921500532     IErMin= 6 ErrMin= 1.03D-04
 ErrMax= 1.03D-04  0.00D+00 EMaxC= 1.00D-01 BMatC= 2.12D-06 BMatP= 3.86D-05
 IDIUse=3 WtCom= 9.99D-01 WtEn= 1.03D-03
 Coeff-Com: -0.116D-02 0.899D-04 0.320D-01 0.796D-01 0.288D+00 0.601D+00
 Coeff-En:   0.000D+00 0.000D+00 0.000D+00 0.000D+00 0.000D+00 0.100D+01
 Coeff:     -0.115D-02 0.898D-04 0.320D-01 0.795D-01 0.288D+00 0.601D+00
 Gap=     0.326 Goal=   None    Shift=    0.000
 RMSDP=5.57D-06 MaxDP=1.59D-04 DE=-3.55D-05 OVMax= 4.95D-04

 Initial convergence to 1.0D-05 achieved.  Increase integral accuracy.
 Cycle   7  Pass 1  IDiag  1:
 E= -323.511985818516     Delta-E=       -0.000064317984 Rises=F Damp=F
 DIIS: error= 2.52D-04 at cycle   1 NSaved=   1.
 NSaved= 1 IEnMin= 1 EnMin= -323.511985818516     IErMin= 1 ErrMin= 2.52D-04
 ErrMax= 2.52D-04  0.00D+00 EMaxC= 1.00D-01 BMatC= 1.71D-05 BMatP= 1.71D-05
 IDIUse=3 WtCom= 9.97D-01 WtEn= 2.52D-03
 Coeff-Com:  0.100D+01
 Coeff-En:   0.100D+01
 Coeff:      0.100D+01
 Gap=     0.326 Goal=   None    Shift=    0.000
 RMSDP=5.57D-06 MaxDP=1.59D-04 DE=-6.43D-05 OVMax= 4.13D-04

 Cycle   8  Pass 1  IDiag  1:
 E= -323.511993075653     Delta-E=       -0.000007257136 Rises=F Damp=F
 DIIS: error= 4.06D-05 at cycle   2 NSaved=   2.
 NSaved= 2 IEnMin= 2 EnMin= -323.511993075653     IErMin= 2 ErrMin= 4.06D-05
 ErrMax= 4.06D-05  0.00D+00 EMaxC= 1.00D-01 BMatC= 2.65D-07 BMatP= 1.71D-05
 IDIUse=1 WtCom= 1.00D+00 WtEn= 0.00D+00
 Coeff-Com: -0.110D-01 0.101D+01
 Coeff:     -0.110D-01 0.101D+01
 Gap=     0.326 Goal=   None    Shift=    0.000
 RMSDP=3.19D-06 MaxDP=1.53D-04 DE=-7.26D-06 OVMax= 3.96D-04

 Cycle   9  Pass 1  IDiag  1:
 E= -323.511992982509     Delta-E=        0.000000093143 Rises=F Damp=F
 DIIS: error= 5.08D-05 at cycle   3 NSaved=   3.
 NSaved= 3 IEnMin= 2 EnMin= -323.511993075653     IErMin= 2 ErrMin= 4.06D-05
 ErrMax= 5.08D-05  0.00D+00 EMaxC= 1.00D-01 BMatC= 3.89D-07 BMatP= 2.65D-07
 IDIUse=1 WtCom= 1.00D+00 WtEn= 0.00D+00
 Coeff-Com: -0.222D-01 0.567D+00 0.455D+00
 Coeff:     -0.222D-01 0.567D+00 0.455D+00
 Gap=     0.326 Goal=   None    Shift=    0.000
 RMSDP=1.72D-06 MaxDP=1.01D-04 DE= 9.31D-08 OVMax= 2.30D-04

 Cycle  10  Pass 1  IDiag  1:
 E= -323.511993358242     Delta-E=       -0.000000375733 Rises=F Damp=F
 DIIS: error= 5.07D-06 at cycle   4 NSaved=   4.
 NSaved= 4 IEnMin= 4 EnMin= -323.511993358242     IErMin= 4 ErrMin= 5.07D-06
 ErrMax= 5.07D-06  0.00D+00 EMaxC= 1.00D-01 BMatC= 6.50D-09 BMatP= 2.65D-07
 IDIUse=1 WtCom= 1.00D+00 WtEn= 0.00D+00
 Coeff-Com: -0.732D-02 0.128D+00 0.142D+00 0.737D+00
 Coeff:     -0.732D-02 0.128D+00 0.142D+00 0.737D+00
 Gap=     0.326 Goal=   None    Shift=    0.000
 RMSDP=3.30D-07 MaxDP=1.83D-05 DE=-3.76D-07 OVMax= 2.44D-05

 Cycle  11  Pass 1  IDiag  1:
 E= -323.511993363146     Delta-E=       -0.000000004904 Rises=F Damp=F
 DIIS: error= 2.83D-06 at cycle   5 NSaved=   5.
 NSaved= 5 IEnMin= 5 EnMin= -323.511993363146     IErMin= 5 ErrMin= 2.83D-06
 ErrMax= 2.83D-06  0.00D+00 EMaxC= 1.00D-01 BMatC= 1.68D-09 BMatP= 6.50D-09
 IDIUse=1 WtCom= 1.00D+00 WtEn= 0.00D+00
 Coeff-Com:  0.588D-03-0.442D-01-0.190D-01 0.347D+00 0.716D+00
 Coeff:      0.588D-03-0.442D-01-0.190D-01 0.347D+00 0.716D+00
 Gap=     0.326 Goal=   None    Shift=    0.000
 RMSDP=1.48D-07 MaxDP=6.76D-06 DE=-4.90D-09 OVMax= 3.10D-05

 Cycle  12  Pass 1  IDiag  1:
 E= -323.511993365066     Delta-E=       -0.000000001920 Rises=F Damp=F
 DIIS: error= 7.52D-07 at cycle   6 NSaved=   6.
 NSaved= 6 IEnMin= 6 EnMin= -323.511993365066     IErMin= 6 ErrMin= 7.52D-07
 ErrMax= 7.52D-07  0.00D+00 EMaxC= 1.00D-01 BMatC= 1.16D-10 BMatP= 1.68D-09
 IDIUse=1 WtCom= 1.00D+00 WtEn= 0.00D+00
 Coeff-Com:  0.533D-03-0.174D-01-0.135D-01 0.289D-01 0.237D+00 0.764D+00
 Coeff:      0.533D-03-0.174D-01-0.135D-01 0.289D-01 0.237D+00 0.764D+00
 Gap=     0.326 Goal=   None    Shift=    0.000
 RMSDP=4.52D-08 MaxDP=1.82D-06 DE=-1.92D-09 OVMax= 6.50D-06

 Cycle  13  Pass 1  IDiag  1:
 E= -323.511993365187     Delta-E=       -0.000000000121 Rises=F Damp=F
 DIIS: error= 3.03D-07 at cycle   7 NSaved=   7.
 NSaved= 7 IEnMin= 7 EnMin= -323.511993365187     IErMin= 7 ErrMin= 3.03D-07
 ErrMax= 3.03D-07  0.00D+00 EMaxC= 1.00D-01 BMatC= 3.05D-11 BMatP= 1.16D-10
 IDIUse=1 WtCom= 1.00D+00 WtEn= 0.00D+00
 Coeff-Com:  0.222D-03-0.199D-02-0.490D-02-0.571D-01 0.117D-01 0.404D+00
 Coeff-Com:  0.649D+00
 Coeff:      0.222D-03-0.199D-02-0.490D-02-0.571D-01 0.117D-01 0.404D+00
 Coeff:      0.649D+00
 Gap=     0.326 Goal=   None    Shift=    0.000
 RMSDP=2.02D-08 MaxDP=1.14D-06 DE=-1.21D-10 OVMax= 3.00D-06

 Cycle  14  Pass 1  IDiag  1:
 E= -323.511993365230     Delta-E=       -0.000000000042 Rises=F Damp=F
 DIIS: error= 1.04D-07 at cycle   8 NSaved=   8.
 NSaved= 8 IEnMin= 8 EnMin= -323.511993365230     IErMin= 8 ErrMin= 1.04D-07
 ErrMax= 1.04D-07  0.00D+00 EMaxC= 1.00D-01 BMatC= 1.27D-12 BMatP= 3.05D-11
 IDIUse=1 WtCom= 1.00D+00 WtEn= 0.00D+00
 Coeff-Com: -0.843D-05 0.181D-02 0.272D-03-0.207D-01-0.183D-01 0.619D-02
 Coeff-Com:  0.149D+00 0.882D+00
 Coeff:     -0.843D-05 0.181D-02 0.272D-03-0.207D-01-0.183D-01 0.619D-02
 Coeff:      0.149D+00 0.882D+00
 Gap=     0.326 Goal=   None    Shift=    0.000
 RMSDP=6.81D-09 MaxDP=2.19D-07 DE=-4.23D-11 OVMax= 9.07D-07

 SCF Done:  E(RM062X) =  -323.511993365     A.U. after   14 cycles
            NFock= 14  Conv=0.68D-08     -V/T= 2.0046
 KE= 3.220371295576D+02 PE=-1.301923289516D+03 EE= 3.826075336479D+02
 Leave Link  502 at Fri Aug 27 21:30:14 2021, MaxMem= 17179869184 cpu:       241.3
 (Enter /public3/home/sc51754/softwares/g09e01/l601.exe)
 Copying SCF densities to generalized density rwf, IOpCl= 0 IROHF=0.

 **********************************************************************

            Population analysis using the SCF density.

 **********************************************************************

 Orbital symmetries:
       Occupied  (A) (A) (A) (A) (A) (A) (A) (A) (A) (A) (A) (A)
                 (A) (A) (A) (A) (A) (A) (A) (A) (A) (A) (A) (A)
                 (A)
       Virtual   (A) (A) (A) (A) (A) (A) (A) (A) (A) (A) (A) (A)
                 (A) (A) (A) (A) (A) (A) (A) (A) (A) (A) (A) (A)
                 (A) (A) (A) (A) (A) (A) (A) (A) (A) (A) (A) (A)
                 (A) (A) (A) (A) (A) (A) (A) (A) (A) (A) (A) (A)
                 (A) (A) (A) (A) (A) (A) (A) (A) (A) (A) (A) (A)
                 (A) (A) (A) (A) (A) (A) (A) (A) (A) (A) (A) (A)
                 (A) (A) (A) (A) (A) (A) (A) (A) (A) (A) (A) (A)
                 (A) (A) (A) (A) (A) (A) (A) (A) (A) (A) (A) (A)
                 (A) (A) (A) (A) (A) (A) (A) (A) (A) (A) (A) (A)
                 (A) (A) (A) (A) (A) (A) (A) (A) (A) (A) (A) (A)
                 (A) (A) (A) (A) (A) (A) (A) (A) (A) (A) (A) (A)
                 (A) (A) (A) (A) (A) (A) (A) (A) (A) (A) (A) (A)
                 (A) (A) (A) (A) (A) (A) (A) (A) (A) (A) (A) (A)
                 (A) (A) (A) (A) (A) (A) (A) (A) (A) (A) (A) (A)
                 (A) (A) (A) (A) (A) (A) (A) (A) (A) (A) (A) (A)
                 (A) (A) (A) (A) (A) (A) (A) (A) (A) (A) (A) (A)
                 (A) (A) (A) (A) (A) (A) (A) (A) (A) (A) (A) (A)
                 (A) (A) (A) (A) (A) (A) (A) (A) (A) (A) (A) (A)
                 (A) (A) (A) (A) (A) (A) (A) (A) (A) (A) (A) (A)
                 (A) (A) (A) (A) (A) (A) (A) (A) (A) (A) (A) (A)
                 (A) (A) (A) (A) (A) (A) (A) (A) (A) (A) (A) (A)
                 (A) (A) (A)
 The electronic state is 1-A.
 Alpha  occ. eigenvalues --  -19.67514 -14.74465 -10.63005 -10.58413 -10.58171
 Alpha  occ. eigenvalues --  -10.55709 -10.55086  -1.20842  -1.05276  -0.90204
 Alpha  occ. eigenvalues --   -0.86704  -0.73961  -0.71845  -0.64517  -0.58787
 Alpha  occ. eigenvalues --   -0.55886  -0.52606  -0.51731  -0.50257  -0.48851
 Alpha  occ. eigenvalues --   -0.45344  -0.42303  -0.33134  -0.32623  -0.31854
 Alpha virt. eigenvalues --    0.00731   0.01345   0.02185   0.05597   0.06041
 Alpha virt. eigenvalues --    0.09051   0.09761   0.15218   0.16690   0.16904
 Alpha virt. eigenvalues --    0.19189   0.20217   0.20948   0.22575   0.22959
 Alpha virt. eigenvalues --    0.24740   0.25794   0.26637   0.28723   0.30294
 Alpha virt. eigenvalues --    0.31063   0.31817   0.32106   0.34657   0.36069
 Alpha virt. eigenvalues --    0.36894   0.37585   0.38571   0.39278   0.41127
 Alpha virt. eigenvalues --    0.42426   0.45583   0.47266   0.48968   0.49208
 Alpha virt. eigenvalues --    0.52284   0.53979   0.57199   0.57682   0.61830
 Alpha virt. eigenvalues --    0.62925   0.67068   0.67999   0.68400   0.69578
 Alpha virt. eigenvalues --    0.72836   0.72963   0.78629   0.80276   0.85152
 Alpha virt. eigenvalues --    0.88030   0.88999   0.90952   0.92637   0.94330
 Alpha virt. eigenvalues --    0.98755   1.00212   1.01102   1.02041   1.06117
 Alpha virt. eigenvalues --    1.07940   1.11789   1.14403   1.16016   1.16581
 Alpha virt. eigenvalues --    1.18835   1.19830   1.20756   1.21108   1.23504
 Alpha virt. eigenvalues --    1.27795   1.30705   1.33777   1.35326   1.36408
 Alpha virt. eigenvalues --    1.37113   1.39396   1.45260   1.47438   1.47736
 Alpha virt. eigenvalues --    1.49175   1.49702   1.53023   1.57912   1.60434
 Alpha virt. eigenvalues --    1.62032   1.63103   1.63394   1.67575   1.70107
 Alpha virt. eigenvalues --    1.70173   1.71790   1.74799   1.76576   1.78426
 Alpha virt. eigenvalues --    1.81242   1.82528   1.85593   1.87482   1.89035
 Alpha virt. eigenvalues --    1.89606   1.96389   1.99485   2.00826   2.02850
 Alpha virt. eigenvalues --    2.08949   2.10979   2.13971   2.19993   2.22643
 Alpha virt. eigenvalues --    2.25921   2.26201   2.27289   2.31819   2.34357
 Alpha virt. eigenvalues --    2.43073   2.43859   2.58800   2.60905   2.80004
 Alpha virt. eigenvalues --    2.87777   2.95005   2.98552   3.02807   3.13794
 Alpha virt. eigenvalues --    3.15175   3.21884   3.24988   3.25823   3.27140
 Alpha virt. eigenvalues --    3.33274   3.33983   3.36016   3.37373   3.39673
 Alpha virt. eigenvalues --    3.41803   3.43910   3.48573   3.51994   3.54192
 Alpha virt. eigenvalues --    3.57279   3.59412   3.60620   3.61708   3.66924
 Alpha virt. eigenvalues --    3.70992   3.73245   3.76189   3.77975   3.79600
 Alpha virt. eigenvalues --    3.81555   3.86075   3.86933   3.93294   3.95509
 Alpha virt. eigenvalues --    3.99014   4.00300   4.00662   4.02871   4.03809
 Alpha virt. eigenvalues --    4.05355   4.08074   4.10506   4.12314   4.12670
 Alpha virt. eigenvalues --    4.14492   4.16393   4.16783   4.18949   4.22780
 Alpha virt. eigenvalues --    4.23464   4.25649   4.25860   4.26955   4.28558
 Alpha virt. eigenvalues --    4.31469   4.31692   4.35030   4.35177   4.35841
 Alpha virt. eigenvalues --    4.39101   4.40056   4.40221   4.42020   4.44216
 Alpha virt. eigenvalues --    4.45275   4.46962   4.47938   4.48732   4.50252
 Alpha virt. eigenvalues --    4.52300   4.52429   4.60943   4.61797   4.66094
 Alpha virt. eigenvalues --    4.70196   4.70583   4.73560   4.76829   4.80690
 Alpha virt. eigenvalues --    4.84866   4.86489   4.89502   4.92056   4.94964
 Alpha virt. eigenvalues --    5.00167   5.04046   5.05079   5.08946   5.10290
 Alpha virt. eigenvalues --    5.10576   5.15390   5.24783   5.25195   5.25721
 Alpha virt. eigenvalues --    5.26420   5.27270   5.31311   5.31799   5.40632
 Alpha virt. eigenvalues --    5.41029   5.45759   5.46785   5.49914   5.52594
 Alpha virt. eigenvalues --    5.58568   5.61398   5.61983   5.69394   5.70251
 Alpha virt. eigenvalues --    5.70695   5.84638   5.91364   5.98646   6.02818
 Alpha virt. eigenvalues --    6.03905   6.06349   6.18963   6.22967   6.23063
 Alpha virt. eigenvalues --    6.30587   6.37799   6.46223   6.47902   6.55928
 Alpha virt. eigenvalues --    6.80409   6.92349   7.27790   8.98495  12.14194
 Alpha virt. eigenvalues --   12.27572  15.35140  17.23467  18.43375  22.01339
          Condensed to atoms (all electrons):
               1          2          3          4          5          6
     1  C    4.570398   0.455356  -0.045603  -0.059659  -0.113458   0.506552
     2  C    0.455356   5.036235   0.532181  -0.020219  -0.063624  -0.029460
     3  C   -0.045603   0.532181   4.449558   0.535291  -0.052478  -0.022800
     4  C   -0.059659  -0.020219   0.535291   4.949632   0.476589  -0.025997
     5  C   -0.113458  -0.063624  -0.052478   0.476589   4.587457   0.489634
     6  N    0.506552  -0.029460  -0.022800  -0.025997   0.489634   6.597708
     7  H    0.461498  -0.076074   0.005593  -0.005854   0.007673  -0.049281
     8  H   -0.016824   0.422607  -0.041700   0.004826   0.000113   0.005766
     9  H   -0.001721   0.008295  -0.035115   0.433105  -0.029239   0.005757
    10  H    0.007824  -0.007597   0.009018  -0.079850   0.465382  -0.050047
    11  O    0.005040  -0.055580   0.266910  -0.057804   0.002829  -0.000407
    12  H    0.001284  -0.002505  -0.028550   0.006324  -0.000756   0.000262
               7          8          9         10         11         12
     1  C    0.461498  -0.016824  -0.001721   0.007824   0.005040   0.001284
     2  C   -0.076074   0.422607   0.008295  -0.007597  -0.055580  -0.002505
     3  C    0.005593  -0.041700  -0.035115   0.009018   0.266910  -0.028550
     4  C   -0.005854   0.004826   0.433105  -0.079850  -0.057804   0.006324
     5  C    0.007673   0.000113  -0.029239   0.465382   0.002829  -0.000756
     6  N   -0.049281   0.005766   0.005757  -0.050047  -0.000407   0.000262
     7  H    0.631225  -0.006832   0.000130   0.000282  -0.000384  -0.000054
     8  H   -0.006832   0.630277  -0.000303   0.000128  -0.005773   0.003453
     9  H    0.000130  -0.000303   0.595892  -0.007898   0.003661  -0.000371
    10  H    0.000282   0.000128  -0.007898   0.628046  -0.000309   0.000082
    11  O   -0.000384  -0.005773   0.003661  -0.000309   7.894501   0.352348
    12  H   -0.000054   0.003453  -0.000371   0.000082   0.352348   0.465738
 Mulliken charges:
               1
     1  C    0.229314
     2  C   -0.199615
     3  C    0.427695
     4  C   -0.156385
     5  C    0.229878
     6  N   -0.427687
     7  H    0.032078
     8  H    0.004262
     9  H    0.027806
    10  H    0.034940
    11  O   -0.405032
    12  H    0.202745
 Sum of Mulliken charges =  -0.00000
 Mulliken charges with hydrogens summed into heavy atoms:
               1
     1  C    0.261392
     2  C   -0.195353
     3  C    0.427695
     4  C   -0.128579
     5  C    0.264818
     6  N   -0.427687
    11  O   -0.202286
 Electronic spatial extent (au):  <R**2>=            642.0870
 Charge=             -0.0000 electrons
 Dipole moment (field-independent basis, Debye):
    X=              2.3159    Y=              1.3207    Z=             -0.0000  Tot=              2.6660
 Quadrupole moment (field-independent basis, Debye-Ang):
   XX=            -44.0791   YY=            -33.2625   ZZ=            -43.4577
   XY=              4.5773   XZ=             -0.0017   YZ=             -0.0017
 Traceless Quadrupole moment (field-independent basis, Debye-Ang):
   XX=             -3.8127   YY=              7.0039   ZZ=             -3.1912
   XY=              4.5773   XZ=             -0.0017   YZ=             -0.0017
 Octapole moment (field-independent basis, Debye-Ang**2):
  XXX=             32.7762  YYY=              0.4697  ZZZ=              0.0005  XYY=              1.8556
  XXY=             12.3080  XXZ=             -0.0034  XZZ=              3.4462  YZZ=              0.0050
  YYZ=              0.0036  XYZ=             -0.0016
 Hexadecapole moment (field-independent basis, Debye-Ang**3):
 XXXX=           -528.9465 YYYY=           -255.9479 ZZZZ=            -47.3386 XXXY=             38.8942
 XXXZ=             -0.0160 YYYX=              2.9018 YYYZ=             -0.0094 ZZZX=             -0.0012
 ZZZY=             -0.0017 XXYY=           -106.9379 XXZZ=            -96.6358 YYZZ=            -61.7765
 XXYZ=             -0.0068 YYXZ=             -0.0022 ZZXY=              0.5022
 N-N= 2.737666329457D+02 E-N=-1.301923299721D+03  KE= 3.220371295576D+02
 No NMR shielding tensors so no spin-rotation constants.
 Leave Link  601 at Fri Aug 27 21:30:15 2021, MaxMem= 17179869184 cpu:        57.3
 (Enter /public3/home/sc51754/softwares/g09e01/l701.exe)
 Compute integral first derivatives.
 ... and contract with generalized density number  0.
 Leave Link  701 at Fri Aug 27 21:30:16 2021, MaxMem= 17179869184 cpu:        55.7
 (Enter /public3/home/sc51754/softwares/g09e01/l702.exe)
 L702 exits ... SP integral derivatives will be done elsewhere.
 Leave Link  702 at Fri Aug 27 21:30:16 2021, MaxMem= 17179869184 cpu:         0.2
 (Enter /public3/home/sc51754/softwares/g09e01/l703.exe)
 Compute integral first derivatives, UseDBF=F ICtDFT=           0.
 Integral derivatives from FoFJK, PRISM(SPDF).
 Calling FoFJK, ICntrl=      2127 FMM=F ISym2X=0 I1Cent= 0 IOpClX= 0 NMat=1 NMatS=1 NMatT=0.
 FoFJK:  IHMeth= 1 ICntrl=    2127 DoSepK=F KAlg= 0 I1Cent=   0 FoldK=F
 IRaf=         0 NMat=   1 IRICut=       1 DoRegI=T DoRafI=F ISym2E= 0.
 FoFCou: FMM=F IPFlag=           0 FMFlag=      100000 FMFlg1=         800
         NFxFlg=           0 DoJE=F BraDBF=F KetDBF=F FulRan=T
         wScrn=  0.000000 ICntrl=    2127 IOpCl=  0 I1Cent=           0 NGrid=           0
         NMat0=    1 NMatS0=      1 NMatT0=    0 NMatD0=    1 NMtDS0=    0 NMtDT0=    0
 Symmetry not used in FoFCou.
 Leave Link  703 at Fri Aug 27 21:30:19 2021, MaxMem= 17179869184 cpu:       140.1
 (Enter /public3/home/sc51754/softwares/g09e01/l716.exe)
 Dipole        = 9.11152823D-01 5.19609764D-01-9.50338804D-06
 ***** Axes restored to original set *****
 -------------------------------------------------------------------
 Center     Atomic                   Forces (Hartrees/Bohr)
 Number     Number              X              Y              Z
 -------------------------------------------------------------------
      1        6          -0.000752963   -0.005491527    0.000035321
      2        6           0.000805682   -0.005465108   -0.000006747
      3        6           0.005092489   -0.001140370   -0.000010509
      4        6           0.001507818    0.005950443    0.000023555
      5        6          -0.001287653    0.005043971   -0.000097864
      6        7          -0.011181608    0.000029532    0.000019695
      7        1          -0.001658087   -0.003178918   -0.000010375
      8        1           0.001602763   -0.002985827    0.000001606
      9        1           0.001478650    0.002731986    0.000012613
     10        1          -0.001813202    0.003121959    0.000032726
     11        8           0.004305579    0.007516502    0.000006337
     12        1           0.001900532   -0.006132642   -0.000006356
 -------------------------------------------------------------------
 Cartesian Forces:  Max     0.011181608 RMS     0.003502294
 Leave Link  716 at Fri Aug 27 21:30:19 2021, MaxMem= 17179869184 cpu:         1.4
 (Enter /public3/home/sc51754/softwares/g09e01/l103.exe)

 GradGradGradGradGradGradGradGradGradGradGradGradGradGradGradGradGradGrad
 Berny optimization.
 FormGI is forming the generalized inverse of G from B-inverse, IUseBI=4.
 Internal  Forces:  Max     0.010417668 RMS     0.003664666
 Search for a local minimum.
 Step number   1 out of a maximum of   61
 All quantities printed in internal units (Hartrees-Bohrs-Radians)
 RMS Force = .36647D-02 SwitMx=.10000D-02 MixMth= 1
 Mixed Optimization -- RFO/linear search
 Second derivative matrix not updated -- first step.
 ITU=  0
     Eigenvalues ---    0.02120   0.02139   0.02144   0.02163   0.02209
     Eigenvalues ---    0.02238   0.02269   0.02294   0.02415   0.16000
     Eigenvalues ---    0.16000   0.16000   0.16000   0.16000   0.22000
     Eigenvalues ---    0.22826   0.23882   0.25000   0.34970   0.34996
     Eigenvalues ---    0.35128   0.35490   0.42425   0.43849   0.46118
     Eigenvalues ---    0.46897   0.53214   0.54017   0.55021   0.56489
 RFO step:  Lambda=-1.40611396D-03 EMin= 2.11976327D-02
 Linear search not attempted -- first point.
 Iteration  1 RMS(Cart)=  0.01188764 RMS(Int)=  0.00000995
 Iteration  2 RMS(Cart)=  0.00001153 RMS(Int)=  0.00000142
 Iteration  3 RMS(Cart)=  0.00000000 RMS(Int)=  0.00000142
 ITry= 1 IFail=0 DXMaxC= 2.93D-02 DCOld= 1.00D+10 DXMaxT= 3.00D-01 DXLimC= 3.00D+00 Rises=F
 Variable       Old X    -DE/DX   Delta X   Delta X   Delta X     New X
                                 (Linear)    (Quad)   (Total)
    R1        2.63455  -0.00820   0.00000  -0.01755  -0.01755   2.61700
    R2        2.52836  -0.01042   0.00000  -0.01822  -0.01822   2.51013
    R3        2.05724  -0.00358   0.00000  -0.01019  -0.01019   2.04705
    R4        2.64227  -0.01022   0.00000  -0.02193  -0.02193   2.62034
    R5        2.05467  -0.00339   0.00000  -0.00961  -0.00961   2.04506
    R6        2.64232  -0.00988   0.00000  -0.02121  -0.02121   2.62111
    R7        2.56754  -0.00628   0.00000  -0.01177  -0.01177   2.55577
    R8        2.62881  -0.00850   0.00000  -0.01800  -0.01800   2.61081
    R9        2.04887  -0.00311   0.00000  -0.00872  -0.00872   2.04015
   R10        2.53547  -0.01018   0.00000  -0.01807  -0.01807   2.51739
   R11        2.05681  -0.00361   0.00000  -0.01026  -0.01026   2.04655
   R12        1.82716  -0.00639   0.00000  -0.01180  -0.01180   1.81536
    A1        2.17019  -0.00004   0.00000  -0.00056  -0.00056   2.16963
    A2        2.08489   0.00023   0.00000   0.00160   0.00160   2.08650
    A3        2.02810  -0.00019   0.00000  -0.00105  -0.00105   2.02706
    A4        2.06349  -0.00052   0.00000  -0.00163  -0.00163   2.06186
    A5        2.10457   0.00032   0.00000   0.00117   0.00117   2.10574
    A6        2.11512   0.00020   0.00000   0.00046   0.00046   2.11559
    A7        2.06766   0.00057   0.00000   0.00341   0.00341   2.07107
    A8        2.15371  -0.00094   0.00000  -0.00430  -0.00430   2.14941
    A9        2.06181   0.00037   0.00000   0.00089   0.00089   2.06270
   A10        2.06126  -0.00044   0.00000  -0.00127  -0.00126   2.06000
   A11        2.09700   0.00024   0.00000   0.00079   0.00079   2.09779
   A12        2.12493   0.00019   0.00000   0.00047   0.00047   2.12540
   A13        2.17345  -0.00013   0.00000  -0.00094  -0.00094   2.17251
   A14        2.08552   0.00027   0.00000   0.00173   0.00173   2.08725
   A15        2.02421  -0.00014   0.00000  -0.00079  -0.00079   2.02343
   A16        2.03032   0.00055   0.00000   0.00099   0.00098   2.03130
   A17        1.90853   0.00119   0.00000   0.00740   0.00740   1.91593
    D1       -0.00024   0.00001   0.00000   0.00040   0.00040   0.00017
    D2        3.14151   0.00000   0.00000   0.00019   0.00019  -3.14148
    D3       -3.14157  -0.00000   0.00000  -0.00007  -0.00007   3.14154
    D4        0.00018  -0.00001   0.00000  -0.00028  -0.00028  -0.00011
    D5        0.00007  -0.00000   0.00000  -0.00006  -0.00006   0.00001
    D6        3.14141   0.00001   0.00000   0.00040   0.00040  -3.14137
    D7        0.00001  -0.00000   0.00000  -0.00012  -0.00012  -0.00011
    D8       -3.14143  -0.00001   0.00000  -0.00028  -0.00028   3.14147
    D9        3.14145   0.00000   0.00000   0.00009   0.00009   3.14154
   D10        0.00000  -0.00000   0.00000  -0.00007  -0.00007  -0.00007
   D11        0.00034  -0.00001   0.00000  -0.00045  -0.00045  -0.00011
   D12       -3.14121  -0.00001   0.00000  -0.00045  -0.00045   3.14153
   D13       -3.14139  -0.00001   0.00000  -0.00030  -0.00030   3.14150
   D14        0.00024  -0.00001   0.00000  -0.00030  -0.00030  -0.00005
   D15       -0.00039   0.00001   0.00000   0.00023   0.00023  -0.00017
   D16        3.14135   0.00000   0.00000   0.00007   0.00007   3.14141
   D17       -0.00055   0.00002   0.00000   0.00085   0.00085   0.00030
   D18       -3.14120  -0.00002   0.00000  -0.00070  -0.00070   3.14128
   D19        3.14101   0.00002   0.00000   0.00085   0.00085  -3.14133
   D20        0.00035  -0.00002   0.00000  -0.00070  -0.00070  -0.00035
   D21        0.00034  -0.00001   0.00000  -0.00059  -0.00059  -0.00025
   D22        3.14102   0.00002   0.00000   0.00091   0.00091  -3.14125
         Item               Value     Threshold  Converged?
 Maximum Force            0.010418     0.000450     NO 
 RMS     Force            0.003665     0.000300     NO 
 Maximum Displacement     0.029303     0.001800     NO 
 RMS     Displacement     0.011892     0.001200     NO 
 Predicted change in Energy=-7.051484D-04
 Lowest energy point so far.  Saving SCF results.
 GradGradGradGradGradGradGradGradGradGradGradGradGradGradGradGradGradGrad

 Leave Link  103 at Fri Aug 27 21:30:20 2021, MaxMem= 17179869184 cpu:        70.5
 (Enter /public3/home/sc51754/softwares/g09e01/l202.exe)
                          Input orientation:                          
 ---------------------------------------------------------------------
 Center     Atomic      Atomic             Coordinates (Angstroms)
 Number     Number       Type             X           Y           Z
 ---------------------------------------------------------------------
      1          6           0        1.144363    1.145571    0.000068
      2          6           0       -0.240042    1.180936   -0.000018
      3          6           0       -0.924933   -0.024739   -0.000051
      4          6           0       -0.195316   -1.204366   -0.000131
      5          6           0        1.183371   -1.115010   -0.000304
      6          7           0        1.864838    0.029638   -0.000065
      7          1           0        1.702452    2.073995    0.000049
      8          1           0       -0.767785    2.125736   -0.000005
      9          1           0       -0.703290   -2.156997   -0.000096
     10          1           0        1.777936   -2.020192   -0.000079
     11          8           0       -2.274788   -0.108555    0.000006
     12          1           0       -2.655199    0.773563    0.000219
 ---------------------------------------------------------------------
                    Distance matrix (angstroms):
                    1          2          3          4          5
     1  C    0.000000
     2  C    1.384856   0.000000
     3  C    2.377312   1.386625   0.000000
     4  C    2.704986   2.385722   1.387033   0.000000
     5  C    2.260918   2.701384   2.373529   1.381580   0.000000
     6  N    1.328305   2.399168   2.790301   2.401459   1.332147
     7  H    1.083251   2.137951   3.362713   3.788031   3.230975
     8  H    2.148728   1.082201   2.156209   3.378949   3.782782
     9  H    3.784281   3.369926   2.143747   1.079603   2.155279
    10  H    3.228541   3.784106   3.359663   2.135251   1.082988
    11  O    3.641898   2.408937   1.352454   2.350532   3.601640
    12  H    3.817730   2.449273   1.905546   3.156458   4.278005
                    6          7          8          9         10
     6  N    0.000000
     7  H    2.050796   0.000000
     8  H    3.365164   2.470779   0.000000
     9  H    3.372930   4.867123   4.283218   0.000000
    10  H    2.051671   4.094883   4.865122   2.484995   0.000000
    11  O    4.141932   4.536735   2.695016   2.581805   4.480952
    12  H    4.580847   4.547554   2.321789   3.521098   5.240015
                   11         12
    11  O    0.000000
    12  H    0.960648   0.000000
 Stoichiometry    C5H5NO
 Framework group  C1[X(C5H5NO)]
 Deg. of freedom    30
 Full point group                 C1      NOp   1
 RotChk:  IX=2 Diff= 1.96D-03
 Largest Abelian subgroup         C1      NOp   1
 Largest concise Abelian subgroup C1      NOp   1
                         Standard orientation:                         
 ---------------------------------------------------------------------
 Center     Atomic      Atomic             Coordinates (Angstroms)
 Number     Number       Type             X           Y           Z
 ---------------------------------------------------------------------
      1          6           0       -1.142492    1.146563   -0.000126
      2          6           0        0.241961    1.180013   -0.000041
      3          6           0        0.925184   -0.026608   -0.000008
      4          6           0        0.193937   -1.205225    0.000072
      5          6           0       -1.184626   -1.113963    0.000245
      6          7           0       -1.864510    0.031627    0.000006
      7          1           0       -1.699296    2.075757   -0.000107
      8          1           0        0.771010    2.124082   -0.000054
      9          1           0        0.700592   -2.158558    0.000037
     10          1           0       -1.780442   -2.018322    0.000021
     11          8           0        2.274921   -0.112291   -0.000065
     12          1           0        2.656552    0.769300   -0.000278
 ---------------------------------------------------------------------
 Rotational constants (GHZ):      6.0695384      2.6635312      1.8511710
 Leave Link  202 at Fri Aug 27 21:30:21 2021, MaxMem= 17179869184 cpu:         4.5
 (Enter /public3/home/sc51754/softwares/g09e01/l301.exe)
 Basis read from rwf:  (5D, 7F)
 No pseudopotential information found on rwf file.
 There are   320 symmetry adapted cartesian basis functions of A   symmetry.
 There are   280 symmetry adapted basis functions of A   symmetry.
   280 basis functions,   475 primitive gaussians,   320 cartesian basis functions
    25 alpha electrons       25 beta electrons
       nuclear repulsion energy       275.6340026601 Hartrees.
 IExCor= 4336 DFT=T Ex+Corr=M062X ExCW=0 ScaHFX=  0.540000
 ScaDFX=  1.000000  1.000000  1.000000  1.000000 ScalE2=  1.000000  1.000000
 IRadAn=      0 IRanWt=     -1 IRanGd=            0 ICorTp=0 IEmpDi=  4
 NAtoms=   12 NActive=   12 NUniq=   12 SFac= 1.00D+00 NAtFMM=   60 NAOKFM=F Big=F
 Integral buffers will be    131072 words long.
 Raffenetti 2 integral format.
 Two-electron integral symmetry is turned on.
 No density basis found on file   724.
 Leave Link  301 at Fri Aug 27 21:30:21 2021, MaxMem= 17179869184 cpu:         1.0
 (Enter /public3/home/sc51754/softwares/g09e01/l302.exe)
 NPDir=0 NMtPBC=     1 NCelOv=     1 NCel=       1 NClECP=     1 NCelD=      1
         NCelK=      1 NCelE2=     1 NClLst=     1 CellRange=     0.0.
 One-electron integrals computed using PRISM.
 NBasis=   280 RedAO= T EigKep=  1.90D-04  NBF=   280
 NBsUse=   280 1.00D-06 EigRej= -1.00D+00 NBFU=   280
 Precomputing XC quadrature grid using
 IXCGrd= 4 IRadAn=           0 IRanWt=          -1 IRanGd=           0 AccXCQ= 0.00D+00.
 Generated NRdTot=       0 NPtTot=           0 NUsed=           0 NTot=          32
 NSgBfM=   320   320   320   320   320 MxSgAt=    12 MxSgA2=    12.
 Leave Link  302 at Fri Aug 27 21:30:22 2021, MaxMem= 17179869184 cpu:        42.4
 (Enter /public3/home/sc51754/softwares/g09e01/l303.exe)
 DipDrv:  MaxL=1.
 Leave Link  303 at Fri Aug 27 21:30:22 2021, MaxMem= 17179869184 cpu:        13.9
 (Enter /public3/home/sc51754/softwares/g09e01/l401.exe)
 Initial guess from the checkpoint file:  "4HY_M062X_PC2_OPT_FREQ.chk"
 B after Tr=    -0.000000   -0.000000    0.000000
         Rot=    1.000000    0.000039   -0.000013    0.000568 Ang=   0.07 deg.
 Guess basis will be translated and rotated to current coordinates.
 JPrj=2 DoOrth=T DoCkMO=T.
 Generating alternative initial guess.
 ExpMin= 7.41D-02 ExpMax= 1.48D+04 ExpMxC= 5.05D+02 IAcc=2 IRadAn=         4 AccDes= 0.00D+00
 Harris functional with IExCor= 1009 and IRadAn=       4 diagonalized for initial guess.
 HarFok:  IExCor= 1009 AccDes= 0.00D+00 IRadAn=         4 IDoV= 1 UseB2=F ITyADJ=14
 ICtDFT=  3500011 ScaDFX=  1.000000  1.000000  1.000000  1.000000
 FoFCou: FMM=F IPFlag=           0 FMFlag=      100000 FMFlg1=           0
         NFxFlg=           0 DoJE=T BraDBF=F KetDBF=T FulRan=T
         wScrn=  0.000000 ICntrl=     500 IOpCl=  0 I1Cent=   200000004 NGrid=           0
         NMat0=    1 NMatS0=      1 NMatT0=    0 NMatD0=    1 NMtDS0=    0 NMtDT0=    0
 Petite list used in FoFCou.
 Harris En= -323.360464061384    
 Leave Link  401 at Fri Aug 27 21:30:24 2021, MaxMem= 17179869184 cpu:        84.5
 (Enter /public3/home/sc51754/softwares/g09e01/l502.exe)
 Closed shell SCF:
 Using DIIS extrapolation, IDIIS=  1040.
 Integral symmetry usage will be decided dynamically.
 Keep R1 ints in memory in canonical form, NReq=790723944.
 IVT=      348554 IEndB=      348554 NGot= 17179869184 MDV= 16405683161
 LenX= 16405683161 LenY= 16405580320
 Requested convergence on RMS density matrix=1.00D-08 within 128 cycles.
 Requested convergence on MAX density matrix=1.00D-06.
 Requested convergence on             energy=1.00D-06.
 No special actions if energy rises.
 FoFCou: FMM=F IPFlag=           0 FMFlag=           0 FMFlg1=           0
         NFxFlg=           0 DoJE=F BraDBF=F KetDBF=F FulRan=T
         wScrn=  0.000000 ICntrl=     600 IOpCl=  0 I1Cent=           0 NGrid=           0
         NMat0=    1 NMatS0=  39340 NMatT0=    0 NMatD0=    1 NMtDS0=    0 NMtDT0=    0
 Symmetry not used in FoFCou.
 Integral accuracy reduced to 1.0D-05 until final iterations.

 Cycle   1  Pass 0  IDiag  1:
 E= -323.512371367420    
 DIIS: error= 9.37D-04 at cycle   1 NSaved=   1.
 NSaved= 1 IEnMin= 1 EnMin= -323.512371367420     IErMin= 1 ErrMin= 9.37D-04
 ErrMax= 9.37D-04  0.00D+00 EMaxC= 1.00D-01 BMatC= 2.26D-04 BMatP= 2.26D-04
 IDIUse=3 WtCom= 9.91D-01 WtEn= 9.37D-03
 Coeff-Com:  0.100D+01
 Coeff-En:   0.100D+01
 Coeff:      0.100D+01
 Gap=     0.736 Goal=   None    Shift=    0.000
 RMSDP=5.58D-05 MaxDP=1.65D-03              OVMax= 2.78D-03

 Cycle   2  Pass 0  IDiag  1:
 E= -323.512554675947     Delta-E=       -0.000183308527 Rises=F Damp=F
 DIIS: error= 3.01D-04 at cycle   2 NSaved=   2.
 NSaved= 2 IEnMin= 2 EnMin= -323.512554675947     IErMin= 2 ErrMin= 3.01D-04
 ErrMax= 3.01D-04  0.00D+00 EMaxC= 1.00D-01 BMatC= 2.33D-05 BMatP= 2.26D-04
 IDIUse=3 WtCom= 9.97D-01 WtEn= 3.01D-03
 Coeff-Com:  0.148D+00 0.852D+00
 Coeff-En:   0.000D+00 0.100D+01
 Coeff:      0.148D+00 0.852D+00
 Gap=     0.329 Goal=   None    Shift=    0.000
 RMSDP=2.54D-05 MaxDP=1.30D-03 DE=-1.83D-04 OVMax= 1.49D-03

 Cycle   3  Pass 0  IDiag  1:
 E= -323.512570070156     Delta-E=       -0.000015394209 Rises=F Damp=F
 DIIS: error= 2.16D-04 at cycle   3 NSaved=   3.
 NSaved= 3 IEnMin= 3 EnMin= -323.512570070156     IErMin= 3 ErrMin= 2.16D-04
 ErrMax= 2.16D-04  0.00D+00 EMaxC= 1.00D-01 BMatC= 6.98D-06 BMatP= 2.33D-05
 IDIUse=3 WtCom= 9.98D-01 WtEn= 2.16D-03
 Coeff-Com: -0.226D-01 0.333D+00 0.689D+00
 Coeff-En:   0.000D+00 0.126D+00 0.874D+00
 Coeff:     -0.226D-01 0.333D+00 0.690D+00
 Gap=     0.329 Goal=   None    Shift=    0.000
 RMSDP=7.87D-06 MaxDP=3.00D-04 DE=-1.54D-05 OVMax= 6.04D-04

 Initial convergence to 1.0D-05 achieved.  Increase integral accuracy.
 Cycle   4  Pass 1  IDiag  1:
 E= -323.512637297129     Delta-E=       -0.000067226972 Rises=F Damp=F
 DIIS: error= 2.44D-04 at cycle   1 NSaved=   1.
 NSaved= 1 IEnMin= 1 EnMin= -323.512637297129     IErMin= 1 ErrMin= 2.44D-04
 ErrMax= 2.44D-04  0.00D+00 EMaxC= 1.00D-01 BMatC= 1.76D-05 BMatP= 1.76D-05
 IDIUse=3 WtCom= 9.98D-01 WtEn= 2.44D-03
 Coeff-Com:  0.100D+01
 Coeff-En:   0.100D+01
 Coeff:      0.100D+01
 Gap=     0.329 Goal=   None    Shift=    0.000
 RMSDP=7.87D-06 MaxDP=3.00D-04 DE=-6.72D-05 OVMax= 4.58D-04

 Cycle   5  Pass 1  IDiag  1:
 E= -323.512644368651     Delta-E=       -0.000007071522 Rises=F Damp=F
 DIIS: error= 5.07D-05 at cycle   2 NSaved=   2.
 NSaved= 2 IEnMin= 2 EnMin= -323.512644368651     IErMin= 2 ErrMin= 5.07D-05
 ErrMax= 5.07D-05  0.00D+00 EMaxC= 1.00D-01 BMatC= 6.70D-07 BMatP= 1.76D-05
 IDIUse=1 WtCom= 1.00D+00 WtEn= 0.00D+00
 Coeff-Com:  0.296D-01 0.970D+00
 Coeff:      0.296D-01 0.970D+00
 Gap=     0.329 Goal=   None    Shift=    0.000
 RMSDP=4.56D-06 MaxDP=2.65D-04 DE=-7.07D-06 OVMax= 4.53D-04

 Cycle   6  Pass 1  IDiag  1:
 E= -323.512644073319     Delta-E=        0.000000295332 Rises=F Damp=F
 DIIS: error= 6.12D-05 at cycle   3 NSaved=   3.
 NSaved= 3 IEnMin= 2 EnMin= -323.512644368651     IErMin= 2 ErrMin= 5.07D-05
 ErrMax= 6.12D-05  0.00D+00 EMaxC= 1.00D-01 BMatC= 1.06D-06 BMatP= 6.70D-07
 IDIUse=1 WtCom= 1.00D+00 WtEn= 0.00D+00
 Coeff-Com: -0.222D-01 0.568D+00 0.454D+00
 Coeff:     -0.222D-01 0.568D+00 0.454D+00
 Gap=     0.329 Goal=   None    Shift=    0.000
 RMSDP=2.66D-06 MaxDP=1.59D-04 DE= 2.95D-07 OVMax= 2.75D-04

 Cycle   7  Pass 1  IDiag  1:
 E= -323.512644956254     Delta-E=       -0.000000882936 Rises=F Damp=F
 DIIS: error= 6.74D-06 at cycle   4 NSaved=   4.
 NSaved= 4 IEnMin= 4 EnMin= -323.512644956254     IErMin= 4 ErrMin= 6.74D-06
 ErrMax= 6.74D-06  0.00D+00 EMaxC= 1.00D-01 BMatC= 8.32D-09 BMatP= 6.70D-07
 IDIUse=1 WtCom= 1.00D+00 WtEn= 0.00D+00
 Coeff-Com: -0.957D-02 0.188D+00 0.162D+00 0.660D+00
 Coeff:     -0.957D-02 0.188D+00 0.162D+00 0.660D+00
 Gap=     0.329 Goal=   None    Shift=    0.000
 RMSDP=3.38D-07 MaxDP=2.43D-05 DE=-8.83D-07 OVMax= 4.73D-05

 Cycle   8  Pass 1  IDiag  1:
 E= -323.512644962438     Delta-E=       -0.000000006183 Rises=F Damp=F
 DIIS: error= 3.77D-06 at cycle   5 NSaved=   5.
 NSaved= 5 IEnMin= 5 EnMin= -323.512644962438     IErMin= 5 ErrMin= 3.77D-06
 ErrMax= 3.77D-06  0.00D+00 EMaxC= 1.00D-01 BMatC= 1.93D-09 BMatP= 8.32D-09
 IDIUse=1 WtCom= 1.00D+00 WtEn= 0.00D+00
 Coeff-Com: -0.103D-03-0.268D-01-0.199D-01 0.315D+00 0.732D+00
 Coeff:     -0.103D-03-0.268D-01-0.199D-01 0.315D+00 0.732D+00
 Gap=     0.329 Goal=   None    Shift=    0.000
 RMSDP=1.51D-07 MaxDP=7.94D-06 DE=-6.18D-09 OVMax= 2.00D-05

 Cycle   9  Pass 1  IDiag  1:
 E= -323.512644964498     Delta-E=       -0.000000002060 Rises=F Damp=F
 DIIS: error= 6.37D-07 at cycle   6 NSaved=   6.
 NSaved= 6 IEnMin= 6 EnMin= -323.512644964498     IErMin= 6 ErrMin= 6.37D-07
 ErrMax= 6.37D-07  0.00D+00 EMaxC= 1.00D-01 BMatC= 4.60D-11 BMatP= 1.93D-09
 IDIUse=1 WtCom= 1.00D+00 WtEn= 0.00D+00
 Coeff-Com:  0.335D-03-0.148D-01-0.118D-01 0.567D-01 0.213D+00 0.756D+00
 Coeff:      0.335D-03-0.148D-01-0.118D-01 0.567D-01 0.213D+00 0.756D+00
 Gap=     0.329 Goal=   None    Shift=    0.000
 RMSDP=2.54D-08 MaxDP=9.69D-07 DE=-2.06D-09 OVMax= 3.86D-06

 Cycle  10  Pass 1  IDiag  1:
 E= -323.512644964539     Delta-E=       -0.000000000041 Rises=F Damp=F
 DIIS: error= 2.68D-07 at cycle   7 NSaved=   7.
 NSaved= 7 IEnMin= 7 EnMin= -323.512644964539     IErMin= 7 ErrMin= 2.68D-07
 ErrMax= 2.68D-07  0.00D+00 EMaxC= 1.00D-01 BMatC= 8.67D-12 BMatP= 4.60D-11
 IDIUse=1 WtCom= 1.00D+00 WtEn= 0.00D+00
 Coeff-Com:  0.155D-03-0.307D-02-0.287D-02-0.158D-01 0.524D-02 0.323D+00
 Coeff-Com:  0.693D+00
 Coeff:      0.155D-03-0.307D-02-0.287D-02-0.158D-01 0.524D-02 0.323D+00
 Coeff:      0.693D+00
 Gap=     0.329 Goal=   None    Shift=    0.000
 RMSDP=1.00D-08 MaxDP=4.26D-07 DE=-4.10D-11 OVMax= 9.60D-07

 Cycle  11  Pass 1  IDiag  1:
 E= -323.512644964542     Delta-E=       -0.000000000003 Rises=F Damp=F
 DIIS: error= 3.14D-08 at cycle   8 NSaved=   8.
 NSaved= 8 IEnMin= 8 EnMin= -323.512644964542     IErMin= 8 ErrMin= 3.14D-08
 ErrMax= 3.14D-08  0.00D+00 EMaxC= 1.00D-01 BMatC= 3.46D-13 BMatP= 8.67D-12
 IDIUse=1 WtCom= 1.00D+00 WtEn= 0.00D+00
 Coeff-Com:  0.154D-04 0.455D-03 0.134D-03-0.914D-02-0.149D-01 0.175D-01
 Coeff-Com:  0.171D+00 0.834D+00
 Coeff:      0.154D-04 0.455D-03 0.134D-03-0.914D-02-0.149D-01 0.175D-01
 Coeff:      0.171D+00 0.834D+00
 Gap=     0.329 Goal=   None    Shift=    0.000
 RMSDP=2.74D-09 MaxDP=8.64D-08 DE=-3.18D-12 OVMax= 3.48D-07

 SCF Done:  E(RM062X) =  -323.512644965     A.U. after   11 cycles
            NFock= 11  Conv=0.27D-08     -V/T= 2.0039
 KE= 3.222601044988D+02 PE=-1.305836409607D+03 EE= 3.844296574831D+02
 Leave Link  502 at Fri Aug 27 21:30:34 2021, MaxMem= 17179869184 cpu:       216.4
 (Enter /public3/home/sc51754/softwares/g09e01/l701.exe)
 Compute integral first derivatives.
 ... and contract with generalized density number  0.
 Leave Link  701 at Fri Aug 27 21:30:35 2021, MaxMem= 17179869184 cpu:        72.1
 (Enter /public3/home/sc51754/softwares/g09e01/l702.exe)
 L702 exits ... SP integral derivatives will be done elsewhere.
 Leave Link  702 at Fri Aug 27 21:30:36 2021, MaxMem= 17179869184 cpu:         0.3
 (Enter /public3/home/sc51754/softwares/g09e01/l703.exe)
 Compute integral first derivatives, UseDBF=F ICtDFT=           0.
 Integral derivatives from FoFJK, PRISM(SPDF).
 Calling FoFJK, ICntrl=      2127 FMM=F ISym2X=0 I1Cent= 0 IOpClX= 0 NMat=1 NMatS=1 NMatT=0.
 FoFJK:  IHMeth= 1 ICntrl=    2127 DoSepK=F KAlg= 0 I1Cent=   0 FoldK=F
 IRaf=         0 NMat=   1 IRICut=       1 DoRegI=T DoRafI=F ISym2E= 0.
 FoFCou: FMM=F IPFlag=           0 FMFlag=      100000 FMFlg1=         800
         NFxFlg=           0 DoJE=F BraDBF=F KetDBF=F FulRan=T
         wScrn=  0.000000 ICntrl=    2127 IOpCl=  0 I1Cent=           0 NGrid=           0
         NMat0=    1 NMatS0=      1 NMatT0=    0 NMatD0=    1 NMtDS0=    0 NMtDT0=    0
 Symmetry not used in FoFCou.
 Leave Link  703 at Fri Aug 27 21:30:38 2021, MaxMem= 17179869184 cpu:       133.0
 (Enter /public3/home/sc51754/softwares/g09e01/l716.exe)
 Dipole        = 9.10601032D-01 5.16013899D-01-1.64386919D-04
 ***** Axes restored to original set *****
 -------------------------------------------------------------------
 Center     Atomic                   Forces (Hartrees/Bohr)
 Number     Number              X              Y              Z
 -------------------------------------------------------------------
      1        6           0.001783294    0.000695085   -0.000025600
      2        6          -0.000400067    0.000799330    0.000006848
      3        6          -0.001424773   -0.000551395   -0.000000811
      4        6          -0.000425757   -0.000705655   -0.000016562
      5        6           0.001736317   -0.000582488    0.000061867
      6        7          -0.001247994    0.000009149   -0.000012955
      7        1           0.000113364    0.000407392    0.000009240
      8        1          -0.000053203    0.000112144    0.000001739
      9        1          -0.000047405   -0.000120671   -0.000002350
     10        1           0.000111577   -0.000433583   -0.000021660
     11        8           0.000071196    0.000890296    0.000001526
     12        1          -0.000216547   -0.000519605   -0.000001283
 -------------------------------------------------------------------
 Cartesian Forces:  Max     0.001783294 RMS     0.000621797
 Leave Link  716 at Fri Aug 27 21:30:38 2021, MaxMem= 17179869184 cpu:         0.2
 (Enter /public3/home/sc51754/softwares/g09e01/l103.exe)

 GradGradGradGradGradGradGradGradGradGradGradGradGradGradGradGradGradGrad
 Berny optimization.
 Using GEDIIS/GDIIS optimizer.
 FormGI is forming the generalized inverse of G from B-inverse, IUseBI=4.
 Internal  Forces:  Max     0.001484959 RMS     0.000469065
 Search for a local minimum.
 Step number   2 out of a maximum of   61
 All quantities printed in internal units (Hartrees-Bohrs-Radians)
 RMS Force = .46906D-03 SwitMx=.10000D-02 MixMth= 2
 Mixed Optimization -- En-DIIS/RFO-DIIS
 Update second derivatives using D2CorX and points    1    2
 DE= -6.52D-04 DEPred=-7.05D-04 R= 9.24D-01
 TightC=F SS=  1.41D+00  RLast= 5.46D-02 DXNew= 5.0454D-01 1.6386D-01
 Trust test= 9.24D-01 RLast= 5.46D-02 DXMaxT set to 3.00D-01
 ITU=  1  0
 Use linear search instead of GDIIS.
     Eigenvalues ---    0.02120   0.02139   0.02144   0.02163   0.02210
     Eigenvalues ---    0.02238   0.02269   0.02294   0.02415   0.15858
     Eigenvalues ---    0.16000   0.16000   0.16000   0.16011   0.22001
     Eigenvalues ---    0.22759   0.23725   0.24985   0.34982   0.35076
     Eigenvalues ---    0.35215   0.35499   0.42381   0.44797   0.46131
     Eigenvalues ---    0.49598   0.53125   0.53544   0.56202   0.56808
 RFO step:  Lambda=-1.97889688D-05 EMin= 2.11971708D-02
 Quartic linear search produced a step of -0.07467.
 Iteration  1 RMS(Cart)=  0.00182977 RMS(Int)=  0.00000239
 Iteration  2 RMS(Cart)=  0.00000242 RMS(Int)=  0.00000053
 Iteration  3 RMS(Cart)=  0.00000000 RMS(Int)=  0.00000053
 ITry= 1 IFail=0 DXMaxC= 7.30D-03 DCOld= 1.00D+10 DXMaxT= 3.00D-01 DXLimC= 3.00D+00 Rises=F
 Variable       Old X    -DE/DX   Delta X   Delta X   Delta X     New X
                                 (Linear)    (Quad)   (Total)
    R1        2.61700   0.00124   0.00131   0.00086   0.00217   2.61917
    R2        2.51013   0.00029   0.00136  -0.00123   0.00013   2.51027
    R3        2.04705   0.00041   0.00076   0.00015   0.00091   2.04796
    R4        2.62034   0.00148   0.00164   0.00105   0.00269   2.62303
    R5        2.04506   0.00012   0.00072  -0.00055   0.00016   2.04523
    R6        2.62111   0.00132   0.00158   0.00078   0.00236   2.62348
    R7        2.55577   0.00012   0.00088  -0.00085   0.00003   2.55580
    R8        2.61081   0.00123   0.00134   0.00078   0.00212   2.61293
    R9        2.04015   0.00013   0.00065  -0.00047   0.00019   2.04034
   R10        2.51739   0.00035   0.00135  -0.00110   0.00025   2.51764
   R11        2.04655   0.00042   0.00077   0.00018   0.00094   2.04749
   R12        1.81536  -0.00040   0.00088  -0.00175  -0.00087   1.81450
    A1        2.16963  -0.00067   0.00004  -0.00286  -0.00282   2.16681
    A2        2.08650   0.00021  -0.00012   0.00086   0.00074   2.08723
    A3        2.02706   0.00046   0.00008   0.00201   0.00209   2.02915
[...]
 Iteration  1 RMS(Cart)=  0.00025132 RMS(Int)=  0.00000004
 Iteration  2 RMS(Cart)=  0.00000005 RMS(Int)=  0.00000001
 ITry= 1 IFail=0 DXMaxC= 1.01D-03 DCOld= 1.00D+10 DXMaxT= 3.00D-01 DXLimC= 3.00D+00 Rises=F
 Variable       Old X    -DE/DX   Delta X   Delta X   Delta X     New X
                                 (Linear)    (Quad)   (Total)
    R1        2.61917   0.00024   0.00000   0.00047   0.00047   2.61964
    R2        2.51027  -0.00021   0.00000  -0.00044  -0.00044   2.50983
    R3        2.04796   0.00001   0.00000   0.00003   0.00003   2.04798
    R4        2.62303   0.00004   0.00000   0.00019   0.00019   2.62322
    R5        2.04523   0.00007   0.00000   0.00019   0.00019   2.04542
    R6        2.62348  -0.00003   0.00000  -0.00000  -0.00000   2.62347
    R7        2.55580  -0.00025   0.00000  -0.00054  -0.00054   2.55526
    R8        2.61293   0.00027   0.00000   0.00059   0.00059   2.61352
    R9        2.04034   0.00007   0.00000   0.00020   0.00020   2.04054
   R10        2.51764  -0.00025   0.00000  -0.00060  -0.00060   2.51704
   R11        2.04749   0.00001   0.00000   0.00004   0.00004   2.04753
   R12        1.81450  -0.00001   0.00000   0.00000   0.00000   1.81450
    A1        2.16681   0.00001   0.00000  -0.00012  -0.00012   2.16669
    A2        2.08723  -0.00000   0.00000  -0.00006  -0.00006   2.08717
    A3        2.02915  -0.00000   0.00000   0.00018   0.00018   2.02933
    A4        2.06237  -0.00002   0.00000  -0.00001  -0.00001   2.06237
    A5        2.10547   0.00008   0.00000   0.00055   0.00055   2.10602
    A6        2.11534  -0.00006   0.00000  -0.00054  -0.00054   2.11480
    A7        2.07106  -0.00004   0.00000  -0.00008  -0.00008   2.07098
    A8        2.14900   0.00005   0.00000   0.00011   0.00011   2.14912
    A9        2.06313  -0.00001   0.00000  -0.00003  -0.00003   2.06309
   A10        2.06033  -0.00003   0.00000  -0.00010  -0.00010   2.06023
   A11        2.09775  -0.00002   0.00000  -0.00022  -0.00022   2.09752
   A12        2.12511   0.00005   0.00000   0.00032   0.00032   2.12543
   A13        2.16996   0.00003   0.00000   0.00001   0.00001   2.16997
   A14        2.08773  -0.00002   0.00000  -0.00021  -0.00021   2.08752
   A15        2.02549  -0.00001   0.00000   0.00021   0.00021   2.02570
   A16        2.03584   0.00006   0.00000   0.00030   0.00030   2.03614
   A17        1.92037  -0.00009   0.00000  -0.00035  -0.00035   1.92002
    D1       -0.00010   0.00000   0.00000   0.00010   0.00010  -0.00000
    D2        3.14153   0.00000   0.00000   0.00006   0.00006   3.14159
    D3       -3.14155  -0.00000   0.00000  -0.00004  -0.00004   3.14159
    D4        0.00008  -0.00000   0.00000  -0.00008  -0.00008  -0.00000
    D5        0.00001  -0.00000   0.00000  -0.00001  -0.00001   0.00000
    D6        3.14147   0.00001   0.00000   0.00012   0.00012  -3.14159
    D7        0.00006  -0.00000   0.00000  -0.00006  -0.00006  -0.00000
    D8       -3.14154  -0.00000   0.00000  -0.00006  -0.00006   3.14159
    D9       -3.14157  -0.00000   0.00000  -0.00002  -0.00002  -3.14159
   D10        0.00002  -0.00000   0.00000  -0.00002  -0.00002   0.00000
   D11        0.00005  -0.00000   0.00000  -0.00005  -0.00005   0.00000
   D12       -3.14154  -0.00000   0.00000  -0.00005  -0.00005  -3.14159
   D13       -3.14154  -0.00000   0.00000  -0.00005  -0.00005  -3.14159
   D14        0.00005  -0.00000   0.00000  -0.00005  -0.00005   0.00000
   D15       -0.00012   0.00000   0.00000   0.00012   0.00012  -0.00000
   D16        3.14147   0.00000   0.00000   0.00012   0.00012   3.14159
   D17       -0.00015   0.00001   0.00000   0.00014   0.00014  -0.00000
   D18       -3.14146  -0.00001   0.00000  -0.00014  -0.00014   3.14159
   D19        3.14145   0.00001   0.00000   0.00014   0.00014   3.14159
   D20        0.00014  -0.00001   0.00000  -0.00015  -0.00015  -0.00000
   D21        0.00011  -0.00000   0.00000  -0.00011  -0.00011   0.00000
   D22        3.14143   0.00001   0.00000   0.00016   0.00016  -3.14159
         Item               Value     Threshold  Converged?
 Maximum Force            0.000268     0.000450     YES
 RMS     Force            0.000083     0.000300     YES
 Maximum Displacement     0.001006     0.001800     YES
 RMS     Displacement     0.000251     0.001200     YES
 Predicted change in Energy=-4.288058D-07
 Optimization completed.
    -- Stationary point found.
                           ----------------------------
                           !   Optimized Parameters   !
                           ! (Angstroms and Degrees)  !
 --------------------------                            --------------------------
 ! Name  Definition              Value          Derivative Info.                !
 --------------------------------------------------------------------------------
 ! R1    R(1,2)                  1.386          -DE/DX =    0.0002              !
 ! R2    R(1,6)                  1.3284         -DE/DX =   -0.0002              !
 ! R3    R(1,7)                  1.0837         -DE/DX =    0.0                 !
 ! R4    R(2,3)                  1.388          -DE/DX =    0.0                 !
 ! R5    R(2,8)                  1.0823         -DE/DX =    0.0001              !
 ! R6    R(3,4)                  1.3883         -DE/DX =    0.0                 !
 ! R7    R(3,11)                 1.3525         -DE/DX =   -0.0002              !
 ! R8    R(4,5)                  1.3827         -DE/DX =    0.0003              !
 ! R9    R(4,9)                  1.0797         -DE/DX =    0.0001              !
 ! R10   R(5,6)                  1.3323         -DE/DX =   -0.0003              !
 ! R11   R(5,10)                 1.0835         -DE/DX =    0.0                 !
 ! R12   R(11,12)                0.9602         -DE/DX =    0.0                 !
 ! A1    A(2,1,6)              124.1489         -DE/DX =    0.0                 !
 ! A2    A(2,1,7)              119.5896         -DE/DX =    0.0                 !
 ! A3    A(6,1,7)              116.2615         -DE/DX =    0.0                 !
 ! A4    A(1,2,3)              118.1654         -DE/DX =    0.0                 !
 ! A5    A(1,2,8)              120.6345         -DE/DX =    0.0001              !
 ! A6    A(3,2,8)              121.2001         -DE/DX =   -0.0001              !
 ! A7    A(2,3,4)              118.6628         -DE/DX =    0.0                 !
 ! A8    A(2,3,11)             123.1287         -DE/DX =    0.0001              !
 ! A9    A(4,3,11)             118.2084         -DE/DX =    0.0                 !
 ! A10   A(3,4,5)              118.0482         -DE/DX =    0.0                 !
 ! A11   A(3,4,9)              120.1921         -DE/DX =    0.0                 !
 ! A12   A(5,4,9)              121.7597         -DE/DX =    0.0001              !
 ! A13   A(4,5,6)              124.3297         -DE/DX =    0.0                 !
 ! A14   A(4,5,10)             119.618          -DE/DX =    0.0                 !
 ! A15   A(6,5,10)             116.0523         -DE/DX =    0.0                 !
 ! A16   A(1,6,5)              116.645          -DE/DX =    0.0001              !
 ! A17   A(3,11,12)            110.0293         -DE/DX =   -0.0001              !
 ! D1    D(6,1,2,3)             -0.0055         -DE/DX =    0.0                 !
 ! D2    D(6,1,2,8)            179.9966         -DE/DX =    0.0                 !
 ! D3    D(7,1,2,3)            180.0024         -DE/DX =    0.0                 !
 ! D4    D(7,1,2,8)              0.0045         -DE/DX =    0.0                 !
 ! D5    D(2,1,6,5)              0.0007         -DE/DX =    0.0                 !
 ! D6    D(7,1,6,5)           -180.0069         -DE/DX =    0.0                 !
 ! D7    D(1,2,3,4)              0.0033         -DE/DX =    0.0                 !
 ! D8    D(1,2,3,11)           180.0032         -DE/DX =    0.0                 !
 ! D9    D(8,2,3,4)           -179.9989         -DE/DX =    0.0                 !
 ! D10   D(8,2,3,11)             0.001          -DE/DX =    0.0                 !
 ! D11   D(2,3,4,5)              0.0031         -DE/DX =    0.0                 !
 ! D12   D(2,3,4,9)           -179.9973         -DE/DX =    0.0                 !
 ! D13   D(11,3,4,5)          -179.9968         -DE/DX =    0.0                 !
 ! D14   D(11,3,4,9)             0.0028         -DE/DX =    0.0                 !
 ! D15   D(2,3,11,12)           -0.0069         -DE/DX =    0.0                 !
 ! D16   D(4,3,11,12)          179.993          -DE/DX =    0.0                 !
 ! D17   D(3,4,5,6)             -0.0084         -DE/DX =    0.0                 !
 ! D18   D(3,4,5,10)           180.0078         -DE/DX =    0.0                 !
 ! D19   D(9,4,5,6)            179.992          -DE/DX =    0.0                 !
 ! D20   D(9,4,5,10)             0.0082         -DE/DX =    0.0                 !
 ! D21   D(4,5,6,1)              0.0064         -DE/DX =    0.0                 !
 ! D22   D(10,5,6,1)          -180.0093         -DE/DX =    0.0                 !
 --------------------------------------------------------------------------------
 GradGradGradGradGradGradGradGradGradGradGradGradGradGradGradGradGradGrad

 Leave Link  103 at Fri Aug 27 21:31:44 2021, MaxMem= 17179869184 cpu:        18.3
 (Enter /public3/home/sc51754/softwares/g09e01/l9999.exe)
 1\1\GINC-P1908\Freq\RM062X\Gen\C5H5N1O1\SC51754\27-Aug-2021\0\\#P Geom
 =AllCheck Guess=TCheck SCRF=Check GenChk RM062X/ChkBas Freq\\4HY_M062X
 _PC2_OPT_FREQ\\0,1\C,1.1458382886,1.1472906652,-0.0000652297\C,-0.2397
 284179,1.1821579575,0.000022552\C,-0.9254879286,-0.0246588712,-0.00002
 32502\C,-0.1953598142,-1.2054410954,-0.0000845611\C,1.184488567,-1.116
 6429389,-0.0000314556\N,1.8636248868,0.0295410223,-0.00008556\H,1.7045
 053294,2.0759267434,0.0000073269\H,-0.7676169904,2.1269758141,0.000089
 1968\H,-0.7035398685,-2.1580727524,-0.0001656724\H,1.7793494164,-2.022
 2278808,-0.0002063087\O,-2.2754024432,-0.1077394413,-0.0000087861\H,-2
 .6590630255,0.7724697775,0.0001447481\\Version=EM64L-G09RevE.01\State=
 1-A\HF=-323.5126595\RMSD=3.664e-09\RMSF=1.408e-04\ZeroPoint=0.0942401\
 Thermal=0.0994771\Dipole=-0.9104696,0.516863,0.0000919\DipoleDeriv=0.4
 644481,0.0258122,-0.0000267,-0.0192186,0.3840919,0.000019,0.0000136,0.
 0000501,-0.0005418,-0.4565959,-0.1302819,0.0000058,-0.313561,-0.143491
 6,0.0000208,-0.0000183,-0.0000077,-0.1654993,1.6381946,-0.00208,-0.000
 0212,-0.0030019,0.3574127,-0.0000248,-0.000028,-0.000019,0.1203773,-0.
 4556868,0.1390724,0.0000147,0.2889624,-0.1255973,0.0000158,0.0000442,0
 .0000083,-0.1540706,0.4786812,-0.0551891,0.0000007,0.0402771,0.3913444
 ,0.0000261,-0.0000586,0.0000719,-0.0024961,-0.6085228,0.0157309,0.0000
 024,-0.0150118,-0.6645929,-0.0000416,0.0000128,0.0000033,-0.2848266,0.
 0414246,-0.0639666,0.0000039,-0.0506342,-0.0698909,-0.0000022,-0.00001
 67,-0.0000372,0.1057953,0.0016631,0.0765937,0.0000109,0.0681347,-0.019
 3294,-0.0000092,0.0000158,-0.0000067,0.1548963,0.0560913,-0.0459862,-0
 .0000045,-0.0410803,0.0025646,-0.0000059,-0.0000133,-0.0000112,0.15434
 26,0.0390198,0.0707258,0.0000009,0.0538657,-0.0630971,-0.0000044,0.000
 0378,-0.0000663,0.1069947,-1.5867229,0.0270705,0.0000265,0.0244324,-0.
 2221845,0.0000247,0.0000034,0.0000312,-0.3638792,0.3880058,-0.0575019,
 -0.0000134,-0.0331644,0.1727703,-0.0000184,0.0000074,-0.0000167,0.3289
 075\Polar=79.1428853,-1.282347,75.1014474,-0.0009297,0.0012115,38.0363
 244\PG=C01 [X(C5H5N1O1)]\NImag=0\\0.70360934,0.04162677,0.75564794,-0.
 00001104,0.00002162,0.16661346,-0.34300970,-0.04417759,0.00001421,0.71
 541346,0.03625921,-0.13742536,-0.00000471,-0.03501097,0.74069245,0.000
 01832,-0.00000182,-0.06665788,-0.00002721,0.00003085,0.12130897,-0.028
 81566,-0.03469226,-0.00000108,-0.16641638,-0.11703412,-0.00000191,0.72
 543834,-0.10071121,0.05713298,0.00000493,-0.03258570,-0.30242799,-0.00
 001219,-0.01031207,0.73589087,-0.00000124,0.00000395,0.00192474,-0.000
 00159,-0.00001045,-0.07008612,-0.00001075,0.00003215,0.17233175,-0.061
 90231,0.04540526,0.00000314,0.06838375,0.02277525,-0.00000224,-0.16370
 070,0.04052511,0.00000453,0.72723556,0.02478389,-0.02155249,-0.0000008
 1,-0.01907575,-0.04812697,-0.00000155,0.12024479,-0.29789423,-0.000013
 60,0.03955991,0.74735508,0.00000094,-0.00000010,-0.00732905,0.00000032
 ,-0.00000259,0.00875332,0.00000428,-0.00001309,-0.07191965,0.00001343,
 0.00003816,0.12479575,0.06703355,-0.03144224,-0.00000388,-0.05934420,-
 0.02420226,0.00000118,-0.03683374,0.09399709,0.00000180,-0.35314608,-0
 .04587024,-0.00001377,0.71789262,0.03695145,-0.10372291,-0.00000202,-0
 .04720761,-0.02415548,0.00000166,0.02903010,0.06318425,0.00000345,0.03
 443674,-0.14119174,-0.00000648,-0.04640821,0.75041590,-0.00000178,-0.0
 0000187,0.00467993,0.00000070,0.00000143,-0.00778114,0.00000264,-0.000
 00119,0.00192931,-0.00000690,-0.00000453,-0.06670288,-0.00002318,0.000
 03505,0.16850866,-0.19409190,0.12639962,0.00000531,-0.03428036,0.03163
 359,0.00000269,0.01108810,0.00346097,-0.00000054,-0.02775233,-0.034970
 64,0.00000115,-0.18613654,-0.11944149,0.00000528,0.42435638,0.08346201
 ,-0.29063318,-0.00000456,0.10691137,0.03615474,-0.00000240,0.00397625,
 -0.10887693,-0.00000403,-0.10841215,0.03277183,0.00000360,-0.07646194,
 -0.29169098,0.00000285,-0.00798622,0.67164887,0.00000150,-0.00000325,-
 0.07236867,0.00000397,-0.00000208,0.02331236,-0.00000043,0.00000040,-0
 .00840885,-0.00000236,-0.00000025,0.02258086,0.00001184,0.00000856,-0.
 07248627,-0.00001301,-0.00000019,0.09952173,-0.14184243,-0.12877211,-0
 .00000754,-0.01126995,-0.02685027,-0.00000139,-0.00516184,0.00182520,0
 .00000050,-0.00064159,0.00099284,-0.00000004,0.00064145,0.00475366,0.0
 0000014,0.01378416,0.01951263,0.00000030,0.14445932,-0.12716741,-0.248
 01818,-0.00001220,0.00206641,0.00391270,-0.00000039,0.00137078,0.00122
 837,-0.00000062,0.00007983,0.00024671,0.00000006,0.00297422,-0.0022939
 3,-0.00000111,-0.00730806,-0.03244682,-0.00000034,0.12948959,0.2776799
 8,-0.00000892,-0.00001645,-0.04480903,0.00000140,0.00000169,0.00725156
 ,0.00000104,0.00000004,0.00808998,0.00000123,-0.00000067,-0.00084589,-
 0.00000161,-0.00000114,0.01023126,-0.00000143,0.00000186,-0.00285668,0
 .00000822,0.00001403,0.02831261,-0.00645136,0.03053809,0.00000109,-0.1
 2390945,0.11741655,0.00001047,0.00837101,-0.01420406,-0.00000084,-0.00
 045509,-0.00359840,0.00000004,-0.00152358,-0.00195715,0.00000009,-0.00
 691294,0.00033724,0.00000077,0.00066688,-0.00048605,-0.00000032,0.1262
 8522,-0.00168647,0.00322023,0.00000033,0.11765898,-0.27300948,-0.00001
 451,0.01850368,-0.01770643,-0.00000139,-0.00392174,-0.00324257,-0.0000
 0051,-0.00148743,-0.00013439,-0.00000005,-0.00043240,0.00249688,-0.000
 00032,0.00041110,0.00040199,0.00000011,-0.12832615,0.28702779,0.000000
 89,-0.00000190,0.00014127,0.00000928,-0.00001404,-0.03206288,0.0000007
 9,-0.00000046,0.00368098,0.00000006,-0.00000054,0.00587305,0.00000013,
 0.00000024,-0.00034218,0.00000021,0.00000007,0.00828801,0.,0.00000035,
 -0.00354063,-0.00001103,0.00001586,0.02263640,-0.00147512,0.00183505,-
 0.00000003,-0.00126544,0.00341574,-0.00000009,0.01158975,0.01582383,0.
 00000101,-0.12017371,-0.11847079,-0.00001174,-0.00527406,-0.02938335,-
 0.00000130,-0.00648052,-0.00061434,-0.00000021,0.00011824,-0.00022466,
 0.00000009,0.00051882,0.00091785,-0.00000005,0.12024095,0.00145556,-0.
 00001849,-0.00000011,0.00368699,-0.00296613,-0.00000069,-0.01639987,-0
 .01817853,-0.00000143,-0.11677489,-0.28293805,-0.00001801,0.00175953,0
 .00357502,0.00000043,0.00050795,0.00243472,-0.00000064,-0.00007727,0.0
 0000385,0.00000011,-0.00070968,-0.00083312,0.,0.12775413,0.29631777,0.
 00000005,0.00000023,-0.00032978,0.00000008,-0.00000059,0.00591725,-0.0
 0000099,-0.00000051,0.00474517,-0.00001023,-0.00001890,-0.03393683,-0.
 00000110,-0.00000134,0.00026535,0.00000077,0.00000039,0.00856863,0.000
 00003,0.00000005,-0.00139127,0.,-0.00000001,0.00012328,0.00001197,0.00
 001964,0.02388359,0.00099769,-0.00469869,0.00000090,-0.00067908,-0.001
 01234,0.00000002,-0.00479586,-0.00187112,0.00000038,-0.01210692,0.0262
 8949,0.00000392,-0.15310223,0.13410972,0.00002242,0.01396521,-0.017707
 48,-0.00000229,0.00033170,-0.00055228,0.00000011,0.00010927,0.00007713
 ,-0.00000016,0.00066353,-0.00044180,-0.00000041,0.15603256,-0.00285539
 ,-0.00268452,-0.00000103,-0.00011140,0.00027302,0.00000010,-0.00160284
 ,0.00105732,-0.00000112,-0.00264946,0.00482985,-0.00000073,0.13259652,
 -0.24169099,-0.00003007,0.00907565,-0.03253192,-0.00000187,0.00059990,
 -0.00086295,0.00000008,0.00023604,-0.00000658,0.00000011,0.00050644,0.
 00037366,0.00000067,-0.13596064,0.27095003,0.00000214,-0.00000013,0.00
 989579,-0.00000071,-0.00000079,-0.00078821,-0.00000082,-0.00000032,0.0
 0845328,-0.00000214,0.00000086,0.00744589,0.00002703,-0.00003780,-0.04
 626091,-0.00000030,0.00000359,-0.00256882,-0.00000010,0.00000013,0.000
 26524,-0.00000009,0.00000009,-0.00133445,0.00000031,0.00000027,-0.0037
 1836,-0.00002494,0.00003377,0.02938275,0.00726951,-0.00286871,-0.00000
 088,-0.04731901,-0.00833160,0.00000051,-0.32404419,-0.04306784,-0.0000
 0045,-0.04933635,0.01336829,0.00000147,0.00939348,0.00246461,0.0000018
 0,-0.00837124,-0.00141278,-0.00000022,-0.00139725,-0.00026371,0.000000
 19,0.00371975,0.00009933,-0.00000024,0.00144066,-0.00070345,-0.0000002
 1,-0.00097039,0.00033895,-0.00000024,0.52096535,0.00761383,-0.01071529
 ,-0.00000162,-0.04616750,0.00326633,0.00000041,0.00748303,-0.11464117,
 -0.00000799,0.05088850,0.00727586,-0.00000011,-0.00583738,-0.01201396,
 -0.00000075,-0.00063296,0.01062404,0.00000005,-0.00169147,0.00020567,0
 .00000033,-0.00023184,0.00278344,0.00000055,-0.00135483,0.00193609,0.0
 0000031,0.00175885,0.00022657,0.00000029,-0.15213392,0.57323123,-0.000
 00083,-0.00000004,0.00888853,0.00000028,0.00000062,0.01213794,0.000009
 41,-0.00000927,-0.04816774,0.00000211,0.00000190,0.00824010,0.00000177
 ,-0.00000023,0.00623496,-0.00000023,-0.00000135,-0.00347004,-0.0000000
 7,0.00000003,-0.00078251,-0.00000035,0.00000033,-0.00391163,0.00000002
 ,0.00000036,-0.00357931,0.00000013,0.00000004,-0.00039754,-0.00003885,
 0.00007953,0.03142226,-0.00132159,0.00084681,-0.00000020,0.00369637,0.
 00094123,-0.00000037,-0.02671883,0.04711979,0.00000719,-0.00640422,-0.
 00325339,0.,0.00039932,0.00265154,0.00000010,0.00083199,-0.00160458,0.
 00000014,0.00031132,0.00002135,0.,-0.00041853,-0.00181388,0.00000013,0
 .00009691,-0.00005719,0.00000003,-0.00044548,-0.00017378,-0.00000015,-
 0.11135032,0.14030568,0.00002661,0.14132306,0.00026777,-0.00123072,0.0
 0000016,-0.00598723,0.00381218,0.00000053,-0.00056748,0.00123148,0.000
 00108,-0.00191236,0.00246670,-0.00000019,0.00038235,-0.00028081,-0.000
 00019,-0.00030600,0.00004875,-0.00000009,-0.00019380,-0.00005739,0.,0.
 00098542,-0.00099776,-0.00000024,-0.00020509,0.00029320,0.00000007,0.0
 0000917,0.00006653,0.00000004,0.19251082,-0.46217881,-0.00007194,-0.18
 498357,0.45682664,-0.00000003,-0.00000026,-0.00064931,-0.00000073,0.00
 000066,-0.00130517,-0.00000218,-0.00000048,-0.00257286,-0.00000063,-0.
 00000007,0.00304534,-0.00000022,0.00000005,0.00172389,0.00000009,0.000
 00014,-0.00011226,-0.00000007,0.,0.00007536,0.00000019,0.00000008,0.00
 044879,0.00000002,0.00000005,-0.00054771,-0.00000009,0.00000004,-0.000
 37465,0.00003713,-0.00007101,-0.00661503,-0.00003348,0.00007078,0.0068
 8361\\-0.00037063,0.00022487,-0.00001556,0.00008671,-0.00002547,0.0000
 0433,0.00030697,-0.00001164,-0.00000200,0.00020883,-0.00000778,-0.0000
 0580,-0.00039700,-0.00029352,0.00002978,0.00026566,0.00004966,-0.00000
 538,-0.00001055,-0.00000314,0.00000564,0.00008372,-0.00002765,0.000000
 64,0.00007245,0.00004534,-0.00000202,0.00000683,0.00001363,-0.00001026
 ,-0.00019907,0.00005327,-0.00000118,-0.00005390,-0.00001759,0.00000181
 \\\@


 CONFIDENCE: THAT QUIET ASSURED FEELING YOU HAVE
 JUST BEFORE YOU FALL FLAT ON YOUR FACE.
 Job cpu time:       0 days  0 hours 48 minutes 53.5 seconds.
 File lengths (MBytes):  RWF=     79 Int=      0 D2E=      0 Chk=      7 Scr=      1
 Normal termination of Gaussian 09 at Fri Aug 27 21:31:44 2021.
