 Entering Gaussian System, Link 0=g09
 AtFile(1): pc-2.gbs
            -H     0
            S    4   1.00
                  0.754230D+02           0.240650D-02
                  0.113500D+02           0.184870D-01
                  0.259930D+01           0.897420D-01
                  0.735130D+00           0.281110D+00
            S    1   1.00
                  0.231670D+00           0.100000D+01
            S    1   1.00
                  0.741470D-01           0.100000D+01
            P    1   1.00
                  0.160000D+01           0.100000D+01
            P    1   1.00
                  0.450000D+00           0.100000D+01
            D    1   1.00
                  0.125000D+01           0.100000D+01
            ****
            -C     0
            S    7   1.00
                  0.785710D+04           0.568250D-03
                  0.117870D+04           0.439150D-02
                  0.268320D+03           0.225040D-01
                  0.759480D+02           0.866530D-01
                  0.245590D+02           0.244050D+00
                  0.862120D+01           0.441480D+00
                  0.312780D+01           0.353320D+00
            S    7   1.00
                  0.117870D+04          -0.594920D-06
                  0.268320D+03          -0.627480D-04
                  0.759480D+02          -0.757730D-03
                  0.245590D+02          -0.733080D-02
                  0.862120D+01          -0.389320D-01
                  0.312780D+01          -0.889080D-01
                  0.822020D+00           0.216890D+00
            S    1   1.00
                  0.330170D+00           0.100000D+01
            S    1   1.00
                  0.114630D+00           0.100000D+01
            P    4   1.00
                  0.337750D+02           0.602940D-02
                  0.767660D+01           0.432280D-01
                  0.223570D+01           0.163010D+00
                  0.764470D+00           0.365040D+00
            P    1   1.00
                  0.262320D+00           0.100000D+01
            P    1   1.00
                  0.846380D-01           0.100000D+01
            D    1   1.00
                  0.140000D+01           0.100000D+01
            D    1   1.00
                  0.450000D+00           0.100000D+01
            F    1   1.00
                  0.950000D+00           0.100000D+01
            ****
            -N     0
            S    7   1.00
                  0.111010D+05           0.545700D-03
                  0.166530D+04           0.421810D-02
                  0.379080D+03           0.216450D-01
                  0.107300D+03           0.837760D-01
                  0.347470D+02           0.238810D+00
                  0.122490D+02           0.439940D+00
                  0.447430D+01           0.363640D+00
            S    7   1.00
                  0.166530D+04          -0.150060D-05
                  0.379080D+03          -0.587530D-04
                  0.107300D+03          -0.774530D-03
                  0.347470D+02          -0.721610D-02
                  0.122490D+02          -0.393380D-01
                  0.447430D+01          -0.906110D-01
                  0.124040D+01           0.198820D+00
            S    1   1.00
                  0.487430D+00           0.100000D+01
            S    1   1.00
                  0.164840D+00           0.100000D+01
            P    4   1.00
                  0.479340D+02           0.617060D-02
                  0.109990D+02           0.442600D-01
                  0.324720D+01           0.168250D+00
                  0.111140D+01           0.368480D+00
            P    1   1.00
                  0.379880D+00           0.100000D+01
            P    1   1.00
                  0.120680D+00           0.100000D+01
            D    1   1.00
                  0.180000D+01           0.100000D+01
            D    1   1.00
                  0.550000D+00           0.100000D+01
            F    1   1.00
                  0.102000D+01           0.100000D+01
            ****
            -O     0
            S    7   1.00
                  0.147820D+05           0.535190D-03
                  0.221730D+04           0.413750D-02
                  0.504740D+03           0.212450D-01
                  0.142870D+03           0.824530D-01
                  0.463000D+02           0.236710D+00
                  0.163370D+02           0.440390D+00
                  0.598280D+01           0.364650D+00
            S    7   1.00
                  0.221730D+04          -0.192750D-05
                  0.504740D+03          -0.579640D-04
                  0.142870D+03          -0.794940D-03
                  0.463000D+02          -0.731250D-02
                  0.163370D+02          -0.405740D-01
                  0.598280D+01          -0.915940D-01
                  0.167180D+01           0.209400D+00
            S    1   1.00
                  0.646620D+00           0.100000D+01
            S    1   1.00
                  0.216690D+00           0.100000D+01
            P    4   1.00
                  0.604240D+02           0.689490D-02
                  0.139350D+02           0.490050D-01
                  0.415310D+01           0.182550D+00
                  0.141580D+01           0.376330D+00
            P    1   1.00
                  0.475490D+00           0.100000D+01
            P    1   1.00
                  0.145290D+00           0.100000D+01
            D    1   1.00
                  0.220000D+01           0.100000D+01
            D    1   1.00
                  0.650000D+00           0.100000D+01
            F    1   1.00
                  0.110000D+01           0.100000D+01
            ****
 Initial command:
 /public3/home/sc51754/softwares/g09e01/l1.exe "./Gau-53426.inp" -scrdir="./"
 Entering Link 1 = /public3/home/sc51754/softwares/g09e01/l1.exe PID=     53427.
  
 Copyright (c) 1988,1990,1992,1993,1995,1998,2003,2009,2015,
            Gaussian, Inc.  All Rights Reserved.
  
 This is part of the Gaussian(R) 09 program.  It is based on
 the Gaussian(R) 03 system (copyright 2003, Gaussian, Inc.),
 the Gaussian(R) 98 system (copyright 1998, Gaussian, Inc.),
 the Gaussian(R) 94 system (copyright 1995, Gaussian, Inc.),
 the Gaussian 92(TM) system (copyright 1992, Gaussian, Inc.),
 the Gaussian 90(TM) system (copyright 1990, Gaussian, Inc.),
 the Gaussian 88(TM) system (copyright 1988, Gaussian, Inc.),
 the Gaussian 86(TM) system (copyright 1986, Carnegie Mellon
 University), and the Gaussian 82(TM) system (copyright 1983,
 Carnegie Mellon University). Gaussian is a federally registered
 trademark of Gaussian, Inc.
  
 This software contains proprietary and confidential information,
 including trade secrets, belonging to Gaussian, Inc.
  
 This software is provided under written license and may be
 used, copied, transmitted, or stored only in accord with that
 written license.
  
 The following legend is applicable only to US Government
 contracts under FAR:
  
                    RESTRICTED RIGHTS LEGEND
  
 Use, reproduction and disclosure by the US Government is
 subject to restrictions as set forth in subparagraphs (a)
 and (c) of the Commercial Computer Software - Restricted
 Rights clause in FAR 52.227-19.
  
 Gaussian, Inc.
 340 Quinnipiac St., Bldg. 40, Wallingford CT 06492
  
  
 ---------------------------------------------------------------
 Warning -- This program may not be used in any manner that
 competes with the business of Gaussian, Inc. or will provide
 assistance to any competitor of Gaussian, Inc.  The licensee
 of this program is prohibited from giving any competitor of
 Gaussian, Inc. access to this program.  By using this program,
 the user acknowledges that Gaussian, Inc. is engaged in the
 business of creating and licensing software in the field of
 computational chemistry and represents and warrants to the
 licensee that it is not a competitor of Gaussian, Inc. and that
 it will not use this program in any manner prohibited above.
 ---------------------------------------------------------------
  

 Cite this work as:
 Gaussian 09, Revision E.01,
 M. J. Frisch, G. W. Trucks, H. B. Schlegel, G. E. Scuseria, 
 M. A. Robb, J. R. Cheeseman, G. Scalmani, V. Barone, B. Mennucci, 
 G. A. Petersson, H. Nakatsuji, M. Caricato, X. Li, H. P. Hratchian, 
 A. F. Izmaylov, J. Bloino, G. Zheng, J. L. Sonnenberg, M. Hada, 
 M. Ehara, K. Toyota, R. Fukuda, J. Hasegawa, M. Ishida, T. Nakajima, 
 Y. Honda, O. Kitao, H. Nakai, T. Vreven, J. A. Montgomery, Jr., 
 J. E. Peralta, F. Ogliaro, M. Bearpark, J. J. Heyd, E. Brothers, 
 K. N. Kudin, V. N. Staroverov, T. Keith, R. Kobayashi, J. Normand, 
 K. Raghavachari, A. Rendell, J. C. Burant, S. S. Iyengar, J. Tomasi, 
 M. Cossi, N. Rega, J. M. Millam, M. Klene, J. E. Knox, J. B. Cross, 
 V. Bakken, C. Adamo, J. Jaramillo, R. Gomperts, R. E. Stratmann, 
 O. Yazyev, A. J. Austin, R. Cammi, C. Pomelli, J. W. Ochterski, 
 R. L. Martin, K. Morokuma, V. G. Zakrzewski, G. A. Voth, 
 P. Salvador, J. J. Dannenberg, S. Dapprich, A. D. Daniels, 
 O. Farkas, J. B. Foresman, J. V. Ortiz, J. Cioslowski, 
 and D. J. Fox, Gaussian, Inc., Wallingford CT, 2013.
 
 ******************************************
 Gaussian 09:  EM64L-G09RevE.01 30-Nov-2015
                27-Aug-2021 
 ******************************************
 %nprocshared=64
 Will use up to   64 processors via shared memory.
 %mem=128GB
 %chk=4HY_wB97_PC2_OPT_FREQ.chk
 --------------------
 #p opt freq wB97/gen
 --------------------
 1/14=-1,18=20,19=15,26=3,38=1/1,3;
 2/9=110,12=2,17=6,18=5,40=1/2;
 3/5=7,11=2,16=1,25=1,30=1,71=1,74=-56/1,2,3;
 4//1;
 5/5=2,38=5/2;
 6/7=2,8=2,9=2,10=2,28=1/1;
 7//1,2,3,16;
 1/14=-1,18=20,19=15,26=3/3(2);
 2/9=110/2;
 99//99;
 2/9=110/2;
 3/5=7,6=1,11=2,16=1,25=1,30=1,71=1,74=-56,82=7/1,2,3;
 4/5=5,16=3,69=1/1;
 5/5=2,38=5/2;
 7//1,2,3,16;
 1/14=-1,18=20,19=15,26=3/3(-5);
 2/9=110/2;
 6/7=2,8=2,9=2,10=2,19=2,28=1/1;
 99/9=1/99;
 Leave Link    1 at Fri Aug 27 21:26:01 2021, MaxMem= 17179869184 cpu:         8.0
 (Enter /public3/home/sc51754/softwares/g09e01/l101.exe)
 ---------------------
 4HY_wB97_PC2_OPT_FREQ
 ---------------------
 Symbolic Z-matrix:
 Charge =  0 Multiplicity = 1
 C                     1.15223   1.15341  -0.00011 
 C                    -0.24145   1.18944   0.00003 
 C                    -0.93443  -0.02499   0.00004 
 C                    -0.19715  -1.21307  -0.00009 
 C                     1.19102  -1.12281   0.00022 
 N                     1.87822   0.02956   0.00002 
 H                     1.71189   2.08718  -0.0001 
 H                    -0.77027   2.13945  -0.00002 
 H                    -0.70664  -2.17013  -0.00044 
 H                     1.78719  -2.03343  -0.00024 
 O                    -2.29029  -0.1124   -0.00001 
 H                    -2.6687    0.77737   0.00031 
 
 NAtoms=     12 NQM=       12 NQMF=       0 NMMI=      0 NMMIF=      0
                NMic=       0 NMicF=      0.
                    Isotopes and Nuclear Properties:
 (Nuclear quadrupole moments (NQMom) in fm**2, nuclear magnetic moments (NMagM)
  in nuclear magnetons)

  Atom         1           2           3           4           5           6           7           8           9          10
 IAtWgt=          12          12          12          12          12          14           1           1           1           1
 AtmWgt=  12.0000000  12.0000000  12.0000000  12.0000000  12.0000000  14.0030740   1.0078250   1.0078250   1.0078250   1.0078250
 NucSpn=           0           0           0           0           0           2           1           1           1           1
 AtZEff=   0.0000000   0.0000000   0.0000000   0.0000000   0.0000000   0.0000000   0.0000000   0.0000000   0.0000000   0.0000000
 NQMom=    0.0000000   0.0000000   0.0000000   0.0000000   0.0000000   2.0440000   0.0000000   0.0000000   0.0000000   0.0000000
 NMagM=    0.0000000   0.0000000   0.0000000   0.0000000   0.0000000   0.4037610   2.7928460   2.7928460   2.7928460   2.7928460
 AtZNuc=   6.0000000   6.0000000   6.0000000   6.0000000   6.0000000   7.0000000   1.0000000   1.0000000   1.0000000   1.0000000

  Atom        11          12
 IAtWgt=          16           1
 AtmWgt=  15.9949146   1.0078250
 NucSpn=           0           1
 AtZEff=   0.0000000   0.0000000
 NQMom=    0.0000000   0.0000000
 NMagM=    0.0000000   2.7928460
 AtZNuc=   8.0000000   1.0000000
 Leave Link  101 at Fri Aug 27 21:26:01 2021, MaxMem= 17179869184 cpu:        11.2
 (Enter /public3/home/sc51754/softwares/g09e01/l103.exe)

 GradGradGradGradGradGradGradGradGradGradGradGradGradGradGradGradGradGrad
 Berny optimization.
 Initialization pass.
                           ----------------------------
                           !    Initial Parameters    !
                           ! (Angstroms and Degrees)  !
 --------------------------                            --------------------------
 ! Name  Definition              Value          Derivative Info.                !
 --------------------------------------------------------------------------------
 ! R1    R(1,2)                  1.3941         estimate D2E/DX2                !
 ! R2    R(1,6)                  1.3379         estimate D2E/DX2                !
 ! R3    R(1,7)                  1.0886         estimate D2E/DX2                !
 ! R4    R(2,3)                  1.3982         estimate D2E/DX2                !
 ! R5    R(2,8)                  1.0873         estimate D2E/DX2                !
 ! R6    R(3,4)                  1.3983         estimate D2E/DX2                !
 ! R7    R(3,11)                 1.3587         estimate D2E/DX2                !
 ! R8    R(4,5)                  1.3911         estimate D2E/DX2                !
 ! R9    R(4,9)                  1.0842         estimate D2E/DX2                !
 ! R10   R(5,6)                  1.3417         estimate D2E/DX2                !
 ! R11   R(5,10)                 1.0884         estimate D2E/DX2                !
 ! R12   R(11,12)                0.9669         estimate D2E/DX2                !
 ! A1    A(2,1,6)              124.3426         estimate D2E/DX2                !
 ! A2    A(2,1,7)              119.4556         estimate D2E/DX2                !
 ! A3    A(6,1,7)              116.2018         estimate D2E/DX2                !
 ! A4    A(1,2,3)              118.2292         estimate D2E/DX2                !
 ! A5    A(1,2,8)              120.5831         estimate D2E/DX2                !
 ! A6    A(3,2,8)              121.1877         estimate D2E/DX2                !
 ! A7    A(2,3,4)              118.4682         estimate D2E/DX2                !
 ! A8    A(2,3,11)             123.3985         estimate D2E/DX2                !
 ! A9    A(4,3,11)             118.1333         estimate D2E/DX2                !
 ! A10   A(3,4,5)              118.1015         estimate D2E/DX2                !
 ! A11   A(3,4,9)              120.1493         estimate D2E/DX2                !
 ! A12   A(5,4,9)              121.7493         estimate D2E/DX2                !
 ! A13   A(4,5,6)              124.5296         estimate D2E/DX2                !
 ! A14   A(4,5,10)             119.4914         estimate D2E/DX2                !
 ! A15   A(6,5,10)             115.9789         estimate D2E/DX2                !
 ! A16   A(1,6,5)              116.3289         estimate D2E/DX2                !
 ! A17   A(3,11,12)            109.3507         estimate D2E/DX2                !
 ! D1    D(6,1,2,3)             -0.0135         estimate D2E/DX2                !
 ! D2    D(6,1,2,8)            179.9955         estimate D2E/DX2                !
 ! D3    D(7,1,2,3)           -179.9987         estimate D2E/DX2                !
 ! D4    D(7,1,2,8)              0.0102         estimate D2E/DX2                !
 ! D5    D(2,1,6,5)              0.0039         estimate D2E/DX2                !
 ! D6    D(7,1,6,5)            179.9896         estimate D2E/DX2                !
 ! D7    D(1,2,3,4)              0.0007         estimate D2E/DX2                !
 ! D8    D(1,2,3,11)          -179.9909         estimate D2E/DX2                !
 ! D9    D(8,2,3,4)            179.9917         estimate D2E/DX2                !
 ! D10   D(8,2,3,11)             0.0001         estimate D2E/DX2                !
 ! D11   D(2,3,4,5)              0.0198         estimate D2E/DX2                !
 ! D12   D(2,3,4,9)           -179.978          estimate D2E/DX2                !
 ! D13   D(11,3,4,5)          -179.9882         estimate D2E/DX2                !
 ! D14   D(11,3,4,9)             0.014          estimate D2E/DX2                !
 ! D15   D(2,3,11,12)           -0.0225         estimate D2E/DX2                !
 ! D16   D(4,3,11,12)          179.9859         estimate D2E/DX2                !
 ! D17   D(3,4,5,6)             -0.0313         estimate D2E/DX2                !
 ! D18   D(3,4,5,10)          -179.9777         estimate D2E/DX2                !
 ! D19   D(9,4,5,6)            179.9664         estimate D2E/DX2                !
 ! D20   D(9,4,5,10)             0.0201         estimate D2E/DX2                !
 ! D21   D(4,5,6,1)              0.0192         estimate D2E/DX2                !
 ! D22   D(10,5,6,1)           179.9673         estimate D2E/DX2                !
 --------------------------------------------------------------------------------
 Trust Radius=3.00D-01 FncErr=1.00D-07 GrdErr=1.00D-06
 Number of steps in this run=     61 maximum allowed number of steps=    100.
 GradGradGradGradGradGradGradGradGradGradGradGradGradGradGradGradGradGrad

 Leave Link  103 at Fri Aug 27 21:26:01 2021, MaxMem= 17179869184 cpu:         0.1
 (Enter /public3/home/sc51754/softwares/g09e01/l202.exe)
                          Input orientation:                          
 ---------------------------------------------------------------------
 Center     Atomic      Atomic             Coordinates (Angstroms)
 Number     Number       Type             X           Y           Z
 ---------------------------------------------------------------------
      1          6           0        1.152230    1.153409   -0.000114
      2          6           0       -0.241450    1.189435    0.000028
      3          6           0       -0.934425   -0.024989    0.000035
      4          6           0       -0.197153   -1.213074   -0.000085
      5          6           0        1.191022   -1.122808    0.000218
      6          7           0        1.878221    0.029557    0.000015
      7          1           0        1.711886    2.087182   -0.000101
      8          1           0       -0.770273    2.139452   -0.000016
      9          1           0       -0.706644   -2.170125   -0.000442
     10          1           0        1.787188   -2.033434   -0.000236
     11          8           0       -2.290294   -0.112398   -0.000014
     12          1           0       -2.668700    0.777372    0.000305
 ---------------------------------------------------------------------
                    Distance matrix (angstroms):
                    1          2          3          4          5
     1  C    0.000000
     2  C    1.394146   0.000000
     3  C    2.396404   1.398227   0.000000
     4  C    2.724165   2.402917   1.398255   0.000000
     5  C    2.276548   2.720008   2.392223   1.391107   0.000000
     6  N    1.337949   2.416262   2.813175   2.418948   1.341711
     7  H    1.088645   2.149761   3.385887   3.812626   3.251974
     8  H    2.160625   1.087284   2.170657   3.401161   3.806444
     9  H    3.808056   3.391615   2.157196   1.084218   2.167489
    10  H    3.249483   3.808183   3.382459   2.147231   1.088418
    11  O    3.667866   2.427454   1.358684   2.364895   3.624981
    12  H    3.839389   2.461979   1.910888   3.173393   4.302109
                    6          7          8          9         10
     6  N    0.000000
     7  H    2.064337   0.000000
     8  H    3.386174   2.482709   0.000000
     9  H    3.394131   4.896320   4.310047   0.000000
    10  H    2.064999   4.121304   4.894240   2.497575   0.000000
    11  O    4.170931   4.566793   2.716853   2.596572   4.507354
    12  H    4.608006   4.572213   2.336512   3.540820   5.268355
                   11         12
    11  O    0.000000
    12  H    0.966893   0.000000
 Stoichiometry    C5H5NO
 Framework group  C1[X(C5H5NO)]
 Deg. of freedom    30
 Full point group                 C1      NOp   1
 Largest Abelian subgroup         C1      NOp   1
 Largest concise Abelian subgroup C1      NOp   1
                         Standard orientation:                         
 ---------------------------------------------------------------------
 Center     Atomic      Atomic             Coordinates (Angstroms)
 Number     Number       Type             X           Y           Z
 ---------------------------------------------------------------------
      1          6           0       -1.152230    1.153409    0.000114
      2          6           0        0.241450    1.189435   -0.000028
      3          6           0        0.934425   -0.024989   -0.000035
      4          6           0        0.197153   -1.213074    0.000085
      5          6           0       -1.191022   -1.122808   -0.000218
      6          7           0       -1.878221    0.029557   -0.000015
      7          1           0       -1.711887    2.087182    0.000101
      8          1           0        0.770272    2.139452    0.000016
      9          1           0        0.706644   -2.170125    0.000442
     10          1           0       -1.787188   -2.033434    0.000236
     11          8           0        2.290294   -0.112397    0.000014
     12          1           0        2.668700    0.777373   -0.000305
 ---------------------------------------------------------------------
 Rotational constants (GHZ):      5.9862655      2.6268417      1.8257026
 Leave Link  202 at Fri Aug 27 21:26:02 2021, MaxMem= 17179869184 cpu:         4.7
 (Enter /public3/home/sc51754/softwares/g09e01/l301.exe)
 General basis read from cards:  (5D, 7F)
 Centers:       7      8      9     10     12
 S 4 1.00
     Exponent=  7.5423000000D+01 Coefficients=  2.4065000000D-03
     Exponent=  1.1350000000D+01 Coefficients=  1.8487000000D-02
     Exponent=  2.5993000000D+00 Coefficients=  8.9742000000D-02
     Exponent=  7.3513000000D-01 Coefficients=  2.8111000000D-01
 S 1 1.00
     Exponent=  2.3167000000D-01 Coefficients=  1.0000000000D+00
 S 1 1.00
     Exponent=  7.4147000000D-02 Coefficients=  1.0000000000D+00
 P 1 1.00
     Exponent=  1.6000000000D+00 Coefficients=  1.0000000000D+00
 P 1 1.00
     Exponent=  4.5000000000D-01 Coefficients=  1.0000000000D+00
 D 1 1.00
     Exponent=  1.2500000000D+00 Coefficients=  1.0000000000D+00
 ****
 Centers:       1      2      3      4      5
 S 7 1.00
     Exponent=  7.8571000000D+03 Coefficients=  5.6825000000D-04
     Exponent=  1.1787000000D+03 Coefficients=  4.3915000000D-03
     Exponent=  2.6832000000D+02 Coefficients=  2.2504000000D-02
     Exponent=  7.5948000000D+01 Coefficients=  8.6653000000D-02
     Exponent=  2.4559000000D+01 Coefficients=  2.4405000000D-01
     Exponent=  8.6212000000D+00 Coefficients=  4.4148000000D-01
     Exponent=  3.1278000000D+00 Coefficients=  3.5332000000D-01
 S 7 1.00
     Exponent=  1.1787000000D+03 Coefficients= -5.9492000000D-07
     Exponent=  2.6832000000D+02 Coefficients= -6.2748000000D-05
     Exponent=  7.5948000000D+01 Coefficients= -7.5773000000D-04
     Exponent=  2.4559000000D+01 Coefficients= -7.3308000000D-03
     Exponent=  8.6212000000D+00 Coefficients= -3.8932000000D-02
     Exponent=  3.1278000000D+00 Coefficients= -8.8908000000D-02
     Exponent=  8.2202000000D-01 Coefficients=  2.1689000000D-01
 S 1 1.00
     Exponent=  3.3017000000D-01 Coefficients=  1.0000000000D+00
 S 1 1.00
     Exponent=  1.1463000000D-01 Coefficients=  1.0000000000D+00
 P 4 1.00
     Exponent=  3.3775000000D+01 Coefficients=  6.0294000000D-03
     Exponent=  7.6766000000D+00 Coefficients=  4.3228000000D-02
     Exponent=  2.2357000000D+00 Coefficients=  1.6301000000D-01
     Exponent=  7.6447000000D-01 Coefficients=  3.6504000000D-01
 P 1 1.00
     Exponent=  2.6232000000D-01 Coefficients=  1.0000000000D+00
 P 1 1.00
     Exponent=  8.4638000000D-02 Coefficients=  1.0000000000D+00
 D 1 1.00
     Exponent=  1.4000000000D+00 Coefficients=  1.0000000000D+00
 D 1 1.00
     Exponent=  4.5000000000D-01 Coefficients=  1.0000000000D+00
 F 1 1.00
     Exponent=  9.5000000000D-01 Coefficients=  1.0000000000D+00
 ****
 Centers:       6
 S 7 1.00
     Exponent=  1.1101000000D+04 Coefficients=  5.4570000000D-04
     Exponent=  1.6653000000D+03 Coefficients=  4.2181000000D-03
     Exponent=  3.7908000000D+02 Coefficients=  2.1645000000D-02
     Exponent=  1.0730000000D+02 Coefficients=  8.3776000000D-02
     Exponent=  3.4747000000D+01 Coefficients=  2.3881000000D-01
     Exponent=  1.2249000000D+01 Coefficients=  4.3994000000D-01
     Exponent=  4.4743000000D+00 Coefficients=  3.6364000000D-01
 S 7 1.00
     Exponent=  1.6653000000D+03 Coefficients= -1.5006000000D-06
     Exponent=  3.7908000000D+02 Coefficients= -5.8753000000D-05
     Exponent=  1.0730000000D+02 Coefficients= -7.7453000000D-04
     Exponent=  3.4747000000D+01 Coefficients= -7.2161000000D-03
     Exponent=  1.2249000000D+01 Coefficients= -3.9338000000D-02
     Exponent=  4.4743000000D+00 Coefficients= -9.0611000000D-02
     Exponent=  1.2404000000D+00 Coefficients=  1.9882000000D-01
 S 1 1.00
     Exponent=  4.8743000000D-01 Coefficients=  1.0000000000D+00
 S 1 1.00
     Exponent=  1.6484000000D-01 Coefficients=  1.0000000000D+00
 P 4 1.00
     Exponent=  4.7934000000D+01 Coefficients=  6.1706000000D-03
     Exponent=  1.0999000000D+01 Coefficients=  4.4260000000D-02
     Exponent=  3.2472000000D+00 Coefficients=  1.6825000000D-01
     Exponent=  1.1114000000D+00 Coefficients=  3.6848000000D-01
 P 1 1.00
     Exponent=  3.7988000000D-01 Coefficients=  1.0000000000D+00
 P 1 1.00
     Exponent=  1.2068000000D-01 Coefficients=  1.0000000000D+00
 D 1 1.00
     Exponent=  1.8000000000D+00 Coefficients=  1.0000000000D+00
 D 1 1.00
     Exponent=  5.5000000000D-01 Coefficients=  1.0000000000D+00
 F 1 1.00
     Exponent=  1.0200000000D+00 Coefficients=  1.0000000000D+00
 ****
 Centers:      11
 S 7 1.00
     Exponent=  1.4782000000D+04 Coefficients=  5.3519000000D-04
     Exponent=  2.2173000000D+03 Coefficients=  4.1375000000D-03
     Exponent=  5.0474000000D+02 Coefficients=  2.1245000000D-02
     Exponent=  1.4287000000D+02 Coefficients=  8.2453000000D-02
     Exponent=  4.6300000000D+01 Coefficients=  2.3671000000D-01
     Exponent=  1.6337000000D+01 Coefficients=  4.4039000000D-01
     Exponent=  5.9828000000D+00 Coefficients=  3.6465000000D-01
 S 7 1.00
     Exponent=  2.2173000000D+03 Coefficients= -1.9275000000D-06
     Exponent=  5.0474000000D+02 Coefficients= -5.7964000000D-05
     Exponent=  1.4287000000D+02 Coefficients= -7.9494000000D-04
     Exponent=  4.6300000000D+01 Coefficients= -7.3125000000D-03
     Exponent=  1.6337000000D+01 Coefficients= -4.0574000000D-02
     Exponent=  5.9828000000D+00 Coefficients= -9.1594000000D-02
     Exponent=  1.6718000000D+00 Coefficients=  2.0940000000D-01
 S 1 1.00
     Exponent=  6.4662000000D-01 Coefficients=  1.0000000000D+00
 S 1 1.00
     Exponent=  2.1669000000D-01 Coefficients=  1.0000000000D+00
 P 4 1.00
     Exponent=  6.0424000000D+01 Coefficients=  6.8949000000D-03
     Exponent=  1.3935000000D+01 Coefficients=  4.9005000000D-02
     Exponent=  4.1531000000D+00 Coefficients=  1.8255000000D-01
     Exponent=  1.4158000000D+00 Coefficients=  3.7633000000D-01
 P 1 1.00
     Exponent=  4.7549000000D-01 Coefficients=  1.0000000000D+00
 P 1 1.00
     Exponent=  1.4529000000D-01 Coefficients=  1.0000000000D+00
 D 1 1.00
     Exponent=  2.2000000000D+00 Coefficients=  1.0000000000D+00
 D 1 1.00
     Exponent=  6.5000000000D-01 Coefficients=  1.0000000000D+00
 F 1 1.00
     Exponent=  1.1000000000D+00 Coefficients=  1.0000000000D+00
 ****
 Ernie: Thresh=  0.10000D-02 Tol=  0.10000D-05 Strict=F.
 Ernie:  7 primitive shells out of 220 were deleted.
 There are   320 symmetry adapted cartesian basis functions of A   symmetry.
 There are   280 symmetry adapted basis functions of A   symmetry.
   280 basis functions,   475 primitive gaussians,   320 cartesian basis functions
    25 alpha electrons       25 beta electrons
       nuclear repulsion energy       273.7666329457 Hartrees.
 IExCor= 4437 DFT=T Ex+Corr=wB97 ExCW=0 ScaHFX=  1.000000
 ScaDFX=  1.000000  1.000000  1.000000  1.000000 ScalE2=  1.000000  1.000000
 IRadAn=      0 IRanWt=     -1 IRanGd=            0 ICorTp=0 IEmpDi=  4
  HFx wShort=  0.000000 wLong=  0.400000 cFull=  0.000000 cShort=  0.000000 cLong=  1.000000
  DFx wShort=  0.000000 wLong=  0.400000 cFull=  0.000000 cShort=  0.000000 cLong=  1.000000
 NAtoms=   12 NActive=   12 NUniq=   12 SFac= 1.00D+00 NAtFMM=   60 NAOKFM=F Big=F
 Integral buffers will be    131072 words long.
 Raffenetti 2 integral format.
 Two-electron integral symmetry is turned on.
 Leave Link  301 at Fri Aug 27 21:26:02 2021, MaxMem= 17179869184 cpu:         1.9
 (Enter /public3/home/sc51754/softwares/g09e01/l302.exe)
 NPDir=0 NMtPBC=     1 NCelOv=     1 NCel=       1 NClECP=     1 NCelD=      1
         NCelK=      1 NCelE2=     1 NClLst=     1 CellRange=     0.0.
 One-electron integrals computed using PRISM.
 NBasis=   280 RedAO= T EigKep=  2.00D-04  NBF=   280
 NBsUse=   280 1.00D-06 EigRej= -1.00D+00 NBFU=   280
 Precomputing XC quadrature grid using
 IXCGrd= 4 IRadAn=           0 IRanWt=          -1 IRanGd=           0 AccXCQ= 0.00D+00.
 Generated NRdTot=       0 NPtTot=           0 NUsed=           0 NTot=          32
 NSgBfM=   320   320   320   320   320 MxSgAt=    12 MxSgA2=    12.
 Leave Link  302 at Fri Aug 27 21:26:03 2021, MaxMem= 17179869184 cpu:        44.1
 (Enter /public3/home/sc51754/softwares/g09e01/l303.exe)
 DipDrv:  MaxL=1.
 Leave Link  303 at Fri Aug 27 21:26:03 2021, MaxMem= 17179869184 cpu:        12.6
 (Enter /public3/home/sc51754/softwares/g09e01/l401.exe)
 ExpMin= 7.41D-02 ExpMax= 1.48D+04 ExpMxC= 5.05D+02 IAcc=2 IRadAn=         4 AccDes= 0.00D+00
 Harris functional with IExCor= 4437 and IRadAn=       4 diagonalized for initial guess.
 HarFok:  IExCor= 4437 AccDes= 0.00D+00 IRadAn=         4 IDoV= 1 UseB2=F ITyADJ=14
 ICtDFT=  3500011 ScaDFX=  1.000000  1.000000  1.000000  1.000000
 FoFCou: FMM=F IPFlag=           0 FMFlag=      100000 FMFlg1=           0
         NFxFlg=           0 DoJE=T BraDBF=F KetDBF=T FulRan=T
         wScrn=  0.000000 ICntrl=     500 IOpCl=  0 I1Cent=   200000004 NGrid=           0
         NMat0=    1 NMatS0=      1 NMatT0=    0 NMatD0=    1 NMtDS0=    0 NMtDT0=    0
 Petite list used in FoFCou.
 Harris En= -313.574324263504    
 JPrj=0 DoOrth=F DoCkMO=F.
 Leave Link  401 at Fri Aug 27 21:26:04 2021, MaxMem= 17179869184 cpu:        43.4
 (Enter /public3/home/sc51754/softwares/g09e01/l502.exe)
 Closed shell SCF:
 Using DIIS extrapolation, IDIIS=  1040.
 Integral symmetry usage will be decided dynamically.
 Keep R1 ints in memory in canonical form, NReq=1564561414.
 IVT=      348554 IEndB=      348554 NGot= 17179869184 MDV= 15631845691
 LenX= 15631845691 LenY= 15631742850
 Requested convergence on RMS density matrix=1.00D-08 within 128 cycles.
 Requested convergence on MAX density matrix=1.00D-06.
 Requested convergence on             energy=1.00D-06.
 No special actions if energy rises.
 FoFCou: FMM=F IPFlag=           0 FMFlag=           0 FMFlg1=           0
         NFxFlg=           0 DoJE=F BraDBF=F KetDBF=F FulRan=T
         wScrn=  0.000000 ICntrl=     600 IOpCl=  0 I1Cent=           0 NGrid=           0
         NMat0=    1 NMatS0=  39340 NMatT0=    0 NMatD0=    1 NMtDS0=    0 NMtDT0=    0
 Symmetry not used in FoFCou.
 Integral accuracy reduced to 1.0D-05 until final iterations.

 Cycle   1  Pass 0  IDiag  1:
 E= -323.520867712251    
 DIIS: error= 1.28D-02 at cycle   1 NSaved=   1.
 NSaved= 1 IEnMin= 1 EnMin= -323.520867712251     IErMin= 1 ErrMin= 1.28D-02
 ErrMax= 1.28D-02  0.00D+00 EMaxC= 1.00D-01 BMatC= 5.70D-02 BMatP= 5.70D-02
 IDIUse=3 WtCom= 8.72D-01 WtEn= 1.28D-01
 Coeff-Com:  0.100D+01
 Coeff-En:   0.100D+01
 Coeff:      0.100D+01
 Gap=     0.434 Goal=   None    Shift=    0.000
 GapD=    0.434 DampG=2.000 DampE=0.500 DampFc=1.0000 IDamp=-1.
 RMSDP=1.10D-03 MaxDP=6.88D-02              OVMax= 6.54D-02

 Cycle   2  Pass 0  IDiag  1:
 E= -323.555643525978     Delta-E=       -0.034775813727 Rises=F Damp=F
 DIIS: error= 9.02D-03 at cycle   2 NSaved=   2.
 NSaved= 2 IEnMin= 2 EnMin= -323.555643525978     IErMin= 2 ErrMin= 9.02D-03
 ErrMax= 9.02D-03  0.00D+00 EMaxC= 1.00D-01 BMatC= 1.80D-02 BMatP= 5.70D-02
 IDIUse=3 WtCom= 9.10D-01 WtEn= 9.02D-02
 Coeff-Com:  0.343D+00 0.657D+00
 Coeff-En:   0.203D-01 0.980D+00
 Coeff:      0.314D+00 0.686D+00
 Gap=     0.454 Goal=   None    Shift=    0.000
 RMSDP=4.45D-04 MaxDP=2.63D-02 DE=-3.48D-02 OVMax= 3.00D-02

 Cycle   3  Pass 0  IDiag  1:
 E= -323.570852884072     Delta-E=       -0.015209358095 Rises=F Damp=F
 DIIS: error= 1.49D-03 at cycle   3 NSaved=   3.
 NSaved= 3 IEnMin= 3 EnMin= -323.570852884072     IErMin= 3 ErrMin= 1.49D-03
 ErrMax= 1.49D-03  0.00D+00 EMaxC= 1.00D-01 BMatC= 8.07D-04 BMatP= 1.80D-02
 IDIUse=3 WtCom= 9.85D-01 WtEn= 1.49D-02
 Coeff-Com:  0.438D-02 0.160D+00 0.835D+00
 Coeff-En:   0.000D+00 0.000D+00 0.100D+01
 Coeff:      0.432D-02 0.158D+00 0.838D+00
 Gap=     0.424 Goal=   None    Shift=    0.000
 RMSDP=1.02D-04 MaxDP=6.35D-03 DE=-1.52D-02 OVMax= 1.12D-02

 Cycle   4  Pass 0  IDiag  1:
 E= -323.571531366495     Delta-E=       -0.000678482422 Rises=F Damp=F
 DIIS: error= 5.19D-04 at cycle   4 NSaved=   4.
 NSaved= 4 IEnMin= 4 EnMin= -323.571531366495     IErMin= 4 ErrMin= 5.19D-04
 ErrMax= 5.19D-04  0.00D+00 EMaxC= 1.00D-01 BMatC= 7.33D-05 BMatP= 8.07D-04
 IDIUse=3 WtCom= 9.95D-01 WtEn= 5.19D-03
 Coeff-Com: -0.160D-01 0.223D-01 0.292D+00 0.702D+00
 Coeff-En:   0.000D+00 0.000D+00 0.000D+00 0.100D+01
 Coeff:     -0.159D-01 0.222D-01 0.290D+00 0.704D+00
 Gap=     0.424 Goal=   None    Shift=    0.000
 RMSDP=3.61D-05 MaxDP=1.81D-03 DE=-6.78D-04 OVMax= 2.59D-03

 Cycle   5  Pass 0  IDiag  1:
 E= -323.571603060570     Delta-E=       -0.000071694075 Rises=F Damp=F
 DIIS: error= 1.98D-04 at cycle   5 NSaved=   5.
 NSaved= 5 IEnMin= 5 EnMin= -323.571603060570     IErMin= 5 ErrMin= 1.98D-04
 ErrMax= 1.98D-04  0.00D+00 EMaxC= 1.00D-01 BMatC= 9.53D-06 BMatP= 7.33D-05
 IDIUse=3 WtCom= 9.98D-01 WtEn= 1.98D-03
 Coeff-Com: -0.716D-02-0.117D-01 0.801D-03 0.247D+00 0.771D+00
 Coeff-En:   0.000D+00 0.000D+00 0.000D+00 0.000D+00 0.100D+01
 Coeff:     -0.714D-02-0.117D-01 0.799D-03 0.246D+00 0.772D+00
 Gap=     0.424 Goal=   None    Shift=    0.000
 RMSDP=1.50D-05 MaxDP=8.35D-04 DE=-7.17D-05 OVMax= 1.82D-03

 Cycle   6  Pass 0  IDiag  1:
 E= -323.571614880325     Delta-E=       -0.000011819755 Rises=F Damp=F
 DIIS: error= 5.67D-05 at cycle   6 NSaved=   6.
 NSaved= 6 IEnMin= 6 EnMin= -323.571614880325     IErMin= 6 ErrMin= 5.67D-05
 ErrMax= 5.67D-05  0.00D+00 EMaxC= 1.00D-01 BMatC= 8.54D-07 BMatP= 9.53D-06
 IDIUse=1 WtCom= 1.00D+00 WtEn= 0.00D+00
 Coeff-Com: -0.427D-03-0.483D-02-0.236D-01-0.130D-01 0.200D+00 0.842D+00
 Coeff:     -0.427D-03-0.483D-02-0.236D-01-0.130D-01 0.200D+00 0.842D+00
 Gap=     0.424 Goal=   None    Shift=    0.000
 RMSDP=6.44D-06 MaxDP=2.77D-04 DE=-1.18D-05 OVMax= 6.22D-04

 Initial convergence to 1.0D-05 achieved.  Increase integral accuracy.
 Cycle   7  Pass 1  IDiag  1:
 E= -323.571403798772     Delta-E=        0.000211081553 Rises=F Damp=F
 DIIS: error= 7.21D-05 at cycle   1 NSaved=   1.
 NSaved= 1 IEnMin= 1 EnMin= -323.571403798772     IErMin= 1 ErrMin= 7.21D-05
 ErrMax= 7.21D-05  0.00D+00 EMaxC= 1.00D-01 BMatC= 2.53D-06 BMatP= 2.53D-06
 IDIUse=1 WtCom= 1.00D+00 WtEn= 0.00D+00
 Coeff-Com:  0.100D+01
 Coeff:      0.100D+01
 Gap=     0.424 Goal=   None    Shift=    0.000
 RMSDP=6.44D-06 MaxDP=2.77D-04 DE= 2.11D-04 OVMax= 3.15D-04

 Cycle   8  Pass 1  IDiag  1:
 E= -323.571405062412     Delta-E=       -0.000001263640 Rises=F Damp=F
 DIIS: error= 3.03D-05 at cycle   2 NSaved=   2.
 NSaved= 2 IEnMin= 2 EnMin= -323.571405062412     IErMin= 2 ErrMin= 3.03D-05
 ErrMax= 3.03D-05  0.00D+00 EMaxC= 1.00D-01 BMatC= 2.15D-07 BMatP= 2.53D-06
 IDIUse=1 WtCom= 1.00D+00 WtEn= 0.00D+00
 Coeff-Com:  0.835D-01 0.916D+00
 Coeff:      0.835D-01 0.916D+00
 Gap=     0.424 Goal=   None    Shift=    0.000
 RMSDP=2.08D-06 MaxDP=1.32D-04 DE=-1.26D-06 OVMax= 1.80D-04

 Cycle   9  Pass 1  IDiag  1:
 E= -323.571405166928     Delta-E=       -0.000000104516 Rises=F Damp=F
 DIIS: error= 2.33D-05 at cycle   3 NSaved=   3.
 NSaved= 3 IEnMin= 3 EnMin= -323.571405166928     IErMin= 3 ErrMin= 2.33D-05
 ErrMax= 2.33D-05  0.00D+00 EMaxC= 1.00D-01 BMatC= 1.38D-07 BMatP= 2.15D-07
 IDIUse=1 WtCom= 1.00D+00 WtEn= 0.00D+00
 Coeff-Com: -0.424D-01 0.444D+00 0.598D+00
 Coeff:     -0.424D-01 0.444D+00 0.598D+00
 Gap=     0.424 Goal=   None    Shift=    0.000
 RMSDP=9.13D-07 MaxDP=6.58D-05 DE=-1.05D-07 OVMax= 1.10D-04

 Cycle  10  Pass 1  IDiag  1:
 E= -323.571405281593     Delta-E=       -0.000000114665 Rises=F Damp=F
 DIIS: error= 6.29D-06 at cycle   4 NSaved=   4.
 NSaved= 4 IEnMin= 4 EnMin= -323.571405281593     IErMin= 4 ErrMin= 6.29D-06
 ErrMax= 6.29D-06  0.00D+00 EMaxC= 1.00D-01 BMatC= 3.34D-09 BMatP= 1.38D-07
 IDIUse=1 WtCom= 1.00D+00 WtEn= 0.00D+00
 Coeff-Com: -0.142D-01 0.803D-01 0.153D+00 0.781D+00
 Coeff:     -0.142D-01 0.803D-01 0.153D+00 0.781D+00
 Gap=     0.424 Goal=   None    Shift=    0.000
 RMSDP=2.99D-07 MaxDP=1.26D-05 DE=-1.15D-07 OVMax= 3.15D-05

 Cycle  11  Pass 1  IDiag  1:
 E= -323.571405287677     Delta-E=       -0.000000006084 Rises=F Damp=F
 DIIS: error= 2.65D-06 at cycle   5 NSaved=   5.
 NSaved= 5 IEnMin= 5 EnMin= -323.571405287677     IErMin= 5 ErrMin= 2.65D-06
 ErrMax= 2.65D-06  0.00D+00 EMaxC= 1.00D-01 BMatC= 6.85D-10 BMatP= 3.34D-09
 IDIUse=1 WtCom= 1.00D+00 WtEn= 0.00D+00
 Coeff-Com:  0.818D-02-0.102D+00-0.122D+00 0.176D+00 0.104D+01
 Coeff:      0.818D-02-0.102D+00-0.122D+00 0.176D+00 0.104D+01
 Gap=     0.424 Goal=   None    Shift=    0.000
 RMSDP=2.46D-07 MaxDP=8.05D-06 DE=-6.08D-09 OVMax= 4.67D-05

 Cycle  12  Pass 1  IDiag  1:
 E= -323.571405290587     Delta-E=       -0.000000002910 Rises=F Damp=F
 DIIS: error= 1.73D-06 at cycle   6 NSaved=   6.
 NSaved= 6 IEnMin= 6 EnMin= -323.571405290587     IErMin= 6 ErrMin= 1.73D-06
 ErrMax= 1.73D-06  0.00D+00 EMaxC= 1.00D-01 BMatC= 1.30D-10 BMatP= 6.85D-10
 IDIUse=1 WtCom= 1.00D+00 WtEn= 0.00D+00
 Coeff-Com:  0.337D-02-0.295D-01-0.382D-01-0.975D-01 0.241D+00 0.921D+00
 Coeff:      0.337D-02-0.295D-01-0.382D-01-0.975D-01 0.241D+00 0.921D+00
 Gap=     0.424 Goal=   None    Shift=    0.000
 RMSDP=8.77D-08 MaxDP=2.85D-06 DE=-2.91D-09 OVMax= 1.38D-05

 Cycle  13  Pass 1  IDiag  1:
 E= -323.571405290998     Delta-E=       -0.000000000411 Rises=F Damp=F
 DIIS: error= 3.19D-07 at cycle   7 NSaved=   7.
 NSaved= 7 IEnMin= 7 EnMin= -323.571405290998     IErMin= 7 ErrMin= 3.19D-07
 ErrMax= 3.19D-07  0.00D+00 EMaxC= 1.00D-01 BMatC= 2.10D-11 BMatP= 1.30D-10
 IDIUse=1 WtCom= 1.00D+00 WtEn= 0.00D+00
 Coeff-Com: -0.946D-03 0.153D-01 0.191D-01-0.759D-01-0.160D+00 0.245D+00
 Coeff-Com:  0.957D+00
 Coeff:     -0.946D-03 0.153D-01 0.191D-01-0.759D-01-0.160D+00 0.245D+00
 Coeff:      0.957D+00
 Gap=     0.424 Goal=   None    Shift=    0.000
 RMSDP=3.62D-08 MaxDP=1.15D-06 DE=-4.11D-10 OVMax= 6.82D-06

 Cycle  14  Pass 1  IDiag  1:
 E= -323.571405291046     Delta-E=       -0.000000000049 Rises=F Damp=F
 DIIS: error= 1.35D-07 at cycle   8 NSaved=   8.
 NSaved= 8 IEnMin= 8 EnMin= -323.571405291046     IErMin= 8 ErrMin= 1.35D-07
 ErrMax= 1.35D-07  0.00D+00 EMaxC= 1.00D-01 BMatC= 1.63D-12 BMatP= 2.10D-11
 IDIUse=1 WtCom= 1.00D+00 WtEn= 0.00D+00
 Coeff-Com: -0.493D-03 0.555D-02 0.771D-02-0.406D-02-0.520D-01-0.303D-01
 Coeff-Com:  0.165D+00 0.909D+00
 Coeff:     -0.493D-03 0.555D-02 0.771D-02-0.406D-02-0.520D-01-0.303D-01
 Coeff:      0.165D+00 0.909D+00
 Gap=     0.424 Goal=   None    Shift=    0.000
 RMSDP=8.58D-09 MaxDP=2.17D-07 DE=-4.85D-11 OVMax= 1.64D-06

 SCF Done:  E(RwB97) =  -323.571405291     A.U. after   14 cycles
            NFock= 14  Conv=0.86D-08     -V/T= 2.0041
 KE= 3.222621778883D+02 PE=-1.302220108962D+03 EE= 3.826198928365D+02
 Leave Link  502 at Fri Aug 27 21:26:16 2021, MaxMem= 17179869184 cpu:       258.4
 (Enter /public3/home/sc51754/softwares/g09e01/l601.exe)
 Copying SCF densities to generalized density rwf, IOpCl= 0 IROHF=0.

 **********************************************************************

            Population analysis using the SCF density.

 **********************************************************************

 Orbital symmetries:
       Occupied  (A) (A) (A) (A) (A) (A) (A) (A) (A) (A) (A) (A)
                 (A) (A) (A) (A) (A) (A) (A) (A) (A) (A) (A) (A)
                 (A)
       Virtual   (A) (A) (A) (A) (A) (A) (A) (A) (A) (A) (A) (A)
                 (A) (A) (A) (A) (A) (A) (A) (A) (A) (A) (A) (A)
                 (A) (A) (A) (A) (A) (A) (A) (A) (A) (A) (A) (A)
                 (A) (A) (A) (A) (A) (A) (A) (A) (A) (A) (A) (A)
                 (A) (A) (A) (A) (A) (A) (A) (A) (A) (A) (A) (A)
                 (A) (A) (A) (A) (A) (A) (A) (A) (A) (A) (A) (A)
                 (A) (A) (A) (A) (A) (A) (A) (A) (A) (A) (A) (A)
                 (A) (A) (A) (A) (A) (A) (A) (A) (A) (A) (A) (A)
                 (A) (A) (A) (A) (A) (A) (A) (A) (A) (A) (A) (A)
                 (A) (A) (A) (A) (A) (A) (A) (A) (A) (A) (A) (A)
                 (A) (A) (A) (A) (A) (A) (A) (A) (A) (A) (A) (A)
                 (A) (A) (A) (A) (A) (A) (A) (A) (A) (A) (A) (A)
                 (A) (A) (A) (A) (A) (A) (A) (A) (A) (A) (A) (A)
                 (A) (A) (A) (A) (A) (A) (A) (A) (A) (A) (A) (A)
                 (A) (A) (A) (A) (A) (A) (A) (A) (A) (A) (A) (A)
                 (A) (A) (A) (A) (A) (A) (A) (A) (A) (A) (A) (A)
                 (A) (A) (A) (A) (A) (A) (A) (A) (A) (A) (A) (A)
                 (A) (A) (A) (A) (A) (A) (A) (A) (A) (A) (A) (A)
                 (A) (A) (A) (A) (A) (A) (A) (A) (A) (A) (A) (A)
                 (A) (A) (A) (A) (A) (A) (A) (A) (A) (A) (A) (A)
                 (A) (A) (A) (A) (A) (A) (A) (A) (A) (A) (A) (A)
                 (A) (A) (A)
 The electronic state is 1-A.
 Alpha  occ. eigenvalues --  -19.04829 -14.22567 -10.22530 -10.17817 -10.17565
 Alpha  occ. eigenvalues --  -10.14894 -10.14260  -1.22212  -1.08965  -0.94720
 Alpha  occ. eigenvalues --   -0.91665  -0.78948  -0.76801  -0.69594  -0.63670
 Alpha  occ. eigenvalues --   -0.60985  -0.57677  -0.56718  -0.55504  -0.53140
 Alpha  occ. eigenvalues --   -0.50254  -0.47288  -0.37643  -0.37321  -0.36243
 Alpha virt. eigenvalues --    0.06140   0.06590   0.08381   0.11716   0.12314
 Alpha virt. eigenvalues --    0.15349   0.16082   0.21162   0.22866   0.22900
 Alpha virt. eigenvalues --    0.24888   0.26463   0.27126   0.28292   0.28931
 Alpha virt. eigenvalues --    0.31101   0.32070   0.32801   0.34947   0.36735
 Alpha virt. eigenvalues --    0.37545   0.38347   0.38469   0.41065   0.42387
 Alpha virt. eigenvalues --    0.43348   0.43910   0.44965   0.45670   0.47470
 Alpha virt. eigenvalues --    0.48810   0.51879   0.53759   0.55266   0.55840
 Alpha virt. eigenvalues --    0.59045   0.60912   0.64653   0.64779   0.68878
 Alpha virt. eigenvalues --    0.69732   0.73791   0.75075   0.75395   0.76521
 Alpha virt. eigenvalues --    0.79806   0.80104   0.85485   0.87367   0.92424
 Alpha virt. eigenvalues --    0.94940   0.96068   0.98150   0.99921   1.01486
 Alpha virt. eigenvalues --    1.06196   1.07497   1.08410   1.09498   1.13624
 Alpha virt. eigenvalues --    1.15569   1.18826   1.22295   1.23543   1.24351
 Alpha virt. eigenvalues --    1.26206   1.27686   1.28105   1.28742   1.30709
 Alpha virt. eigenvalues --    1.35832   1.38024   1.41737   1.42836   1.43438
 Alpha virt. eigenvalues --    1.44865   1.47167   1.53389   1.55278   1.56783
 Alpha virt. eigenvalues --    1.57015   1.58646   1.61354   1.66377   1.69044
 Alpha virt. eigenvalues --    1.70198   1.71571   1.71913   1.76040   1.78726
 Alpha virt. eigenvalues --    1.78844   1.80469   1.83543   1.84807   1.87035
 Alpha virt. eigenvalues --    1.90336   1.90448   1.93947   1.96324   1.97407
 Alpha virt. eigenvalues --    1.97530   2.04498   2.07696   2.09658   2.10505
 Alpha virt. eigenvalues --    2.16641   2.20254   2.21779   2.27709   2.30068
 Alpha virt. eigenvalues --    2.33803   2.34414   2.35191   2.40306   2.42828
 Alpha virt. eigenvalues --    2.49653   2.51656   2.66119   2.68878   2.88030
 Alpha virt. eigenvalues --    2.97600   3.03249   3.06364   3.10800   3.22716
 Alpha virt. eigenvalues --    3.26119   3.31519   3.32233   3.35624   3.36190
 Alpha virt. eigenvalues --    3.42918   3.44221   3.45384   3.48121   3.50701
 Alpha virt. eigenvalues --    3.52137   3.54298   3.60358   3.63484   3.65381
 Alpha virt. eigenvalues --    3.68222   3.71096   3.71553   3.75131   3.76202
 Alpha virt. eigenvalues --    3.82366   3.84932   3.86302   3.89041   3.90918
 Alpha virt. eigenvalues --    3.93645   3.96603   3.99745   4.04123   4.10858
 Alpha virt. eigenvalues --    4.11023   4.13312   4.14128   4.17753   4.18007
 Alpha virt. eigenvalues --    4.19173   4.23166   4.23391   4.24549   4.26757
 Alpha virt. eigenvalues --    4.28161   4.29079   4.31178   4.32905   4.36190
 Alpha virt. eigenvalues --    4.36511   4.38257   4.39168   4.40943   4.42208
 Alpha virt. eigenvalues --    4.44336   4.44701   4.48028   4.50149   4.51164
 Alpha virt. eigenvalues --    4.53782   4.54113   4.55291   4.56067   4.58849
 Alpha virt. eigenvalues --    4.60174   4.61416   4.62412   4.63140   4.66303
 Alpha virt. eigenvalues --    4.66548   4.68805   4.74568   4.76521   4.81715
 Alpha virt. eigenvalues --    4.86184   4.87640   4.88042   4.91356   4.96605
 Alpha virt. eigenvalues --    5.00734   5.01762   5.03830   5.07680   5.11298
 Alpha virt. eigenvalues --    5.16759   5.18432   5.19233   5.24560   5.26072
 Alpha virt. eigenvalues --    5.28587   5.33145   5.41434   5.42502   5.42564
 Alpha virt. eigenvalues --    5.42855   5.44316   5.46109   5.50859   5.54735
 Alpha virt. eigenvalues --    5.57879   5.63439   5.64883   5.65889   5.68950
 Alpha virt. eigenvalues --    5.74892   5.76376   5.80144   5.85472   5.86880
 Alpha virt. eigenvalues --    5.90430   6.02297   6.10335   6.15695   6.17893
 Alpha virt. eigenvalues --    6.21963   6.25065   6.30757   6.36348   6.39163
 Alpha virt. eigenvalues --    6.49038   6.55132   6.56066   6.64547   6.68703
 Alpha virt. eigenvalues --    6.91617   7.11948   7.40262   9.14141  12.26894
 Alpha virt. eigenvalues --   12.39758  15.48807  17.27675  18.51172  22.02143
          Condensed to atoms (all electrons):
               1          2          3          4          5          6
     1  C    4.557609   0.466271  -0.037993  -0.047600  -0.106506   0.506575
     2  C    0.466271   4.949527   0.538911  -0.005726  -0.054324  -0.031722
     3  C   -0.037993   0.538911   4.451462   0.540067  -0.040452  -0.023964
     4  C   -0.047600  -0.005726   0.540067   4.868812   0.482545  -0.029106
     5  C   -0.106506  -0.054324  -0.040452   0.482545   4.581349   0.489812
     6  N    0.506575  -0.031722  -0.023964  -0.029106   0.489812   6.618002
     7  H    0.467040  -0.066707   0.004606  -0.004708   0.006288  -0.046882
     8  H   -0.017815   0.432180  -0.042783   0.004375   0.000640   0.004515
     9  H   -0.000805   0.007255  -0.037808   0.441460  -0.030822   0.004497
    10  H    0.006374  -0.006429   0.007730  -0.070718   0.470923  -0.047650
    11  O    0.006110  -0.065719   0.315392  -0.064155   0.003982  -0.000367
    12  H    0.001197   0.000469  -0.028528   0.004588  -0.000542   0.000157
               7          8          9         10         11         12
     1  C    0.467040  -0.017815  -0.000805   0.006374   0.006110   0.001197
     2  C   -0.066707   0.432180   0.007255  -0.006429  -0.065719   0.000469
     3  C    0.004606  -0.042783  -0.037808   0.007730   0.315392  -0.028528
     4  C   -0.004708   0.004375   0.441460  -0.070718  -0.064155   0.004588
     5  C    0.006288   0.000640  -0.030822   0.470923   0.003982  -0.000542
     6  N   -0.046882   0.004515   0.004497  -0.047650  -0.000367   0.000157
     7  H    0.599534  -0.004901   0.000124   0.000291  -0.000292  -0.000060
     8  H   -0.004901   0.607950  -0.000190   0.000122  -0.006317   0.002693
     9  H    0.000124  -0.000190   0.573747  -0.005930   0.002697  -0.000328
    10  H    0.000291   0.000122  -0.005930   0.596818  -0.000205   0.000059
    11  O   -0.000292  -0.006317   0.002697  -0.000205   7.851556   0.347947
    12  H   -0.000060   0.002693  -0.000328   0.000059   0.347947   0.463953
 Mulliken charges:
               1
     1  C    0.199543
     2  C   -0.163985
     3  C    0.353359
     4  C   -0.119835
     5  C    0.197105
     6  N   -0.443868
     7  H    0.045666
     8  H    0.019531
     9  H    0.046103
    10  H    0.048615
    11  O   -0.390630
    12  H    0.208395
 Sum of Mulliken charges =  -0.00000
 Mulliken charges with hydrogens summed into heavy atoms:
               1
     1  C    0.245209
     2  C   -0.144454
     3  C    0.353359
     4  C   -0.073731
     5  C    0.245720
     6  N   -0.443868
    11  O   -0.182234
 Electronic spatial extent (au):  <R**2>=            642.1578
 Charge=             -0.0000 electrons
 Dipole moment (field-independent basis, Debye):
    X=              2.3620    Y=              1.3294    Z=             -0.0000  Tot=              2.7105
 Quadrupole moment (field-independent basis, Debye-Ang):
   XX=            -44.2263   YY=            -33.2865   ZZ=            -43.3817
   XY=              4.5885   XZ=             -0.0017   YZ=             -0.0017
 Traceless Quadrupole moment (field-independent basis, Debye-Ang):
   XX=             -3.9281   YY=              7.0117   ZZ=             -3.0835
   XY=              4.5885   XZ=             -0.0017   YZ=             -0.0017
 Octapole moment (field-independent basis, Debye-Ang**2):
  XXX=             33.4679  YYY=              0.5627  ZZZ=              0.0005  XYY=              1.5603
  XXY=             12.3408  XXZ=             -0.0034  XZZ=              3.3920  YZZ=              0.0299
  YYZ=              0.0036  XYZ=             -0.0017
 Hexadecapole moment (field-independent basis, Debye-Ang**3):
 XXXX=           -532.7656 YYYY=           -255.4730 ZZZZ=            -47.3980 XXXY=             39.1567
 XXXZ=             -0.0159 YYYX=              3.0020 YYYZ=             -0.0095 ZZZX=             -0.0013
 ZZZY=             -0.0017 XXYY=           -106.8954 XXZZ=            -96.8853 YYZZ=            -61.6817
 XXYZ=             -0.0068 YYXZ=             -0.0022 ZZXY=              0.5617
 N-N= 2.737666329457D+02 E-N=-1.302220113421D+03  KE= 3.222621778883D+02
 No NMR shielding tensors so no spin-rotation constants.
 Leave Link  601 at Fri Aug 27 21:26:16 2021, MaxMem= 17179869184 cpu:        41.1
 (Enter /public3/home/sc51754/softwares/g09e01/l701.exe)
 Compute integral first derivatives.
 ... and contract with generalized density number  0.
 Leave Link  701 at Fri Aug 27 21:26:18 2021, MaxMem= 17179869184 cpu:        66.3
 (Enter /public3/home/sc51754/softwares/g09e01/l702.exe)
 L702 exits ... SP integral derivatives will be done elsewhere.
 Leave Link  702 at Fri Aug 27 21:26:18 2021, MaxMem= 17179869184 cpu:         0.3
 (Enter /public3/home/sc51754/softwares/g09e01/l703.exe)
 Compute integral first derivatives, UseDBF=F ICtDFT=           0.
 Integral derivatives from FoFJK, PRISM(SPDF).
 Calling FoFJK, ICntrl=      2127 FMM=F ISym2X=0 I1Cent= 0 IOpClX= 0 NMat=1 NMatS=1 NMatT=0.
 FoFJK:  IHMeth= 1 ICntrl=    2127 DoSepK=T KAlg= 0 I1Cent=   0 FoldK=F
 IRaf=         1 NMat=   1 IRICut=       1 DoRegI=T DoRafI=F ISym2E= 0.
 FoFCou: FMM=F IPFlag=           0 FMFlag=      100000 FMFlg1=         800
         NFxFlg=           0 DoJE=F BraDBF=F KetDBF=F FulRan=T
         wScrn=  0.000000 ICntrl=    2527 IOpCl=  0 I1Cent=           0 NGrid=           0
         NMat0=    1 NMatS0=      1 NMatT0=    0 NMatD0=    1 NMtDS0=    0 NMtDT0=    0
 Symmetry not used in FoFCou.
 Leave Link  703 at Fri Aug 27 21:26:22 2021, MaxMem= 17179869184 cpu:       243.3
 (Enter /public3/home/sc51754/softwares/g09e01/l716.exe)
 Dipole        = 9.29300835D-01 5.23025322D-01-1.23358112D-05
 ***** Axes restored to original set *****
 -------------------------------------------------------------------
 Center     Atomic                   Forces (Hartrees/Bohr)
 Number     Number              X              Y              Z
 -------------------------------------------------------------------
      1        6          -0.002064416   -0.006530111    0.000036224
      2        6           0.001138810   -0.005003653   -0.000006691
      3        6           0.006612504   -0.001321866   -0.000010868
      4        6           0.002305726    0.005719419    0.000024787
      5        6          -0.002975528    0.005719353   -0.000098803
      6        7          -0.008918956    0.000394979    0.000020150
      7        1          -0.000679350   -0.001510840   -0.000010725
      8        1           0.000938042   -0.001354089    0.000001518
      9        1           0.000806193    0.001079487    0.000012245
     10        1          -0.000717569    0.001443014    0.000032116
     11        8           0.001249360    0.008094230    0.000006586
     12        1           0.002305184   -0.006729924   -0.000006540
 -------------------------------------------------------------------
 Cartesian Forces:  Max     0.008918956 RMS     0.003356477
 Leave Link  716 at Fri Aug 27 21:26:22 2021, MaxMem= 17179869184 cpu:         0.3
 (Enter /public3/home/sc51754/softwares/g09e01/l103.exe)

 GradGradGradGradGradGradGradGradGradGradGradGradGradGradGradGradGradGrad
 Berny optimization.
 FormGI is forming the generalized inverse of G from B-inverse, IUseBI=4.
 Internal  Forces:  Max     0.009023274 RMS     0.003094937
 Search for a local minimum.
 Step number   1 out of a maximum of   61
 All quantities printed in internal units (Hartrees-Bohrs-Radians)
 RMS Force = .30949D-02 SwitMx=.10000D-02 MixMth= 1
 Mixed Optimization -- RFO/linear search
 Second derivative matrix not updated -- first step.
 ITU=  0
     Eigenvalues ---    0.02120   0.02139   0.02144   0.02163   0.02209
     Eigenvalues ---    0.02238   0.02269   0.02294   0.02415   0.16000
     Eigenvalues ---    0.16000   0.16000   0.16000   0.16000   0.22000
     Eigenvalues ---    0.22826   0.23882   0.25000   0.34970   0.34996
     Eigenvalues ---    0.35128   0.35490   0.42425   0.43849   0.46118
     Eigenvalues ---    0.46897   0.53214   0.54017   0.55021   0.56489
 RFO step:  Lambda=-9.90550760D-04 EMin= 2.11976327D-02
 Linear search not attempted -- first point.
 Iteration  1 RMS(Cart)=  0.00956253 RMS(Int)=  0.00000896
 Iteration  2 RMS(Cart)=  0.00000937 RMS(Int)=  0.00000109
 Iteration  3 RMS(Cart)=  0.00000000 RMS(Int)=  0.00000109
 ITry= 1 IFail=0 DXMaxC= 2.38D-02 DCOld= 1.00D+10 DXMaxT= 3.00D-01 DXLimC= 3.00D+00 Rises=F
 Variable       Old X    -DE/DX   Delta X   Delta X   Delta X     New X
                                 (Linear)    (Quad)   (Total)
    R1        2.63455  -0.00745   0.00000  -0.01596  -0.01596   2.61859
    R2        2.52836  -0.00902   0.00000  -0.01583  -0.01583   2.51253
    R3        2.05724  -0.00165   0.00000  -0.00469  -0.00469   2.05255
    R4        2.64227  -0.00849   0.00000  -0.01819  -0.01819   2.62408
    R5        2.05467  -0.00164   0.00000  -0.00465  -0.00465   2.05001
    R6        2.64232  -0.00818   0.00000  -0.01752  -0.01752   2.62480
    R7        2.56754  -0.00363   0.00000  -0.00682  -0.00682   2.56072
    R8        2.62881  -0.00789   0.00000  -0.01671  -0.01671   2.61210
    R9        2.04887  -0.00133   0.00000  -0.00374  -0.00374   2.04513
   R10        2.53547  -0.00842   0.00000  -0.01500  -0.01501   2.52046
   R11        2.05681  -0.00160   0.00000  -0.00456  -0.00456   2.05225
   R12        1.82716  -0.00710   0.00000  -0.01311  -0.01311   1.81405
    A1        2.17019   0.00036   0.00000   0.00121   0.00120   2.17139
    A2        2.08489   0.00002   0.00000   0.00064   0.00064   2.08553
    A3        2.02810  -0.00038   0.00000  -0.00184  -0.00184   2.02626
    A4        2.06349  -0.00083   0.00000  -0.00306  -0.00306   2.06043
    A5        2.10457   0.00025   0.00000   0.00050   0.00050   2.10507
    A6        2.11512   0.00058   0.00000   0.00256   0.00256   2.11768
    A7        2.06766   0.00078   0.00000   0.00425   0.00425   2.07191
    A8        2.15371  -0.00138   0.00000  -0.00606  -0.00606   2.14765
    A9        2.06181   0.00059   0.00000   0.00180   0.00180   2.06362
   A10        2.06126  -0.00071   0.00000  -0.00249  -0.00248   2.05877
   A11        2.09700   0.00056   0.00000   0.00254   0.00254   2.09954
   A12        2.12493   0.00015   0.00000  -0.00006  -0.00006   2.12487
   A13        2.17345   0.00021   0.00000   0.00059   0.00059   2.17404
   A14        2.08552   0.00009   0.00000   0.00092   0.00092   2.08644
   A15        2.02421  -0.00030   0.00000  -0.00151  -0.00151   2.02270
   A16        2.03032   0.00019   0.00000  -0.00050  -0.00051   2.02982
   A17        1.90853   0.00094   0.00000   0.00582   0.00582   1.91435
    D1       -0.00024   0.00001   0.00000   0.00043   0.00043   0.00019
    D2        3.14151   0.00000   0.00000   0.00020   0.00021  -3.14147
    D3       -3.14157  -0.00000   0.00000  -0.00008  -0.00008   3.14154
    D4        0.00018  -0.00001   0.00000  -0.00030  -0.00030  -0.00012
    D5        0.00007  -0.00000   0.00000  -0.00007  -0.00007   0.00000
    D6        3.14141   0.00001   0.00000   0.00042   0.00042  -3.14135
    D7        0.00001  -0.00000   0.00000  -0.00013  -0.00013  -0.00012
    D8       -3.14143  -0.00001   0.00000  -0.00030  -0.00030   3.14145
    D9        3.14145   0.00000   0.00000   0.00009   0.00009   3.14154
   D10        0.00000  -0.00000   0.00000  -0.00008  -0.00008  -0.00007
   D11        0.00034  -0.00001   0.00000  -0.00048  -0.00048  -0.00013
   D12       -3.14121  -0.00001   0.00000  -0.00047  -0.00047   3.14151
   D13       -3.14139  -0.00001   0.00000  -0.00032  -0.00032   3.14148
   D14        0.00024  -0.00001   0.00000  -0.00031  -0.00031  -0.00006
   D15       -0.00039   0.00001   0.00000   0.00024   0.00024  -0.00016
   D16        3.14135   0.00000   0.00000   0.00007   0.00007   3.14141
   D17       -0.00055   0.00002   0.00000   0.00090   0.00090   0.00035
   D18       -3.14120  -0.00002   0.00000  -0.00071  -0.00071   3.14127
   D19        3.14101   0.00002   0.00000   0.00089   0.00089  -3.14129
   D20        0.00035  -0.00002   0.00000  -0.00072  -0.00072  -0.00037
   D21        0.00034  -0.00001   0.00000  -0.00062  -0.00062  -0.00028
   D22        3.14102   0.00002   0.00000   0.00094   0.00094  -3.14122
         Item               Value     Threshold  Converged?
 Maximum Force            0.009023     0.000450     NO 
 RMS     Force            0.003095     0.000300     NO 
 Maximum Displacement     0.023781     0.001800     NO 
 RMS     Displacement     0.009566     0.001200     NO 
 Predicted change in Energy=-4.963030D-04
 Lowest energy point so far.  Saving SCF results.
 GradGradGradGradGradGradGradGradGradGradGradGradGradGradGradGradGradGrad

 Leave Link  103 at Fri Aug 27 21:26:23 2021, MaxMem= 17179869184 cpu:        76.2
 (Enter /public3/home/sc51754/softwares/g09e01/l202.exe)
                          Input orientation:                          
 ---------------------------------------------------------------------
 Center     Atomic      Atomic             Coordinates (Angstroms)
 Number     Number       Type             X           Y           Z
 ---------------------------------------------------------------------
      1          6           0        1.144510    1.146130    0.000079
      2          6           0       -0.240707    1.182594   -0.000020
      3          6           0       -0.925791   -0.025245   -0.000055
      4          6           0       -0.195379   -1.206674   -0.000129
      5          6           0        1.183896   -1.115857   -0.000324
      6          7           0        1.866772    0.029841   -0.000065
      7          1           0        1.703926    2.077152    0.000055
      8          1           0       -0.768359    2.130445   -0.000009
      9          1           0       -0.703105   -2.162421   -0.000080
     10          1           0        1.780314   -2.023432   -0.000081
     11          8           0       -2.278354   -0.107728    0.000006
     12          1           0       -2.656116    0.774774    0.000216
 ---------------------------------------------------------------------
                    Distance matrix (angstroms):
                    1          2          3          4          5
     1  C    0.000000
     2  C    1.385698   0.000000
     3  C    2.378712   1.388602   0.000000
     4  C    2.707579   2.389698   1.388984   0.000000
     5  C    2.262329   2.704140   2.374914   1.382262   0.000000
     6  N    1.329572   2.402147   2.793107   2.404461   1.333770
     7  H    1.086162   2.140521   3.366821   3.793530   3.235079
     8  H    2.151266   1.084821   2.161431   3.385951   3.788110
     9  H    3.789484   3.376823   2.148746   1.082237   2.157793
    10  H    3.232702   3.789872   3.363890   2.137863   1.086005
    11  O    3.645293   2.411833   1.355076   2.355095   3.606037
    12  H    3.818726   2.449595   1.906319   3.159330   4.280208
                    6          7          8          9         10
     6  N    0.000000
     7  H    2.053777   0.000000
     8  H    3.369934   2.472859   0.000000
     9  H    3.377910   4.875220   4.293362   0.000000
    10  H    2.055092   4.101295   4.873441   2.487305   0.000000
    11  O    4.147409   4.542274   2.699908   2.589049   4.488064
    12  H    4.583824   4.550401   2.324106   3.527232   5.245176
                   11         12
    11  O    0.000000
    12  H    0.959955   0.000000
 Stoichiometry    C5H5NO
 Framework group  C1[X(C5H5NO)]
 Deg. of freedom    30
 Full point group                 C1      NOp   1
 RotChk:  IX=2 Diff= 2.56D-03
 Largest Abelian subgroup         C1      NOp   1
 Largest concise Abelian subgroup C1      NOp   1
                         Standard orientation:                         
 ---------------------------------------------------------------------
 Center     Atomic      Atomic             Coordinates (Angstroms)
 Number     Number       Type             X           Y           Z
 ---------------------------------------------------------------------
      1          6           0       -1.142505    1.147616   -0.000139
      2          6           0        0.242777    1.181571   -0.000040
      3          6           0        0.925671   -0.027508   -0.000005
      4          6           0        0.193119   -1.207611    0.000069
      5          6           0       -1.185989   -1.114295    0.000264
      6          7           0       -1.866788    0.032637    0.000005
      7          1           0       -1.700233    2.079650   -0.000115
      8          1           0        0.772144    2.128464   -0.000051
      9          1           0        0.699113   -2.164276    0.000020
     10          1           0       -1.784050   -2.020788    0.000021
     11          8           0        2.278083   -0.112440   -0.000066
     12          1           0        2.657442    0.769376   -0.000276
 ---------------------------------------------------------------------
 Rotational constants (GHZ):      6.0533263      2.6576327      1.8468136
 Leave Link  202 at Fri Aug 27 21:26:23 2021, MaxMem= 17179869184 cpu:         1.8
 (Enter /public3/home/sc51754/softwares/g09e01/l301.exe)
 Basis read from rwf:  (5D, 7F)
 No pseudopotential information found on rwf file.
 There are   320 symmetry adapted cartesian basis functions of A   symmetry.
 There are   280 symmetry adapted basis functions of A   symmetry.
   280 basis functions,   475 primitive gaussians,   320 cartesian basis functions
    25 alpha electrons       25 beta electrons
       nuclear repulsion energy       275.2980489930 Hartrees.
 IExCor= 4437 DFT=T Ex+Corr=wB97 ExCW=0 ScaHFX=  1.000000
 ScaDFX=  1.000000  1.000000  1.000000  1.000000 ScalE2=  1.000000  1.000000
 IRadAn=      0 IRanWt=     -1 IRanGd=            0 ICorTp=0 IEmpDi=  4
  HFx wShort=  0.000000 wLong=  0.400000 cFull=  0.000000 cShort=  0.000000 cLong=  1.000000
  DFx wShort=  0.000000 wLong=  0.400000 cFull=  0.000000 cShort=  0.000000 cLong=  1.000000
 NAtoms=   12 NActive=   12 NUniq=   12 SFac= 1.00D+00 NAtFMM=   60 NAOKFM=F Big=F
 Integral buffers will be    131072 words long.
 Raffenetti 2 integral format.
 Two-electron integral symmetry is turned on.
 No density basis found on file   724.
 Leave Link  301 at Fri Aug 27 21:26:24 2021, MaxMem= 17179869184 cpu:         1.0
 (Enter /public3/home/sc51754/softwares/g09e01/l302.exe)
 NPDir=0 NMtPBC=     1 NCelOv=     1 NCel=       1 NClECP=     1 NCelD=      1
         NCelK=      1 NCelE2=     1 NClLst=     1 CellRange=     0.0.
 One-electron integrals computed using PRISM.
 NBasis=   280 RedAO= T EigKep=  1.92D-04  NBF=   280
 NBsUse=   280 1.00D-06 EigRej= -1.00D+00 NBFU=   280
 Precomputing XC quadrature grid using
 IXCGrd= 4 IRadAn=           0 IRanWt=          -1 IRanGd=           0 AccXCQ= 0.00D+00.
 Generated NRdTot=       0 NPtTot=           0 NUsed=           0 NTot=          32
 NSgBfM=   320   320   320   320   320 MxSgAt=    12 MxSgA2=    12.
 Leave Link  302 at Fri Aug 27 21:26:24 2021, MaxMem= 17179869184 cpu:        45.4
 (Enter /public3/home/sc51754/softwares/g09e01/l303.exe)
 DipDrv:  MaxL=1.
 Leave Link  303 at Fri Aug 27 21:26:25 2021, MaxMem= 17179869184 cpu:        12.8
 (Enter /public3/home/sc51754/softwares/g09e01/l401.exe)
 Initial guess from the checkpoint file:  "4HY_wB97_PC2_OPT_FREQ.chk"
 B after Tr=    -0.000000   -0.000000    0.000000
         Rot=    1.000000    0.000040   -0.000014    0.000757 Ang=   0.09 deg.
 Guess basis will be translated and rotated to current coordinates.
 JPrj=2 DoOrth=T DoCkMO=T.
 Generating alternative initial guess.
 ExpMin= 7.41D-02 ExpMax= 1.48D+04 ExpMxC= 5.05D+02 IAcc=2 IRadAn=         4 AccDes= 0.00D+00
 Harris functional with IExCor= 4437 and IRadAn=       4 diagonalized for initial guess.
 HarFok:  IExCor= 4437 AccDes= 0.00D+00 IRadAn=         4 IDoV= 1 UseB2=F ITyADJ=14
 ICtDFT=  3500011 ScaDFX=  1.000000  1.000000  1.000000  1.000000
 FoFCou: FMM=F IPFlag=           0 FMFlag=      100000 FMFlg1=           0
         NFxFlg=           0 DoJE=T BraDBF=F KetDBF=T FulRan=T
         wScrn=  0.000000 ICntrl=     500 IOpCl=  0 I1Cent=   200000004 NGrid=           0
         NMat0=    1 NMatS0=      1 NMatT0=    0 NMatD0=    1 NMtDS0=    0 NMtDT0=    0
 Petite list used in FoFCou.
 Harris En= -313.573575439848    
 Leave Link  401 at Fri Aug 27 21:26:26 2021, MaxMem= 17179869184 cpu:        80.5
 (Enter /public3/home/sc51754/softwares/g09e01/l502.exe)
 Closed shell SCF:
 Using DIIS extrapolation, IDIIS=  1040.
 Integral symmetry usage will be decided dynamically.
 Keep R1 ints in memory in canonical form, NReq=1564561414.
 IVT=      348554 IEndB=      348554 NGot= 17179869184 MDV= 15631845691
 LenX= 15631845691 LenY= 15631742850
 Requested convergence on RMS density matrix=1.00D-08 within 128 cycles.
 Requested convergence on MAX density matrix=1.00D-06.
 Requested convergence on             energy=1.00D-06.
 No special actions if energy rises.
 FoFCou: FMM=F IPFlag=           0 FMFlag=           0 FMFlg1=           0
         NFxFlg=           0 DoJE=F BraDBF=F KetDBF=F FulRan=T
         wScrn=  0.000000 ICntrl=     600 IOpCl=  0 I1Cent=           0 NGrid=           0
         NMat0=    1 NMatS0=  39340 NMatT0=    0 NMatD0=    1 NMtDS0=    0 NMtDT0=    0
 Symmetry not used in FoFCou.
 Integral accuracy reduced to 1.0D-05 until final iterations.

 Cycle   1  Pass 0  IDiag  1:
 E= -323.571951015042    
 DIIS: error= 8.64D-04 at cycle   1 NSaved=   1.
 NSaved= 1 IEnMin= 1 EnMin= -323.571951015042     IErMin= 1 ErrMin= 8.64D-04
 ErrMax= 8.64D-04  0.00D+00 EMaxC= 1.00D-01 BMatC= 1.71D-04 BMatP= 1.71D-04
 IDIUse=3 WtCom= 9.91D-01 WtEn= 8.64D-03
 Coeff-Com:  0.100D+01
 Coeff-En:   0.100D+01
 Coeff:      0.100D+01
 Gap=     0.847 Goal=   None    Shift=    0.000
 RMSDP=4.02D-05 MaxDP=1.18D-03              OVMax= 2.12D-03

 Cycle   2  Pass 0  IDiag  1:
 E= -323.572079051729     Delta-E=       -0.000128036688 Rises=F Damp=F
 DIIS: error= 2.01D-04 at cycle   2 NSaved=   2.
 NSaved= 2 IEnMin= 2 EnMin= -323.572079051729     IErMin= 2 ErrMin= 2.01D-04
 ErrMax= 2.01D-04  0.00D+00 EMaxC= 1.00D-01 BMatC= 1.30D-05 BMatP= 1.71D-04
 IDIUse=3 WtCom= 9.98D-01 WtEn= 2.01D-03
 Coeff-Com:  0.102D+00 0.898D+00
 Coeff-En:   0.000D+00 0.100D+01
 Coeff:      0.102D+00 0.898D+00
 Gap=     0.427 Goal=   None    Shift=    0.000
 RMSDP=1.77D-05 MaxDP=1.13D-03 DE=-1.28D-04 OVMax= 1.16D-03

 Cycle   3  Pass 0  IDiag  1:
 E= -323.572089666775     Delta-E=       -0.000010615045 Rises=F Damp=F
 DIIS: error= 1.53D-04 at cycle   3 NSaved=   3.
 NSaved= 3 IEnMin= 3 EnMin= -323.572089666775     IErMin= 3 ErrMin= 1.53D-04
 ErrMax= 1.53D-04  0.00D+00 EMaxC= 1.00D-01 BMatC= 3.38D-06 BMatP= 1.30D-05
 IDIUse=3 WtCom= 9.98D-01 WtEn= 1.53D-03
 Coeff-Com: -0.329D-01 0.300D+00 0.733D+00
 Coeff-En:   0.000D+00 0.000D+00 0.100D+01
 Coeff:     -0.329D-01 0.300D+00 0.733D+00
 Gap=     0.427 Goal=   None    Shift=    0.000
 RMSDP=5.18D-06 MaxDP=2.41D-04 DE=-1.06D-05 OVMax= 4.40D-04

 Initial convergence to 1.0D-05 achieved.  Increase integral accuracy.
 Cycle   4  Pass 1  IDiag  1:
 E= -323.571858058778     Delta-E=        0.000231607997 Rises=F Damp=F
 DIIS: error= 7.61D-05 at cycle   1 NSaved=   1.
 NSaved= 1 IEnMin= 1 EnMin= -323.571858058778     IErMin= 1 ErrMin= 7.61D-05
 ErrMax= 7.61D-05  0.00D+00 EMaxC= 1.00D-01 BMatC= 2.70D-06 BMatP= 2.70D-06
 IDIUse=1 WtCom= 1.00D+00 WtEn= 0.00D+00
 Coeff-Com:  0.100D+01
 Coeff:      0.100D+01
 Gap=     0.427 Goal=   None    Shift=    0.000
 RMSDP=5.18D-06 MaxDP=2.41D-04 DE= 2.32D-04 OVMax= 2.49D-04

 Cycle   5  Pass 1  IDiag  1:
 E= -323.571859159215     Delta-E=       -0.000001100437 Rises=F Damp=F
 DIIS: error= 5.56D-05 at cycle   2 NSaved=   2.
 NSaved= 2 IEnMin= 2 EnMin= -323.571859159215     IErMin= 2 ErrMin= 5.56D-05
 ErrMax= 5.56D-05  0.00D+00 EMaxC= 1.00D-01 BMatC= 4.69D-07 BMatP= 2.70D-06
 IDIUse=1 WtCom= 1.00D+00 WtEn= 0.00D+00
 Coeff-Com:  0.195D+00 0.805D+00
 Coeff:      0.195D+00 0.805D+00
 Gap=     0.427 Goal=   None    Shift=    0.000
 RMSDP=2.39D-06 MaxDP=1.44D-04 DE=-1.10D-06 OVMax= 2.69D-04

 Cycle   6  Pass 1  IDiag  1:
 E= -323.571859352469     Delta-E=       -0.000000193254 Rises=F Damp=F
 DIIS: error= 3.71D-05 at cycle   3 NSaved=   3.
 NSaved= 3 IEnMin= 3 EnMin= -323.571859352469     IErMin= 3 ErrMin= 3.71D-05
 ErrMax= 3.71D-05  0.00D+00 EMaxC= 1.00D-01 BMatC= 2.31D-07 BMatP= 4.69D-07
 IDIUse=1 WtCom= 1.00D+00 WtEn= 0.00D+00
 Coeff-Com: -0.451D-01 0.408D+00 0.637D+00
 Coeff:     -0.451D-01 0.408D+00 0.637D+00
 Gap=     0.427 Goal=   None    Shift=    0.000
 RMSDP=1.08D-06 MaxDP=7.44D-05 DE=-1.93D-07 OVMax= 1.07D-04

 Cycle   7  Pass 1  IDiag  1:
 E= -323.571859518745     Delta-E=       -0.000000166277 Rises=F Damp=F
 DIIS: error= 2.44D-06 at cycle   4 NSaved=   4.
 NSaved= 4 IEnMin= 4 EnMin= -323.571859518745     IErMin= 4 ErrMin= 2.44D-06
 ErrMax= 2.44D-06  0.00D+00 EMaxC= 1.00D-01 BMatC= 1.22D-09 BMatP= 2.31D-07
 IDIUse=1 WtCom= 1.00D+00 WtEn= 0.00D+00
 Coeff-Com: -0.120D-01 0.705D-01 0.116D+00 0.826D+00
 Coeff:     -0.120D-01 0.705D-01 0.116D+00 0.826D+00
 Gap=     0.427 Goal=   None    Shift=    0.000
 RMSDP=1.74D-07 MaxDP=8.11D-06 DE=-1.66D-07 OVMax= 1.72D-05

 Cycle   8  Pass 1  IDiag  1:
 E= -323.571859520104     Delta-E=       -0.000000001358 Rises=F Damp=F
 DIIS: error= 1.90D-06 at cycle   5 NSaved=   5.
 NSaved= 5 IEnMin= 5 EnMin= -323.571859520104     IErMin= 5 ErrMin= 1.90D-06
 ErrMax= 1.90D-06  0.00D+00 EMaxC= 1.00D-01 BMatC= 3.72D-10 BMatP= 1.22D-09
 IDIUse=1 WtCom= 1.00D+00 WtEn= 0.00D+00
 Coeff-Com:  0.400D-02-0.494D-01-0.815D-01 0.310D+00 0.817D+00
 Coeff:      0.400D-02-0.494D-01-0.815D-01 0.310D+00 0.817D+00
 Gap=     0.427 Goal=   None    Shift=    0.000
 RMSDP=9.36D-08 MaxDP=3.13D-06 DE=-1.36D-09 OVMax= 8.96D-06

 Cycle   9  Pass 1  IDiag  1:
 E= -323.571859520611     Delta-E=       -0.000000000508 Rises=F Damp=F
 DIIS: error= 2.37D-07 at cycle   6 NSaved=   6.
 NSaved= 6 IEnMin= 6 EnMin= -323.571859520611     IErMin= 6 ErrMin= 2.37D-07
 ErrMax= 2.37D-07  0.00D+00 EMaxC= 1.00D-01 BMatC= 1.81D-11 BMatP= 3.72D-10
 IDIUse=1 WtCom= 1.00D+00 WtEn= 0.00D+00
 Coeff-Com:  0.155D-02-0.140D-01-0.247D-01 0.131D-01 0.186D+00 0.838D+00
 Coeff:      0.155D-02-0.140D-01-0.247D-01 0.131D-01 0.186D+00 0.838D+00
 Gap=     0.427 Goal=   None    Shift=    0.000
 RMSDP=2.57D-08 MaxDP=1.15D-06 DE=-5.08D-10 OVMax= 2.77D-06

 Cycle  10  Pass 1  IDiag  1:
 E= -323.571859520635     Delta-E=       -0.000000000024 Rises=F Damp=F
 DIIS: error= 1.46D-07 at cycle   7 NSaved=   7.
 NSaved= 7 IEnMin= 7 EnMin= -323.571859520635     IErMin= 7 ErrMin= 1.46D-07
 ErrMax= 1.46D-07  0.00D+00 EMaxC= 1.00D-01 BMatC= 4.53D-12 BMatP= 1.81D-11
 IDIUse=1 WtCom= 1.00D+00 WtEn= 0.00D+00
 Coeff-Com:  0.113D-04 0.183D-02 0.197D-02-0.436D-01-0.468D-01 0.316D+00
 Coeff-Com:  0.771D+00
 Coeff:      0.113D-04 0.183D-02 0.197D-02-0.436D-01-0.468D-01 0.316D+00
 Coeff:      0.771D+00
 Gap=     0.427 Goal=   None    Shift=    0.000
 RMSDP=1.10D-08 MaxDP=4.93D-07 DE=-2.39D-11 OVMax= 1.32D-06

 Cycle  11  Pass 1  IDiag  1:
 E= -323.571859520643     Delta-E=       -0.000000000008 Rises=F Damp=F
 DIIS: error= 7.50D-08 at cycle   8 NSaved=   8.
 NSaved= 8 IEnMin= 8 EnMin= -323.571859520643     IErMin= 8 ErrMin= 7.50D-08
 ErrMax= 7.50D-08  0.00D+00 EMaxC= 1.00D-01 BMatC= 4.99D-13 BMatP= 4.53D-12
 IDIUse=1 WtCom= 1.00D+00 WtEn= 0.00D+00
 Coeff-Com: -0.237D-03 0.265D-02 0.419D-02-0.127D-01-0.399D-01-0.537D-01
 Coeff-Com:  0.161D+00 0.938D+00
 Coeff:     -0.237D-03 0.265D-02 0.419D-02-0.127D-01-0.399D-01-0.537D-01
 Coeff:      0.161D+00 0.938D+00
 Gap=     0.427 Goal=   None    Shift=    0.000
 RMSDP=5.42D-09 MaxDP=1.25D-07 DE=-8.19D-12 OVMax= 8.48D-07

 SCF Done:  E(RwB97) =  -323.571859521     A.U. after   11 cycles
            NFock= 11  Conv=0.54D-08     -V/T= 2.0035
 KE= 3.224435269065D+02 PE=-1.305430650633D+03 EE= 3.841172152126D+02
 Leave Link  502 at Fri Aug 27 21:26:37 2021, MaxMem= 17179869184 cpu:       241.5
 (Enter /public3/home/sc51754/softwares/g09e01/l701.exe)
 Compute integral first derivatives.
 ... and contract with generalized density number  0.
 Leave Link  701 at Fri Aug 27 21:26:38 2021, MaxMem= 17179869184 cpu:        71.1
 (Enter /public3/home/sc51754/softwares/g09e01/l702.exe)
 L702 exits ... SP integral derivatives will be done elsewhere.
 Leave Link  702 at Fri Aug 27 21:26:38 2021, MaxMem= 17179869184 cpu:         0.3
 (Enter /public3/home/sc51754/softwares/g09e01/l703.exe)
 Compute integral first derivatives, UseDBF=F ICtDFT=           0.
 Integral derivatives from FoFJK, PRISM(SPDF).
 Calling FoFJK, ICntrl=      2127 FMM=F ISym2X=0 I1Cent= 0 IOpClX= 0 NMat=1 NMatS=1 NMatT=0.
 FoFJK:  IHMeth= 1 ICntrl=    2127 DoSepK=T KAlg= 0 I1Cent=   0 FoldK=F
 IRaf=         1 NMat=   1 IRICut=       1 DoRegI=T DoRafI=F ISym2E= 0.
 FoFCou: FMM=F IPFlag=           0 FMFlag=      100000 FMFlg1=         800
         NFxFlg=           0 DoJE=F BraDBF=F KetDBF=F FulRan=T
         wScrn=  0.000000 ICntrl=    2527 IOpCl=  0 I1Cent=           0 NGrid=           0
         NMat0=    1 NMatS0=      1 NMatT0=    0 NMatD0=    1 NMtDS0=    0 NMtDT0=    0
 Symmetry not used in FoFCou.
 Leave Link  703 at Fri Aug 27 21:26:42 2021, MaxMem= 17179869184 cpu:       237.9
 (Enter /public3/home/sc51754/softwares/g09e01/l716.exe)
 Dipole        = 9.23737603D-01 5.18455937D-01-1.63895210D-04
 ***** Axes restored to original set *****
 -------------------------------------------------------------------
 Center     Atomic                   Forces (Hartrees/Bohr)
 Number     Number              X              Y              Z
 -------------------------------------------------------------------
      1        6           0.001452029    0.000596187   -0.000029422
      2        6          -0.000556237    0.000702463    0.000007783
      3        6          -0.000564704   -0.000499215    0.000000241
      4        6          -0.000542331   -0.000571841   -0.000019548
      5        6           0.001321187   -0.000595696    0.000069427
      6        7          -0.000781351    0.000082006   -0.000014648
      7        1           0.000120238    0.000402227    0.000010630
      8        1           0.000006227    0.000080931    0.000001806
      9        1           0.000000363   -0.000089693   -0.000002836
     10        1           0.000108671   -0.000357782   -0.000023558
     11        8          -0.000467843    0.000708962    0.000001057
     12        1          -0.000096248   -0.000458550   -0.000000932
 -------------------------------------------------------------------
 Cartesian Forces:  Max     0.001452029 RMS     0.000484547
 Leave Link  716 at Fri Aug 27 21:26:42 2021, MaxMem= 17179869184 cpu:         0.3
 (Enter /public3/home/sc51754/softwares/g09e01/l103.exe)

 GradGradGradGradGradGradGradGradGradGradGradGradGradGradGradGradGradGrad
 Berny optimization.
 Using GEDIIS/GDIIS optimizer.
 FormGI is forming the generalized inverse of G from B-inverse, IUseBI=4.
 Internal  Forces:  Max     0.001226316 RMS     0.000397159
 Search for a local minimum.
 Step number   2 out of a maximum of   61
 All quantities printed in internal units (Hartrees-Bohrs-Radians)
 RMS Force = .39716D-03 SwitMx=.10000D-02 MixMth= 2
 Mixed Optimization -- En-DIIS/RFO-DIIS
 Update second derivatives using D2CorX and points    1    2
 DE= -4.54D-04 DEPred=-4.96D-04 R= 9.15D-01
 TightC=F SS=  1.41D+00  RLast= 4.56D-02 DXNew= 5.0454D-01 1.3680D-01
 Trust test= 9.15D-01 RLast= 4.56D-02 DXMaxT set to 3.00D-01
 ITU=  1  0
 Use linear search instead of GDIIS.
     Eigenvalues ---    0.02120   0.02139   0.02144   0.02163   0.02210
     Eigenvalues ---    0.02238   0.02269   0.02294   0.02415   0.15889
     Eigenvalues ---    0.16000   0.16000   0.16000   0.16013   0.22002
     Eigenvalues ---    0.22956   0.23672   0.24959   0.34982   0.35062
     Eigenvalues ---    0.35173   0.35499   0.42388   0.44626   0.46125
     Eigenvalues ---    0.49516   0.52906   0.53528   0.56351   0.57290
 RFO step:  Lambda=-1.16711001D-05 EMin= 2.11970866D-02
 Quartic linear search produced a step of -0.08185.
 Iteration  1 RMS(Cart)=  0.00148098 RMS(Int)=  0.00000111
 Iteration  2 RMS(Cart)=  0.00000115 RMS(Int)=  0.00000034
 Iteration  3 RMS(Cart)=  0.00000000 RMS(Int)=  0.00000034
 ITry= 1 IFail=0 DXMaxC= 5.25D-03 DCOld= 1.00D+10 DXMaxT= 3.00D-01 DXLimC= 3.00D+00 Rises=F
 Variable       Old X    -DE/DX   Delta X   Delta X   Delta X     New X
                                 (Linear)    (Quad)   (Total)
    R1        2.61859   0.00112   0.00131   0.00068   0.00199   2.62058
    R2        2.51253   0.00035   0.00130  -0.00097   0.00032   2.51285
    R3        2.05255   0.00041   0.00038   0.00062   0.00100   2.05355
    R4        2.62408   0.00123   0.00149   0.00074   0.00223   2.62630
    R5        2.05001   0.00007   0.00038  -0.00027   0.00011   2.05012
    R6        2.62480   0.00100   0.00143   0.00034   0.00177   2.62657
    R7        2.56072   0.00055   0.00056   0.00029   0.00085   2.56157
    R8        2.61210   0.00108   0.00137   0.00049   0.00186   2.61396
    R9        2.04513   0.00008   0.00031  -0.00016   0.00015   2.04528
   R10        2.52046   0.00050   0.00123  -0.00065   0.00058   2.52104
   R11        2.05225   0.00036   0.00037   0.00050   0.00087   2.05313
   R12        1.81405  -0.00038   0.00107  -0.00190  -0.00083   1.81322
    A1        2.17139  -0.00055  -0.00010  -0.00215  -0.00225   2.16914
[...]
 Variable       Old X    -DE/DX   Delta X   Delta X   Delta X     New X
                                 (Linear)    (Quad)   (Total)
    R1        2.62058   0.00020   0.00000   0.00040   0.00040   2.62098
    R2        2.51285  -0.00016   0.00000  -0.00031  -0.00031   2.51254
    R3        2.05355  -0.00002   0.00000  -0.00004  -0.00004   2.05351
    R4        2.62630  -0.00001   0.00000   0.00002   0.00002   2.62633
    R5        2.05012   0.00002   0.00000   0.00006   0.00006   2.05019
    R6        2.62657  -0.00007   0.00000  -0.00015  -0.00015   2.62642
    R7        2.56157  -0.00005   0.00000  -0.00002  -0.00002   2.56155
    R8        2.61396   0.00022   0.00000   0.00049   0.00049   2.61445
    R9        2.04528   0.00003   0.00000   0.00007   0.00007   2.04535
   R10        2.52104  -0.00018   0.00000  -0.00042  -0.00042   2.52062
   R11        2.05313  -0.00002   0.00000  -0.00004  -0.00004   2.05309
   R12        1.81322   0.00000   0.00000   0.00002   0.00002   1.81325
    A1        2.16914   0.00001   0.00000  -0.00005  -0.00005   2.16909
    A2        2.08606  -0.00000   0.00000  -0.00006  -0.00006   2.08600
    A3        2.02798  -0.00001   0.00000   0.00012   0.00012   2.02810
    A4        2.06077  -0.00003   0.00000  -0.00011  -0.00011   2.06067
    A5        2.10462   0.00005   0.00000   0.00034   0.00034   2.10496
    A6        2.11779  -0.00002   0.00000  -0.00023  -0.00023   2.11756
    A7        2.07215  -0.00000   0.00000   0.00011   0.00011   2.07226
    A8        2.14704   0.00002   0.00000  -0.00002  -0.00002   2.14702
    A9        2.06400  -0.00002   0.00000  -0.00009  -0.00009   2.06391
   A10        2.05887  -0.00003   0.00000  -0.00014  -0.00014   2.05873
   A11        2.09977  -0.00000   0.00000  -0.00002  -0.00002   2.09975
   A12        2.12454   0.00003   0.00000   0.00017   0.00017   2.12471
   A13        2.17216   0.00003   0.00000   0.00001   0.00001   2.17217
   A14        2.08678  -0.00001   0.00000  -0.00011  -0.00011   2.08668
   A15        2.02424  -0.00002   0.00000   0.00009   0.00009   2.02434
   A16        2.03327   0.00002   0.00000   0.00018   0.00018   2.03345
   A17        1.91725  -0.00010   0.00000  -0.00050  -0.00050   1.91675
    D1       -0.00012   0.00001   0.00000   0.00012   0.00012  -0.00000
    D2        3.14152   0.00000   0.00000   0.00007   0.00007   3.14159
    D3       -3.14154  -0.00000   0.00000  -0.00005  -0.00005  -3.14159
    D4        0.00010  -0.00000   0.00000  -0.00010  -0.00010  -0.00000
    D5        0.00002  -0.00000   0.00000  -0.00002  -0.00002   0.00000
    D6        3.14145   0.00001   0.00000   0.00015   0.00015   3.14159
    D7        0.00007  -0.00000   0.00000  -0.00007  -0.00007   0.00000
    D8       -3.14153  -0.00000   0.00000  -0.00007  -0.00007   3.14159
    D9       -3.14157  -0.00000   0.00000  -0.00002  -0.00002  -3.14159
   D10        0.00002  -0.00000   0.00000  -0.00002  -0.00002   0.00000
   D11        0.00007  -0.00000   0.00000  -0.00007  -0.00007   0.00000
   D12       -3.14154  -0.00000   0.00000  -0.00005  -0.00005  -3.14159
   D13       -3.14152  -0.00000   0.00000  -0.00007  -0.00007  -3.14159
   D14        0.00005  -0.00000   0.00000  -0.00005  -0.00005   0.00000
   D15       -0.00013   0.00000   0.00000   0.00013   0.00013   0.00000
   D16        3.14146   0.00000   0.00000   0.00013   0.00013  -3.14159
   D17       -0.00018   0.00001   0.00000   0.00018   0.00018  -0.00000
   D18       -3.14144  -0.00001   0.00000  -0.00015  -0.00015   3.14159
   D19        3.14143   0.00001   0.00000   0.00016   0.00016   3.14159
   D20        0.00017  -0.00001   0.00000  -0.00017  -0.00017  -0.00000
   D21        0.00014  -0.00001   0.00000  -0.00014  -0.00014  -0.00000
   D22        3.14140   0.00001   0.00000   0.00019   0.00019  -3.14159
         Item               Value     Threshold  Converged?
 Maximum Force            0.000216     0.000450     YES
 RMS     Force            0.000059     0.000300     YES
 Maximum Displacement     0.000764     0.001800     YES
 RMS     Displacement     0.000193     0.001200     YES
 Predicted change in Energy=-2.145948D-07
 Optimization completed.
    -- Stationary point found.
                           ----------------------------
                           !   Optimized Parameters   !
                           ! (Angstroms and Degrees)  !
 --------------------------                            --------------------------
 ! Name  Definition              Value          Derivative Info.                !
 --------------------------------------------------------------------------------
 ! R1    R(1,2)                  1.3868         -DE/DX =    0.0002              !
 ! R2    R(1,6)                  1.3297         -DE/DX =   -0.0002              !
 ! R3    R(1,7)                  1.0867         -DE/DX =    0.0                 !
 ! R4    R(2,3)                  1.3898         -DE/DX =    0.0                 !
 ! R5    R(2,8)                  1.0849         -DE/DX =    0.0                 !
 ! R6    R(3,4)                  1.3899         -DE/DX =   -0.0001              !
 ! R7    R(3,11)                 1.3555         -DE/DX =   -0.0001              !
 ! R8    R(4,5)                  1.3832         -DE/DX =    0.0002              !
 ! R9    R(4,9)                  1.0823         -DE/DX =    0.0                 !
 ! R10   R(5,6)                  1.3341         -DE/DX =   -0.0002              !
 ! R11   R(5,10)                 1.0865         -DE/DX =    0.0                 !
 ! R12   R(11,12)                0.9595         -DE/DX =    0.0                 !
 ! A1    A(2,1,6)              124.2827         -DE/DX =    0.0                 !
 ! A2    A(2,1,7)              119.5226         -DE/DX =    0.0                 !
 ! A3    A(6,1,7)              116.1947         -DE/DX =    0.0                 !
 ! A4    A(1,2,3)              118.0736         -DE/DX =    0.0                 !
 ! A5    A(1,2,8)              120.5859         -DE/DX =    0.0001              !
 ! A6    A(3,2,8)              121.3405         -DE/DX =    0.0                 !
 ! A7    A(2,3,4)              118.7254         -DE/DX =    0.0                 !
 ! A8    A(2,3,11)             123.0163         -DE/DX =    0.0                 !
 ! A9    A(4,3,11)             118.2583         -DE/DX =    0.0                 !
 ! A10   A(3,4,5)              117.9648         -DE/DX =    0.0                 !
 ! A11   A(3,4,9)              120.3078         -DE/DX =    0.0                 !
 ! A12   A(5,4,9)              121.7274         -DE/DX =    0.0                 !
 ! A13   A(4,5,6)              124.4557         -DE/DX =    0.0                 !
 ! A14   A(4,5,10)             119.5637         -DE/DX =    0.0                 !
 ! A15   A(6,5,10)             115.9806         -DE/DX =    0.0                 !
 ! A16   A(1,6,5)              116.4978         -DE/DX =    0.0                 !
 ! A17   A(3,11,12)            109.8505         -DE/DX =   -0.0001              !
 ! D1    D(6,1,2,3)             -0.0068         -DE/DX =    0.0                 !
 ! D2    D(6,1,2,8)            179.9958         -DE/DX =    0.0                 !
 ! D3    D(7,1,2,3)           -179.9971         -DE/DX =    0.0                 !
 ! D4    D(7,1,2,8)              0.0056         -DE/DX =    0.0                 !
 ! D5    D(2,1,6,5)              0.0011         -DE/DX =    0.0                 !
 ! D6    D(7,1,6,5)            179.9917         -DE/DX =    0.0                 !
 ! D7    D(1,2,3,4)              0.0039         -DE/DX =    0.0                 !
 ! D8    D(1,2,3,11)           180.0038         -DE/DX =    0.0                 !
 ! D9    D(8,2,3,4)           -179.9988         -DE/DX =    0.0                 !
 ! D10   D(8,2,3,11)             0.0011         -DE/DX =    0.0                 !
 ! D11   D(2,3,4,5)              0.004          -DE/DX =    0.0                 !
 ! D12   D(2,3,4,9)           -179.997          -DE/DX =    0.0                 !
 ! D13   D(11,3,4,5)          -179.9959         -DE/DX =    0.0                 !
 ! D14   D(11,3,4,9)             0.0031         -DE/DX =    0.0                 !
 ! D15   D(2,3,11,12)           -0.0074         -DE/DX =    0.0                 !
 ! D16   D(4,3,11,12)         -180.0075         -DE/DX =    0.0                 !
 ! D17   D(3,4,5,6)             -0.0104         -DE/DX =    0.0                 !
 ! D18   D(3,4,5,10)           180.0088         -DE/DX =    0.0                 !
 ! D19   D(9,4,5,6)            179.9906         -DE/DX =    0.0                 !
 ! D20   D(9,4,5,10)             0.0099         -DE/DX =    0.0                 !
 ! D21   D(4,5,6,1)              0.0078         -DE/DX =    0.0                 !
 ! D22   D(10,5,6,1)          -180.0108         -DE/DX =    0.0                 !
 --------------------------------------------------------------------------------
 GradGradGradGradGradGradGradGradGradGradGradGradGradGradGradGradGradGrad

 Leave Link  103 at Fri Aug 27 21:27:55 2021, MaxMem= 17179869184 cpu:        85.3
 (Enter /public3/home/sc51754/softwares/g09e01/l9999.exe)
 1\1\GINC-P1908\Freq\RwB97\Gen\C5H5N1O1\SC51754\27-Aug-2021\0\\#P Geom=
 AllCheck Guess=TCheck SCRF=Check GenChk RwB97/ChkBas Freq\\4HY_wB97_PC
 2_OPT_FREQ\\0,1\C,1.1457091268,1.147598316,-0.0000768092\C,-0.24057598
 79,1.1835568934,0.0000233951\C,-0.9261912985,-0.025335436,-0.000024949
 4\C,-0.1955152882,-1.207703214,-0.0000878898\C,1.1847698968,-1.1172265
 428,-0.0000139955\N,1.8659810063,0.0298201645,-0.000085879\H,1.7055331
 141,2.078992174,0.0000065396\H,-0.7681926165,2.131493218,0.0000928193\
 H,-0.7032495062,-2.1635356607,-0.0001746385\H,1.7814878323,-2.02515816
 21,-0.000205806\O,-2.279251792,-0.1070687189,-0.0000114248\H,-2.658896
 487,0.7741459684,0.0001516381\\Version=EM64L-G09RevE.01\State=1-A\HF=-
 323.571869\RMSD=1.227e-09\RMSF=1.021e-04\ZeroPoint=0.0944657\Thermal=0
 .0997365\Dipole=-0.9217618,0.5197105,0.0000978\DipoleDeriv=0.4892718,0
 .0298689,-0.0000341,-0.0388848,0.3879119,0.0000181,0.0000208,0.0000521
 ,0.0132393,-0.4929285,-0.1443447,0.0000077,-0.3135482,-0.1648829,0.000
 0251,-0.0000198,-0.0000051,-0.1798607,1.6788023,-0.0021853,-0.0000214,
 -0.0208991,0.410355,-0.0000307,-0.0000284,-0.0000262,0.1372864,-0.4907
 002,0.1528058,0.0000133,0.2999065,-0.1467121,0.0000201,0.000048,0.0000
 167,-0.1681625,0.5053196,-0.0572067,0.000009,0.0600353,0.3942968,0.000
 0249,-0.0000669,0.000069,0.0092869,-0.6178058,0.0145129,0.0000016,-0.0
 161982,-0.675154,-0.0000454,0.0000131,0.0000105,-0.2976153,0.0411197,-
 0.0689253,0.0000052,-0.0527436,-0.0690502,-0.0000005,-0.0000215,-0.000
 0418,0.1033846,0.003902,0.0771752,0.000012,0.0711991,-0.0232841,-0.000
 0099,0.0000182,-0.0000074,0.1580019,0.0552346,-0.0494904,-0.0000068,-0
 .0452314,-0.0033139,-0.0000069,-0.0000169,-0.0000137,0.1568684,0.03858
 02,0.0751917,-0.0000008,0.0555729,-0.0607537,-0.0000021,0.0000441,-0.0
 000709,0.1049044,-1.5933463,0.0301645,0.0000278,0.0379192,-0.2128901,0
 .0000302,-0.0000001,0.0000381,-0.3647983,0.3825503,-0.0575666,-0.00001
 35,-0.0371277,0.1634773,-0.0000229,0.0000094,-0.0000214,0.3274648\Pola
 r=79.4733097,-1.0772572,74.732264,-0.0008474,0.0011068,38.3091737\PG=C
 01 [X(C5H5N1O1)]\NImag=0\\0.70953492,0.04237770,0.76626140,-0.00001069
 ,0.00002395,0.17016830,-0.34322403,-0.04724475,0.00001731,0.71774177,0
 .04120520,-0.14198541,-0.00000503,-0.04072378,0.74852375,0.00002150,-0
 .00000162,-0.06857339,-0.00003087,0.00003497,0.12249373,-0.02743685,-0
 .03576314,-0.00000107,-0.16926644,-0.11681517,-0.00000203,0.72905817,-
 0.10912017,0.06406179,0.00000509,-0.02603456,-0.30185820,-0.00001349,-
 0.01071788,0.73166623,-0.00000086,0.00000432,0.00248599,-0.00000250,-0
 .00001165,-0.07167436,-0.00001057,0.00003400,0.17592147,-0.07052585,0.
 05001633,0.00000338,0.07589045,0.02636941,-0.00000287,-0.16673945,0.03
 428171,0.00000546,0.73124814,0.02878506,-0.02488811,-0.00000075,-0.022
 20829,-0.04772308,-0.00000134,0.12092486,-0.29832783,-0.00001420,0.044
 99067,0.75908883,0.00000046,0.00000039,-0.00753590,0.00000093,-0.00000
 236,0.00951908,0.00000432,-0.00001390,-0.07372667,0.00001952,0.0000433
 1,0.12624643,0.07655261,-0.03451059,-0.00000441,-0.06738215,-0.0285860
 0,0.00000176,-0.03582480,0.10214222,0.00000116,-0.35368311,-0.05057723
 ,-0.00001867,0.72016853,0.04109809,-0.10336566,-0.00000149,-0.05213727
 ,-0.02749667,0.00000213,0.02919669,0.07066690,0.00000400,0.03786653,-0
 .14707183,-0.00000659,-0.04724816,0.75511720,-0.00000202,-0.00000162,0
 .00445479,0.00000093,0.00000204,-0.00795345,0.00000258,-0.00000187,0.0
 0240108,-0.00001161,-0.00000476,-0.06846408,-0.00002571,0.00004014,0.1
 7124246,-0.20092357,0.12998164,0.00000423,-0.03268689,0.03069949,0.000
 00245,0.01181004,0.00375703,-0.00000058,-0.02631438,-0.03410073,0.0000
 0152,-0.19094842,-0.12206177,0.00000787,0.43280757,0.08028501,-0.29456
 814,-0.00000245,0.11415951,0.04306432,-0.00000258,0.00463819,-0.121054
 97,-0.00000428,-0.11582133,0.03972391,0.00000347,-0.07218052,-0.293722
 69,0.00000616,-0.00920200,0.67220295,0.00000017,-0.00000084,-0.0737048
 7,0.00000346,-0.00000254,0.02425561,-0.00000050,0.00000177,-0.00890698
 ,-0.00000222,-0.00000089,0.02346279,0.00001517,0.00001257,-0.07358418,
 -0.00001443,-0.00000695,0.10026034,-0.14369594,-0.13077911,-0.00000944
 ,-0.01027229,-0.02678711,-0.00000161,-0.00519535,0.00152736,0.00000051
 ,-0.00065106,0.00102951,-0.00000005,0.00072022,0.00466059,0.00000006,0
 .01380072,0.01960738,0.00000026,0.14534203,-0.12933062,-0.25373446,-0.
 00001690,0.00262776,0.00407919,-0.00000066,0.00130255,0.00116076,-0.00
 000071,0.00007012,0.00031078,0.00000006,0.00266401,-0.00280456,-0.0000
 0120,-0.00740731,-0.03069246,-0.00000016,0.13160910,0.28195281,-0.0000
 1116,-0.00002238,-0.04571786,0.00000145,0.00000176,0.00788766,0.000001
 14,0.00000031,0.00819195,0.00000157,-0.00000092,-0.00086486,-0.0000021
 4,-0.00000121,0.01037171,-0.00000141,0.00000286,-0.00260887,0.00001045
 ,0.00001888,0.02836330,-0.00592890,0.03045315,0.00000098,-0.12617360,0
 .12005167,0.00001183,0.00850983,-0.01447749,-0.00000094,-0.00043431,-0
 .00342304,0.00000007,-0.00153109,-0.00196456,0.00000011,-0.00681285,0.
 00052756,0.00000083,0.00066696,-0.00052300,-0.00000038,0.12780373,-0.0
 0238404,0.00355454,0.00000036,0.12041955,-0.28097406,-0.00001771,0.018
 69963,-0.01677310,-0.00000132,-0.00373575,-0.00336108,-0.00000059,-0.0
 0149669,-0.00010472,-0.00000006,-0.00025807,0.00230491,-0.00000035,0.0
 0048901,0.00043655,0.00000014,-0.13094343,0.29398744,0.00000116,-0.000
 00235,0.00042203,0.00001028,-0.00001697,-0.03229974,0.00000067,-0.0000
 0046,0.00362209,0.00000005,-0.00000063,0.00592079,0.00000013,0.0000003
 2,-0.00024884,0.00000022,0.00000018,0.00811872,0.00000004,0.00000044,-
 0.00365482,-0.00001227,0.00001902,0.02280091,-0.00146623,0.00183014,-0
 .00000006,-0.00121070,0.00326530,-0.00000016,0.01152799,0.01589619,0.0
 0000108,-0.12279905,-0.12157775,-0.00001378,-0.00484466,-0.02931471,-0
 .00000119,-0.00639969,-0.00074507,-0.00000035,0.00010516,-0.00020266,0
 .00000011,0.00050854,0.00086153,-0.00000006,0.12228984,0.00142737,0.00
 001062,-0.00000012,0.00356147,-0.00305366,-0.00000076,-0.01677060,-0.0
 1730370,-0.00000144,-0.12002131,-0.29255576,-0.00002262,0.00240391,0.0
 0391125,0.00000041,0.00031951,0.00221383,-0.00000067,-0.00007166,0.000
 00294,0.00000012,-0.00066990,-0.00085552,0.00000002,0.13099692,0.30496
 564,0.00000006,0.00000032,-0.00023854,0.00000008,-0.00000067,0.0059116
 1,-0.00000090,-0.00000044,0.00469695,-0.00001169,-0.00002322,-0.034253
 81,-0.00000150,-0.00000205,0.00045181,0.00000070,0.00000055,0.00842850
 ,0.00000005,0.00000006,-0.00135403,0.00000002,0.,0.00009031,0.00001392
 ,0.00002427,0.02419841,0.00104961,-0.00461347,0.00000112,-0.00069029,-
 0.00106541,0.00000002,-0.00490313,-0.00158487,0.00000038,-0.01107758,0
 .02626890,0.00000431,-0.15353617,0.13464184,0.00002665,0.01397110,-0.0
 1789220,-0.00000235,0.00031622,-0.00049464,0.00000012,0.00009552,0.000
 07229,-0.00000019,0.00069481,-0.00052646,-0.00000050,0.15554422,-0.002
 52143,-0.00318585,-0.00000114,-0.00010723,0.00034297,0.00000010,-0.001
 53495,0.00096140,-0.00000129,-0.00325714,0.00505973,-0.00000107,0.1332
 1137,-0.24258268,-0.00003830,0.00923528,-0.03071698,-0.00000176,0.0005
 3844,-0.00081474,0.00000010,0.00021549,-0.00000479,0.00000012,0.000524
 58,0.00040555,0.00000080,-0.13653066,0.27028315,0.00000265,-0.00000005
 ,0.01003780,-0.00000090,-0.00000115,-0.00082031,-0.00000098,-0.0000001
 2,0.00861292,-0.00000261,0.00000118,0.00805334,0.00003223,-0.00004787,
 -0.04657850,-0.00000044,0.00000474,-0.00230809,-0.00000013,0.00000015,
 0.00017412,-0.00000010,0.00000009,-0.00130860,0.00000040,0.00000033,-0
 .00382521,-0.00002959,0.00004235,0.02882051,0.00737201,-0.00268578,-0.
 00000113,-0.04644332,-0.00841161,0.00000040,-0.32607695,-0.04323385,-0
 .00000095,-0.04838332,0.01289566,0.00000141,0.00989315,0.00268148,0.00
 000224,-0.00909333,-0.00169781,-0.00000021,-0.00143869,-0.00034075,0.0
 0000024,0.00363583,0.00004162,-0.00000018,0.00149481,-0.00057610,-0.00
 000027,-0.00103287,0.00037260,-0.00000036,0.52107720,0.00783761,-0.011
 05924,-0.00000169,-0.04651915,0.00351567,0.00000040,0.00813165,-0.1143
 3577,-0.00000843,0.05090797,0.00751229,0.00000009,-0.00648929,-0.01236
 043,-0.00000078,-0.00049258,0.01131820,-0.00000010,-0.00163860,0.00016
 333,0.00000035,-0.00018181,0.00275818,0.00000057,-0.00132697,0.0019313
 0,0.00000033,0.00171336,0.00020088,0.00000033,-0.15115057,0.57487496,-
 0.00000119,0.00000013,0.00891059,0.00000059,0.00000087,0.01269741,0.00
 000982,-0.00001028,-0.04920491,0.00000168,0.00000233,0.00848442,0.0000
 0217,-0.00000002,0.00620176,-0.00000025,-0.00000183,-0.00332080,-0.000
 00008,0.00000004,-0.00087266,-0.00000037,0.00000033,-0.00395220,0.0000
 0007,0.00000040,-0.00355985,0.00000012,0.00000006,-0.00048348,-0.00004
 000,0.00009180,0.03072718,-0.00130778,0.00093788,-0.00000023,0.0037174
 8,0.00079800,-0.00000041,-0.02546306,0.04756432,0.00000781,-0.00653049
 ,-0.00300762,-0.00000005,0.00041588,0.00258127,0.00000010,0.00078970,-
 0.00167873,0.00000017,0.00030202,0.00002544,0.,-0.00033966,-0.00176563
 ,0.00000013,0.00009918,-0.00007314,0.00000004,-0.00043144,-0.00014637,
 -0.00000016,-0.11100451,0.13920838,0.00002743,0.13975269,0.00034022,-0
 .00110147,0.00000017,-0.00579326,0.00356517,0.00000057,-0.00129181,0.0
 0113649,0.00000099,-0.00166721,0.00223214,-0.00000020,0.00066697,-0.00
 018611,-0.00000016,-0.00047050,-0.00007288,-0.00000009,-0.00018492,-0.
 00006014,0.,0.00093537,-0.00096835,-0.00000026,-0.00020750,0.00032751,
 0.00000006,0.00001132,0.00005135,0.00000003,0.19210512,-0.46451937,-0.
 00008384,-0.18444380,0.45959567,-0.00000007,-0.00000025,-0.00070895,-0
 .00000076,0.00000073,-0.00144385,-0.00000249,-0.00000062,-0.00241952,-
 0.00000064,-0.00000011,0.00315847,-0.00000020,0.00000007,0.00170545,0.
 00000011,0.00000012,-0.00009216,-0.00000007,0.,0.00008436,0.00000022,0
 .00000009,0.00048934,0.00000002,0.00000006,-0.00054614,-0.00000009,0.0
 0000004,-0.00037450,0.00003880,-0.00008288,-0.00562746,-0.00003483,0.0
 0008274,0.00577495\\-0.00029684,0.00015920,-0.00001946,0.00015232,-0.0
 0001968,0.00000555,0.00000533,-0.00001215,-0.00000199,0.00023765,-0.00
 001986,-0.00000805,-0.00030870,-0.00019752,0.00003607,0.00017786,0.000
 02746,-0.00000648,0.00000795,0.00001478,0.00000702,0.00004359,-0.00000
 349,0.00000070,0.00002883,0.00001764,-0.00000219,0.00000915,-0.0000160
 1,-0.00001190,-0.00000938,0.00007457,-0.00000107,-0.00004776,-0.000024
 96,0.00000180\\\@


 ALL OUR THINKING ABOUT NATURE MUST NECESSARILY MOVE IN CIRCLES OR SPIRALS;
 FOR WE CAN ONLY UNDERSTAND NATURE IF WE THINK ABOUT HER, AND WE CAN ONLY
 THINK BECAUSE OUR BRAIN IS BUILT IN ACCORDANCE WITH NATURE'S LAWS.

                                             -- TIMOTHY FERRIS, "GALAXIES"
 Job cpu time:       0 days  0 hours 52 minutes  5.5 seconds.
 File lengths (MBytes):  RWF=     79 Int=      0 D2E=      0 Chk=      7 Scr=      1
 Normal termination of Gaussian 09 at Fri Aug 27 21:27:55 2021.
