 Entering Gaussian System, Link 0=g09
 AtFile(1): pc-2.gbs
            -H     0
            S    4   1.00
                  0.754230D+02           0.240650D-02
                  0.113500D+02           0.184870D-01
                  0.259930D+01           0.897420D-01
                  0.735130D+00           0.281110D+00
            S    1   1.00
                  0.231670D+00           0.100000D+01
            S    1   1.00
                  0.741470D-01           0.100000D+01
            P    1   1.00
                  0.160000D+01           0.100000D+01
            P    1   1.00
                  0.450000D+00           0.100000D+01
            D    1   1.00
                  0.125000D+01           0.100000D+01
            ****
            -C     0
            S    7   1.00
                  0.785710D+04           0.568250D-03
                  0.117870D+04           0.439150D-02
                  0.268320D+03           0.225040D-01
                  0.759480D+02           0.866530D-01
                  0.245590D+02           0.244050D+00
                  0.862120D+01           0.441480D+00
                  0.312780D+01           0.353320D+00
            S    7   1.00
                  0.117870D+04          -0.594920D-06
                  0.268320D+03          -0.627480D-04
                  0.759480D+02          -0.757730D-03
                  0.245590D+02          -0.733080D-02
                  0.862120D+01          -0.389320D-01
                  0.312780D+01          -0.889080D-01
                  0.822020D+00           0.216890D+00
            S    1   1.00
                  0.330170D+00           0.100000D+01
            S    1   1.00
                  0.114630D+00           0.100000D+01
            P    4   1.00
                  0.337750D+02           0.602940D-02
                  0.767660D+01           0.432280D-01
                  0.223570D+01           0.163010D+00
                  0.764470D+00           0.365040D+00
            P    1   1.00
                  0.262320D+00           0.100000D+01
            P    1   1.00
                  0.846380D-01           0.100000D+01
            D    1   1.00
                  0.140000D+01           0.100000D+01
            D    1   1.00
                  0.450000D+00           0.100000D+01
            F    1   1.00
                  0.950000D+00           0.100000D+01
            ****
            -N     0
            S    7   1.00
                  0.111010D+05           0.545700D-03
                  0.166530D+04           0.421810D-02
                  0.379080D+03           0.216450D-01
                  0.107300D+03           0.837760D-01
                  0.347470D+02           0.238810D+00
                  0.122490D+02           0.439940D+00
                  0.447430D+01           0.363640D+00
            S    7   1.00
                  0.166530D+04          -0.150060D-05
                  0.379080D+03          -0.587530D-04
                  0.107300D+03          -0.774530D-03
                  0.347470D+02          -0.721610D-02
                  0.122490D+02          -0.393380D-01
                  0.447430D+01          -0.906110D-01
                  0.124040D+01           0.198820D+00
            S    1   1.00
                  0.487430D+00           0.100000D+01
            S    1   1.00
                  0.164840D+00           0.100000D+01
            P    4   1.00
                  0.479340D+02           0.617060D-02
                  0.109990D+02           0.442600D-01
                  0.324720D+01           0.168250D+00
                  0.111140D+01           0.368480D+00
            P    1   1.00
                  0.379880D+00           0.100000D+01
            P    1   1.00
                  0.120680D+00           0.100000D+01
            D    1   1.00
                  0.180000D+01           0.100000D+01
            D    1   1.00
                  0.550000D+00           0.100000D+01
            F    1   1.00
                  0.102000D+01           0.100000D+01
            ****
            -O     0
            S    7   1.00
                  0.147820D+05           0.535190D-03
                  0.221730D+04           0.413750D-02
                  0.504740D+03           0.212450D-01
                  0.142870D+03           0.824530D-01
                  0.463000D+02           0.236710D+00
                  0.163370D+02           0.440390D+00
                  0.598280D+01           0.364650D+00
            S    7   1.00
                  0.221730D+04          -0.192750D-05
                  0.504740D+03          -0.579640D-04
                  0.142870D+03          -0.794940D-03
                  0.463000D+02          -0.731250D-02
                  0.163370D+02          -0.405740D-01
                  0.598280D+01          -0.915940D-01
                  0.167180D+01           0.209400D+00
            S    1   1.00
                  0.646620D+00           0.100000D+01
            S    1   1.00
                  0.216690D+00           0.100000D+01
            P    4   1.00
                  0.604240D+02           0.689490D-02
                  0.139350D+02           0.490050D-01
                  0.415310D+01           0.182550D+00
                  0.141580D+01           0.376330D+00
            P    1   1.00
                  0.475490D+00           0.100000D+01
            P    1   1.00
                  0.145290D+00           0.100000D+01
            D    1   1.00
                  0.220000D+01           0.100000D+01
            D    1   1.00
                  0.650000D+00           0.100000D+01
            F    1   1.00
                  0.110000D+01           0.100000D+01
            ****
 Initial command:
 /public3/home/sc51754/softwares/g09e01/l1.exe "./Gau-45151.inp" -scrdir="./"
 Entering Link 1 = /public3/home/sc51754/softwares/g09e01/l1.exe PID=     45155.
  
 Copyright (c) 1988,1990,1992,1993,1995,1998,2003,2009,2015,
            Gaussian, Inc.  All Rights Reserved.
  
 This is part of the Gaussian(R) 09 program.  It is based on
 the Gaussian(R) 03 system (copyright 2003, Gaussian, Inc.),
 the Gaussian(R) 98 system (copyright 1998, Gaussian, Inc.),
 the Gaussian(R) 94 system (copyright 1995, Gaussian, Inc.),
 the Gaussian 92(TM) system (copyright 1992, Gaussian, Inc.),
 the Gaussian 90(TM) system (copyright 1990, Gaussian, Inc.),
 the Gaussian 88(TM) system (copyright 1988, Gaussian, Inc.),
 the Gaussian 86(TM) system (copyright 1986, Carnegie Mellon
 University), and the Gaussian 82(TM) system (copyright 1983,
 Carnegie Mellon University). Gaussian is a federally registered
 trademark of Gaussian, Inc.
  
 This software contains proprietary and confidential information,
 including trade secrets, belonging to Gaussian, Inc.
  
 This software is provided under written license and may be
 used, copied, transmitted, or stored only in accord with that
 written license.
  
 The following legend is applicable only to US Government
 contracts under FAR:
  
                    RESTRICTED RIGHTS LEGEND
  
 Use, reproduction and disclosure by the US Government is
 subject to restrictions as set forth in subparagraphs (a)
 and (c) of the Commercial Computer Software - Restricted
 Rights clause in FAR 52.227-19.
  
 Gaussian, Inc.
 340 Quinnipiac St., Bldg. 40, Wallingford CT 06492
  
  
 ---------------------------------------------------------------
 Warning -- This program may not be used in any manner that
 competes with the business of Gaussian, Inc. or will provide
 assistance to any competitor of Gaussian, Inc.  The licensee
 of this program is prohibited from giving any competitor of
 Gaussian, Inc. access to this program.  By using this program,
 the user acknowledges that Gaussian, Inc. is engaged in the
 business of creating and licensing software in the field of
 computational chemistry and represents and warrants to the
 licensee that it is not a competitor of Gaussian, Inc. and that
 it will not use this program in any manner prohibited above.
 ---------------------------------------------------------------
  

 Cite this work as:
 Gaussian 09, Revision E.01,
 M. J. Frisch, G. W. Trucks, H. B. Schlegel, G. E. Scuseria, 
 M. A. Robb, J. R. Cheeseman, G. Scalmani, V. Barone, B. Mennucci, 
 G. A. Petersson, H. Nakatsuji, M. Caricato, X. Li, H. P. Hratchian, 
 A. F. Izmaylov, J. Bloino, G. Zheng, J. L. Sonnenberg, M. Hada, 
 M. Ehara, K. Toyota, R. Fukuda, J. Hasegawa, M. Ishida, T. Nakajima, 
 Y. Honda, O. Kitao, H. Nakai, T. Vreven, J. A. Montgomery, Jr., 
 J. E. Peralta, F. Ogliaro, M. Bearpark, J. J. Heyd, E. Brothers, 
 K. N. Kudin, V. N. Staroverov, T. Keith, R. Kobayashi, J. Normand, 
 K. Raghavachari, A. Rendell, J. C. Burant, S. S. Iyengar, J. Tomasi, 
 M. Cossi, N. Rega, J. M. Millam, M. Klene, J. E. Knox, J. B. Cross, 
 V. Bakken, C. Adamo, J. Jaramillo, R. Gomperts, R. E. Stratmann, 
 O. Yazyev, A. J. Austin, R. Cammi, C. Pomelli, J. W. Ochterski, 
 R. L. Martin, K. Morokuma, V. G. Zakrzewski, G. A. Voth, 
 P. Salvador, J. J. Dannenberg, S. Dapprich, A. D. Daniels, 
 O. Farkas, J. B. Foresman, J. V. Ortiz, J. Cioslowski, 
 and D. J. Fox, Gaussian, Inc., Wallingford CT, 2013.
 
 ******************************************
 Gaussian 09:  EM64L-G09RevE.01 30-Nov-2015
                27-Aug-2021 
 ******************************************
 %nprocshared=64
 Will use up to   64 processors via shared memory.
 %mem=128GB
 %chk=4HY_CAM-B3LYP_PC2_OPT_FREQ.chk
 -------------------------
 #p opt freq CAM-B3LYP/gen
 -------------------------
 1/14=-1,18=20,19=15,26=3,38=1/1,3;
 2/9=110,12=2,17=6,18=5,40=1/2;
 3/5=7,11=2,16=1,25=1,30=1,71=1,74=-40/1,2,3;
 4//1;
 5/5=2,38=5/2;
 6/7=2,8=2,9=2,10=2,28=1/1;
 7//1,2,3,16;
 1/14=-1,18=20,19=15,26=3/3(2);
 2/9=110/2;
 99//99;
 2/9=110/2;
 3/5=7,6=1,11=2,16=1,25=1,30=1,71=1,74=-40,82=7/1,2,3;
 4/5=5,16=3,69=1/1;
 5/5=2,38=5/2;
 7//1,2,3,16;
 1/14=-1,18=20,19=15,26=3/3(-5);
 2/9=110/2;
 6/7=2,8=2,9=2,10=2,19=2,28=1/1;
 99/9=1/99;
 Leave Link    1 at Fri Aug 27 21:22:10 2021, MaxMem= 17179869184 cpu:         4.3
 (Enter /public3/home/sc51754/softwares/g09e01/l101.exe)
 --------------------------
 4HY_CAM-B3LYP_PC2_OPT_FREQ
 --------------------------
 Symbolic Z-matrix:
 Charge =  0 Multiplicity = 1
 C                     1.15223   1.15341  -0.00011 
 C                    -0.24145   1.18944   0.00003 
 C                    -0.93443  -0.02499   0.00004 
 C                    -0.19715  -1.21307  -0.00009 
 C                     1.19102  -1.12281   0.00022 
 N                     1.87822   0.02956   0.00002 
 H                     1.71189   2.08718  -0.0001 
 H                    -0.77027   2.13945  -0.00002 
 H                    -0.70664  -2.17013  -0.00044 
 H                     1.78719  -2.03343  -0.00024 
 O                    -2.29029  -0.1124   -0.00001 
 H                    -2.6687    0.77737   0.00031 
 
 NAtoms=     12 NQM=       12 NQMF=       0 NMMI=      0 NMMIF=      0
                NMic=       0 NMicF=      0.
                    Isotopes and Nuclear Properties:
 (Nuclear quadrupole moments (NQMom) in fm**2, nuclear magnetic moments (NMagM)
  in nuclear magnetons)

  Atom         1           2           3           4           5           6           7           8           9          10
 IAtWgt=          12          12          12          12          12          14           1           1           1           1
 AtmWgt=  12.0000000  12.0000000  12.0000000  12.0000000  12.0000000  14.0030740   1.0078250   1.0078250   1.0078250   1.0078250
 NucSpn=           0           0           0           0           0           2           1           1           1           1
 AtZEff=   0.0000000   0.0000000   0.0000000   0.0000000   0.0000000   0.0000000   0.0000000   0.0000000   0.0000000   0.0000000
 NQMom=    0.0000000   0.0000000   0.0000000   0.0000000   0.0000000   2.0440000   0.0000000   0.0000000   0.0000000   0.0000000
 NMagM=    0.0000000   0.0000000   0.0000000   0.0000000   0.0000000   0.4037610   2.7928460   2.7928460   2.7928460   2.7928460
 AtZNuc=   6.0000000   6.0000000   6.0000000   6.0000000   6.0000000   7.0000000   1.0000000   1.0000000   1.0000000   1.0000000

  Atom        11          12
 IAtWgt=          16           1
 AtmWgt=  15.9949146   1.0078250
 NucSpn=           0           1
 AtZEff=   0.0000000   0.0000000
 NQMom=    0.0000000   0.0000000
 NMagM=    0.0000000   2.7928460
 AtZNuc=   8.0000000   1.0000000
 Leave Link  101 at Fri Aug 27 21:22:10 2021, MaxMem= 17179869184 cpu:         5.5
 (Enter /public3/home/sc51754/softwares/g09e01/l103.exe)

 GradGradGradGradGradGradGradGradGradGradGradGradGradGradGradGradGradGrad
 Berny optimization.
 Initialization pass.
                           ----------------------------
                           !    Initial Parameters    !
                           ! (Angstroms and Degrees)  !
 --------------------------                            --------------------------
 ! Name  Definition              Value          Derivative Info.                !
 --------------------------------------------------------------------------------
 ! R1    R(1,2)                  1.3941         estimate D2E/DX2                !
 ! R2    R(1,6)                  1.3379         estimate D2E/DX2                !
 ! R3    R(1,7)                  1.0886         estimate D2E/DX2                !
 ! R4    R(2,3)                  1.3982         estimate D2E/DX2                !
 ! R5    R(2,8)                  1.0873         estimate D2E/DX2                !
 ! R6    R(3,4)                  1.3983         estimate D2E/DX2                !
 ! R7    R(3,11)                 1.3587         estimate D2E/DX2                !
 ! R8    R(4,5)                  1.3911         estimate D2E/DX2                !
 ! R9    R(4,9)                  1.0842         estimate D2E/DX2                !
 ! R10   R(5,6)                  1.3417         estimate D2E/DX2                !
 ! R11   R(5,10)                 1.0884         estimate D2E/DX2                !
 ! R12   R(11,12)                0.9669         estimate D2E/DX2                !
 ! A1    A(2,1,6)              124.3426         estimate D2E/DX2                !
 ! A2    A(2,1,7)              119.4556         estimate D2E/DX2                !
 ! A3    A(6,1,7)              116.2018         estimate D2E/DX2                !
 ! A4    A(1,2,3)              118.2292         estimate D2E/DX2                !
 ! A5    A(1,2,8)              120.5831         estimate D2E/DX2                !
 ! A6    A(3,2,8)              121.1877         estimate D2E/DX2                !
 ! A7    A(2,3,4)              118.4682         estimate D2E/DX2                !
 ! A8    A(2,3,11)             123.3985         estimate D2E/DX2                !
 ! A9    A(4,3,11)             118.1333         estimate D2E/DX2                !
 ! A10   A(3,4,5)              118.1015         estimate D2E/DX2                !
 ! A11   A(3,4,9)              120.1493         estimate D2E/DX2                !
 ! A12   A(5,4,9)              121.7493         estimate D2E/DX2                !
 ! A13   A(4,5,6)              124.5296         estimate D2E/DX2                !
 ! A14   A(4,5,10)             119.4914         estimate D2E/DX2                !
 ! A15   A(6,5,10)             115.9789         estimate D2E/DX2                !
 ! A16   A(1,6,5)              116.3289         estimate D2E/DX2                !
 ! A17   A(3,11,12)            109.3507         estimate D2E/DX2                !
 ! D1    D(6,1,2,3)             -0.0135         estimate D2E/DX2                !
 ! D2    D(6,1,2,8)            179.9955         estimate D2E/DX2                !
 ! D3    D(7,1,2,3)           -179.9987         estimate D2E/DX2                !
 ! D4    D(7,1,2,8)              0.0102         estimate D2E/DX2                !
 ! D5    D(2,1,6,5)              0.0039         estimate D2E/DX2                !
 ! D6    D(7,1,6,5)            179.9896         estimate D2E/DX2                !
 ! D7    D(1,2,3,4)              0.0007         estimate D2E/DX2                !
 ! D8    D(1,2,3,11)          -179.9909         estimate D2E/DX2                !
 ! D9    D(8,2,3,4)            179.9917         estimate D2E/DX2                !
 ! D10   D(8,2,3,11)             0.0001         estimate D2E/DX2                !
 ! D11   D(2,3,4,5)              0.0198         estimate D2E/DX2                !
 ! D12   D(2,3,4,9)           -179.978          estimate D2E/DX2                !
 ! D13   D(11,3,4,5)          -179.9882         estimate D2E/DX2                !
 ! D14   D(11,3,4,9)             0.014          estimate D2E/DX2                !
 ! D15   D(2,3,11,12)           -0.0225         estimate D2E/DX2                !
 ! D16   D(4,3,11,12)          179.9859         estimate D2E/DX2                !
 ! D17   D(3,4,5,6)             -0.0313         estimate D2E/DX2                !
 ! D18   D(3,4,5,10)          -179.9777         estimate D2E/DX2                !
 ! D19   D(9,4,5,6)            179.9664         estimate D2E/DX2                !
 ! D20   D(9,4,5,10)             0.0201         estimate D2E/DX2                !
 ! D21   D(4,5,6,1)              0.0192         estimate D2E/DX2                !
 ! D22   D(10,5,6,1)           179.9673         estimate D2E/DX2                !
 --------------------------------------------------------------------------------
 Trust Radius=3.00D-01 FncErr=1.00D-07 GrdErr=1.00D-06
 Number of steps in this run=     61 maximum allowed number of steps=    100.
 GradGradGradGradGradGradGradGradGradGradGradGradGradGradGradGradGradGrad

 Leave Link  103 at Fri Aug 27 21:22:10 2021, MaxMem= 17179869184 cpu:         0.1
 (Enter /public3/home/sc51754/softwares/g09e01/l202.exe)
                          Input orientation:                          
 ---------------------------------------------------------------------
 Center     Atomic      Atomic             Coordinates (Angstroms)
 Number     Number       Type             X           Y           Z
 ---------------------------------------------------------------------
      1          6           0        1.152230    1.153409   -0.000114
      2          6           0       -0.241450    1.189435    0.000028
      3          6           0       -0.934425   -0.024989    0.000035
      4          6           0       -0.197153   -1.213074   -0.000085
      5          6           0        1.191022   -1.122808    0.000218
      6          7           0        1.878221    0.029557    0.000015
      7          1           0        1.711886    2.087182   -0.000101
      8          1           0       -0.770273    2.139452   -0.000016
      9          1           0       -0.706644   -2.170125   -0.000442
     10          1           0        1.787188   -2.033434   -0.000236
     11          8           0       -2.290294   -0.112398   -0.000014
     12          1           0       -2.668700    0.777372    0.000305
 ---------------------------------------------------------------------
                    Distance matrix (angstroms):
                    1          2          3          4          5
     1  C    0.000000
     2  C    1.394146   0.000000
     3  C    2.396404   1.398227   0.000000
     4  C    2.724165   2.402917   1.398255   0.000000
     5  C    2.276548   2.720008   2.392223   1.391107   0.000000
     6  N    1.337949   2.416262   2.813175   2.418948   1.341711
     7  H    1.088645   2.149761   3.385887   3.812626   3.251974
     8  H    2.160625   1.087284   2.170657   3.401161   3.806444
     9  H    3.808056   3.391615   2.157196   1.084218   2.167489
    10  H    3.249483   3.808183   3.382459   2.147231   1.088418
    11  O    3.667866   2.427454   1.358684   2.364895   3.624981
    12  H    3.839389   2.461979   1.910888   3.173393   4.302109
                    6          7          8          9         10
     6  N    0.000000
     7  H    2.064337   0.000000
     8  H    3.386174   2.482709   0.000000
     9  H    3.394131   4.896320   4.310047   0.000000
    10  H    2.064999   4.121304   4.894240   2.497575   0.000000
    11  O    4.170931   4.566793   2.716853   2.596572   4.507354
    12  H    4.608006   4.572213   2.336512   3.540820   5.268355
                   11         12
    11  O    0.000000
    12  H    0.966893   0.000000
 Stoichiometry    C5H5NO
 Framework group  C1[X(C5H5NO)]
 Deg. of freedom    30
 Full point group                 C1      NOp   1
 Largest Abelian subgroup         C1      NOp   1
 Largest concise Abelian subgroup C1      NOp   1
                         Standard orientation:                         
 ---------------------------------------------------------------------
 Center     Atomic      Atomic             Coordinates (Angstroms)
 Number     Number       Type             X           Y           Z
 ---------------------------------------------------------------------
      1          6           0       -1.152230    1.153409    0.000114
      2          6           0        0.241450    1.189435   -0.000028
      3          6           0        0.934425   -0.024989   -0.000035
      4          6           0        0.197153   -1.213074    0.000085
      5          6           0       -1.191022   -1.122808   -0.000218
      6          7           0       -1.878221    0.029557   -0.000015
      7          1           0       -1.711887    2.087182    0.000101
      8          1           0        0.770272    2.139452    0.000016
      9          1           0        0.706644   -2.170125    0.000442
     10          1           0       -1.787188   -2.033434    0.000236
     11          8           0        2.290294   -0.112397    0.000014
     12          1           0        2.668700    0.777373   -0.000305
 ---------------------------------------------------------------------
 Rotational constants (GHZ):      5.9862655      2.6268417      1.8257026
 Leave Link  202 at Fri Aug 27 21:22:11 2021, MaxMem= 17179869184 cpu:         4.1
 (Enter /public3/home/sc51754/softwares/g09e01/l301.exe)
 General basis read from cards:  (5D, 7F)
 Centers:       7      8      9     10     12
 S 4 1.00
     Exponent=  7.5423000000D+01 Coefficients=  2.4065000000D-03
     Exponent=  1.1350000000D+01 Coefficients=  1.8487000000D-02
     Exponent=  2.5993000000D+00 Coefficients=  8.9742000000D-02
     Exponent=  7.3513000000D-01 Coefficients=  2.8111000000D-01
 S 1 1.00
     Exponent=  2.3167000000D-01 Coefficients=  1.0000000000D+00
 S 1 1.00
     Exponent=  7.4147000000D-02 Coefficients=  1.0000000000D+00
 P 1 1.00
     Exponent=  1.6000000000D+00 Coefficients=  1.0000000000D+00
 P 1 1.00
     Exponent=  4.5000000000D-01 Coefficients=  1.0000000000D+00
 D 1 1.00
     Exponent=  1.2500000000D+00 Coefficients=  1.0000000000D+00
 ****
 Centers:       1      2      3      4      5
 S 7 1.00
     Exponent=  7.8571000000D+03 Coefficients=  5.6825000000D-04
     Exponent=  1.1787000000D+03 Coefficients=  4.3915000000D-03
     Exponent=  2.6832000000D+02 Coefficients=  2.2504000000D-02
     Exponent=  7.5948000000D+01 Coefficients=  8.6653000000D-02
     Exponent=  2.4559000000D+01 Coefficients=  2.4405000000D-01
     Exponent=  8.6212000000D+00 Coefficients=  4.4148000000D-01
     Exponent=  3.1278000000D+00 Coefficients=  3.5332000000D-01
 S 7 1.00
     Exponent=  1.1787000000D+03 Coefficients= -5.9492000000D-07
     Exponent=  2.6832000000D+02 Coefficients= -6.2748000000D-05
     Exponent=  7.5948000000D+01 Coefficients= -7.5773000000D-04
     Exponent=  2.4559000000D+01 Coefficients= -7.3308000000D-03
     Exponent=  8.6212000000D+00 Coefficients= -3.8932000000D-02
     Exponent=  3.1278000000D+00 Coefficients= -8.8908000000D-02
     Exponent=  8.2202000000D-01 Coefficients=  2.1689000000D-01
 S 1 1.00
     Exponent=  3.3017000000D-01 Coefficients=  1.0000000000D+00
 S 1 1.00
     Exponent=  1.1463000000D-01 Coefficients=  1.0000000000D+00
 P 4 1.00
     Exponent=  3.3775000000D+01 Coefficients=  6.0294000000D-03
     Exponent=  7.6766000000D+00 Coefficients=  4.3228000000D-02
     Exponent=  2.2357000000D+00 Coefficients=  1.6301000000D-01
     Exponent=  7.6447000000D-01 Coefficients=  3.6504000000D-01
 P 1 1.00
     Exponent=  2.6232000000D-01 Coefficients=  1.0000000000D+00
 P 1 1.00
     Exponent=  8.4638000000D-02 Coefficients=  1.0000000000D+00
 D 1 1.00
     Exponent=  1.4000000000D+00 Coefficients=  1.0000000000D+00
 D 1 1.00
     Exponent=  4.5000000000D-01 Coefficients=  1.0000000000D+00
 F 1 1.00
     Exponent=  9.5000000000D-01 Coefficients=  1.0000000000D+00
 ****
 Centers:       6
 S 7 1.00
     Exponent=  1.1101000000D+04 Coefficients=  5.4570000000D-04
     Exponent=  1.6653000000D+03 Coefficients=  4.2181000000D-03
     Exponent=  3.7908000000D+02 Coefficients=  2.1645000000D-02
     Exponent=  1.0730000000D+02 Coefficients=  8.3776000000D-02
     Exponent=  3.4747000000D+01 Coefficients=  2.3881000000D-01
     Exponent=  1.2249000000D+01 Coefficients=  4.3994000000D-01
     Exponent=  4.4743000000D+00 Coefficients=  3.6364000000D-01
 S 7 1.00
     Exponent=  1.6653000000D+03 Coefficients= -1.5006000000D-06
     Exponent=  3.7908000000D+02 Coefficients= -5.8753000000D-05
     Exponent=  1.0730000000D+02 Coefficients= -7.7453000000D-04
     Exponent=  3.4747000000D+01 Coefficients= -7.2161000000D-03
     Exponent=  1.2249000000D+01 Coefficients= -3.9338000000D-02
     Exponent=  4.4743000000D+00 Coefficients= -9.0611000000D-02
     Exponent=  1.2404000000D+00 Coefficients=  1.9882000000D-01
 S 1 1.00
     Exponent=  4.8743000000D-01 Coefficients=  1.0000000000D+00
 S 1 1.00
     Exponent=  1.6484000000D-01 Coefficients=  1.0000000000D+00
 P 4 1.00
     Exponent=  4.7934000000D+01 Coefficients=  6.1706000000D-03
     Exponent=  1.0999000000D+01 Coefficients=  4.4260000000D-02
     Exponent=  3.2472000000D+00 Coefficients=  1.6825000000D-01
     Exponent=  1.1114000000D+00 Coefficients=  3.6848000000D-01
 P 1 1.00
     Exponent=  3.7988000000D-01 Coefficients=  1.0000000000D+00
 P 1 1.00
     Exponent=  1.2068000000D-01 Coefficients=  1.0000000000D+00
 D 1 1.00
     Exponent=  1.8000000000D+00 Coefficients=  1.0000000000D+00
 D 1 1.00
     Exponent=  5.5000000000D-01 Coefficients=  1.0000000000D+00
 F 1 1.00
     Exponent=  1.0200000000D+00 Coefficients=  1.0000000000D+00
 ****
 Centers:      11
 S 7 1.00
     Exponent=  1.4782000000D+04 Coefficients=  5.3519000000D-04
     Exponent=  2.2173000000D+03 Coefficients=  4.1375000000D-03
     Exponent=  5.0474000000D+02 Coefficients=  2.1245000000D-02
     Exponent=  1.4287000000D+02 Coefficients=  8.2453000000D-02
     Exponent=  4.6300000000D+01 Coefficients=  2.3671000000D-01
     Exponent=  1.6337000000D+01 Coefficients=  4.4039000000D-01
     Exponent=  5.9828000000D+00 Coefficients=  3.6465000000D-01
 S 7 1.00
     Exponent=  2.2173000000D+03 Coefficients= -1.9275000000D-06
     Exponent=  5.0474000000D+02 Coefficients= -5.7964000000D-05
     Exponent=  1.4287000000D+02 Coefficients= -7.9494000000D-04
     Exponent=  4.6300000000D+01 Coefficients= -7.3125000000D-03
     Exponent=  1.6337000000D+01 Coefficients= -4.0574000000D-02
     Exponent=  5.9828000000D+00 Coefficients= -9.1594000000D-02
     Exponent=  1.6718000000D+00 Coefficients=  2.0940000000D-01
 S 1 1.00
     Exponent=  6.4662000000D-01 Coefficients=  1.0000000000D+00
 S 1 1.00
     Exponent=  2.1669000000D-01 Coefficients=  1.0000000000D+00
 P 4 1.00
     Exponent=  6.0424000000D+01 Coefficients=  6.8949000000D-03
     Exponent=  1.3935000000D+01 Coefficients=  4.9005000000D-02
     Exponent=  4.1531000000D+00 Coefficients=  1.8255000000D-01
     Exponent=  1.4158000000D+00 Coefficients=  3.7633000000D-01
 P 1 1.00
     Exponent=  4.7549000000D-01 Coefficients=  1.0000000000D+00
 P 1 1.00
     Exponent=  1.4529000000D-01 Coefficients=  1.0000000000D+00
 D 1 1.00
     Exponent=  2.2000000000D+00 Coefficients=  1.0000000000D+00
 D 1 1.00
     Exponent=  6.5000000000D-01 Coefficients=  1.0000000000D+00
 F 1 1.00
     Exponent=  1.1000000000D+00 Coefficients=  1.0000000000D+00
 ****
 Ernie: Thresh=  0.10000D-02 Tol=  0.10000D-05 Strict=F.
 Ernie:  7 primitive shells out of 220 were deleted.
 There are   320 symmetry adapted cartesian basis functions of A   symmetry.
 There are   280 symmetry adapted basis functions of A   symmetry.
   280 basis functions,   475 primitive gaussians,   320 cartesian basis functions
    25 alpha electrons       25 beta electrons
       nuclear repulsion energy       273.7666329457 Hartrees.
 IExCor=20419 DFT=T Ex+Corr=CAM-B3LYP ExCW=0 ScaHFX=  1.000000
 ScaDFX=  1.000000  1.000000  1.000000  0.810000 ScalE2=  1.000000  1.000000
 IRadAn=      0 IRanWt=     -1 IRanGd=            0 ICorTp=0 IEmpDi=  4
  HFx wShort=  0.000000 wLong=  0.330000 cFull=  0.190000 cShort=  0.000000 cLong=  0.460000
  DFx wShort=  0.000000 wLong=  0.330000 cFull=  0.190000 cShort=  0.000000 cLong=  0.460000
 NAtoms=   12 NActive=   12 NUniq=   12 SFac= 1.00D+00 NAtFMM=   60 NAOKFM=F Big=F
 Integral buffers will be    131072 words long.
 Raffenetti 2 integral format.
 Two-electron integral symmetry is turned on.
 Leave Link  301 at Fri Aug 27 21:22:11 2021, MaxMem= 17179869184 cpu:         1.8
 (Enter /public3/home/sc51754/softwares/g09e01/l302.exe)
 NPDir=0 NMtPBC=     1 NCelOv=     1 NCel=       1 NClECP=     1 NCelD=      1
         NCelK=      1 NCelE2=     1 NClLst=     1 CellRange=     0.0.
 One-electron integrals computed using PRISM.
 NBasis=   280 RedAO= T EigKep=  2.00D-04  NBF=   280
 NBsUse=   280 1.00D-06 EigRej= -1.00D+00 NBFU=   280
 Precomputing XC quadrature grid using
 IXCGrd= 4 IRadAn=           0 IRanWt=          -1 IRanGd=           0 AccXCQ= 0.00D+00.
 Generated NRdTot=       0 NPtTot=           0 NUsed=           0 NTot=          32
 NSgBfM=   320   320   320   320   320 MxSgAt=    12 MxSgA2=    12.
 Leave Link  302 at Fri Aug 27 21:22:12 2021, MaxMem= 17179869184 cpu:        38.3
 (Enter /public3/home/sc51754/softwares/g09e01/l303.exe)
 DipDrv:  MaxL=1.
 Leave Link  303 at Fri Aug 27 21:22:12 2021, MaxMem= 17179869184 cpu:        10.4
 (Enter /public3/home/sc51754/softwares/g09e01/l401.exe)
 ExpMin= 7.41D-02 ExpMax= 1.48D+04 ExpMxC= 5.05D+02 IAcc=2 IRadAn=         4 AccDes= 0.00D+00
 Harris functional with IExCor=20419 and IRadAn=       4 diagonalized for initial guess.
 HarFok:  IExCor=20419 AccDes= 0.00D+00 IRadAn=         4 IDoV= 1 UseB2=F ITyADJ=14
 ICtDFT=  3500011 ScaDFX=  1.000000  1.000000  1.000000  1.000000
 FoFCou: FMM=F IPFlag=           0 FMFlag=      100000 FMFlg1=           0
         NFxFlg=           0 DoJE=T BraDBF=F KetDBF=T FulRan=T
         wScrn=  0.000000 ICntrl=     500 IOpCl=  0 I1Cent=   200000004 NGrid=           0
         NMat0=    1 NMatS0=      1 NMatT0=    0 NMatD0=    1 NMtDS0=    0 NMtDT0=    0
 Petite list used in FoFCou.
 Harris En= -311.339760105464    
 JPrj=0 DoOrth=F DoCkMO=F.
 Leave Link  401 at Fri Aug 27 21:22:13 2021, MaxMem= 17179869184 cpu:        49.7
 (Enter /public3/home/sc51754/softwares/g09e01/l502.exe)
 Closed shell SCF:
 Using DIIS extrapolation, IDIIS=  1040.
 Integral symmetry usage will be decided dynamically.
 Keep R1 ints in memory in canonical form, NReq=1564561414.
 IVT=      348554 IEndB=      348554 NGot= 17179869184 MDV= 15631845691
 LenX= 15631845691 LenY= 15631742850
 Requested convergence on RMS density matrix=1.00D-08 within 128 cycles.
 Requested convergence on MAX density matrix=1.00D-06.
 Requested convergence on             energy=1.00D-06.
 No special actions if energy rises.
 FoFCou: FMM=F IPFlag=           0 FMFlag=           0 FMFlg1=           0
         NFxFlg=           0 DoJE=F BraDBF=F KetDBF=F FulRan=T
         wScrn=  0.000000 ICntrl=     600 IOpCl=  0 I1Cent=           0 NGrid=           0
         NMat0=    1 NMatS0=  39340 NMatT0=    0 NMatD0=    1 NMtDS0=    0 NMtDT0=    0
 Symmetry not used in FoFCou.
 Integral accuracy reduced to 1.0D-05 until final iterations.

 Cycle   1  Pass 0  IDiag  1:
 E= -323.417636038512    
 DIIS: error= 6.55D-02 at cycle   1 NSaved=   1.
 NSaved= 1 IEnMin= 1 EnMin= -323.417636038512     IErMin= 1 ErrMin= 6.55D-02
 ErrMax= 6.55D-02  0.00D+00 EMaxC= 1.00D-01 BMatC= 2.17D-01 BMatP= 2.17D-01
 IDIUse=3 WtCom= 3.45D-01 WtEn= 6.55D-01
 Coeff-Com:  0.100D+01
 Coeff-En:   0.100D+01
 Coeff:      0.100D+01
 Gap=     0.396 Goal=   None    Shift=    0.000
 GapD=    0.396 DampG=1.000 DampE=0.500 DampFc=0.5000 IDamp=-1.
 Damping current iteration by 5.00D-01
 RMSDP=2.53D-03 MaxDP=1.30D-01              OVMax= 1.24D-01

 Cycle   2  Pass 0  IDiag  1:
 E= -323.449358951842     Delta-E=       -0.031722913330 Rises=F Damp=T
 DIIS: error= 3.20D-02 at cycle   2 NSaved=   2.
 NSaved= 2 IEnMin= 2 EnMin= -323.449358951842     IErMin= 2 ErrMin= 3.20D-02
 ErrMax= 3.20D-02  0.00D+00 EMaxC= 1.00D-01 BMatC= 4.36D-02 BMatP= 2.17D-01
 IDIUse=3 WtCom= 6.80D-01 WtEn= 3.20D-01
 Coeff-Com: -0.349D+00 0.135D+01
 Coeff-En:   0.000D+00 0.100D+01
 Coeff:     -0.237D+00 0.124D+01
 Gap=     0.377 Goal=   None    Shift=    0.000
 RMSDP=1.19D-03 MaxDP=6.16D-02 DE=-3.17D-02 OVMax= 8.75D-02

 Cycle   3  Pass 0  IDiag  1:
 E= -323.476624041293     Delta-E=       -0.027265089450 Rises=F Damp=F
 DIIS: error= 8.47D-03 at cycle   3 NSaved=   3.
 NSaved= 3 IEnMin= 3 EnMin= -323.476624041293     IErMin= 3 ErrMin= 8.47D-03
 ErrMax= 8.47D-03  0.00D+00 EMaxC= 1.00D-01 BMatC= 1.41D-02 BMatP= 4.36D-02
 IDIUse=3 WtCom= 9.15D-01 WtEn= 8.47D-02
 Coeff-Com: -0.286D+00 0.610D+00 0.676D+00
 Coeff-En:   0.000D+00 0.000D+00 0.100D+01
 Coeff:     -0.262D+00 0.558D+00 0.704D+00
 Gap=     0.341 Goal=   None    Shift=    0.000
 RMSDP=3.04D-04 MaxDP=1.73D-02 DE=-2.73D-02 OVMax= 2.74D-02

 Cycle   4  Pass 0  IDiag  1:
 E= -323.486594413716     Delta-E=       -0.009970372423 Rises=F Damp=F
 DIIS: error= 1.91D-03 at cycle   4 NSaved=   4.
 NSaved= 4 IEnMin= 4 EnMin= -323.486594413716     IErMin= 4 ErrMin= 1.91D-03
 ErrMax= 1.91D-03  0.00D+00 EMaxC= 1.00D-01 BMatC= 6.45D-04 BMatP= 1.41D-02
 IDIUse=3 WtCom= 9.81D-01 WtEn= 1.91D-02
 Coeff-Com: -0.113D+00 0.235D+00 0.346D+00 0.532D+00
 Coeff-En:   0.000D+00 0.000D+00 0.000D+00 0.100D+01
 Coeff:     -0.111D+00 0.231D+00 0.340D+00 0.541D+00
 Gap=     0.338 Goal=   None    Shift=    0.000
 RMSDP=5.33D-05 MaxDP=2.85D-03 DE=-9.97D-03 OVMax= 4.49D-03

 Cycle   5  Pass 0  IDiag  1:
 E= -323.487022843301     Delta-E=       -0.000428429585 Rises=F Damp=F
 DIIS: error= 2.12D-04 at cycle   5 NSaved=   5.
 NSaved= 5 IEnMin= 5 EnMin= -323.487022843301     IErMin= 5 ErrMin= 2.12D-04
 ErrMax= 2.12D-04  0.00D+00 EMaxC= 1.00D-01 BMatC= 1.25D-05 BMatP= 6.45D-04
 IDIUse=3 WtCom= 9.98D-01 WtEn= 2.12D-03
 Coeff-Com: -0.798D-02 0.155D-01 0.480D-01 0.164D+00 0.781D+00
 Coeff-En:   0.000D+00 0.000D+00 0.000D+00 0.000D+00 0.100D+01
 Coeff:     -0.797D-02 0.154D-01 0.479D-01 0.164D+00 0.781D+00
 Gap=     0.338 Goal=   None    Shift=    0.000
 RMSDP=1.62D-05 MaxDP=8.23D-04 DE=-4.28D-04 OVMax= 1.29D-03

 Cycle   6  Pass 0  IDiag  1:
 E= -323.487035260265     Delta-E=       -0.000012416965 Rises=F Damp=F
 DIIS: error= 7.86D-05 at cycle   6 NSaved=   6.
 NSaved= 6 IEnMin= 6 EnMin= -323.487035260265     IErMin= 6 ErrMin= 7.86D-05
 ErrMax= 7.86D-05  0.00D+00 EMaxC= 1.00D-01 BMatC= 1.53D-06 BMatP= 1.25D-05
 IDIUse=1 WtCom= 1.00D+00 WtEn= 0.00D+00
 Coeff-Com:  0.851D-02-0.181D-01-0.164D-01 0.333D-03 0.247D+00 0.779D+00
 Coeff:      0.851D-02-0.181D-01-0.164D-01 0.333D-03 0.247D+00 0.779D+00
 Gap=     0.338 Goal=   None    Shift=    0.000
 RMSDP=6.22D-06 MaxDP=2.64D-04 DE=-1.24D-05 OVMax= 9.96D-04

 Initial convergence to 1.0D-05 achieved.  Increase integral accuracy.
 Cycle   7  Pass 1  IDiag  1:
 E= -323.487021421306     Delta-E=        0.000013838959 Rises=F Damp=F
 DIIS: error= 7.96D-05 at cycle   1 NSaved=   1.
 NSaved= 1 IEnMin= 1 EnMin= -323.487021421306     IErMin= 1 ErrMin= 7.96D-05
 ErrMax= 7.96D-05  0.00D+00 EMaxC= 1.00D-01 BMatC= 6.19D-07 BMatP= 6.19D-07
 IDIUse=1 WtCom= 1.00D+00 WtEn= 0.00D+00
 Coeff-Com:  0.100D+01
 Coeff:      0.100D+01
 Gap=     0.338 Goal=   None    Shift=    0.000
 RMSDP=6.22D-06 MaxDP=2.64D-04 DE= 1.38D-05 OVMax= 6.64D-04

 Cycle   8  Pass 1  IDiag  1:
 E= -323.487021002163     Delta-E=        0.000000419144 Rises=F Damp=F
 DIIS: error= 9.31D-05 at cycle   2 NSaved=   2.
 NSaved= 2 IEnMin= 1 EnMin= -323.487021421306     IErMin= 1 ErrMin= 7.96D-05
 ErrMax= 9.31D-05  0.00D+00 EMaxC= 1.00D-01 BMatC= 1.12D-06 BMatP= 6.19D-07
 IDIUse=1 WtCom= 1.00D+00 WtEn= 0.00D+00
 Coeff-Com:  0.577D+00 0.423D+00
 Coeff:      0.577D+00 0.423D+00
 Gap=     0.338 Goal=   None    Shift=    0.000
 RMSDP=2.89D-06 MaxDP=1.17D-04 DE= 4.19D-07 OVMax= 4.11D-04

 Cycle   9  Pass 1  IDiag  1:
 E= -323.487022097374     Delta-E=       -0.000001095212 Rises=F Damp=F
 DIIS: error= 6.33D-06 at cycle   3 NSaved=   3.
 NSaved= 3 IEnMin= 3 EnMin= -323.487022097374     IErMin= 3 ErrMin= 6.33D-06
 ErrMax= 6.33D-06  0.00D+00 EMaxC= 1.00D-01 BMatC= 1.08D-08 BMatP= 6.19D-07
 IDIUse=1 WtCom= 1.00D+00 WtEn= 0.00D+00
 Coeff-Com:  0.495D-01 0.868D-01 0.864D+00
 Coeff:      0.495D-01 0.868D-01 0.864D+00
 Gap=     0.338 Goal=   None    Shift=    0.000
 RMSDP=5.56D-07 MaxDP=2.49D-05 DE=-1.10D-06 OVMax= 4.06D-05

 Cycle  10  Pass 1  IDiag  1:
 E= -323.487022108154     Delta-E=       -0.000000010780 Rises=F Damp=F
 DIIS: error= 4.16D-06 at cycle   4 NSaved=   4.
 NSaved= 4 IEnMin= 4 EnMin= -323.487022108154     IErMin= 4 ErrMin= 4.16D-06
 ErrMax= 4.16D-06  0.00D+00 EMaxC= 1.00D-01 BMatC= 3.38D-09 BMatP= 1.08D-08
 IDIUse=1 WtCom= 1.00D+00 WtEn= 0.00D+00
 Coeff-Com: -0.514D-01-0.854D-02 0.399D+00 0.661D+00
 Coeff:     -0.514D-01-0.854D-02 0.399D+00 0.661D+00
 Gap=     0.338 Goal=   None    Shift=    0.000
 RMSDP=2.18D-07 MaxDP=9.35D-06 DE=-1.08D-08 OVMax= 3.51D-05

 Cycle  11  Pass 1  IDiag  1:
 E= -323.487022112370     Delta-E=       -0.000000004216 Rises=F Damp=F
 DIIS: error= 1.05D-06 at cycle   5 NSaved=   5.
 NSaved= 5 IEnMin= 5 EnMin= -323.487022112370     IErMin= 5 ErrMin= 1.05D-06
 ErrMax= 1.05D-06  0.00D+00 EMaxC= 1.00D-01 BMatC= 3.16D-10 BMatP= 3.38D-09
 IDIUse=1 WtCom= 1.00D+00 WtEn= 0.00D+00
 Coeff-Com: -0.126D-01-0.688D-02-0.402D-01 0.188D+00 0.872D+00
 Coeff:     -0.126D-01-0.688D-02-0.402D-01 0.188D+00 0.872D+00
 Gap=     0.338 Goal=   None    Shift=    0.000
 RMSDP=9.90D-08 MaxDP=3.16D-06 DE=-4.22D-09 OVMax= 1.49D-05

 Cycle  12  Pass 1  IDiag  1:
 E= -323.487022112869     Delta-E=       -0.000000000499 Rises=F Damp=F
 DIIS: error= 3.80D-07 at cycle   6 NSaved=   6.
 NSaved= 6 IEnMin= 6 EnMin= -323.487022112869     IErMin= 6 ErrMin= 3.80D-07
 ErrMax= 3.80D-07  0.00D+00 EMaxC= 1.00D-01 BMatC= 5.22D-11 BMatP= 3.16D-10
 IDIUse=1 WtCom= 1.00D+00 WtEn= 0.00D+00
 Coeff-Com:  0.272D-02-0.191D-02-0.951D-01-0.123D-01 0.352D+00 0.754D+00
 Coeff:      0.272D-02-0.191D-02-0.951D-01-0.123D-01 0.352D+00 0.754D+00
 Gap=     0.338 Goal=   None    Shift=    0.000
 RMSDP=3.98D-08 MaxDP=1.99D-06 DE=-4.99D-10 OVMax= 5.36D-06

 Cycle  13  Pass 1  IDiag  1:
 E= -323.487022112943     Delta-E=       -0.000000000074 Rises=F Damp=F
 DIIS: error= 1.86D-07 at cycle   7 NSaved=   7.
 NSaved= 7 IEnMin= 7 EnMin= -323.487022112943     IErMin= 7 ErrMin= 1.86D-07
 ErrMax= 1.86D-07  0.00D+00 EMaxC= 1.00D-01 BMatC= 4.26D-12 BMatP= 5.22D-11
 IDIUse=1 WtCom= 1.00D+00 WtEn= 0.00D+00
 Coeff-Com:  0.246D-02 0.136D-03-0.298D-01-0.167D-01 0.255D-01 0.268D+00
 Coeff-Com:  0.750D+00
 Coeff:      0.246D-02 0.136D-03-0.298D-01-0.167D-01 0.255D-01 0.268D+00
 Coeff:      0.750D+00
 Gap=     0.338 Goal=   None    Shift=    0.000
 RMSDP=9.76D-09 MaxDP=4.11D-07 DE=-7.38D-11 OVMax= 1.93D-06

 SCF Done:  E(RCAM-B3LYP) =  -323.487022113     A.U. after   13 cycles
            NFock= 13  Conv=0.98D-08     -V/T= 2.0040
 KE= 3.221926336726D+02 PE=-1.302316371851D+03 EE= 3.828700831201D+02
 Leave Link  502 at Fri Aug 27 21:22:24 2021, MaxMem= 17179869184 cpu:       254.0
 (Enter /public3/home/sc51754/softwares/g09e01/l601.exe)
 Copying SCF densities to generalized density rwf, IOpCl= 0 IROHF=0.

 **********************************************************************

            Population analysis using the SCF density.

 **********************************************************************

 Orbital symmetries:
       Occupied  (A) (A) (A) (A) (A) (A) (A) (A) (A) (A) (A) (A)
                 (A) (A) (A) (A) (A) (A) (A) (A) (A) (A) (A) (A)
                 (A)
       Virtual   (A) (A) (A) (A) (A) (A) (A) (A) (A) (A) (A) (A)
                 (A) (A) (A) (A) (A) (A) (A) (A) (A) (A) (A) (A)
                 (A) (A) (A) (A) (A) (A) (A) (A) (A) (A) (A) (A)
                 (A) (A) (A) (A) (A) (A) (A) (A) (A) (A) (A) (A)
                 (A) (A) (A) (A) (A) (A) (A) (A) (A) (A) (A) (A)
                 (A) (A) (A) (A) (A) (A) (A) (A) (A) (A) (A) (A)
                 (A) (A) (A) (A) (A) (A) (A) (A) (A) (A) (A) (A)
                 (A) (A) (A) (A) (A) (A) (A) (A) (A) (A) (A) (A)
                 (A) (A) (A) (A) (A) (A) (A) (A) (A) (A) (A) (A)
                 (A) (A) (A) (A) (A) (A) (A) (A) (A) (A) (A) (A)
                 (A) (A) (A) (A) (A) (A) (A) (A) (A) (A) (A) (A)
                 (A) (A) (A) (A) (A) (A) (A) (A) (A) (A) (A) (A)
                 (A) (A) (A) (A) (A) (A) (A) (A) (A) (A) (A) (A)
                 (A) (A) (A) (A) (A) (A) (A) (A) (A) (A) (A) (A)
                 (A) (A) (A) (A) (A) (A) (A) (A) (A) (A) (A) (A)
                 (A) (A) (A) (A) (A) (A) (A) (A) (A) (A) (A) (A)
                 (A) (A) (A) (A) (A) (A) (A) (A) (A) (A) (A) (A)
                 (A) (A) (A) (A) (A) (A) (A) (A) (A) (A) (A) (A)
                 (A) (A) (A) (A) (A) (A) (A) (A) (A) (A) (A) (A)
                 (A) (A) (A) (A) (A) (A) (A) (A) (A) (A) (A) (A)
                 (A) (A) (A) (A) (A) (A) (A) (A) (A) (A) (A) (A)
                 (A) (A) (A)
 The electronic state is 1-A.
 Alpha  occ. eigenvalues --  -19.25094 -14.38332 -10.33932 -10.29238 -10.28996
 Alpha  occ. eigenvalues --  -10.26531 -10.25905  -1.16888  -1.02736  -0.88490
 Alpha  occ. eigenvalues --   -0.85202  -0.73179  -0.71054  -0.64245  -0.58535
 Alpha  occ. eigenvalues --   -0.55765  -0.52703  -0.51100  -0.50539  -0.48357
 Alpha  occ. eigenvalues --   -0.44971  -0.42833  -0.33011  -0.32986  -0.32037
 Alpha virt. eigenvalues --    0.01737   0.02197   0.03126   0.06524   0.07261
 Alpha virt. eigenvalues --    0.10598   0.11086   0.16283   0.17374   0.17763
 Alpha virt. eigenvalues --    0.19740   0.21239   0.22170   0.23114   0.23868
 Alpha virt. eigenvalues --    0.25998   0.26429   0.27780   0.29992   0.31145
 Alpha virt. eigenvalues --    0.32455   0.32675   0.33765   0.35964   0.37154
 Alpha virt. eigenvalues --    0.38257   0.38640   0.39498   0.40326   0.42144
 Alpha virt. eigenvalues --    0.43328   0.46020   0.48082   0.49965   0.50782
 Alpha virt. eigenvalues --    0.53656   0.55365   0.59188   0.59431   0.63304
 Alpha virt. eigenvalues --    0.64275   0.67583   0.69385   0.69936   0.71161
 Alpha virt. eigenvalues --    0.74080   0.74914   0.80164   0.81968   0.86392
 Alpha virt. eigenvalues --    0.88637   0.90760   0.92749   0.94370   0.95655
 Alpha virt. eigenvalues --    1.00369   1.01575   1.03040   1.03369   1.07552
 Alpha virt. eigenvalues --    1.09467   1.13291   1.16699   1.17663   1.18875
 Alpha virt. eigenvalues --    1.20023   1.21808   1.21957   1.22853   1.24876
 Alpha virt. eigenvalues --    1.29862   1.30530   1.35661   1.35863   1.36704
 Alpha virt. eigenvalues --    1.38625   1.40678   1.47648   1.48829   1.50634
 Alpha virt. eigenvalues --    1.51298   1.52554   1.55273   1.60538   1.63701
 Alpha virt. eigenvalues --    1.64791   1.65809   1.65965   1.69921   1.72643
 Alpha virt. eigenvalues --    1.73421   1.74709   1.77492   1.78951   1.81429
 Alpha virt. eigenvalues --    1.84412   1.84576   1.87939   1.90031   1.91408
 Alpha virt. eigenvalues --    1.92103   1.98988   2.01587   2.03610   2.04725
 Alpha virt. eigenvalues --    2.10628   2.15047   2.16053   2.22817   2.25175
 Alpha virt. eigenvalues --    2.27672   2.29087   2.30052   2.34293   2.37190
 Alpha virt. eigenvalues --    2.43641   2.46127   2.61350   2.64122   2.83679
 Alpha virt. eigenvalues --    2.93717   2.97703   3.03038   3.05540   3.18254
 Alpha virt. eigenvalues --    3.22107   3.27839   3.29193   3.31737   3.32665
 Alpha virt. eigenvalues --    3.39357   3.39579   3.41023   3.43415   3.46744
 Alpha virt. eigenvalues --    3.47670   3.50632   3.55610   3.58550   3.60788
 Alpha virt. eigenvalues --    3.63914   3.66895   3.67023   3.70408   3.72758
 Alpha virt. eigenvalues --    3.77817   3.80273   3.82457   3.84930   3.86699
 Alpha virt. eigenvalues --    3.89006   3.92921   3.95139   4.00505   4.06059
 Alpha virt. eigenvalues --    4.06943   4.09137   4.09456   4.13186   4.13326
 Alpha virt. eigenvalues --    4.14345   4.18317   4.19124   4.20615   4.21825
 Alpha virt. eigenvalues --    4.23547   4.25103   4.26713   4.28798   4.32384
 Alpha virt. eigenvalues --    4.32475   4.34410   4.35341   4.36229   4.37699
 Alpha virt. eigenvalues --    4.40326   4.40755   4.44012   4.45353   4.46369
 Alpha virt. eigenvalues --    4.49468   4.49563   4.50929   4.51507   4.53991
 Alpha virt. eigenvalues --    4.55801   4.57084   4.58119   4.59276   4.61606
 Alpha virt. eigenvalues --    4.62219   4.64137   4.70918   4.72371   4.77737
 Alpha virt. eigenvalues --    4.81886   4.82976   4.85172   4.88324   4.92170
 Alpha virt. eigenvalues --    4.96150   4.98812   5.00834   5.03129   5.06825
 Alpha virt. eigenvalues --    5.12585   5.15389   5.15532   5.21591   5.22001
 Alpha virt. eigenvalues --    5.23661   5.28528   5.38032   5.38431   5.38625
 Alpha virt. eigenvalues --    5.39153   5.40087   5.43018   5.46435   5.51723
 Alpha virt. eigenvalues --    5.53456   5.59118   5.60695   5.62803   5.64584
 Alpha virt. eigenvalues --    5.71551   5.73771   5.75644   5.82450   5.82682
 Alpha virt. eigenvalues --    5.85936   5.98532   6.06628   6.12273   6.13939
 Alpha virt. eigenvalues --    6.17285   6.21070   6.29780   6.32975   6.35865
 Alpha virt. eigenvalues --    6.44728   6.52975   6.53931   6.62506   6.66298
 Alpha virt. eigenvalues --    6.89926   7.10293   7.38627   9.13178  12.27709
 Alpha virt. eigenvalues --   12.40840  15.50425  17.32184  18.55146  22.09203
          Condensed to atoms (all electrons):
               1          2          3          4          5          6
     1  C    4.668539   0.428776  -0.039116  -0.051909  -0.111567   0.512773
     2  C    0.428776   5.083034   0.510752  -0.019429  -0.053567  -0.043866
     3  C   -0.039116   0.510752   4.517899   0.520435  -0.049464  -0.021064
     4  C   -0.051909  -0.019429   0.520435   4.984747   0.454201  -0.040954
     5  C   -0.111567  -0.053567  -0.049464   0.454201   4.680683   0.497216
     6  N    0.512773  -0.043866  -0.021064  -0.040954   0.497216   6.536384
     7  H    0.462102  -0.075431   0.005212  -0.005190   0.008167  -0.046947
     8  H   -0.018578   0.423436  -0.042972   0.005337   0.000016   0.005265
     9  H   -0.001724   0.009297  -0.037375   0.429662  -0.029115   0.005117
    10  H    0.008419  -0.007066   0.009231  -0.079928   0.466564  -0.047713
    11  O    0.006594  -0.068471   0.309117  -0.065181   0.004156  -0.000502
    12  H    0.001594  -0.003489  -0.032315   0.006639  -0.000820   0.000272
               7          8          9         10         11         12
     1  C    0.462102  -0.018578  -0.001724   0.008419   0.006594   0.001594
     2  C   -0.075431   0.423436   0.009297  -0.007066  -0.068471  -0.003489
     3  C    0.005212  -0.042972  -0.037375   0.009231   0.309117  -0.032315
     4  C   -0.005190   0.005337   0.429662  -0.079928  -0.065181   0.006639
     5  C    0.008167   0.000016  -0.029115   0.466564   0.004156  -0.000820
     6  N   -0.046947   0.005265   0.005117  -0.047713  -0.000502   0.000272
     7  H    0.592815  -0.004525   0.000129   0.000400  -0.000355  -0.000056
     8  H   -0.004525   0.599903  -0.000143   0.000105  -0.006768   0.002893
     9  H    0.000129  -0.000143   0.567560  -0.005808   0.003290  -0.000576
    10  H    0.000400   0.000105  -0.005808   0.589461  -0.000230   0.000084
    11  O   -0.000355  -0.006768   0.003290  -0.000230   7.843820   0.344773
    12  H   -0.000056   0.002893  -0.000576   0.000084   0.344773   0.475531
 Mulliken charges:
               1
     1  C    0.134097
     2  C   -0.183975
     3  C    0.349661
     4  C   -0.138431
     5  C    0.133530
     6  N   -0.355982
     7  H    0.063678
     8  H    0.036029
     9  H    0.059686
    10  H    0.066481
    11  O   -0.370243
    12  H    0.205469
 Sum of Mulliken charges =  -0.00000
 Mulliken charges with hydrogens summed into heavy atoms:
               1
     1  C    0.197775
     2  C   -0.147946
     3  C    0.349661
     4  C   -0.078745
     5  C    0.200011
     6  N   -0.355982
    11  O   -0.164774
 Electronic spatial extent (au):  <R**2>=            642.6682
 Charge=             -0.0000 electrons
 Dipole moment (field-independent basis, Debye):
    X=              2.3699    Y=              1.3299    Z=             -0.0000  Tot=              2.7175
 Quadrupole moment (field-independent basis, Debye-Ang):
   XX=            -44.5097   YY=            -33.5588   ZZ=            -43.5124
   XY=              4.6012   XZ=             -0.0017   YZ=             -0.0017
 Traceless Quadrupole moment (field-independent basis, Debye-Ang):
   XX=             -3.9827   YY=              6.9682   ZZ=             -2.9854
   XY=              4.6012   XZ=             -0.0017   YZ=             -0.0017
 Octapole moment (field-independent basis, Debye-Ang**2):
  XXX=             33.2914  YYY=              0.4966  ZZZ=              0.0005  XYY=              1.8226
  XXY=             12.3573  XXZ=             -0.0034  XZZ=              3.4663  YZZ=              0.0161
  YYZ=              0.0036  XYZ=             -0.0016
 Hexadecapole moment (field-independent basis, Debye-Ang**3):
 XXXX=           -535.7362 YYYY=           -259.5735 ZZZZ=            -48.5850 XXXY=             39.0800
 XXXZ=             -0.0159 YYYX=              2.9188 YYYZ=             -0.0095 ZZZX=             -0.0013
 ZZZY=             -0.0018 XXYY=           -108.3952 XXZZ=            -97.5132 YYZZ=            -62.4874
 XXYZ=             -0.0069 YYXZ=             -0.0023 ZZXY=              0.5341
 N-N= 2.737666329457D+02 E-N=-1.302316373883D+03  KE= 3.221926336726D+02
 No NMR shielding tensors so no spin-rotation constants.
 Leave Link  601 at Fri Aug 27 21:22:25 2021, MaxMem= 17179869184 cpu:        51.5
 (Enter /public3/home/sc51754/softwares/g09e01/l701.exe)
 Compute integral first derivatives.
 ... and contract with generalized density number  0.
 Leave Link  701 at Fri Aug 27 21:22:27 2021, MaxMem= 17179869184 cpu:        76.3
 (Enter /public3/home/sc51754/softwares/g09e01/l702.exe)
 L702 exits ... SP integral derivatives will be done elsewhere.
 Leave Link  702 at Fri Aug 27 21:22:27 2021, MaxMem= 17179869184 cpu:         0.2
 (Enter /public3/home/sc51754/softwares/g09e01/l703.exe)
 Compute integral first derivatives, UseDBF=F ICtDFT=           0.
 Integral derivatives from FoFJK, PRISM(SPDF).
 Calling FoFJK, ICntrl=      2127 FMM=F ISym2X=0 I1Cent= 0 IOpClX= 0 NMat=1 NMatS=1 NMatT=0.
 FoFJK:  IHMeth= 1 ICntrl=    2127 DoSepK=T KAlg= 0 I1Cent=   0 FoldK=F
 IRaf=         1 NMat=   1 IRICut=       1 DoRegI=T DoRafI=F ISym2E= 0.
 FoFCou: FMM=F IPFlag=           0 FMFlag=      100000 FMFlg1=         800
         NFxFlg=           0 DoJE=F BraDBF=F KetDBF=F FulRan=T
         wScrn=  0.000000 ICntrl=    2527 IOpCl=  0 I1Cent=           0 NGrid=           0
         NMat0=    1 NMatS0=      1 NMatT0=    0 NMatD0=    1 NMtDS0=    0 NMtDT0=    0
 Symmetry not used in FoFCou.
 Leave Link  703 at Fri Aug 27 21:22:31 2021, MaxMem= 17179869184 cpu:       231.9
 (Enter /public3/home/sc51754/softwares/g09e01/l716.exe)
 Dipole        = 9.32388130D-01 5.23223770D-01-9.20736509D-06
 ***** Axes restored to original set *****
 -------------------------------------------------------------------
 Center     Atomic                   Forces (Hartrees/Bohr)
 Number     Number              X              Y              Z
 -------------------------------------------------------------------
      1        6          -0.001957738   -0.006591091    0.000036143
      2        6           0.002386519   -0.007885330   -0.000007495
      3        6           0.007352646   -0.001939006   -0.000011239
      4        6           0.002940300    0.008711007    0.000024714
      5        6          -0.002552576    0.005930482   -0.000098816
      6        7          -0.014681617    0.000133724    0.000019986
      7        1          -0.001862447   -0.003391311   -0.000010360
      8        1           0.001979889   -0.003119534    0.000001640
      9        1           0.001871481    0.002889477    0.000013055
     10        1          -0.001986205    0.003285783    0.000032059
     11        8           0.005271542    0.008074896    0.000006412
     12        1           0.001238205   -0.006099094   -0.000006098
 -------------------------------------------------------------------
 Cartesian Forces:  Max     0.014681617 RMS     0.004414950
 Leave Link  716 at Fri Aug 27 21:22:31 2021, MaxMem= 17179869184 cpu:         0.4
 (Enter /public3/home/sc51754/softwares/g09e01/l103.exe)

 GradGradGradGradGradGradGradGradGradGradGradGradGradGradGradGradGradGrad
 Berny optimization.
 FormGI is forming the generalized inverse of G from B-inverse, IUseBI=4.
 Internal  Forces:  Max     0.012928867 RMS     0.004541595
 Search for a local minimum.
 Step number   1 out of a maximum of   61
 All quantities printed in internal units (Hartrees-Bohrs-Radians)
 RMS Force = .45416D-02 SwitMx=.10000D-02 MixMth= 1
 Mixed Optimization -- RFO/linear search
 Second derivative matrix not updated -- first step.
 ITU=  0
     Eigenvalues ---    0.02120   0.02139   0.02144   0.02163   0.02209
     Eigenvalues ---    0.02238   0.02269   0.02294   0.02415   0.16000
     Eigenvalues ---    0.16000   0.16000   0.16000   0.16000   0.22000
     Eigenvalues ---    0.22826   0.23882   0.25000   0.34970   0.34996
     Eigenvalues ---    0.35128   0.35490   0.42425   0.43849   0.46118
     Eigenvalues ---    0.46897   0.53214   0.54017   0.55021   0.56489
 RFO step:  Lambda=-2.17099245D-03 EMin= 2.11976327D-02
 Linear search not attempted -- first point.
 Iteration  1 RMS(Cart)=  0.01416100 RMS(Int)=  0.00002252
 Iteration  2 RMS(Cart)=  0.00002642 RMS(Int)=  0.00000207
 Iteration  3 RMS(Cart)=  0.00000000 RMS(Int)=  0.00000207
 ITry= 1 IFail=0 DXMaxC= 3.55D-02 DCOld= 1.00D+10 DXMaxT= 3.00D-01 DXLimC= 3.00D+00 Rises=F
 Variable       Old X    -DE/DX   Delta X   Delta X   Delta X     New X
                                 (Linear)    (Quad)   (Total)
    R1        2.63455  -0.01144   0.00000  -0.02444  -0.02444   2.61011
    R2        2.52836  -0.01293   0.00000  -0.02256  -0.02256   2.50579
    R3        2.05724  -0.00387   0.00000  -0.01099  -0.01099   2.04625
    R4        2.64227  -0.01263   0.00000  -0.02708  -0.02708   2.61519
    R5        2.05467  -0.00369   0.00000  -0.01044  -0.01044   2.04423
    R6        2.64232  -0.01248   0.00000  -0.02678  -0.02678   2.61554
    R7        2.56754  -0.00662   0.00000  -0.01240  -0.01240   2.55514
    R8        2.62881  -0.01166   0.00000  -0.02465  -0.02465   2.60416
    R9        2.04887  -0.00343   0.00000  -0.00961  -0.00961   2.03927
   R10        2.53547  -0.01251   0.00000  -0.02216  -0.02216   2.51330
   R11        2.05681  -0.00384   0.00000  -0.01090  -0.01090   2.04591
   R12        1.82716  -0.00610   0.00000  -0.01124  -0.01124   1.81592
    A1        2.17019  -0.00048   0.00000  -0.00256  -0.00256   2.16762
    A2        2.08489   0.00039   0.00000   0.00220   0.00220   2.08709
    A3        2.02810   0.00009   0.00000   0.00036   0.00037   2.02847
    A4        2.06349  -0.00037   0.00000  -0.00084  -0.00084   2.06265
    A5        2.10457  -0.00003   0.00000  -0.00092  -0.00092   2.10365
    A6        2.11512   0.00040   0.00000   0.00176   0.00176   2.11688
    A7        2.06766   0.00055   0.00000   0.00346   0.00347   2.07113
    A8        2.15371  -0.00112   0.00000  -0.00510  -0.00510   2.14861
    A9        2.06181   0.00057   0.00000   0.00164   0.00163   2.06345
   A10        2.06126  -0.00027   0.00000  -0.00035  -0.00035   2.06091
   A11        2.09700   0.00044   0.00000   0.00204   0.00204   2.09904
   A12        2.12493  -0.00017   0.00000  -0.00169  -0.00169   2.12323
   A13        2.17345  -0.00062   0.00000  -0.00314  -0.00315   2.17031
   A14        2.08552   0.00045   0.00000   0.00246   0.00246   2.08798
   A15        2.02421   0.00017   0.00000   0.00069   0.00069   2.02490
   A16        2.03032   0.00119   0.00000   0.00343   0.00343   2.03375
   A17        1.90853   0.00228   0.00000   0.01407   0.01407   1.92260
    D1       -0.00024   0.00001   0.00000   0.00040   0.00040   0.00017
    D2        3.14151   0.00000   0.00000   0.00019   0.00019  -3.14148
    D3       -3.14157  -0.00000   0.00000  -0.00006  -0.00006   3.14155
    D4        0.00018  -0.00001   0.00000  -0.00028  -0.00028  -0.00010
    D5        0.00007  -0.00000   0.00000  -0.00007  -0.00007   0.00000
    D6        3.14141   0.00001   0.00000   0.00039   0.00039  -3.14139
    D7        0.00001  -0.00000   0.00000  -0.00012  -0.00012  -0.00011
    D8       -3.14143  -0.00001   0.00000  -0.00028  -0.00028   3.14147
    D9        3.14145   0.00000   0.00000   0.00009   0.00009   3.14154
   D10        0.00000  -0.00000   0.00000  -0.00007  -0.00007  -0.00006
   D11        0.00034  -0.00001   0.00000  -0.00044  -0.00045  -0.00010
   D12       -3.14121  -0.00001   0.00000  -0.00044  -0.00044   3.14154
   D13       -3.14139  -0.00001   0.00000  -0.00030  -0.00030   3.14150
   D14        0.00024  -0.00001   0.00000  -0.00029  -0.00029  -0.00004
   D15       -0.00039   0.00001   0.00000   0.00022   0.00022  -0.00018
   D16        3.14135   0.00000   0.00000   0.00006   0.00006   3.14141
   D17       -0.00055   0.00002   0.00000   0.00084   0.00084   0.00029
   D18       -3.14120  -0.00002   0.00000  -0.00065  -0.00065   3.14133
   D19        3.14101   0.00002   0.00000   0.00083   0.00083  -3.14135
   D20        0.00035  -0.00002   0.00000  -0.00066  -0.00066  -0.00031
   D21        0.00034  -0.00001   0.00000  -0.00058  -0.00058  -0.00024
   D22        3.14102   0.00002   0.00000   0.00087   0.00087  -3.14130
         Item               Value     Threshold  Converged?
 Maximum Force            0.012929     0.000450     NO 
 RMS     Force            0.004542     0.000300     NO 
 Maximum Displacement     0.035512     0.001800     NO 
 RMS     Displacement     0.014170     0.001200     NO 
 Predicted change in Energy=-1.090556D-03
 Lowest energy point so far.  Saving SCF results.
 GradGradGradGradGradGradGradGradGradGradGradGradGradGradGradGradGradGrad

 Leave Link  103 at Fri Aug 27 21:22:32 2021, MaxMem= 17179869184 cpu:        45.5
 (Enter /public3/home/sc51754/softwares/g09e01/l202.exe)
                          Input orientation:                          
 ---------------------------------------------------------------------
 Center     Atomic      Atomic             Coordinates (Angstroms)
 Number     Number       Type             X           Y           Z
 ---------------------------------------------------------------------
      1          6           0        1.142420    1.144416    0.000067
      2          6           0       -0.238370    1.178587   -0.000021
      3          6           0       -0.921910   -0.024718   -0.000049
      4          6           0       -0.193909   -1.201879   -0.000123
      5          6           0        1.181355   -1.114085   -0.000287
      6          7           0        1.860302    0.029544   -0.000059
      7          1           0        1.700105    2.072592    0.000051
      8          1           0       -0.764678    2.123684   -0.000013
      9          1           0       -0.700525   -2.154701   -0.000096
     10          1           0        1.775518   -2.019129   -0.000100
     11          8           0       -2.271502   -0.107436    0.000004
     12          1           0       -2.657198    0.772705    0.000222
 ---------------------------------------------------------------------
                    Distance matrix (angstroms):
                    1          2          3          4          5
     1  C    0.000000
     2  C    1.381212   0.000000
     3  C    2.372411   1.383897   0.000000
     4  C    2.700163   2.380882   1.384085   0.000000
     5  C    2.258837   2.696658   2.368638   1.378064   0.000000
     6  N    1.326008   2.392640   2.782741   2.395034   1.329984
     7  H    1.082830   2.134696   3.357628   3.782783   3.228624
     8  H    2.143825   1.081762   2.154148   3.374188   3.777591
     9  H    3.778971   3.365175   2.141457   1.079134   2.150432
    10  H    3.226273   3.779039   3.354668   2.132262   1.082652
    11  O    3.636206   2.405719   1.352124   2.348232   3.596604
    12  H    3.817756   2.452646   1.909741   3.157020   4.277203
                    6          7          8          9         10
     6  N    0.000000
     7  H    2.049319   0.000000
     8  H    3.357968   2.465312   0.000000
     9  H    3.365823   4.861381   4.278866   0.000000
    10  H    2.050427   4.092416   4.859578   2.479752   0.000000
    11  O    4.134074   4.530582   2.692288   2.580555   4.475817
    12  H    4.578220   4.547064   2.325247   3.521119   5.238637
                   11         12
    11  O    0.000000
    12  H    0.960942   0.000000
 Stoichiometry    C5H5NO
 Framework group  C1[X(C5H5NO)]
 Deg. of freedom    30
 Full point group                 C1      NOp   1
 RotChk:  IX=2 Diff= 2.63D-03
 Largest Abelian subgroup         C1      NOp   1
 Largest concise Abelian subgroup C1      NOp   1
                         Standard orientation:                         
 ---------------------------------------------------------------------
 Center     Atomic      Atomic             Coordinates (Angstroms)
 Number     Number       Type             X           Y           Z
 ---------------------------------------------------------------------
      1          6           0       -1.139871    1.145813   -0.000123
      2          6           0        0.240980    1.177413   -0.000035
      3          6           0        0.922278   -0.027164   -0.000007
      4          6           0        0.192086   -1.202967    0.000067
      5          6           0       -1.183013   -1.112612    0.000231
      6          7           0       -1.859829    0.032279    0.000003
      7          1           0       -1.695826    2.075026   -0.000107
      8          1           0        0.769047    2.121527   -0.000043
      9          1           0        0.696927   -2.156731    0.000040
     10          1           0       -1.778860   -2.016548    0.000044
     11          8           0        2.271713   -0.112395   -0.000060
     12          1           0        2.659048    0.767026   -0.000278
 ---------------------------------------------------------------------
 Rotational constants (GHZ):      6.0861383      2.6731949      1.8573827
 Leave Link  202 at Fri Aug 27 21:22:32 2021, MaxMem= 17179869184 cpu:         5.1
 (Enter /public3/home/sc51754/softwares/g09e01/l301.exe)
 Basis read from rwf:  (5D, 7F)
 No pseudopotential information found on rwf file.
 There are   320 symmetry adapted cartesian basis functions of A   symmetry.
 There are   280 symmetry adapted basis functions of A   symmetry.
   280 basis functions,   475 primitive gaussians,   320 cartesian basis functions
    25 alpha electrons       25 beta electrons
       nuclear repulsion energy       276.0720120394 Hartrees.
 IExCor=20419 DFT=T Ex+Corr=CAM-B3LYP ExCW=0 ScaHFX=  1.000000
 ScaDFX=  1.000000  1.000000  1.000000  0.810000 ScalE2=  1.000000  1.000000
 IRadAn=      0 IRanWt=     -1 IRanGd=            0 ICorTp=0 IEmpDi=  4
  HFx wShort=  0.000000 wLong=  0.330000 cFull=  0.190000 cShort=  0.000000 cLong=  0.460000
  DFx wShort=  0.000000 wLong=  0.330000 cFull=  0.190000 cShort=  0.000000 cLong=  0.460000
 NAtoms=   12 NActive=   12 NUniq=   12 SFac= 1.00D+00 NAtFMM=   60 NAOKFM=F Big=F
 Integral buffers will be    131072 words long.
 Raffenetti 2 integral format.
 Two-electron integral symmetry is turned on.
 No density basis found on file   724.
 Leave Link  301 at Fri Aug 27 21:22:33 2021, MaxMem= 17179869184 cpu:         1.1
 (Enter /public3/home/sc51754/softwares/g09e01/l302.exe)
 NPDir=0 NMtPBC=     1 NCelOv=     1 NCel=       1 NClECP=     1 NCelD=      1
         NCelK=      1 NCelE2=     1 NClLst=     1 CellRange=     0.0.
 One-electron integrals computed using PRISM.
 NBasis=   280 RedAO= T EigKep=  1.88D-04  NBF=   280
 NBsUse=   280 1.00D-06 EigRej= -1.00D+00 NBFU=   280
 Precomputing XC quadrature grid using
 IXCGrd= 4 IRadAn=           0 IRanWt=          -1 IRanGd=           0 AccXCQ= 0.00D+00.
 Generated NRdTot=       0 NPtTot=           0 NUsed=           0 NTot=          32
 NSgBfM=   320   320   320   320   320 MxSgAt=    12 MxSgA2=    12.
 Leave Link  302 at Fri Aug 27 21:22:33 2021, MaxMem= 17179869184 cpu:        41.1
 (Enter /public3/home/sc51754/softwares/g09e01/l303.exe)
 DipDrv:  MaxL=1.
 Leave Link  303 at Fri Aug 27 21:22:34 2021, MaxMem= 17179869184 cpu:        11.3
 (Enter /public3/home/sc51754/softwares/g09e01/l401.exe)
 Initial guess from the checkpoint file:  "4HY_CAM-B3LYP_PC2_OPT_FREQ.chk"
 B after Tr=    -0.000000   -0.000000    0.000000
         Rot=    1.000000    0.000037   -0.000013    0.000750 Ang=   0.09 deg.
 Guess basis will be translated and rotated to current coordinates.
 JPrj=2 DoOrth=T DoCkMO=T.
 Generating alternative initial guess.
 ExpMin= 7.41D-02 ExpMax= 1.48D+04 ExpMxC= 5.05D+02 IAcc=2 IRadAn=         4 AccDes= 0.00D+00
 Harris functional with IExCor=20419 and IRadAn=       4 diagonalized for initial guess.
 HarFok:  IExCor=20419 AccDes= 0.00D+00 IRadAn=         4 IDoV= 1 UseB2=F ITyADJ=14
 ICtDFT=  3500011 ScaDFX=  1.000000  1.000000  1.000000  1.000000
 FoFCou: FMM=F IPFlag=           0 FMFlag=      100000 FMFlg1=           0
         NFxFlg=           0 DoJE=T BraDBF=F KetDBF=T FulRan=T
         wScrn=  0.000000 ICntrl=     500 IOpCl=  0 I1Cent=   200000004 NGrid=           0
         NMat0=    1 NMatS0=      1 NMatT0=    0 NMatD0=    1 NMtDS0=    0 NMtDT0=    0
 Petite list used in FoFCou.
 Harris En= -311.331247008516    
 Leave Link  401 at Fri Aug 27 21:22:35 2021, MaxMem= 17179869184 cpu:        85.5
 (Enter /public3/home/sc51754/softwares/g09e01/l502.exe)
 Closed shell SCF:
 Using DIIS extrapolation, IDIIS=  1040.
 Integral symmetry usage will be decided dynamically.
 Keep R1 ints in memory in canonical form, NReq=1564561414.
 IVT=      348554 IEndB=      348554 NGot= 17179869184 MDV= 15631845691
 LenX= 15631845691 LenY= 15631742850
 Requested convergence on RMS density matrix=1.00D-08 within 128 cycles.
 Requested convergence on MAX density matrix=1.00D-06.
 Requested convergence on             energy=1.00D-06.
 No special actions if energy rises.
 FoFCou: FMM=F IPFlag=           0 FMFlag=           0 FMFlg1=           0
         NFxFlg=           0 DoJE=F BraDBF=F KetDBF=F FulRan=T
         wScrn=  0.000000 ICntrl=     600 IOpCl=  0 I1Cent=           0 NGrid=           0
         NMat0=    1 NMatS0=  39340 NMatT0=    0 NMatD0=    1 NMtDS0=    0 NMtDT0=    0
 Symmetry not used in FoFCou.
 Integral accuracy reduced to 1.0D-05 until final iterations.

 Cycle   1  Pass 0  IDiag  1:
 E= -323.487758779940    
 DIIS: error= 1.18D-03 at cycle   1 NSaved=   1.
 NSaved= 1 IEnMin= 1 EnMin= -323.487758779940     IErMin= 1 ErrMin= 1.18D-03
 ErrMax= 1.18D-03  0.00D+00 EMaxC= 1.00D-01 BMatC= 3.31D-04 BMatP= 3.31D-04
 IDIUse=3 WtCom= 9.88D-01 WtEn= 1.18D-02
 Coeff-Com:  0.100D+01
 Coeff-En:   0.100D+01
 Coeff:      0.100D+01
 Gap=     0.747 Goal=   None    Shift=    0.000
 GapD=    0.747 DampG=2.000 DampE=1.000 DampFc=2.0000 IDamp=-1.
 RMSDP=6.24D-05 MaxDP=2.00D-03              OVMax= 3.43D-03

 Cycle   2  Pass 0  IDiag  1:
 E= -323.488024500415     Delta-E=       -0.000265720475 Rises=F Damp=F
 DIIS: error= 3.91D-04 at cycle   2 NSaved=   2.
 NSaved= 2 IEnMin= 2 EnMin= -323.488024500415     IErMin= 2 ErrMin= 3.91D-04
 ErrMax= 3.91D-04  0.00D+00 EMaxC= 1.00D-01 BMatC= 3.74D-05 BMatP= 3.31D-04
 IDIUse=3 WtCom= 9.96D-01 WtEn= 3.91D-03
 Coeff-Com:  0.164D+00 0.836D+00
 Coeff-En:   0.000D+00 0.100D+01
 Coeff:      0.163D+00 0.837D+00
 Gap=     0.342 Goal=   None    Shift=    0.000
 RMSDP=3.17D-05 MaxDP=1.47D-03 DE=-2.66D-04 OVMax= 1.87D-03

 Cycle   3  Pass 0  IDiag  1:
 E= -323.488049920089     Delta-E=       -0.000025419674 Rises=F Damp=F
 DIIS: error= 2.74D-04 at cycle   3 NSaved=   3.
 NSaved= 3 IEnMin= 3 EnMin= -323.488049920089     IErMin= 3 ErrMin= 2.74D-04
 ErrMax= 2.74D-04  0.00D+00 EMaxC= 1.00D-01 BMatC= 1.20D-05 BMatP= 3.74D-05
 IDIUse=3 WtCom= 9.97D-01 WtEn= 2.74D-03
 Coeff-Com: -0.180D-01 0.345D+00 0.673D+00
 Coeff-En:   0.000D+00 0.151D+00 0.849D+00
 Coeff:     -0.180D-01 0.344D+00 0.673D+00
 Gap=     0.342 Goal=   None    Shift=    0.000
 RMSDP=9.74D-06 MaxDP=3.06D-04 DE=-2.54D-05 OVMax= 7.35D-04

 Initial convergence to 1.0D-05 achieved.  Increase integral accuracy.
 Cycle   4  Pass 1  IDiag  1:
 E= -323.488049269807     Delta-E=        0.000000650282 Rises=F Damp=F
 DIIS: error= 6.33D-05 at cycle   1 NSaved=   1.
 NSaved= 1 IEnMin= 1 EnMin= -323.488049269807     IErMin= 1 ErrMin= 6.33D-05
 ErrMax= 6.33D-05  0.00D+00 EMaxC= 1.00D-01 BMatC= 9.23D-07 BMatP= 9.23D-07
 IDIUse=1 WtCom= 1.00D+00 WtEn= 0.00D+00
 Coeff-Com:  0.100D+01
 Coeff:      0.100D+01
 Gap=     0.342 Goal=   None    Shift=    0.000
 RMSDP=9.74D-06 MaxDP=3.06D-04 DE= 6.50D-07 OVMax= 3.88D-04

 Cycle   5  Pass 1  IDiag  1:
 E= -323.488048976951     Delta-E=        0.000000292857 Rises=F Damp=F
 DIIS: error= 9.90D-05 at cycle   2 NSaved=   2.
 NSaved= 2 IEnMin= 1 EnMin= -323.488049269807     IErMin= 1 ErrMin= 6.33D-05
 ErrMax= 9.90D-05  0.00D+00 EMaxC= 1.00D-01 BMatC= 1.46D-06 BMatP= 9.23D-07
 IDIUse=1 WtCom= 1.00D+00 WtEn= 0.00D+00
 Coeff-Com:  0.559D+00 0.441D+00
 Coeff:      0.559D+00 0.441D+00
 Gap=     0.342 Goal=   None    Shift=    0.000
 RMSDP=2.45D-06 MaxDP=1.55D-04 DE= 2.93D-07 OVMax= 2.52D-04

 Cycle   6  Pass 1  IDiag  1:
 E= -323.488049961301     Delta-E=       -0.000000984351 Rises=F Damp=F
 DIIS: error= 4.11D-06 at cycle   3 NSaved=   3.
 NSaved= 3 IEnMin= 3 EnMin= -323.488049961301     IErMin= 3 ErrMin= 4.11D-06
 ErrMax= 4.11D-06  0.00D+00 EMaxC= 1.00D-01 BMatC= 5.94D-09 BMatP= 9.23D-07
 IDIUse=1 WtCom= 1.00D+00 WtEn= 0.00D+00
 Coeff-Com:  0.233D-01 0.561D-01 0.921D+00
 Coeff:      0.233D-01 0.561D-01 0.921D+00
 Gap=     0.342 Goal=   None    Shift=    0.000
 RMSDP=5.02D-07 MaxDP=1.97D-05 DE=-9.84D-07 OVMax= 4.71D-05

 Cycle   7  Pass 1  IDiag  1:
 E= -323.488049965237     Delta-E=       -0.000000003936 Rises=F Damp=F
 DIIS: error= 5.69D-06 at cycle   4 NSaved=   4.
 NSaved= 4 IEnMin= 4 EnMin= -323.488049965237     IErMin= 3 ErrMin= 4.11D-06
 ErrMax= 5.69D-06  0.00D+00 EMaxC= 1.00D-01 BMatC= 3.09D-09 BMatP= 5.94D-09
 IDIUse=1 WtCom= 1.00D+00 WtEn= 0.00D+00
 Coeff-Com: -0.316D-01-0.552D-02 0.484D+00 0.553D+00
 Coeff:     -0.316D-01-0.552D-02 0.484D+00 0.553D+00
 Gap=     0.342 Goal=   None    Shift=    0.000
 RMSDP=1.87D-07 MaxDP=1.01D-05 DE=-3.94D-09 OVMax= 2.33D-05

 Cycle   8  Pass 1  IDiag  1:
 E= -323.488049968276     Delta-E=       -0.000000003039 Rises=F Damp=F
 DIIS: error= 7.63D-07 at cycle   5 NSaved=   5.
 NSaved= 5 IEnMin= 5 EnMin= -323.488049968276     IErMin= 5 ErrMin= 7.63D-07
 ErrMax= 7.63D-07  0.00D+00 EMaxC= 1.00D-01 BMatC= 1.40D-10 BMatP= 3.09D-09
 IDIUse=1 WtCom= 1.00D+00 WtEn= 0.00D+00
 Coeff-Com: -0.144D-01-0.830D-02 0.782D-01 0.203D+00 0.742D+00
 Coeff:     -0.144D-01-0.830D-02 0.782D-01 0.203D+00 0.742D+00
 Gap=     0.342 Goal=   None    Shift=    0.000
 RMSDP=5.47D-08 MaxDP=2.61D-06 DE=-3.04D-09 OVMax= 5.36D-06

 Cycle   9  Pass 1  IDiag  1:
 E= -323.488049968425     Delta-E=       -0.000000000149 Rises=F Damp=F
 DIIS: error= 2.42D-07 at cycle   6 NSaved=   6.
 NSaved= 6 IEnMin= 6 EnMin= -323.488049968425     IErMin= 6 ErrMin= 2.42D-07
 ErrMax= 2.42D-07  0.00D+00 EMaxC= 1.00D-01 BMatC= 1.99D-11 BMatP= 1.40D-10
 IDIUse=1 WtCom= 1.00D+00 WtEn= 0.00D+00
 Coeff-Com: -0.349D-02-0.303D-02-0.407D-02 0.392D-01 0.312D+00 0.659D+00
 Coeff:     -0.349D-02-0.303D-02-0.407D-02 0.392D-01 0.312D+00 0.659D+00
 Gap=     0.342 Goal=   None    Shift=    0.000
 RMSDP=1.80D-08 MaxDP=7.31D-07 DE=-1.49D-10 OVMax= 1.39D-06

 Cycle  10  Pass 1  IDiag  1:
 E= -323.488049968445     Delta-E=       -0.000000000020 Rises=F Damp=F
 DIIS: error= 1.20D-07 at cycle   7 NSaved=   7.
 NSaved= 7 IEnMin= 7 EnMin= -323.488049968445     IErMin= 7 ErrMin= 1.20D-07
 ErrMax= 1.20D-07  0.00D+00 EMaxC= 1.00D-01 BMatC= 3.10D-12 BMatP= 1.99D-11
 IDIUse=1 WtCom= 1.00D+00 WtEn= 0.00D+00
 Coeff-Com:  0.131D-02 0.182D-03-0.182D-01-0.255D-01-0.715D-02 0.293D+00
 Coeff-Com:  0.756D+00
 Coeff:      0.131D-02 0.182D-03-0.182D-01-0.255D-01-0.715D-02 0.293D+00
 Coeff:      0.756D+00
 Gap=     0.342 Goal=   None    Shift=    0.000
 RMSDP=7.94D-09 MaxDP=3.51D-07 DE=-2.02D-11 OVMax= 6.80D-07

 SCF Done:  E(RCAM-B3LYP) =  -323.488049968     A.U. after   10 cycles
            NFock= 10  Conv=0.79D-08     -V/T= 2.0032
 KE= 3.224614504014D+02 PE=-1.307147391786D+03 EE= 3.851258793768D+02
 Leave Link  502 at Fri Aug 27 21:22:46 2021, MaxMem= 17179869184 cpu:       232.8
 (Enter /public3/home/sc51754/softwares/g09e01/l701.exe)
 Compute integral first derivatives.
 ... and contract with generalized density number  0.
 Leave Link  701 at Fri Aug 27 21:22:47 2021, MaxMem= 17179869184 cpu:        71.9
 (Enter /public3/home/sc51754/softwares/g09e01/l702.exe)
 L702 exits ... SP integral derivatives will be done elsewhere.
 Leave Link  702 at Fri Aug 27 21:22:47 2021, MaxMem= 17179869184 cpu:         0.2
 (Enter /public3/home/sc51754/softwares/g09e01/l703.exe)
 Compute integral first derivatives, UseDBF=F ICtDFT=           0.
 Integral derivatives from FoFJK, PRISM(SPDF).
 Calling FoFJK, ICntrl=      2127 FMM=F ISym2X=0 I1Cent= 0 IOpClX= 0 NMat=1 NMatS=1 NMatT=0.
 FoFJK:  IHMeth= 1 ICntrl=    2127 DoSepK=T KAlg= 0 I1Cent=   0 FoldK=F
 IRaf=         1 NMat=   1 IRICut=       1 DoRegI=T DoRafI=F ISym2E= 0.
 FoFCou: FMM=F IPFlag=           0 FMFlag=      100000 FMFlg1=         800
         NFxFlg=           0 DoJE=F BraDBF=F KetDBF=F FulRan=T
         wScrn=  0.000000 ICntrl=    2527 IOpCl=  0 I1Cent=           0 NGrid=           0
         NMat0=    1 NMatS0=      1 NMatT0=    0 NMatD0=    1 NMtDS0=    0 NMtDT0=    0
 Symmetry not used in FoFCou.
 Leave Link  703 at Fri Aug 27 21:22:51 2021, MaxMem= 17179869184 cpu:       225.7
 (Enter /public3/home/sc51754/softwares/g09e01/l716.exe)
 Dipole        = 9.31848043D-01 5.19301901D-01-1.57231255D-04
 ***** Axes restored to original set *****
 -------------------------------------------------------------------
 Center     Atomic                   Forces (Hartrees/Bohr)
 Number     Number              X              Y              Z
 -------------------------------------------------------------------
      1        6           0.002147894    0.000592162   -0.000024568
      2        6          -0.000463228    0.000579875    0.000007537
      3        6          -0.001722802   -0.000522206   -0.000000397
      4        6          -0.000666607   -0.000436486   -0.000016565
      5        6           0.002210475   -0.000435598    0.000056901
      6        7          -0.001628375   -0.000038540   -0.000012346
      7        1           0.000151261    0.000470665    0.000008760
      8        1          -0.000085136    0.000193889    0.000001607
      9        1          -0.000061377   -0.000239397   -0.000002028
     10        1           0.000128048   -0.000446394   -0.000018948
     11        8           0.000056919    0.000966407    0.000001175
     12        1          -0.000067071   -0.000684376   -0.000001127
 -------------------------------------------------------------------
 Cartesian Forces:  Max     0.002210475 RMS     0.000728400
 Leave Link  716 at Fri Aug 27 21:22:51 2021, MaxMem= 17179869184 cpu:         0.3
 (Enter /public3/home/sc51754/softwares/g09e01/l103.exe)

 GradGradGradGradGradGradGradGradGradGradGradGradGradGradGradGradGradGrad
 Berny optimization.
 Using GEDIIS/GDIIS optimizer.
 FormGI is forming the generalized inverse of G from B-inverse, IUseBI=4.
 Internal  Forces:  Max     0.001520566 RMS     0.000506710
 Search for a local minimum.
 Step number   2 out of a maximum of   61
 All quantities printed in internal units (Hartrees-Bohrs-Radians)
 RMS Force = .50671D-03 SwitMx=.10000D-02 MixMth= 2
 Mixed Optimization -- En-DIIS/RFO-DIIS
 Update second derivatives using D2CorX and points    1    2
 DE= -1.03D-03 DEPred=-1.09D-03 R= 9.43D-01
 TightC=F SS=  1.41D+00  RLast= 6.83D-02 DXNew= 5.0454D-01 2.0503D-01
 Trust test= 9.43D-01 RLast= 6.83D-02 DXMaxT set to 3.00D-01
 ITU=  1  0
 Use linear search instead of GDIIS.
     Eigenvalues ---    0.02120   0.02139   0.02144   0.02163   0.02209
     Eigenvalues ---    0.02238   0.02269   0.02294   0.02416   0.15851
     Eigenvalues ---    0.16000   0.16000   0.16000   0.16008   0.22001
     Eigenvalues ---    0.22631   0.23774   0.24994   0.34982   0.35073
     Eigenvalues ---    0.35217   0.35543   0.42371   0.44650   0.46124
     Eigenvalues ---    0.49965   0.53016   0.53532   0.55688   0.56528
 RFO step:  Lambda=-2.50198181D-05 EMin= 2.11971932D-02
 Quartic linear search produced a step of -0.05922.
 Iteration  1 RMS(Cart)=  0.00188243 RMS(Int)=  0.00000228
 Iteration  2 RMS(Cart)=  0.00000249 RMS(Int)=  0.00000066
 Iteration  3 RMS(Cart)=  0.00000000 RMS(Int)=  0.00000066
 ITry= 1 IFail=0 DXMaxC= 6.91D-03 DCOld= 1.00D+10 DXMaxT= 3.00D-01 DXLimC= 3.00D+00 Rises=F
 Variable       Old X    -DE/DX   Delta X   Delta X   Delta X     New X
                                 (Linear)    (Quad)   (Total)
    R1        2.61011   0.00146   0.00145   0.00115   0.00260   2.61272
    R2        2.50579   0.00007   0.00134  -0.00157  -0.00023   2.50556
    R3        2.04625   0.00048   0.00065   0.00049   0.00114   2.04739
    R4        2.61519   0.00151   0.00160   0.00118   0.00279   2.61797
    R5        2.04423   0.00021   0.00062  -0.00020   0.00041   2.04465
    R6        2.61554   0.00125   0.00159   0.00068   0.00227   2.61781
    R7        2.55514  -0.00001   0.00073  -0.00091  -0.00018   2.55497
    R8        2.60416   0.00152   0.00146   0.00123   0.00269   2.60686
    R9        2.03927   0.00024   0.00057  -0.00007   0.00050   2.03976
   R10        2.51330   0.00010   0.00131  -0.00150  -0.00019   2.51312
   R11        2.04591   0.00044   0.00065   0.00039   0.00103   2.04695
   R12        1.81592  -0.00060   0.00067  -0.00186  -0.00120   1.81472
    A1        2.16762  -0.00074   0.00015  -0.00337  -0.00322   2.16441
    A2        2.08709   0.00025  -0.00013   0.00107   0.00094   2.08803
    A3        2.02847   0.00049  -0.00002   0.00230   0.00228   2.03075
    A4        2.06265   0.00016   0.00005   0.00087   0.00092   2.06357
    A5        2.10365  -0.00010   0.00005  -0.00065  -0.00060   2.10306
    A6        2.11688  -0.00006  -0.00010  -0.00022  -0.00032   2.11656
    A7        2.07113  -0.00024  -0.00021  -0.00028  -0.00048   2.07065
    A8        2.14861   0.00007   0.00030  -0.00031  -0.00000   2.14860
    A9        2.06345   0.00017  -0.00010   0.00058   0.00049   2.06394
   A10        2.06091   0.00009   0.00002   0.00061   0.00063   2.06154
   A11        2.09904   0.00002  -0.00012   0.00020   0.00008   2.09912
   A12        2.12323  -0.00011   0.00010  -0.00080  -0.00070   2.12253
   A13        2.17031  -0.00064   0.00019  -0.00302  -0.00283   2.16747
   A14        2.08798   0.00018  -0.00015   0.00076   0.00061   2.08859
   A15        2.02490   0.00046  -0.00004   0.00226   0.00222   2.02713
   A16        2.03375   0.00137  -0.00020   0.00519   0.00499   2.03874
   A17        1.92260   0.00061  -0.00083   0.00468   0.00385   1.92645
[...]
 Variable       Old X    -DE/DX   Delta X   Delta X   Delta X     New X
                                 (Linear)    (Quad)   (Total)
    R1        2.61272   0.00026   0.00000   0.00049   0.00049   2.61321
    R2        2.50556  -0.00026   0.00000  -0.00050  -0.00050   2.50506
    R3        2.04739  -0.00001   0.00000  -0.00001  -0.00001   2.04738
    R4        2.61797   0.00003   0.00000   0.00022   0.00022   2.61819
    R5        2.04465   0.00007   0.00000   0.00021   0.00021   2.04486
    R6        2.61781  -0.00005   0.00000  -0.00005  -0.00005   2.61776
    R7        2.55497  -0.00029   0.00000  -0.00066  -0.00066   2.55431
    R8        2.60686   0.00031   0.00000   0.00074   0.00074   2.60759
    R9        2.03976   0.00007   0.00000   0.00020   0.00020   2.03996
   R10        2.51312  -0.00033   0.00000  -0.00081  -0.00081   2.51231
   R11        2.04695  -0.00000   0.00000   0.00001   0.00001   2.04696
   R12        1.81472  -0.00003   0.00000  -0.00003  -0.00003   1.81469
    A1        2.16441   0.00003   0.00000  -0.00005  -0.00005   2.16436
    A2        2.08803  -0.00003   0.00000  -0.00023  -0.00023   2.08780
    A3        2.03075  -0.00000   0.00000   0.00027   0.00027   2.03102
    A4        2.06357  -0.00002   0.00000   0.00001   0.00001   2.06358
    A5        2.10306   0.00007   0.00000   0.00045   0.00045   2.10351
    A6        2.11656  -0.00005   0.00000  -0.00046  -0.00046   2.11610
    A7        2.07065  -0.00007   0.00000  -0.00019  -0.00019   2.07046
    A8        2.14860   0.00006   0.00000   0.00012   0.00012   2.14872
    A9        2.06394   0.00001   0.00000   0.00007   0.00007   2.06401
   A10        2.06154  -0.00003   0.00000  -0.00007  -0.00007   2.06147
   A11        2.09912  -0.00000   0.00000  -0.00003  -0.00003   2.09909
   A12        2.12253   0.00003   0.00000   0.00010   0.00010   2.12263
   A13        2.16747   0.00005   0.00000   0.00006   0.00006   2.16753
   A14        2.08859  -0.00005   0.00000  -0.00042  -0.00042   2.08817
   A15        2.02713  -0.00000   0.00000   0.00036   0.00036   2.02748
   A16        2.03874   0.00005   0.00000   0.00023   0.00023   2.03898
   A17        1.92645  -0.00009   0.00000  -0.00030  -0.00030   1.92615
    D1       -0.00010   0.00000   0.00000   0.00010   0.00010  -0.00000
    D2        3.14153   0.00000   0.00000   0.00006   0.00006   3.14159
    D3       -3.14155  -0.00000   0.00000  -0.00004  -0.00004  -3.14159
    D4        0.00008  -0.00000   0.00000  -0.00008  -0.00008  -0.00000
    D5        0.00002  -0.00000   0.00000  -0.00002  -0.00002   0.00000
    D6        3.14147   0.00001   0.00000   0.00012   0.00012   3.14159
    D7        0.00006  -0.00000   0.00000  -0.00006  -0.00006  -0.00000
    D8       -3.14154  -0.00000   0.00000  -0.00006  -0.00006   3.14159
    D9       -3.14158  -0.00000   0.00000  -0.00001  -0.00001  -3.14159
   D10        0.00001  -0.00000   0.00000  -0.00001  -0.00001   0.00000
   D11        0.00006  -0.00000   0.00000  -0.00006  -0.00006   0.00000
   D12       -3.14155  -0.00000   0.00000  -0.00004  -0.00004  -3.14159
   D13       -3.14153  -0.00000   0.00000  -0.00006  -0.00006  -3.14159
   D14        0.00004  -0.00000   0.00000  -0.00004  -0.00004   0.00000
   D15       -0.00014   0.00000   0.00000   0.00014   0.00014  -0.00000
   D16        3.14145   0.00000   0.00000   0.00014   0.00014   3.14159
   D17       -0.00015   0.00001   0.00000   0.00015   0.00015  -0.00000
   D18       -3.14148  -0.00000   0.00000  -0.00012  -0.00012   3.14159
   D19        3.14146   0.00001   0.00000   0.00013   0.00013   3.14159
   D20        0.00014  -0.00001   0.00000  -0.00014  -0.00014   0.00000
   D21        0.00011  -0.00000   0.00000  -0.00011  -0.00011   0.00000
   D22        3.14145   0.00001   0.00000   0.00015   0.00015   3.14159
         Item               Value     Threshold  Converged?
 Maximum Force            0.000335     0.000450     YES
 RMS     Force            0.000096     0.000300     YES
 Maximum Displacement     0.000790     0.001800     YES
 RMS     Displacement     0.000225     0.001200     YES
 Predicted change in Energy=-5.655207D-07
 Optimization completed.
    -- Stationary point found.
                           ----------------------------
                           !   Optimized Parameters   !
                           ! (Angstroms and Degrees)  !
 --------------------------                            --------------------------
 ! Name  Definition              Value          Derivative Info.                !
 --------------------------------------------------------------------------------
 ! R1    R(1,2)                  1.3826         -DE/DX =    0.0003              !
 ! R2    R(1,6)                  1.3259         -DE/DX =   -0.0003              !
 ! R3    R(1,7)                  1.0834         -DE/DX =    0.0                 !
 ! R4    R(2,3)                  1.3854         -DE/DX =    0.0                 !
 ! R5    R(2,8)                  1.082          -DE/DX =    0.0001              !
 ! R6    R(3,4)                  1.3853         -DE/DX =    0.0                 !
 ! R7    R(3,11)                 1.352          -DE/DX =   -0.0003              !
 ! R8    R(4,5)                  1.3795         -DE/DX =    0.0003              !
 ! R9    R(4,9)                  1.0794         -DE/DX =    0.0001              !
 ! R10   R(5,6)                  1.3299         -DE/DX =   -0.0003              !
 ! R11   R(5,10)                 1.0832         -DE/DX =    0.0                 !
 ! R12   R(11,12)                0.9603         -DE/DX =    0.0                 !
 ! A1    A(2,1,6)              124.0114         -DE/DX =    0.0                 !
 ! A2    A(2,1,7)              119.6353         -DE/DX =    0.0                 !
 ! A3    A(6,1,7)              116.3533         -DE/DX =    0.0                 !
 ! A4    A(1,2,3)              118.2337         -DE/DX =    0.0                 !
 ! A5    A(1,2,8)              120.4962         -DE/DX =    0.0001              !
 ! A6    A(3,2,8)              121.2701         -DE/DX =    0.0                 !
 ! A7    A(2,3,4)              118.6392         -DE/DX =   -0.0001              !
 ! A8    A(2,3,11)             123.1059         -DE/DX =    0.0001              !
 ! A9    A(4,3,11)             118.2548         -DE/DX =    0.0                 !
 ! A10   A(3,4,5)              118.1174         -DE/DX =    0.0                 !
 ! A11   A(3,4,9)              120.2706         -DE/DX =    0.0                 !
 ! A12   A(5,4,9)              121.612          -DE/DX =    0.0                 !
 ! A13   A(4,5,6)              124.1869         -DE/DX =    0.0                 !
 ! A14   A(4,5,10)             119.6674         -DE/DX =    0.0                 !
 ! A15   A(6,5,10)             116.1457         -DE/DX =    0.0                 !
 ! A16   A(1,6,5)              116.8114         -DE/DX =    0.0                 !
 ! A17   A(3,11,12)            110.3774         -DE/DX =   -0.0001              !
 ! D1    D(6,1,2,3)             -0.0059         -DE/DX =    0.0                 !
 ! D2    D(6,1,2,8)            179.9966         -DE/DX =    0.0                 !
 ! D3    D(7,1,2,3)           -179.9978         -DE/DX =    0.0                 !
 ! D4    D(7,1,2,8)              0.0048         -DE/DX =    0.0                 !
 ! D5    D(2,1,6,5)              0.0011         -DE/DX =    0.0                 !
 ! D6    D(7,1,6,5)            179.9931         -DE/DX =    0.0                 !
 ! D7    D(1,2,3,4)              0.0034         -DE/DX =    0.0                 !
 ! D8    D(1,2,3,11)           180.0033         -DE/DX =    0.0                 !
 ! D9    D(8,2,3,4)           -179.9992         -DE/DX =    0.0                 !
 ! D10   D(8,2,3,11)             0.0007         -DE/DX =    0.0                 !
 ! D11   D(2,3,4,5)              0.0033         -DE/DX =    0.0                 !
 ! D12   D(2,3,4,9)           -179.9978         -DE/DX =    0.0                 !
 ! D13   D(11,3,4,5)          -179.9965         -DE/DX =    0.0                 !
 ! D14   D(11,3,4,9)             0.0023         -DE/DX =    0.0                 !
 ! D15   D(2,3,11,12)           -0.0079         -DE/DX =    0.0                 !
 ! D16   D(4,3,11,12)          179.992          -DE/DX =    0.0                 !
 ! D17   D(3,4,5,6)             -0.0088         -DE/DX =    0.0                 !
 ! D18   D(3,4,5,10)           180.0067         -DE/DX =    0.0                 !
 ! D19   D(9,4,5,6)            179.9924         -DE/DX =    0.0                 !
 ! D20   D(9,4,5,10)             0.0078         -DE/DX =    0.0                 !
 ! D21   D(4,5,6,1)              0.0065         -DE/DX =    0.0                 !
 ! D22   D(10,5,6,1)           179.9916         -DE/DX =    0.0                 !
 --------------------------------------------------------------------------------
 GradGradGradGradGradGradGradGradGradGradGradGradGradGradGradGradGradGrad

 Leave Link  103 at Fri Aug 27 21:24:02 2021, MaxMem= 17179869184 cpu:        42.1
 (Enter /public3/home/sc51754/softwares/g09e01/l9999.exe)
 1\1\GINC-P1908\Freq\RCAM-B3LYP\Gen\C5H5N1O1\SC51754\27-Aug-2021\0\\#P 
 Geom=AllCheck Guess=TCheck SCRF=Check GenChk RCAM-B3LYP/ChkBas Freq\\4
 HY_CAM-B3LYP_PC2_OPT_FREQ\\0,1\C,1.1440915802,1.14616034,-0.0000672788
 \C,-0.2380914848,1.1796771868,0.000022864\C,-0.9228630686,-0.024623634
 ,-0.0000276598\C,-0.1941537109,-1.2027571208,-0.0000933001\C,1.1825814
 047,-1.1156432847,-0.0000338962\N,1.8588745751,0.0294411893,-0.0000858
 596\H,1.7024959205,2.074604573,0.0000062921\H,-0.7644142396,2.12501661
 53,0.0000879441\H,-0.7007573082,-2.155884067,-0.0001693995\H,1.7770918
 575,-2.0211136312,-0.0001925604\O,-2.2723954777,-0.1067664428,-0.00001
 35141\H,-2.6608520481,0.7714672761,0.0001593683\\Version=EM64L-G09RevE
 .01\State=1-A\HF=-323.4880672\RMSD=1.379e-09\RMSF=1.679e-04\ZeroPoint=
 0.0941909\Thermal=0.0994561\Dipole=-0.9306681,0.5206141,0.0001081\Dipo
 leDeriv=0.4711098,0.027581,-0.0000281,-0.0259379,0.3834665,0.0000177,0
 .0000164,0.0000522,0.00389,-0.4627735,-0.1300571,0.0000049,-0.3131386,
 -0.1445851,0.0000204,-0.0000183,-0.0000105,-0.1699003,1.6339244,-0.002
 1756,-0.0000237,-0.0096315,0.3665927,-0.0000211,-0.0000265,-0.0000199,
 0.1285675,-0.4608583,0.1395928,0.0000152,0.2904754,-0.127589,0.0000152
 ,0.0000441,0.0000091,-0.158792,0.4877193,-0.0563034,0.0000048,0.049666
 6,0.3908832,0.0000216,-0.0000569,0.0000659,0.0011843,-0.6257364,0.0156
 421,0.0000031,-0.0167297,-0.6605351,-0.0000381,0.000012,0.0000053,-0.2
 92761,0.042715,-0.0691749,0.0000035,-0.0520495,-0.0720069,-0.0000023,-
 0.0000187,-0.0000392,0.1051158,0.0028211,0.0789497,0.0000116,0.0743554
 ,-0.0252067,-0.0000103,0.0000158,-0.0000048,0.1567323,0.0568514,-0.049
 5983,-0.0000058,-0.0469286,-0.0038883,-0.0000069,-0.0000135,-0.0000097
 ,0.1558501,0.0396111,0.0753959,0.0000006,0.0546818,-0.0635365,-0.00000
 39,0.0000371,-0.000063,0.1063885,-1.576417,0.0246563,0.0000276,0.02546
 33,-0.2077277,0.0000325,-0.0000023,0.0000384,-0.3658176,0.3910331,-0.0
 545085,-0.0000138,-0.0302267,0.1641329,-0.0000246,0.0000107,-0.0000236
 ,0.3295424\Polar=79.3912606,-1.2423035,75.2895817,-0.0009076,0.0013086
 ,38.1912906\PG=C01 [X(C5H5N1O1)]\NImag=0\\0.70200978,0.04439371,0.7581
 0244,-0.00001168,0.00002401,0.16870443,-0.33860253,-0.04344623,0.00001
 517,0.71390510,0.03458703,-0.14129978,-0.00000470,-0.03701355,0.742290
 15,0.00001904,-0.00000189,-0.06871603,-0.00002673,0.00003366,0.1236809
 6,-0.02934209,-0.03625901,-0.00000104,-0.16855535,-0.11226966,-0.00000
 220,0.72153888,-0.09934071,0.05592478,0.00000466,-0.03003269,-0.298065
 90,-0.00001341,-0.01199269,0.73168313,-0.00000107,0.00000399,0.0027266
 3,-0.00000228,-0.00001194,-0.07182480,-0.00001120,0.00003544,0.1748701
 3,-0.06051750,0.04438796,0.00000284,0.06799934,0.02199352,-0.00000228,
 -0.16623817,0.03852230,0.00000532,0.72671924,0.02448764,-0.02074078,-0
 .00000072,-0.01826856,-0.04957032,-0.00000171,0.11604436,-0.29513809,-
 0.00001451,0.04124825,0.75220967,0.00000070,0.00000002,-0.00704356,0.0
 0000050,-0.00000256,0.00941968,0.00000465,-0.00001377,-0.07384817,0.00
 001329,0.00003949,0.12785706,0.06667665,-0.02855091,-0.00000346,-0.057
 98686,-0.02412638,0.00000131,-0.03688298,0.09279485,0.00000148,-0.3479
 7706,-0.04320158,-0.00001489,0.71286734,0.03475973,-0.10305651,-0.0000
 0168,-0.04613698,-0.02313523,0.00000162,0.03078457,0.06199981,0.000003
 49,0.03416107,-0.14485807,-0.00000595,-0.04991929,0.74806980,-0.000001
 50,-0.00000178,0.00479000,0.00000052,0.00000133,-0.00747975,0.00000247
 ,-0.00000100,0.00269289,-0.00000845,-0.00000433,-0.06878084,-0.0000199
 8,0.00003582,0.16988582,-0.19596361,0.12078181,0.00000480,-0.03494200,
 0.03271247,0.00000252,0.01170882,0.00343847,-0.00000046,-0.02874333,-0
 .03632965,0.00000115,-0.18685712,-0.11315726,0.00000518,0.42695219,0.0
 8312843,-0.28962609,-0.00000477,0.10494084,0.03595680,-0.00000225,0.00
 391018,-0.10613886,-0.00000391,-0.10643918,0.03256426,0.00000327,-0.07
 544432,-0.28949752,0.00000294,-0.00856851,0.66794885,0.00000117,-0.000
 00297,-0.07381730,0.00000393,-0.00000220,0.02401877,-0.00000049,0.0000
 0073,-0.00852840,-0.00000237,-0.00000063,0.02325413,0.00001129,0.00000
 825,-0.07388637,-0.00001225,-0.00000016,0.10113034,-0.14239400,-0.1277
 3370,-0.00000744,-0.01158708,-0.02737939,-0.00000150,-0.00512259,0.001
 76032,0.00000052,-0.00056316,0.00097472,-0.00000002,0.00065810,0.00468
 506,0.00000008,0.01422920,0.01967011,0.00000035,0.14467611,-0.12684889
 ,-0.24819439,-0.00001453,0.00181033,0.00401553,-0.00000052,0.00128885,
 0.00121540,-0.00000065,0.00005454,0.00026731,0.00000009,0.00269454,-0.
 00234088,-0.00000112,-0.00649143,-0.03301339,-0.00000041,0.12892778,0.
 27821306,-0.00000903,-0.00001906,-0.04479401,0.00000144,0.00000171,0.0
 0759055,0.00000102,0.00000002,0.00802614,0.00000123,-0.00000069,-0.000
 93893,-0.00000167,-0.00000111,0.01026588,-0.00000126,0.00000197,-0.002
 83332,0.00000821,0.00001652,0.02802246,-0.00711806,0.03129471,0.000001
 13,-0.12474007,0.11664886,0.00001008,0.00863718,-0.01438973,-0.0000009
 1,-0.00043482,-0.00357830,0.00000003,-0.00152622,-0.00192829,0.0000000
 7,-0.00681559,0.00029164,0.00000076,0.00080300,-0.00048938,-0.00000032
 ,0.12703743,-0.00157034,0.00334148,0.00000026,0.11706584,-0.27496412,-
 0.00001590,0.01871983,-0.01854655,-0.00000142,-0.00400631,-0.00316007,
 -0.00000055,-0.00129894,0.00001569,-0.00000003,-0.00029457,0.00222745,
 -0.00000033,0.00044389,0.00051111,0.00000015,-0.12822167,0.28941484,0.
 00000109,-0.00000216,0.00042168,0.00000867,-0.00001512,-0.03256796,0.0
 0000078,-0.00000074,0.00376835,-0.00000008,-0.00000055,0.00579554,0.00
 000010,0.00000033,-0.00034238,0.00000030,0.00000013,0.00818948,0.,0.00
 000039,-0.00359768,-0.00001062,0.00001731,0.02290832,-0.00145219,0.001
 78894,-0.00000003,-0.00124216,0.00337171,-0.00000007,0.01178026,0.0158
 8481,0.00000099,-0.12165256,-0.11841650,-0.00001090,-0.00593527,-0.030
 12582,-0.00000121,-0.00638913,-0.00053447,-0.00000028,0.00010582,-0.00
 020725,0.00000009,0.00049601,0.00087596,-0.00000004,0.12172832,0.00125
 308,0.00010023,-0.00000008,0.00375746,-0.00285193,-0.00000070,-0.01659
 858,-0.01905705,-0.00000141,-0.11686069,-0.28652783,-0.00001890,0.0015
 7523,0.00370615,0.00000030,0.00040074,0.00216934,-0.00000060,-0.000068
 51,0.00000061,0.00000011,-0.00067209,-0.00082162,0.,0.12839189,0.30033
 387,0.00000002,0.00000034,-0.00033557,0.00000020,-0.00000061,0.0058507
 1,-0.00000094,-0.00000075,0.00485214,-0.00000918,-0.00001932,-0.034931
 70,-0.00000121,-0.00000163,0.00051136,0.00000057,0.00000035,0.00848122
 ,0.00000003,0.00000005,-0.00133786,0.,-0.00000002,0.00014347,0.0000111
 0,0.00002053,0.02463773,0.00097194,-0.00464552,0.00000089,-0.00059846,
 -0.00099333,-0.00000001,-0.00480690,-0.00181815,0.00000025,-0.01245334
 ,0.02685445,0.00000372,-0.15258106,0.13180474,0.00002091,0.01445663,-0
 .01794283,-0.00000209,0.00029354,-0.00048911,0.00000009,0.00009746,0.0
 0006820,-0.00000015,0.00082067,-0.00047951,-0.00000037,0.15521879,-0.0
 0257361,-0.00274718,-0.00000098,-0.00008631,0.00029858,0.00000012,-0.0
 0153742,0.00103606,-0.00000106,-0.00247954,0.00502639,-0.00000085,0.13
 087380,-0.23877572,-0.00003118,0.00844025,-0.03305501,-0.00000164,0.00
 052981,-0.00078481,0.00000007,0.00022052,-0.00000911,0.00000009,0.0005
 0208,0.00048086,0.00000065,-0.13405921,0.26827158,0.00000215,-0.000000
 16,0.00996554,-0.00000070,-0.00000085,-0.00090498,-0.00000078,-0.00000
 035,0.00841555,-0.00000212,0.00000106,0.00780086,0.00002548,-0.0000388
 7,-0.04547189,-0.00000040,0.00000364,-0.00254561,-0.00000009,0.0000001
 3,0.00027556,-0.00000009,0.00000008,-0.00128181,0.00000031,0.00000030,
 -0.00377903,-0.00002330,0.00003468,0.02826955,0.00701576,-0.00283763,-
 0.00000091,-0.04767760,-0.00840795,0.00000031,-0.31632847,-0.04250604,
 -0.00000089,-0.04968874,0.01344563,0.00000175,0.00918747,0.00248522,0.
 00000186,-0.00847864,-0.00145822,-0.00000018,-0.00140037,-0.00027867,0
 .00000020,0.00382512,0.00006804,-0.00000023,0.00158112,-0.00064129,-0.
 00000028,-0.00099097,0.00032995,-0.00000030,0.51507643,0.00741958,-0.0
 1066398,-0.00000169,-0.04688875,0.00373714,0.00000044,0.00894665,-0.11
 620642,-0.00000920,0.05111841,0.00757563,-0.00000011,-0.00585999,-0.01
 186292,-0.00000074,-0.00056837,0.01043819,0.00000006,-0.00163246,0.000
 16761,0.00000033,-0.00008775,0.00282355,0.00000060,-0.00132719,0.00213
 826,0.00000036,0.00167373,0.00020139,0.00000030,-0.15261087,0.56646757
 ,-0.00000086,-0.00000006,0.00878568,0.00000009,0.00000063,0.01229049,0
 .00001020,-0.00001031,-0.04854423,0.00000240,0.00000200,0.00828124,0.0
 0000183,-0.00000032,0.00606456,-0.00000025,-0.00000140,-0.00336087,-0.
 00000007,0.00000004,-0.00076092,-0.00000033,0.00000030,-0.00393075,0.0
 0000002,0.00000040,-0.00352875,0.00000016,0.00000005,-0.00036814,-0.00
 004233,0.00009603,0.03036080,-0.00128415,0.00082586,-0.00000027,0.0040
 2767,0.00087668,-0.00000046,-0.02638859,0.04767925,0.00000823,-0.00644
 989,-0.00326047,0.00000002,0.00035702,0.00258725,0.00000006,0.00084258
 ,-0.00155366,0.00000017,0.00030143,0.00002869,0.,-0.00026144,-0.001849
 93,0.00000017,0.00015912,-0.00005775,0.00000005,-0.00042830,-0.0001603
 3,-0.00000015,-0.11212111,0.13981700,0.00002916,0.14124568,0.00030434,
 -0.00114022,0.00000021,-0.00570140,0.00358908,0.00000053,-0.00103707,0
 .00129369,0.00000117,-0.00170034,0.00235192,-0.00000019,0.00046299,-0.
 00026460,-0.00000021,-0.00036395,0.00002599,-0.00000009,-0.00017764,-0
 .00005716,-0.00000001,0.00091148,-0.00083264,-0.00000025,-0.00020417,0
 .00032910,0.00000006,0.00002653,0.00005697,0.00000004,0.19241183,-0.45
 481602,-0.00008737,-0.18493260,0.44946391,-0.00000002,-0.00000028,-0.0
 0068749,-0.00000080,0.00000066,-0.00135766,-0.00000247,-0.00000052,-0.
 00260625,-0.00000060,-0.00000008,0.00313468,-0.00000028,0.00000003,0.0
 0175073,0.00000011,0.00000018,-0.00010208,-0.00000007,0.,0.00008212,0.
 00000019,0.00000015,0.00049374,0.00000002,0.00000004,-0.00056371,-0.00
 000008,0.00000004,-0.00037559,0.00004099,-0.00008637,-0.00528912,-0.00
 003698,0.00008612,0.00552063\\-0.00041341,0.00027480,-0.00001606,0.000
 10470,-0.00002133,0.00000517,0.00034626,0.00000600,-0.00000180,0.00026
 476,-0.00002770,-0.00000672,-0.00049673,-0.00037493,0.00002898,0.00031
 262,0.00007845,-0.00000532,0.00001274,-0.00000037,0.00000568,0.0000847
 6,-0.00003628,0.00000045,0.00005281,0.00005672,-0.00000179,0.00002135,
 0.00000866,-0.00000919,-0.00023380,0.00003039,-0.00000112,-0.00005606,
 0.00000558,0.00000171\\\@


 WE TEND TO MEET ANY NEW SITUATION BY REORGANIZING. IT CAN BE A
 WONDERFUL METHOD FOR CREATING THE ILLUSION OF PROGRESS WHILE PRODUCING
 CONFUSION, INEFFICIENCY, AND DEMORALIZATION.
     -- PETRONIUS ARBITER, 210 B.C.
 Job cpu time:       0 days  0 hours 50 minutes 21.1 seconds.
 File lengths (MBytes):  RWF=     79 Int=      0 D2E=      0 Chk=      7 Scr=      1
 Normal termination of Gaussian 09 at Fri Aug 27 21:24:02 2021.
