 Entering Gaussian System, Link 0=g09
 AtFile(1): pc-2.gbs
            -H     0
            S    4   1.00
                  0.754230D+02           0.240650D-02
                  0.113500D+02           0.184870D-01
                  0.259930D+01           0.897420D-01
                  0.735130D+00           0.281110D+00
            S    1   1.00
                  0.231670D+00           0.100000D+01
            S    1   1.00
                  0.741470D-01           0.100000D+01
            P    1   1.00
                  0.160000D+01           0.100000D+01
            P    1   1.00
                  0.450000D+00           0.100000D+01
            D    1   1.00
                  0.125000D+01           0.100000D+01
            ****
            -C     0
            S    7   1.00
                  0.785710D+04           0.568250D-03
                  0.117870D+04           0.439150D-02
                  0.268320D+03           0.225040D-01
                  0.759480D+02           0.866530D-01
                  0.245590D+02           0.244050D+00
                  0.862120D+01           0.441480D+00
                  0.312780D+01           0.353320D+00
            S    7   1.00
                  0.117870D+04          -0.594920D-06
                  0.268320D+03          -0.627480D-04
                  0.759480D+02          -0.757730D-03
                  0.245590D+02          -0.733080D-02
                  0.862120D+01          -0.389320D-01
                  0.312780D+01          -0.889080D-01
                  0.822020D+00           0.216890D+00
            S    1   1.00
                  0.330170D+00           0.100000D+01
            S    1   1.00
                  0.114630D+00           0.100000D+01
            P    4   1.00
                  0.337750D+02           0.602940D-02
                  0.767660D+01           0.432280D-01
                  0.223570D+01           0.163010D+00
                  0.764470D+00           0.365040D+00
            P    1   1.00
                  0.262320D+00           0.100000D+01
            P    1   1.00
                  0.846380D-01           0.100000D+01
            D    1   1.00
                  0.140000D+01           0.100000D+01
            D    1   1.00
                  0.450000D+00           0.100000D+01
            F    1   1.00
                  0.950000D+00           0.100000D+01
            ****
            -N     0
            S    7   1.00
                  0.111010D+05           0.545700D-03
                  0.166530D+04           0.421810D-02
                  0.379080D+03           0.216450D-01
                  0.107300D+03           0.837760D-01
                  0.347470D+02           0.238810D+00
                  0.122490D+02           0.439940D+00
                  0.447430D+01           0.363640D+00
            S    7   1.00
                  0.166530D+04          -0.150060D-05
                  0.379080D+03          -0.587530D-04
                  0.107300D+03          -0.774530D-03
                  0.347470D+02          -0.721610D-02
                  0.122490D+02          -0.393380D-01
                  0.447430D+01          -0.906110D-01
                  0.124040D+01           0.198820D+00
            S    1   1.00
                  0.487430D+00           0.100000D+01
            S    1   1.00
                  0.164840D+00           0.100000D+01
            P    4   1.00
                  0.479340D+02           0.617060D-02
                  0.109990D+02           0.442600D-01
                  0.324720D+01           0.168250D+00
                  0.111140D+01           0.368480D+00
            P    1   1.00
                  0.379880D+00           0.100000D+01
            P    1   1.00
                  0.120680D+00           0.100000D+01
            D    1   1.00
                  0.180000D+01           0.100000D+01
            D    1   1.00
                  0.550000D+00           0.100000D+01
            F    1   1.00
                  0.102000D+01           0.100000D+01
            ****
            -O     0
            S    7   1.00
                  0.147820D+05           0.535190D-03
                  0.221730D+04           0.413750D-02
                  0.504740D+03           0.212450D-01
                  0.142870D+03           0.824530D-01
                  0.463000D+02           0.236710D+00
                  0.163370D+02           0.440390D+00
                  0.598280D+01           0.364650D+00
            S    7   1.00
                  0.221730D+04          -0.192750D-05
                  0.504740D+03          -0.579640D-04
                  0.142870D+03          -0.794940D-03
                  0.463000D+02          -0.731250D-02
                  0.163370D+02          -0.405740D-01
                  0.598280D+01          -0.915940D-01
                  0.167180D+01           0.209400D+00
            S    1   1.00
                  0.646620D+00           0.100000D+01
            S    1   1.00
                  0.216690D+00           0.100000D+01
            P    4   1.00
                  0.604240D+02           0.689490D-02
                  0.139350D+02           0.490050D-01
                  0.415310D+01           0.182550D+00
                  0.141580D+01           0.376330D+00
            P    1   1.00
                  0.475490D+00           0.100000D+01
            P    1   1.00
                  0.145290D+00           0.100000D+01
            D    1   1.00
                  0.220000D+01           0.100000D+01
            D    1   1.00
                  0.650000D+00           0.100000D+01
            F    1   1.00
                  0.110000D+01           0.100000D+01
            ****
 Initial command:
 /public3/home/sc51754/softwares/g09e01/l1.exe "./Gau-32039.inp" -scrdir="./"
 Entering Link 1 = /public3/home/sc51754/softwares/g09e01/l1.exe PID=     32040.
  
 Copyright (c) 1988,1990,1992,1993,1995,1998,2003,2009,2015,
            Gaussian, Inc.  All Rights Reserved.
  
 This is part of the Gaussian(R) 09 program.  It is based on
 the Gaussian(R) 03 system (copyright 2003, Gaussian, Inc.),
 the Gaussian(R) 98 system (copyright 1998, Gaussian, Inc.),
 the Gaussian(R) 94 system (copyright 1995, Gaussian, Inc.),
 the Gaussian 92(TM) system (copyright 1992, Gaussian, Inc.),
 the Gaussian 90(TM) system (copyright 1990, Gaussian, Inc.),
 the Gaussian 88(TM) system (copyright 1988, Gaussian, Inc.),
 the Gaussian 86(TM) system (copyright 1986, Carnegie Mellon
 University), and the Gaussian 82(TM) system (copyright 1983,
 Carnegie Mellon University). Gaussian is a federally registered
 trademark of Gaussian, Inc.
  
 This software contains proprietary and confidential information,
 including trade secrets, belonging to Gaussian, Inc.
  
 This software is provided under written license and may be
 used, copied, transmitted, or stored only in accord with that
 written license.
  
 The following legend is applicable only to US Government
 contracts under FAR:
  
                    RESTRICTED RIGHTS LEGEND
  
 Use, reproduction and disclosure by the US Government is
 subject to restrictions as set forth in subparagraphs (a)
 and (c) of the Commercial Computer Software - Restricted
 Rights clause in FAR 52.227-19.
  
 Gaussian, Inc.
 340 Quinnipiac St., Bldg. 40, Wallingford CT 06492
  
  
 ---------------------------------------------------------------
 Warning -- This program may not be used in any manner that
 competes with the business of Gaussian, Inc. or will provide
 assistance to any competitor of Gaussian, Inc.  The licensee
 of this program is prohibited from giving any competitor of
 Gaussian, Inc. access to this program.  By using this program,
 the user acknowledges that Gaussian, Inc. is engaged in the
 business of creating and licensing software in the field of
 computational chemistry and represents and warrants to the
 licensee that it is not a competitor of Gaussian, Inc. and that
 it will not use this program in any manner prohibited above.
 ---------------------------------------------------------------
  

 Cite this work as:
 Gaussian 09, Revision E.01,
 M. J. Frisch, G. W. Trucks, H. B. Schlegel, G. E. Scuseria, 
 M. A. Robb, J. R. Cheeseman, G. Scalmani, V. Barone, B. Mennucci, 
 G. A. Petersson, H. Nakatsuji, M. Caricato, X. Li, H. P. Hratchian, 
 A. F. Izmaylov, J. Bloino, G. Zheng, J. L. Sonnenberg, M. Hada, 
 M. Ehara, K. Toyota, R. Fukuda, J. Hasegawa, M. Ishida, T. Nakajima, 
 Y. Honda, O. Kitao, H. Nakai, T. Vreven, J. A. Montgomery, Jr., 
 J. E. Peralta, F. Ogliaro, M. Bearpark, J. J. Heyd, E. Brothers, 
 K. N. Kudin, V. N. Staroverov, T. Keith, R. Kobayashi, J. Normand, 
 K. Raghavachari, A. Rendell, J. C. Burant, S. S. Iyengar, J. Tomasi, 
 M. Cossi, N. Rega, J. M. Millam, M. Klene, J. E. Knox, J. B. Cross, 
 V. Bakken, C. Adamo, J. Jaramillo, R. Gomperts, R. E. Stratmann, 
 O. Yazyev, A. J. Austin, R. Cammi, C. Pomelli, J. W. Ochterski, 
 R. L. Martin, K. Morokuma, V. G. Zakrzewski, G. A. Voth, 
 P. Salvador, J. J. Dannenberg, S. Dapprich, A. D. Daniels, 
 O. Farkas, J. B. Foresman, J. V. Ortiz, J. Cioslowski, 
 and D. J. Fox, Gaussian, Inc., Wallingford CT, 2013.
 
 ******************************************
 Gaussian 09:  EM64L-G09RevE.01 30-Nov-2015
                27-Aug-2021 
 ******************************************
 %nprocshared=64
 Will use up to   64 processors via shared memory.
 %mem=128GB
 %chk=4HY_M06L_PC2_OPT_FREQ.chk
 --------------------
 #p opt freq M06L/gen
 --------------------
 1/14=-1,18=20,19=15,26=3,38=1/1,3;
 2/9=110,12=2,17=6,18=5,40=1/2;
 3/5=7,11=2,16=1,25=1,30=1,71=1,74=-53/1,2,3;
 4//1;
 5/5=2,38=5/2;
 6/7=2,8=2,9=2,10=2,28=1/1;
 7//1,2,3,16;
 1/14=-1,18=20,19=15,26=3/3(2);
 2/9=110/2;
 99//99;
 2/9=110/2;
 3/5=7,6=1,11=2,16=1,25=1,30=1,71=1,74=-53,82=7/1,2,3;
 4/5=5,16=3,69=1/1;
 5/5=2,38=5/2;
 7//1,2,3,16;
 1/14=-1,18=20,19=15,26=3/3(-5);
 2/9=110/2;
 6/7=2,8=2,9=2,10=2,19=2,28=1/1;
 99/9=1/99;
 Leave Link    1 at Fri Aug 27 21:17:01 2021, MaxMem= 17179869184 cpu:         6.3
 (Enter /public3/home/sc51754/softwares/g09e01/l101.exe)
 ---------------------
 4HY_M06L_PC2_OPT_FREQ
 ---------------------
 Symbolic Z-matrix:
 Charge =  0 Multiplicity = 1
 C                     1.15223   1.15341  -0.00011 
 C                    -0.24145   1.18944   0.00003 
 C                    -0.93443  -0.02499   0.00004 
 C                    -0.19715  -1.21307  -0.00009 
 C                     1.19102  -1.12281   0.00022 
 N                     1.87822   0.02956   0.00002 
 H                     1.71189   2.08718  -0.0001 
 H                    -0.77027   2.13945  -0.00002 
 H                    -0.70664  -2.17013  -0.00044 
 H                     1.78719  -2.03343  -0.00024 
 O                    -2.29029  -0.1124   -0.00001 
 H                    -2.6687    0.77737   0.00031 
 
 NAtoms=     12 NQM=       12 NQMF=       0 NMMI=      0 NMMIF=      0
                NMic=       0 NMicF=      0.
                    Isotopes and Nuclear Properties:
 (Nuclear quadrupole moments (NQMom) in fm**2, nuclear magnetic moments (NMagM)
  in nuclear magnetons)

  Atom         1           2           3           4           5           6           7           8           9          10
 IAtWgt=          12          12          12          12          12          14           1           1           1           1
 AtmWgt=  12.0000000  12.0000000  12.0000000  12.0000000  12.0000000  14.0030740   1.0078250   1.0078250   1.0078250   1.0078250
 NucSpn=           0           0           0           0           0           2           1           1           1           1
 AtZEff=   0.0000000   0.0000000   0.0000000   0.0000000   0.0000000   0.0000000   0.0000000   0.0000000   0.0000000   0.0000000
 NQMom=    0.0000000   0.0000000   0.0000000   0.0000000   0.0000000   2.0440000   0.0000000   0.0000000   0.0000000   0.0000000
 NMagM=    0.0000000   0.0000000   0.0000000   0.0000000   0.0000000   0.4037610   2.7928460   2.7928460   2.7928460   2.7928460
 AtZNuc=   6.0000000   6.0000000   6.0000000   6.0000000   6.0000000   7.0000000   1.0000000   1.0000000   1.0000000   1.0000000

  Atom        11          12
 IAtWgt=          16           1
 AtmWgt=  15.9949146   1.0078250
 NucSpn=           0           1
 AtZEff=   0.0000000   0.0000000
 NQMom=    0.0000000   0.0000000
 NMagM=    0.0000000   2.7928460
 AtZNuc=   8.0000000   1.0000000
 Leave Link  101 at Fri Aug 27 21:17:01 2021, MaxMem= 17179869184 cpu:         7.0
 (Enter /public3/home/sc51754/softwares/g09e01/l103.exe)

 GradGradGradGradGradGradGradGradGradGradGradGradGradGradGradGradGradGrad
 Berny optimization.
 Initialization pass.
                           ----------------------------
                           !    Initial Parameters    !
                           ! (Angstroms and Degrees)  !
 --------------------------                            --------------------------
 ! Name  Definition              Value          Derivative Info.                !
 --------------------------------------------------------------------------------
 ! R1    R(1,2)                  1.3941         estimate D2E/DX2                !
 ! R2    R(1,6)                  1.3379         estimate D2E/DX2                !
 ! R3    R(1,7)                  1.0886         estimate D2E/DX2                !
 ! R4    R(2,3)                  1.3982         estimate D2E/DX2                !
 ! R5    R(2,8)                  1.0873         estimate D2E/DX2                !
 ! R6    R(3,4)                  1.3983         estimate D2E/DX2                !
 ! R7    R(3,11)                 1.3587         estimate D2E/DX2                !
 ! R8    R(4,5)                  1.3911         estimate D2E/DX2                !
 ! R9    R(4,9)                  1.0842         estimate D2E/DX2                !
 ! R10   R(5,6)                  1.3417         estimate D2E/DX2                !
 ! R11   R(5,10)                 1.0884         estimate D2E/DX2                !
 ! R12   R(11,12)                0.9669         estimate D2E/DX2                !
 ! A1    A(2,1,6)              124.3426         estimate D2E/DX2                !
 ! A2    A(2,1,7)              119.4556         estimate D2E/DX2                !
 ! A3    A(6,1,7)              116.2018         estimate D2E/DX2                !
 ! A4    A(1,2,3)              118.2292         estimate D2E/DX2                !
 ! A5    A(1,2,8)              120.5831         estimate D2E/DX2                !
 ! A6    A(3,2,8)              121.1877         estimate D2E/DX2                !
 ! A7    A(2,3,4)              118.4682         estimate D2E/DX2                !
 ! A8    A(2,3,11)             123.3985         estimate D2E/DX2                !
 ! A9    A(4,3,11)             118.1333         estimate D2E/DX2                !
 ! A10   A(3,4,5)              118.1015         estimate D2E/DX2                !
 ! A11   A(3,4,9)              120.1493         estimate D2E/DX2                !
 ! A12   A(5,4,9)              121.7493         estimate D2E/DX2                !
 ! A13   A(4,5,6)              124.5296         estimate D2E/DX2                !
 ! A14   A(4,5,10)             119.4914         estimate D2E/DX2                !
 ! A15   A(6,5,10)             115.9789         estimate D2E/DX2                !
 ! A16   A(1,6,5)              116.3289         estimate D2E/DX2                !
 ! A17   A(3,11,12)            109.3507         estimate D2E/DX2                !
 ! D1    D(6,1,2,3)             -0.0135         estimate D2E/DX2                !
 ! D2    D(6,1,2,8)            179.9955         estimate D2E/DX2                !
 ! D3    D(7,1,2,3)           -179.9987         estimate D2E/DX2                !
 ! D4    D(7,1,2,8)              0.0102         estimate D2E/DX2                !
 ! D5    D(2,1,6,5)              0.0039         estimate D2E/DX2                !
 ! D6    D(7,1,6,5)            179.9896         estimate D2E/DX2                !
 ! D7    D(1,2,3,4)              0.0007         estimate D2E/DX2                !
 ! D8    D(1,2,3,11)          -179.9909         estimate D2E/DX2                !
 ! D9    D(8,2,3,4)            179.9917         estimate D2E/DX2                !
 ! D10   D(8,2,3,11)             0.0001         estimate D2E/DX2                !
 ! D11   D(2,3,4,5)              0.0198         estimate D2E/DX2                !
 ! D12   D(2,3,4,9)           -179.978          estimate D2E/DX2                !
 ! D13   D(11,3,4,5)          -179.9882         estimate D2E/DX2                !
 ! D14   D(11,3,4,9)             0.014          estimate D2E/DX2                !
 ! D15   D(2,3,11,12)           -0.0225         estimate D2E/DX2                !
 ! D16   D(4,3,11,12)          179.9859         estimate D2E/DX2                !
 ! D17   D(3,4,5,6)             -0.0313         estimate D2E/DX2                !
 ! D18   D(3,4,5,10)          -179.9777         estimate D2E/DX2                !
 ! D19   D(9,4,5,6)            179.9664         estimate D2E/DX2                !
 ! D20   D(9,4,5,10)             0.0201         estimate D2E/DX2                !
 ! D21   D(4,5,6,1)              0.0192         estimate D2E/DX2                !
 ! D22   D(10,5,6,1)           179.9673         estimate D2E/DX2                !
 --------------------------------------------------------------------------------
 Trust Radius=3.00D-01 FncErr=1.00D-07 GrdErr=1.00D-06
 Number of steps in this run=     61 maximum allowed number of steps=    100.
 GradGradGradGradGradGradGradGradGradGradGradGradGradGradGradGradGradGrad

 Leave Link  103 at Fri Aug 27 21:17:01 2021, MaxMem= 17179869184 cpu:         0.1
 (Enter /public3/home/sc51754/softwares/g09e01/l202.exe)
                          Input orientation:                          
 ---------------------------------------------------------------------
 Center     Atomic      Atomic             Coordinates (Angstroms)
 Number     Number       Type             X           Y           Z
 ---------------------------------------------------------------------
      1          6           0        1.152230    1.153409   -0.000114
      2          6           0       -0.241450    1.189435    0.000028
      3          6           0       -0.934425   -0.024989    0.000035
      4          6           0       -0.197153   -1.213074   -0.000085
      5          6           0        1.191022   -1.122808    0.000218
      6          7           0        1.878221    0.029557    0.000015
      7          1           0        1.711886    2.087182   -0.000101
      8          1           0       -0.770273    2.139452   -0.000016
      9          1           0       -0.706644   -2.170125   -0.000442
     10          1           0        1.787188   -2.033434   -0.000236
     11          8           0       -2.290294   -0.112398   -0.000014
     12          1           0       -2.668700    0.777372    0.000305
 ---------------------------------------------------------------------
                    Distance matrix (angstroms):
                    1          2          3          4          5
     1  C    0.000000
     2  C    1.394146   0.000000
     3  C    2.396404   1.398227   0.000000
     4  C    2.724165   2.402917   1.398255   0.000000
     5  C    2.276548   2.720008   2.392223   1.391107   0.000000
     6  N    1.337949   2.416262   2.813175   2.418948   1.341711
     7  H    1.088645   2.149761   3.385887   3.812626   3.251974
     8  H    2.160625   1.087284   2.170657   3.401161   3.806444
     9  H    3.808056   3.391615   2.157196   1.084218   2.167489
    10  H    3.249483   3.808183   3.382459   2.147231   1.088418
    11  O    3.667866   2.427454   1.358684   2.364895   3.624981
    12  H    3.839389   2.461979   1.910888   3.173393   4.302109
                    6          7          8          9         10
     6  N    0.000000
     7  H    2.064337   0.000000
     8  H    3.386174   2.482709   0.000000
     9  H    3.394131   4.896320   4.310047   0.000000
    10  H    2.064999   4.121304   4.894240   2.497575   0.000000
    11  O    4.170931   4.566793   2.716853   2.596572   4.507354
    12  H    4.608006   4.572213   2.336512   3.540820   5.268355
                   11         12
    11  O    0.000000
    12  H    0.966893   0.000000
 Stoichiometry    C5H5NO
 Framework group  C1[X(C5H5NO)]
 Deg. of freedom    30
 Full point group                 C1      NOp   1
 Largest Abelian subgroup         C1      NOp   1
 Largest concise Abelian subgroup C1      NOp   1
                         Standard orientation:                         
 ---------------------------------------------------------------------
 Center     Atomic      Atomic             Coordinates (Angstroms)
 Number     Number       Type             X           Y           Z
 ---------------------------------------------------------------------
      1          6           0       -1.152230    1.153409    0.000114
      2          6           0        0.241450    1.189435   -0.000028
      3          6           0        0.934425   -0.024989   -0.000035
      4          6           0        0.197153   -1.213074    0.000085
      5          6           0       -1.191022   -1.122808   -0.000218
      6          7           0       -1.878221    0.029557   -0.000015
      7          1           0       -1.711887    2.087182    0.000101
      8          1           0        0.770272    2.139452    0.000016
      9          1           0        0.706644   -2.170125    0.000442
     10          1           0       -1.787188   -2.033434    0.000236
     11          8           0        2.290294   -0.112397    0.000014
     12          1           0        2.668700    0.777373   -0.000305
 ---------------------------------------------------------------------
 Rotational constants (GHZ):      5.9862655      2.6268417      1.8257026
 Leave Link  202 at Fri Aug 27 21:17:01 2021, MaxMem= 17179869184 cpu:         5.8
 (Enter /public3/home/sc51754/softwares/g09e01/l301.exe)
 General basis read from cards:  (5D, 7F)
 Centers:       7      8      9     10     12
 S 4 1.00
     Exponent=  7.5423000000D+01 Coefficients=  2.4065000000D-03
     Exponent=  1.1350000000D+01 Coefficients=  1.8487000000D-02
     Exponent=  2.5993000000D+00 Coefficients=  8.9742000000D-02
     Exponent=  7.3513000000D-01 Coefficients=  2.8111000000D-01
 S 1 1.00
     Exponent=  2.3167000000D-01 Coefficients=  1.0000000000D+00
 S 1 1.00
     Exponent=  7.4147000000D-02 Coefficients=  1.0000000000D+00
 P 1 1.00
     Exponent=  1.6000000000D+00 Coefficients=  1.0000000000D+00
 P 1 1.00
     Exponent=  4.5000000000D-01 Coefficients=  1.0000000000D+00
 D 1 1.00
     Exponent=  1.2500000000D+00 Coefficients=  1.0000000000D+00
 ****
 Centers:       1      2      3      4      5
 S 7 1.00
     Exponent=  7.8571000000D+03 Coefficients=  5.6825000000D-04
     Exponent=  1.1787000000D+03 Coefficients=  4.3915000000D-03
     Exponent=  2.6832000000D+02 Coefficients=  2.2504000000D-02
     Exponent=  7.5948000000D+01 Coefficients=  8.6653000000D-02
     Exponent=  2.4559000000D+01 Coefficients=  2.4405000000D-01
     Exponent=  8.6212000000D+00 Coefficients=  4.4148000000D-01
     Exponent=  3.1278000000D+00 Coefficients=  3.5332000000D-01
 S 7 1.00
     Exponent=  1.1787000000D+03 Coefficients= -5.9492000000D-07
     Exponent=  2.6832000000D+02 Coefficients= -6.2748000000D-05
     Exponent=  7.5948000000D+01 Coefficients= -7.5773000000D-04
     Exponent=  2.4559000000D+01 Coefficients= -7.3308000000D-03
     Exponent=  8.6212000000D+00 Coefficients= -3.8932000000D-02
     Exponent=  3.1278000000D+00 Coefficients= -8.8908000000D-02
     Exponent=  8.2202000000D-01 Coefficients=  2.1689000000D-01
 S 1 1.00
     Exponent=  3.3017000000D-01 Coefficients=  1.0000000000D+00
 S 1 1.00
     Exponent=  1.1463000000D-01 Coefficients=  1.0000000000D+00
 P 4 1.00
     Exponent=  3.3775000000D+01 Coefficients=  6.0294000000D-03
     Exponent=  7.6766000000D+00 Coefficients=  4.3228000000D-02
     Exponent=  2.2357000000D+00 Coefficients=  1.6301000000D-01
     Exponent=  7.6447000000D-01 Coefficients=  3.6504000000D-01
 P 1 1.00
     Exponent=  2.6232000000D-01 Coefficients=  1.0000000000D+00
 P 1 1.00
     Exponent=  8.4638000000D-02 Coefficients=  1.0000000000D+00
 D 1 1.00
     Exponent=  1.4000000000D+00 Coefficients=  1.0000000000D+00
 D 1 1.00
     Exponent=  4.5000000000D-01 Coefficients=  1.0000000000D+00
 F 1 1.00
     Exponent=  9.5000000000D-01 Coefficients=  1.0000000000D+00
 ****
 Centers:       6
 S 7 1.00
     Exponent=  1.1101000000D+04 Coefficients=  5.4570000000D-04
     Exponent=  1.6653000000D+03 Coefficients=  4.2181000000D-03
     Exponent=  3.7908000000D+02 Coefficients=  2.1645000000D-02
     Exponent=  1.0730000000D+02 Coefficients=  8.3776000000D-02
     Exponent=  3.4747000000D+01 Coefficients=  2.3881000000D-01
     Exponent=  1.2249000000D+01 Coefficients=  4.3994000000D-01
     Exponent=  4.4743000000D+00 Coefficients=  3.6364000000D-01
 S 7 1.00
     Exponent=  1.6653000000D+03 Coefficients= -1.5006000000D-06
     Exponent=  3.7908000000D+02 Coefficients= -5.8753000000D-05
     Exponent=  1.0730000000D+02 Coefficients= -7.7453000000D-04
     Exponent=  3.4747000000D+01 Coefficients= -7.2161000000D-03
     Exponent=  1.2249000000D+01 Coefficients= -3.9338000000D-02
     Exponent=  4.4743000000D+00 Coefficients= -9.0611000000D-02
     Exponent=  1.2404000000D+00 Coefficients=  1.9882000000D-01
 S 1 1.00
     Exponent=  4.8743000000D-01 Coefficients=  1.0000000000D+00
 S 1 1.00
     Exponent=  1.6484000000D-01 Coefficients=  1.0000000000D+00
 P 4 1.00
     Exponent=  4.7934000000D+01 Coefficients=  6.1706000000D-03
     Exponent=  1.0999000000D+01 Coefficients=  4.4260000000D-02
     Exponent=  3.2472000000D+00 Coefficients=  1.6825000000D-01
     Exponent=  1.1114000000D+00 Coefficients=  3.6848000000D-01
 P 1 1.00
     Exponent=  3.7988000000D-01 Coefficients=  1.0000000000D+00
 P 1 1.00
     Exponent=  1.2068000000D-01 Coefficients=  1.0000000000D+00
 D 1 1.00
     Exponent=  1.8000000000D+00 Coefficients=  1.0000000000D+00
 D 1 1.00
     Exponent=  5.5000000000D-01 Coefficients=  1.0000000000D+00
 F 1 1.00
     Exponent=  1.0200000000D+00 Coefficients=  1.0000000000D+00
 ****
 Centers:      11
 S 7 1.00
     Exponent=  1.4782000000D+04 Coefficients=  5.3519000000D-04
     Exponent=  2.2173000000D+03 Coefficients=  4.1375000000D-03
     Exponent=  5.0474000000D+02 Coefficients=  2.1245000000D-02
     Exponent=  1.4287000000D+02 Coefficients=  8.2453000000D-02
     Exponent=  4.6300000000D+01 Coefficients=  2.3671000000D-01
     Exponent=  1.6337000000D+01 Coefficients=  4.4039000000D-01
     Exponent=  5.9828000000D+00 Coefficients=  3.6465000000D-01
 S 7 1.00
     Exponent=  2.2173000000D+03 Coefficients= -1.9275000000D-06
     Exponent=  5.0474000000D+02 Coefficients= -5.7964000000D-05
     Exponent=  1.4287000000D+02 Coefficients= -7.9494000000D-04
     Exponent=  4.6300000000D+01 Coefficients= -7.3125000000D-03
     Exponent=  1.6337000000D+01 Coefficients= -4.0574000000D-02
     Exponent=  5.9828000000D+00 Coefficients= -9.1594000000D-02
     Exponent=  1.6718000000D+00 Coefficients=  2.0940000000D-01
 S 1 1.00
     Exponent=  6.4662000000D-01 Coefficients=  1.0000000000D+00
 S 1 1.00
     Exponent=  2.1669000000D-01 Coefficients=  1.0000000000D+00
 P 4 1.00
     Exponent=  6.0424000000D+01 Coefficients=  6.8949000000D-03
     Exponent=  1.3935000000D+01 Coefficients=  4.9005000000D-02
     Exponent=  4.1531000000D+00 Coefficients=  1.8255000000D-01
     Exponent=  1.4158000000D+00 Coefficients=  3.7633000000D-01
 P 1 1.00
     Exponent=  4.7549000000D-01 Coefficients=  1.0000000000D+00
 P 1 1.00
     Exponent=  1.4529000000D-01 Coefficients=  1.0000000000D+00
 D 1 1.00
     Exponent=  2.2000000000D+00 Coefficients=  1.0000000000D+00
 D 1 1.00
     Exponent=  6.5000000000D-01 Coefficients=  1.0000000000D+00
 F 1 1.00
     Exponent=  1.1000000000D+00 Coefficients=  1.0000000000D+00
 ****
 Ernie: Thresh=  0.10000D-02 Tol=  0.10000D-05 Strict=F.
 Ernie:  7 primitive shells out of 220 were deleted.
 There are   320 symmetry adapted cartesian basis functions of A   symmetry.
 There are   280 symmetry adapted basis functions of A   symmetry.
   280 basis functions,   475 primitive gaussians,   320 cartesian basis functions
    25 alpha electrons       25 beta electrons
       nuclear repulsion energy       273.7666329457 Hartrees.
 IExCor= 4134 DFT=T Ex+Corr=M06L ExCW=0 ScaHFX=  0.000000
 ScaDFX=  1.000000  1.000000  1.000000  1.000000 ScalE2=  1.000000  1.000000
 IRadAn=      0 IRanWt=     -1 IRanGd=            0 ICorTp=0 IEmpDi=  4
 NAtoms=   12 NActive=   12 NUniq=   12 SFac= 1.00D+00 NAtFMM=   60 NAOKFM=F Big=F
 Integral buffers will be    131072 words long.
 Raffenetti 2 integral format.
 Two-electron integral symmetry is turned on.
 Leave Link  301 at Fri Aug 27 21:17:01 2021, MaxMem= 17179869184 cpu:         1.9
 (Enter /public3/home/sc51754/softwares/g09e01/l302.exe)
 NPDir=0 NMtPBC=     1 NCelOv=     1 NCel=       1 NClECP=     1 NCelD=      1
         NCelK=      1 NCelE2=     1 NClLst=     1 CellRange=     0.0.
 One-electron integrals computed using PRISM.
 NBasis=   280 RedAO= T EigKep=  2.00D-04  NBF=   280
 NBsUse=   280 1.00D-06 EigRej= -1.00D+00 NBFU=   280
 Precomputing XC quadrature grid using
 IXCGrd= 4 IRadAn=           0 IRanWt=          -1 IRanGd=           0 AccXCQ= 0.00D+00.
 Generated NRdTot=       0 NPtTot=           0 NUsed=           0 NTot=          32
 NSgBfM=   320   320   320   320   320 MxSgAt=    12 MxSgA2=    12.
 Leave Link  302 at Fri Aug 27 21:17:02 2021, MaxMem= 17179869184 cpu:        50.2
 (Enter /public3/home/sc51754/softwares/g09e01/l303.exe)
 DipDrv:  MaxL=1.
 Leave Link  303 at Fri Aug 27 21:17:03 2021, MaxMem= 17179869184 cpu:        13.3
 (Enter /public3/home/sc51754/softwares/g09e01/l401.exe)
 ExpMin= 7.41D-02 ExpMax= 1.48D+04 ExpMxC= 5.05D+02 IAcc=2 IRadAn=         4 AccDes= 0.00D+00
 Harris functional with IExCor= 1009 and IRadAn=       4 diagonalized for initial guess.
 HarFok:  IExCor= 1009 AccDes= 0.00D+00 IRadAn=         4 IDoV= 1 UseB2=F ITyADJ=14
 ICtDFT=  3500011 ScaDFX=  1.000000  1.000000  1.000000  1.000000
 FoFCou: FMM=F IPFlag=           0 FMFlag=      100000 FMFlg1=           0
         NFxFlg=           0 DoJE=T BraDBF=F KetDBF=T FulRan=T
         wScrn=  0.000000 ICntrl=     500 IOpCl=  0 I1Cent=   200000004 NGrid=           0
         NMat0=    1 NMatS0=      1 NMatT0=    0 NMatD0=    1 NMtDS0=    0 NMtDT0=    0
 Petite list used in FoFCou.
 Harris En= -323.354402034469    
 JPrj=0 DoOrth=F DoCkMO=F.
 Leave Link  401 at Fri Aug 27 21:17:03 2021, MaxMem= 17179869184 cpu:        46.9
 (Enter /public3/home/sc51754/softwares/g09e01/l502.exe)
 Closed shell SCF:
 Using DIIS extrapolation, IDIIS=  1040.
 Integral symmetry usage will be decided dynamically.
 Keep J ints in memory in canonical form, NReq=790723944.
 IVT=      348554 IEndB=      348554 NGot= 17179869184 MDV= 16405683161
 LenX= 16405683161 LenY= 16405580320
 Requested convergence on RMS density matrix=1.00D-08 within 128 cycles.
 Requested convergence on MAX density matrix=1.00D-06.
 Requested convergence on             energy=1.00D-06.
 No special actions if energy rises.
 FoFCou: FMM=F IPFlag=           0 FMFlag=           0 FMFlg1=           0
         NFxFlg=           0 DoJE=F BraDBF=F KetDBF=F FulRan=T
         wScrn=  0.000000 ICntrl=     600 IOpCl=  0 I1Cent=           0 NGrid=           0
         NMat0=    1 NMatS0=  39340 NMatT0=    0 NMatD0=    1 NMtDS0=    0 NMtDT0=    0
 Symmetry not used in FoFCou.
 Integral accuracy reduced to 1.0D-05 until final iterations.

 Cycle   1  Pass 0  IDiag  1:
 E= -323.447322406709    
 DIIS: error= 2.93D-02 at cycle   1 NSaved=   1.
 NSaved= 1 IEnMin= 1 EnMin= -323.447322406709     IErMin= 1 ErrMin= 2.93D-02
 ErrMax= 2.93D-02  0.00D+00 EMaxC= 1.00D-01 BMatC= 1.69D-01 BMatP= 1.69D-01
 IDIUse=3 WtCom= 7.07D-01 WtEn= 2.93D-01
 Coeff-Com:  0.100D+01
 Coeff-En:   0.100D+01
 Coeff:      0.100D+01
 Gap=     0.189 Goal=   None    Shift=    0.000
 GapD=    0.189 DampG=1.000 DampE=0.500 DampFc=0.5000 IDamp=-1.
 Damping current iteration by 5.00D-01
 RMSDP=2.94D-03 MaxDP=1.19D-01              OVMax= 1.78D-01

 Cycle   2  Pass 0  IDiag  1:
 E= -323.503660617329     Delta-E=       -0.056338210620 Rises=F Damp=T
 DIIS: error= 7.86D-03 at cycle   2 NSaved=   2.
 NSaved= 2 IEnMin= 2 EnMin= -323.503660617329     IErMin= 2 ErrMin= 7.86D-03
 ErrMax= 7.86D-03  0.00D+00 EMaxC= 1.00D-01 BMatC= 1.55D-02 BMatP= 1.69D-01
 IDIUse=3 WtCom= 9.21D-01 WtEn= 7.86D-02
 Coeff-Com:  0.467D-01 0.953D+00
 Coeff-En:   0.160D+00 0.840D+00
 Coeff:      0.556D-01 0.944D+00
 Gap=     0.257 Goal=   None    Shift=    0.000
 RMSDP=9.91D-04 MaxDP=2.96D-02 DE=-5.63D-02 OVMax= 1.49D-01

 Cycle   3  Pass 0  IDiag  1:
 E= -323.573912134782     Delta-E=       -0.070251517454 Rises=F Damp=F
 DIIS: error= 6.67D-03 at cycle   3 NSaved=   3.
 NSaved= 3 IEnMin= 3 EnMin= -323.573912134782     IErMin= 3 ErrMin= 6.67D-03
 ErrMax= 6.67D-03  0.00D+00 EMaxC= 1.00D-01 BMatC= 1.08D-02 BMatP= 1.55D-02
 IDIUse=3 WtCom= 9.33D-01 WtEn= 6.67D-02
 Coeff-Com: -0.631D-01 0.454D+00 0.610D+00
 Coeff-En:   0.000D+00 0.000D+00 0.100D+01
 Coeff:     -0.589D-01 0.423D+00 0.636D+00
 Gap=     0.193 Goal=   None    Shift=    0.000
 RMSDP=5.16D-04 MaxDP=2.38D-02 DE=-7.03D-02 OVMax= 9.60D-02

 Cycle   4  Pass 0  IDiag  1:
 E= -323.574805087714     Delta-E=       -0.000892952932 Rises=F Damp=F
 DIIS: error= 7.85D-03 at cycle   4 NSaved=   4.
 NSaved= 4 IEnMin= 4 EnMin= -323.574805087714     IErMin= 3 ErrMin= 6.67D-03
 ErrMax= 7.85D-03  0.00D+00 EMaxC= 1.00D-01 BMatC= 9.11D-03 BMatP= 1.08D-02
 IDIUse=3 WtCom= 9.22D-01 WtEn= 7.85D-02
 Coeff-Com: -0.574D-01 0.174D+00 0.491D+00 0.393D+00
 Coeff-En:   0.000D+00 0.000D+00 0.482D+00 0.518D+00
 Coeff:     -0.529D-01 0.160D+00 0.490D+00 0.403D+00
 Gap=     0.184 Goal=   None    Shift=    0.000
 RMSDP=3.06D-04 MaxDP=1.23D-02 DE=-8.93D-04 OVMax= 4.95D-02

 Cycle   5  Pass 0  IDiag  1:
 E= -323.583953699423     Delta-E=       -0.009148611709 Rises=F Damp=F
 DIIS: error= 2.15D-03 at cycle   5 NSaved=   5.
 NSaved= 5 IEnMin= 5 EnMin= -323.583953699423     IErMin= 5 ErrMin= 2.15D-03
 ErrMax= 2.15D-03  0.00D+00 EMaxC= 1.00D-01 BMatC= 2.81D-04 BMatP= 9.11D-03
 IDIUse=3 WtCom= 9.79D-01 WtEn= 2.15D-02
 Coeff-Com: -0.219D-01 0.450D-01 0.197D+00 0.221D+00 0.559D+00
 Coeff-En:   0.000D+00 0.000D+00 0.000D+00 0.000D+00 0.100D+01
 Coeff:     -0.214D-01 0.440D-01 0.193D+00 0.216D+00 0.568D+00
 Gap=     0.181 Goal=   None    Shift=    0.000
 RMSDP=7.47D-05 MaxDP=2.51D-03 DE=-9.15D-03 OVMax= 1.28D-02

 Cycle   6  Pass 0  IDiag  1:
 E= -323.584199934618     Delta-E=       -0.000246235195 Rises=F Damp=F
 DIIS: error= 7.82D-04 at cycle   6 NSaved=   6.
 NSaved= 6 IEnMin= 6 EnMin= -323.584199934618     IErMin= 6 ErrMin= 7.82D-04
 ErrMax= 7.82D-04  0.00D+00 EMaxC= 1.00D-01 BMatC= 5.87D-05 BMatP= 2.81D-04
 IDIUse=3 WtCom= 9.92D-01 WtEn= 7.82D-03
 Coeff-Com: -0.998D-02 0.153D-01 0.837D-01 0.106D+00 0.374D+00 0.431D+00
 Coeff-En:   0.000D+00 0.000D+00 0.000D+00 0.000D+00 0.176D+00 0.824D+00
 Coeff:     -0.991D-02 0.152D-01 0.831D-01 0.105D+00 0.373D+00 0.434D+00
 Gap=     0.182 Goal=   None    Shift=    0.000
 RMSDP=2.43D-05 MaxDP=1.10D-03 DE=-2.46D-04 OVMax= 4.35D-03

 Cycle   7  Pass 0  IDiag  1:
 E= -323.584259762292     Delta-E=       -0.000059827674 Rises=F Damp=F
 DIIS: error= 1.20D-04 at cycle   7 NSaved=   7.
 NSaved= 7 IEnMin= 7 EnMin= -323.584259762292     IErMin= 7 ErrMin= 1.20D-04
 ErrMax= 1.20D-04  0.00D+00 EMaxC= 1.00D-01 BMatC= 2.47D-06 BMatP= 5.87D-05
 IDIUse=3 WtCom= 9.99D-01 WtEn= 1.20D-03
 Coeff-Com: -0.324D-02 0.426D-02 0.222D-01 0.311D-01 0.127D+00 0.210D+00
 Coeff-Com:  0.609D+00
 Coeff-En:   0.000D+00 0.000D+00 0.000D+00 0.000D+00 0.000D+00 0.000D+00
 Coeff-En:   0.100D+01
 Coeff:     -0.324D-02 0.425D-02 0.222D-01 0.311D-01 0.127D+00 0.210D+00
 Coeff:      0.610D+00
 Gap=     0.182 Goal=   None    Shift=    0.000
 RMSDP=7.93D-06 MaxDP=2.15D-04 DE=-5.98D-05 OVMax= 1.11D-03

 Initial convergence to 1.0D-05 achieved.  Increase integral accuracy.
 Cycle   8  Pass 1  IDiag  1:
 E= -323.584021870223     Delta-E=        0.000237892069 Rises=F Damp=F
 DIIS: error= 4.29D-04 at cycle   1 NSaved=   1.
 NSaved= 1 IEnMin= 1 EnMin= -323.584021870223     IErMin= 1 ErrMin= 4.29D-04
 ErrMax= 4.29D-04  0.00D+00 EMaxC= 1.00D-01 BMatC= 5.45D-05 BMatP= 5.45D-05
 IDIUse=3 WtCom= 9.96D-01 WtEn= 4.29D-03
 Coeff-Com:  0.100D+01
 Coeff-En:   0.100D+01
 Coeff:      0.100D+01
 Gap=     0.181 Goal=   None    Shift=    0.000
 RMSDP=7.93D-06 MaxDP=2.15D-04 DE= 2.38D-04 OVMax= 1.80D-03

 Cycle   9  Pass 1  IDiag  1:
 E= -323.584039131964     Delta-E=       -0.000017261742 Rises=F Damp=F
 DIIS: error= 2.44D-04 at cycle   2 NSaved=   2.
 NSaved= 2 IEnMin= 2 EnMin= -323.584039131964     IErMin= 2 ErrMin= 2.44D-04
 ErrMax= 2.44D-04  0.00D+00 EMaxC= 1.00D-01 BMatC= 9.28D-06 BMatP= 5.45D-05
 IDIUse=3 WtCom= 9.98D-01 WtEn= 2.44D-03
 Coeff-Com:  0.205D+00 0.795D+00
 Coeff-En:   0.000D+00 0.100D+01
 Coeff:      0.204D+00 0.796D+00
 Gap=     0.181 Goal=   None    Shift=    0.000
 RMSDP=2.01D-05 MaxDP=8.93D-04 DE=-1.73D-05 OVMax= 3.24D-03

 Cycle  10  Pass 1  IDiag  1:
 E= -323.584028965580     Delta-E=        0.000010166385 Rises=F Damp=F
 DIIS: error= 3.49D-04 at cycle   3 NSaved=   3.
 NSaved= 3 IEnMin= 2 EnMin= -323.584039131964     IErMin= 2 ErrMin= 2.44D-04
 ErrMax= 3.49D-04  0.00D+00 EMaxC= 1.00D-01 BMatC= 1.72D-05 BMatP= 9.28D-06
 IDIUse=3 WtCom= 3.49D-01 WtEn= 6.51D-01
 Coeff-Com:  0.311D-01 0.571D+00 0.398D+00
 Coeff-En:   0.000D+00 0.638D+00 0.362D+00
 Coeff:      0.109D-01 0.615D+00 0.375D+00
 Gap=     0.181 Goal=   None    Shift=    0.000
 RMSDP=1.19D-05 MaxDP=4.51D-04 DE= 1.02D-05 OVMax= 2.03D-03

 Cycle  11  Pass 1  IDiag  1:
 E= -323.584048149786     Delta-E=       -0.000019184206 Rises=F Damp=F
 DIIS: error= 5.18D-05 at cycle   4 NSaved=   4.
 NSaved= 4 IEnMin= 4 EnMin= -323.584048149786     IErMin= 4 ErrMin= 5.18D-05
 ErrMax= 5.18D-05  0.00D+00 EMaxC= 1.00D-01 BMatC= 4.37D-07 BMatP= 9.28D-06
 IDIUse=1 WtCom= 1.00D+00 WtEn= 0.00D+00
 Coeff-Com: -0.208D-02 0.268D+00 0.166D+00 0.568D+00
 Coeff:     -0.208D-02 0.268D+00 0.166D+00 0.568D+00
 Gap=     0.181 Goal=   None    Shift=    0.000
 RMSDP=2.39D-06 MaxDP=9.39D-05 DE=-1.92D-05 OVMax= 2.39D-04

 Cycle  12  Pass 1  IDiag  1:
 E= -323.584048498590     Delta-E=       -0.000000348804 Rises=F Damp=F
 DIIS: error= 1.74D-05 at cycle   5 NSaved=   5.
 NSaved= 5 IEnMin= 5 EnMin= -323.584048498590     IErMin= 5 ErrMin= 1.74D-05
 ErrMax= 1.74D-05  0.00D+00 EMaxC= 1.00D-01 BMatC= 6.17D-08 BMatP= 4.37D-07
 IDIUse=1 WtCom= 1.00D+00 WtEn= 0.00D+00
 Coeff-Com: -0.492D-02 0.627D-01 0.323D-01 0.305D+00 0.605D+00
 Coeff:     -0.492D-02 0.627D-01 0.323D-01 0.305D+00 0.605D+00
 Gap=     0.181 Goal=   None    Shift=    0.000
 RMSDP=8.58D-07 MaxDP=3.97D-05 DE=-3.49D-07 OVMax= 1.19D-04

 Cycle  13  Pass 1  IDiag  1:
 E= -323.584048554089     Delta-E=       -0.000000055499 Rises=F Damp=F
 DIIS: error= 5.65D-06 at cycle   6 NSaved=   6.
 NSaved= 6 IEnMin= 6 EnMin= -323.584048554089     IErMin= 6 ErrMin= 5.65D-06
 ErrMax= 5.65D-06  0.00D+00 EMaxC= 1.00D-01 BMatC= 7.16D-09 BMatP= 6.17D-08
 IDIUse=1 WtCom= 1.00D+00 WtEn= 0.00D+00
 Coeff-Com: -0.265D-02 0.206D-01 0.871D-02 0.143D+00 0.354D+00 0.476D+00
 Coeff:     -0.265D-02 0.206D-01 0.871D-02 0.143D+00 0.354D+00 0.476D+00
 Gap=     0.181 Goal=   None    Shift=    0.000
 RMSDP=3.14D-07 MaxDP=1.43D-05 DE=-5.55D-08 OVMax= 5.32D-05

 Cycle  14  Pass 1  IDiag  1:
 E= -323.584048559352     Delta-E=       -0.000000005263 Rises=F Damp=F
 DIIS: error= 3.04D-06 at cycle   7 NSaved=   7.
 NSaved= 7 IEnMin= 7 EnMin= -323.584048559352     IErMin= 7 ErrMin= 3.04D-06
 ErrMax= 3.04D-06  0.00D+00 EMaxC= 1.00D-01 BMatC= 1.38D-09 BMatP= 7.16D-09
 IDIUse=1 WtCom= 1.00D+00 WtEn= 0.00D+00
 Coeff-Com: -0.756D-03 0.188D-03-0.120D-02 0.293D-01 0.110D+00 0.320D+00
 Coeff-Com:  0.543D+00
 Coeff:     -0.756D-03 0.188D-03-0.120D-02 0.293D-01 0.110D+00 0.320D+00
 Coeff:      0.543D+00
 Gap=     0.181 Goal=   None    Shift=    0.000
 RMSDP=1.73D-07 MaxDP=5.99D-06 DE=-5.26D-09 OVMax= 2.35D-05

 Cycle  15  Pass 1  IDiag  1:
 E= -323.584048560389     Delta-E=       -0.000000001037 Rises=F Damp=F
 DIIS: error= 2.13D-06 at cycle   8 NSaved=   8.
 NSaved= 8 IEnMin= 8 EnMin= -323.584048560389     IErMin= 8 ErrMin= 2.13D-06
 ErrMax= 2.13D-06  0.00D+00 EMaxC= 1.00D-01 BMatC= 3.89D-10 BMatP= 1.38D-09
 IDIUse=1 WtCom= 1.00D+00 WtEn= 0.00D+00
 Coeff-Com: -0.450D-04-0.398D-02-0.269D-02-0.608D-02 0.158D-01 0.151D+00
 Coeff-Com:  0.400D+00 0.446D+00
 Coeff:     -0.450D-04-0.398D-02-0.269D-02-0.608D-02 0.158D-01 0.151D+00
 Coeff:      0.400D+00 0.446D+00
 Gap=     0.181 Goal=   None    Shift=    0.000
 RMSDP=6.04D-08 MaxDP=2.54D-06 DE=-1.04D-09 OVMax= 1.02D-05

 Cycle  16  Pass 1  IDiag  1:
 E= -323.584048560780     Delta-E=       -0.000000000391 Rises=F Damp=F
 DIIS: error= 2.30D-07 at cycle   9 NSaved=   9.
 NSaved= 9 IEnMin= 9 EnMin= -323.584048560780     IErMin= 9 ErrMin= 2.30D-07
 ErrMax= 2.30D-07  0.00D+00 EMaxC= 1.00D-01 BMatC= 5.76D-12 BMatP= 3.89D-10
 IDIUse=1 WtCom= 1.00D+00 WtEn= 0.00D+00
 Coeff-Com:  0.630D-04-0.140D-02-0.806D-03-0.525D-02-0.530D-02 0.197D-01
 Coeff-Com:  0.752D-01 0.147D+00 0.771D+00
 Coeff:      0.630D-04-0.140D-02-0.806D-03-0.525D-02-0.530D-02 0.197D-01
 Coeff:      0.752D-01 0.147D+00 0.771D+00
 Gap=     0.181 Goal=   None    Shift=    0.000
 RMSDP=1.61D-08 MaxDP=5.21D-07 DE=-3.91D-10 OVMax= 1.36D-06

 Cycle  17  Pass 1  IDiag  1:
 E= -323.584048560783     Delta-E=       -0.000000000003 Rises=F Damp=F
 DIIS: error= 9.41D-08 at cycle  10 NSaved=  10.
 NSaved=10 IEnMin=10 EnMin= -323.584048560783     IErMin=10 ErrMin= 9.41D-08
 ErrMax= 9.41D-08  0.00D+00 EMaxC= 1.00D-01 BMatC= 2.34D-12 BMatP= 5.76D-12
 IDIUse=1 WtCom= 1.00D+00 WtEn= 0.00D+00
 Coeff-Com:  0.421D-04-0.499D-03-0.259D-03-0.252D-02-0.420D-02-0.290D-03
 Coeff-Com:  0.113D-01 0.497D-01 0.466D+00 0.481D+00
 Coeff:      0.421D-04-0.499D-03-0.259D-03-0.252D-02-0.420D-02-0.290D-03
 Coeff:      0.113D-01 0.497D-01 0.466D+00 0.481D+00
 Gap=     0.181 Goal=   None    Shift=    0.000
 RMSDP=5.74D-09 MaxDP=2.20D-07 DE=-3.07D-12 OVMax= 5.52D-07

 SCF Done:  E(RM06L) =  -323.584048561     A.U. after   17 cycles
            NFock= 17  Conv=0.57D-08     -V/T= 2.0042
 KE= 3.222277018796D+02 PE=-1.302661384890D+03 EE= 3.830830015043D+02
 Leave Link  502 at Fri Aug 27 21:17:17 2021, MaxMem= 17179869184 cpu:       277.4
 (Enter /public3/home/sc51754/softwares/g09e01/l601.exe)
 Copying SCF densities to generalized density rwf, IOpCl= 0 IROHF=0.

 **********************************************************************

            Population analysis using the SCF density.

 **********************************************************************

 Orbital symmetries:
       Occupied  (A) (A) (A) (A) (A) (A) (A) (A) (A) (A) (A) (A)
                 (A) (A) (A) (A) (A) (A) (A) (A) (A) (A) (A) (A)
                 (A)
       Virtual   (A) (A) (A) (A) (A) (A) (A) (A) (A) (A) (A) (A)
                 (A) (A) (A) (A) (A) (A) (A) (A) (A) (A) (A) (A)
                 (A) (A) (A) (A) (A) (A) (A) (A) (A) (A) (A) (A)
                 (A) (A) (A) (A) (A) (A) (A) (A) (A) (A) (A) (A)
                 (A) (A) (A) (A) (A) (A) (A) (A) (A) (A) (A) (A)
                 (A) (A) (A) (A) (A) (A) (A) (A) (A) (A) (A) (A)
                 (A) (A) (A) (A) (A) (A) (A) (A) (A) (A) (A) (A)
                 (A) (A) (A) (A) (A) (A) (A) (A) (A) (A) (A) (A)
                 (A) (A) (A) (A) (A) (A) (A) (A) (A) (A) (A) (A)
                 (A) (A) (A) (A) (A) (A) (A) (A) (A) (A) (A) (A)
                 (A) (A) (A) (A) (A) (A) (A) (A) (A) (A) (A) (A)
                 (A) (A) (A) (A) (A) (A) (A) (A) (A) (A) (A) (A)
                 (A) (A) (A) (A) (A) (A) (A) (A) (A) (A) (A) (A)
                 (A) (A) (A) (A) (A) (A) (A) (A) (A) (A) (A) (A)
                 (A) (A) (A) (A) (A) (A) (A) (A) (A) (A) (A) (A)
                 (A) (A) (A) (A) (A) (A) (A) (A) (A) (A) (A) (A)
                 (A) (A) (A) (A) (A) (A) (A) (A) (A) (A) (A) (A)
                 (A) (A) (A) (A) (A) (A) (A) (A) (A) (A) (A) (A)
                 (A) (A) (A) (A) (A) (A) (A) (A) (A) (A) (A) (A)
                 (A) (A) (A) (A) (A) (A) (A) (A) (A) (A) (A) (A)
                 (A) (A) (A) (A) (A) (A) (A) (A) (A) (A) (A) (A)
                 (A) (A) (A)
 The electronic state is 1-A.
 Alpha  occ. eigenvalues --  -19.01276 -14.15945 -10.13153 -10.08523 -10.08324
 Alpha  occ. eigenvalues --  -10.06073 -10.05521  -1.05370  -0.89885  -0.76296
 Alpha  occ. eigenvalues --   -0.72757  -0.61156  -0.59230  -0.52547  -0.46793
 Alpha  occ. eigenvalues --   -0.44630  -0.41531  -0.39559  -0.39416  -0.37206
 Alpha  occ. eigenvalues --   -0.34145  -0.32129  -0.24571  -0.23313  -0.22430
 Alpha virt. eigenvalues --   -0.04293  -0.03820   0.01082   0.04320   0.05254
 Alpha virt. eigenvalues --    0.08349   0.08598   0.10666   0.13179   0.14297
 Alpha virt. eigenvalues --    0.18676   0.19269   0.19399   0.21709   0.22401
 Alpha virt. eigenvalues --    0.22800   0.23672   0.24489   0.24734   0.26518
 Alpha virt. eigenvalues --    0.26836   0.29096   0.29603   0.30464   0.30559
 Alpha virt. eigenvalues --    0.31684   0.33832   0.34929   0.35837   0.37444
 Alpha virt. eigenvalues --    0.38981   0.42909   0.43892   0.46257   0.46725
 Alpha virt. eigenvalues --    0.48794   0.50909   0.53850   0.54229   0.57686
 Alpha virt. eigenvalues --    0.58449   0.59724   0.62564   0.63121   0.64614
 Alpha virt. eigenvalues --    0.67903   0.68629   0.73082   0.74596   0.80465
 Alpha virt. eigenvalues --    0.82332   0.83479   0.85238   0.87151   0.89568
 Alpha virt. eigenvalues --    0.93307   0.95422   0.96269   0.97244   1.01464
 Alpha virt. eigenvalues --    1.03552   1.06080   1.11172   1.11545   1.12495
 Alpha virt. eigenvalues --    1.14354   1.15240   1.16173   1.16532   1.18914
 Alpha virt. eigenvalues --    1.24957   1.26353   1.30186   1.31057   1.32045
 Alpha virt. eigenvalues --    1.33368   1.36128   1.42282   1.44667   1.46356
 Alpha virt. eigenvalues --    1.46705   1.48452   1.49090   1.55365   1.59270
 Alpha virt. eigenvalues --    1.60155   1.60919   1.62215   1.65840   1.68751
 Alpha virt. eigenvalues --    1.68859   1.70180   1.74034   1.74420   1.76642
 Alpha virt. eigenvalues --    1.81019   1.81104   1.84009   1.86782   1.87339
 Alpha virt. eigenvalues --    1.87362   1.94179   1.97965   2.00645   2.01803
 Alpha virt. eigenvalues --    2.06653   2.12474   2.12519   2.15482   2.16930
 Alpha virt. eigenvalues --    2.22769   2.23927   2.26138   2.30477   2.32681
 Alpha virt. eigenvalues --    2.42083   2.43250   2.55890   2.57353   2.76294
 Alpha virt. eigenvalues --    2.92919   2.96137   2.96768   3.03671   3.14980
 Alpha virt. eigenvalues --    3.18767   3.22292   3.25865   3.28231   3.28926
 Alpha virt. eigenvalues --    3.36631   3.36905   3.37374   3.41381   3.44876
 Alpha virt. eigenvalues --    3.47865   3.49116   3.55082   3.58280   3.62079
 Alpha virt. eigenvalues --    3.63340   3.65640   3.66825   3.68439   3.73708
 Alpha virt. eigenvalues --    3.76968   3.79396   3.82413   3.83623   3.88501
 Alpha virt. eigenvalues --    3.90542   3.91637   3.96835   3.98573   4.04465
 Alpha virt. eigenvalues --    4.08218   4.11498   4.12170   4.15860   4.17213
 Alpha virt. eigenvalues --    4.18608   4.18646   4.22038   4.22621   4.26740
 Alpha virt. eigenvalues --    4.27520   4.27623   4.30892   4.31258   4.35041
 Alpha virt. eigenvalues --    4.36194   4.36868   4.37698   4.38084   4.40460
 Alpha virt. eigenvalues --    4.41888   4.42777   4.44459   4.48947   4.50343
 Alpha virt. eigenvalues --    4.53025   4.53199   4.54507   4.55559   4.58804
 Alpha virt. eigenvalues --    4.60148   4.60617   4.61088   4.65069   4.66539
 Alpha virt. eigenvalues --    4.68113   4.70861   4.75915   4.76875   4.83040
 Alpha virt. eigenvalues --    4.88352   4.90602   4.90977   4.94078   4.99687
 Alpha virt. eigenvalues --    5.03223   5.04376   5.06787   5.10522   5.11933
 Alpha virt. eigenvalues --    5.18451   5.20538   5.21538   5.26955   5.27406
 Alpha virt. eigenvalues --    5.33654   5.35001   5.42237   5.42716   5.43526
 Alpha virt. eigenvalues --    5.44707   5.45709   5.47926   5.50083   5.58438
 Alpha virt. eigenvalues --    5.58943   5.64134   5.64178   5.66820   5.71348
 Alpha virt. eigenvalues --    5.75400   5.82121   5.82137   5.88456   5.89967
 Alpha virt. eigenvalues --    5.90382   6.04592   6.11163   6.20198   6.23217
 Alpha virt. eigenvalues --    6.23594   6.28999   6.35467   6.40650   6.45934
 Alpha virt. eigenvalues --    6.55122   6.61884   6.62017   6.70027   6.75382
 Alpha virt. eigenvalues --    6.97994   7.19687   7.47839   9.18207  12.35263
 Alpha virt. eigenvalues --   12.48045  15.64577  17.40835  18.68892  22.22126
          Condensed to atoms (all electrons):
               1          2          3          4          5          6
     1  C    4.635367   0.393537  -0.017850  -0.068895  -0.089177   0.401712
     2  C    0.393537   5.016454   0.447515   0.028223  -0.078822   0.013770
     3  C   -0.017850   0.447515   4.582099   0.438327  -0.010728  -0.035046
     4  C   -0.068895   0.028223   0.438327   4.975957   0.385684   0.018125
     5  C   -0.089177  -0.078822  -0.010728   0.385684   4.677243   0.382958
     6  N    0.401712   0.013770  -0.035046   0.018125   0.382958   6.860611
     7  H    0.483999  -0.090966   0.008068  -0.004740   0.003196  -0.061665
     8  H   -0.037373   0.460976  -0.073755   0.002395   0.001130   0.007917
     9  H   -0.000430   0.005730  -0.065297   0.479230  -0.057098   0.008232
    10  H    0.002956  -0.006280   0.011954  -0.097471   0.490963  -0.062627
    11  O    0.005811  -0.050854   0.216352  -0.059634   0.004494  -0.000473
    12  H    0.000237  -0.000376  -0.024026   0.003477  -0.000221   0.000275
               7          8          9         10         11         12
     1  C    0.483999  -0.037373  -0.000430   0.002956   0.005811   0.000237
     2  C   -0.090966   0.460976   0.005730  -0.006280  -0.050854  -0.000376
     3  C    0.008068  -0.073755  -0.065297   0.011954   0.216352  -0.024026
     4  C   -0.004740   0.002395   0.479230  -0.097471  -0.059634   0.003477
     5  C    0.003196   0.001130  -0.057098   0.490963   0.004494  -0.000221
     6  N   -0.061665   0.007917   0.008232  -0.062627  -0.000473   0.000275
     7  H    0.678190  -0.015238   0.000244  -0.000776  -0.000348  -0.000129
     8  H   -0.015238   0.702691  -0.000676   0.000253  -0.004212   0.007280
     9  H    0.000244  -0.000676   0.669935  -0.016899   0.002980  -0.000957
    10  H   -0.000776   0.000253  -0.016899   0.673347  -0.000208   0.000097
    11  O   -0.000348  -0.004212   0.002980  -0.000208   8.045504   0.338061
    12  H   -0.000129   0.007280  -0.000957   0.000097   0.338061   0.436779
 Mulliken charges:
               1
     1  C    0.290107
     2  C   -0.138907
     3  C    0.522388
     4  C   -0.100677
     5  C    0.290377
     6  N   -0.533788
     7  H    0.000163
     8  H   -0.051387
     9  H   -0.024994
    10  H    0.004690
    11  O   -0.497475
    12  H    0.239503
 Sum of Mulliken charges =  -0.00000
 Mulliken charges with hydrogens summed into heavy atoms:
               1
     1  C    0.290270
     2  C   -0.190294
     3  C    0.522388
     4  C   -0.125671
     5  C    0.295067
     6  N   -0.533788
    11  O   -0.257971
 Electronic spatial extent (au):  <R**2>=            640.6184
 Charge=             -0.0000 electrons
 Dipole moment (field-independent basis, Debye):
    X=              2.4886    Y=              1.2466    Z=             -0.0001  Tot=              2.7834
 Quadrupole moment (field-independent basis, Debye-Ang):
   XX=            -43.0752   YY=            -33.6244   ZZ=            -42.1243
   XY=              4.3646   XZ=             -0.0017   YZ=             -0.0016
 Traceless Quadrupole moment (field-independent basis, Debye-Ang):
   XX=             -3.4672   YY=              5.9836   ZZ=             -2.5163
   XY=              4.3646   XZ=             -0.0017   YZ=             -0.0016
 Octapole moment (field-independent basis, Debye-Ang**2):
  XXX=             33.6098  YYY=              0.3182  ZZZ=              0.0004  XYY=              2.3999
  XXY=             11.7450  XXZ=             -0.0034  XZZ=              3.3381  YZZ=             -0.0014
  YYZ=              0.0031  XYZ=             -0.0015
 Hexadecapole moment (field-independent basis, Debye-Ang**3):
 XXXX=           -513.8216 YYYY=           -255.5825 ZZZZ=            -43.0115 XXXY=             37.0761
 XXXZ=             -0.0150 YYYX=              2.6370 YYYZ=             -0.0083 ZZZX=             -0.0012
 ZZZY=             -0.0016 XXYY=           -106.9421 XXZZ=            -93.0319 YYZZ=            -59.1459
 XXYZ=             -0.0063 YYXZ=             -0.0020 ZZXY=              0.4611
 N-N= 2.737666329457D+02 E-N=-1.302661380532D+03  KE= 3.222277018796D+02
 No NMR shielding tensors so no spin-rotation constants.
 Leave Link  601 at Fri Aug 27 21:17:18 2021, MaxMem= 17179869184 cpu:        47.0
 (Enter /public3/home/sc51754/softwares/g09e01/l701.exe)
 Compute integral first derivatives.
 ... and contract with generalized density number  0.
 Leave Link  701 at Fri Aug 27 21:17:19 2021, MaxMem= 17179869184 cpu:        78.7
 (Enter /public3/home/sc51754/softwares/g09e01/l702.exe)
 L702 exits ... SP integral derivatives will be done elsewhere.
 Leave Link  702 at Fri Aug 27 21:17:19 2021, MaxMem= 17179869184 cpu:         0.2
 (Enter /public3/home/sc51754/softwares/g09e01/l703.exe)
 Compute integral first derivatives, UseDBF=F ICtDFT=           0.
 Integral derivatives from FoFJK, PRISM(SPDF).
 Calling FoFJK, ICntrl=      2527 FMM=F ISym2X=0 I1Cent= 0 IOpClX= 0 NMat=1 NMatS=1 NMatT=0.
 FoFJK:  IHMeth= 1 ICntrl=    2527 DoSepK=F KAlg= 0 I1Cent=   0 FoldK=F
 IRaf=         0 NMat=   1 IRICut=       1 DoRegI=T DoRafI=F ISym2E= 0.
 FoFCou: FMM=F IPFlag=           0 FMFlag=      100000 FMFlg1=         800
         NFxFlg=           0 DoJE=F BraDBF=F KetDBF=F FulRan=T
         wScrn=  0.000000 ICntrl=    2527 IOpCl=  0 I1Cent=           0 NGrid=           0
         NMat0=    1 NMatS0=      1 NMatT0=    0 NMatD0=    1 NMtDS0=    0 NMtDT0=    0
 Symmetry not used in FoFCou.
 Leave Link  703 at Fri Aug 27 21:17:22 2021, MaxMem= 17179869184 cpu:       124.9
 (Enter /public3/home/sc51754/softwares/g09e01/l716.exe)
 Dipole        = 9.79097866D-01 4.90451759D-01-2.46023401D-05
 ***** Axes restored to original set *****
 -------------------------------------------------------------------
 Center     Atomic                   Forces (Hartrees/Bohr)
 Number     Number              X              Y              Z
 -------------------------------------------------------------------
      1        6          -0.003569239   -0.005194979    0.000034473
      2        6           0.002967702   -0.003853801   -0.000006207
      3        6           0.002851443    0.000227066   -0.000009742
      4        6           0.002392517    0.004450693    0.000021499
      5        6          -0.003980785    0.004973816   -0.000094400
      6        7          -0.007423086   -0.000197560    0.000019180
      7        1          -0.001580098   -0.003060629   -0.000010268
      8        1           0.001391689   -0.003521104    0.000001740
      9        1           0.001776153    0.003134997    0.000013080
     10        1          -0.001857243    0.003078096    0.000031061
     11        8           0.002816366    0.007119925    0.000006649
     12        1           0.004214581   -0.007156522   -0.000007066
 -------------------------------------------------------------------
 Cartesian Forces:  Max     0.007423086 RMS     0.003216927
 Leave Link  716 at Fri Aug 27 21:17:22 2021, MaxMem= 17179869184 cpu:         0.4
 (Enter /public3/home/sc51754/softwares/g09e01/l103.exe)

 GradGradGradGradGradGradGradGradGradGradGradGradGradGradGradGradGradGrad
 Berny optimization.
 FormGI is forming the generalized inverse of G from B-inverse, IUseBI=4.
 Internal  Forces:  Max     0.009300474 RMS     0.003611228
 Search for a local minimum.
 Step number   1 out of a maximum of   61
 All quantities printed in internal units (Hartrees-Bohrs-Radians)
 RMS Force = .36112D-02 SwitMx=.10000D-02 MixMth= 1
 Mixed Optimization -- RFO/linear search
 Second derivative matrix not updated -- first step.
 ITU=  0
     Eigenvalues ---    0.02120   0.02139   0.02144   0.02163   0.02209
     Eigenvalues ---    0.02238   0.02269   0.02294   0.02415   0.16000
     Eigenvalues ---    0.16000   0.16000   0.16000   0.16000   0.22000
     Eigenvalues ---    0.22826   0.23882   0.25000   0.34970   0.34996
     Eigenvalues ---    0.35128   0.35490   0.42425   0.43849   0.46118
     Eigenvalues ---    0.46897   0.53214   0.54017   0.55021   0.56489
 RFO step:  Lambda=-1.39648761D-03 EMin= 2.11976327D-02
 Linear search not attempted -- first point.
 Iteration  1 RMS(Cart)=  0.01387500 RMS(Int)=  0.00002804
 Iteration  2 RMS(Cart)=  0.00003530 RMS(Int)=  0.00000082
 Iteration  3 RMS(Cart)=  0.00000000 RMS(Int)=  0.00000082
 ITry= 1 IFail=0 DXMaxC= 5.41D-02 DCOld= 1.00D+10 DXMaxT= 3.00D-01 DXLimC= 3.00D+00 Rises=F
 Variable       Old X    -DE/DX   Delta X   Delta X   Delta X     New X
                                 (Linear)    (Quad)   (Total)
    R1        2.63455  -0.00907   0.00000  -0.01938  -0.01938   2.61517
    R2        2.52836  -0.00865   0.00000  -0.01511  -0.01511   2.51324
    R3        2.05724  -0.00344   0.00000  -0.00978  -0.00978   2.04746
    R4        2.64227  -0.00916   0.00000  -0.01969  -0.01969   2.62257
    R5        2.05467  -0.00375   0.00000  -0.01064  -0.01064   2.04403
    R6        2.64232  -0.00924   0.00000  -0.01989  -0.01989   2.62243
    R7        2.56754  -0.00701   0.00000  -0.01314  -0.01314   2.55440
    R8        2.62881  -0.00930   0.00000  -0.01971  -0.01971   2.60910
    R9        2.04887  -0.00360   0.00000  -0.01012  -0.01012   2.03876
   R10        2.53547  -0.00863   0.00000  -0.01532  -0.01532   2.52014
   R11        2.05681  -0.00359   0.00000  -0.01023  -0.01023   2.04658
   R12        1.82716  -0.00825   0.00000  -0.01523  -0.01523   1.81193
    A1        2.17019   0.00070   0.00000   0.00279   0.00279   2.17298
    A2        2.08489  -0.00014   0.00000  -0.00010  -0.00010   2.08479
    A3        2.02810  -0.00056   0.00000  -0.00269  -0.00269   2.02542
    A4        2.06349  -0.00032   0.00000  -0.00100  -0.00099   2.06249
    A5        2.10457   0.00068   0.00000   0.00374   0.00374   2.10831
    A6        2.11512  -0.00036   0.00000  -0.00274  -0.00274   2.11238
    A7        2.06766   0.00022   0.00000   0.00159   0.00160   2.06926
    A8        2.15371  -0.00042   0.00000  -0.00204  -0.00204   2.15167
    A9        2.06181   0.00020   0.00000   0.00044   0.00044   2.06226
   A10        2.06126  -0.00046   0.00000  -0.00177  -0.00177   2.05949
   A11        2.09700   0.00034   0.00000   0.00157   0.00157   2.09857
   A12        2.12493   0.00012   0.00000   0.00020   0.00020   2.12513
   A13        2.17345   0.00096   0.00000   0.00386   0.00386   2.17731
   A14        2.08552  -0.00033   0.00000  -0.00099  -0.00099   2.08453
   A15        2.02421  -0.00063   0.00000  -0.00287  -0.00287   2.02134
   A16        2.03032  -0.00110   0.00000  -0.00548  -0.00548   2.02484
   A17        1.90853  -0.00195   0.00000  -0.01209  -0.01209   1.89644
    D1       -0.00024   0.00001   0.00000   0.00039   0.00039   0.00015
    D2        3.14151   0.00000   0.00000   0.00019   0.00019  -3.14149
    D3       -3.14157  -0.00000   0.00000  -0.00008  -0.00008   3.14154
    D4        0.00018  -0.00001   0.00000  -0.00028  -0.00028  -0.00010
    D5        0.00007  -0.00000   0.00000  -0.00006  -0.00006   0.00001
    D6        3.14141   0.00001   0.00000   0.00040   0.00039  -3.14138
    D7        0.00001  -0.00000   0.00000  -0.00012  -0.00012  -0.00010
    D8       -3.14143  -0.00001   0.00000  -0.00027  -0.00027   3.14148
    D9        3.14145   0.00000   0.00000   0.00009   0.00009   3.14154
   D10        0.00000  -0.00000   0.00000  -0.00006  -0.00006  -0.00006
   D11        0.00034  -0.00001   0.00000  -0.00044  -0.00044  -0.00009
   D12       -3.14121  -0.00001   0.00000  -0.00045  -0.00045   3.14153
   D13       -3.14139  -0.00001   0.00000  -0.00029  -0.00029   3.14151
   D14        0.00024  -0.00001   0.00000  -0.00030  -0.00030  -0.00006
   D15       -0.00039   0.00001   0.00000   0.00024   0.00024  -0.00015
   D16        3.14135   0.00000   0.00000   0.00009   0.00009   3.14143
   D17       -0.00055   0.00002   0.00000   0.00082   0.00082   0.00027
   D18       -3.14120  -0.00002   0.00000  -0.00067  -0.00067   3.14131
   D19        3.14101   0.00002   0.00000   0.00083   0.00083  -3.14135
   D20        0.00035  -0.00002   0.00000  -0.00066  -0.00066  -0.00031
   D21        0.00034  -0.00001   0.00000  -0.00057  -0.00057  -0.00023
   D22        3.14102   0.00002   0.00000   0.00088   0.00088  -3.14129
         Item               Value     Threshold  Converged?
 Maximum Force            0.009300     0.000450     NO 
 RMS     Force            0.003611     0.000300     NO 
 Maximum Displacement     0.054061     0.001800     NO 
 RMS     Displacement     0.013865     0.001200     NO 
 Predicted change in Energy=-7.003965D-04
 Lowest energy point so far.  Saving SCF results.
 GradGradGradGradGradGradGradGradGradGradGradGradGradGradGradGradGradGrad

 Leave Link  103 at Fri Aug 27 21:17:23 2021, MaxMem= 17179869184 cpu:        41.4
 (Enter /public3/home/sc51754/softwares/g09e01/l202.exe)
                          Input orientation:                          
 ---------------------------------------------------------------------
 Center     Atomic      Atomic             Coordinates (Angstroms)
 Number     Number       Type             X           Y           Z
 ---------------------------------------------------------------------
      1          6           0        1.142581    1.145174    0.000064
      2          6           0       -0.240847    1.180862   -0.000010
      3          6           0       -0.927394   -0.025230   -0.000045
      4          6           0       -0.196319   -1.204772   -0.000130
      5          6           0        1.181337   -1.113500   -0.000287
      6          7           0        1.867404    0.030095   -0.000063
      7          1           0        1.699433    2.074592    0.000039
      8          1           0       -0.770512    2.123960    0.000003
      9          1           0       -0.702321   -2.157615   -0.000098
     10          1           0        1.774750   -2.019458   -0.000092
     11          8           0       -2.276411   -0.110857    0.000005
     12          1           0       -2.640092    0.776329    0.000206
 ---------------------------------------------------------------------
                    Distance matrix (angstroms):
                    1          2          3          4          5
     1  C    0.000000
     2  C    1.383888   0.000000
     3  C    2.377950   1.387806   0.000000
     4  C    2.704607   2.386050   1.387729   0.000000
     5  C    2.259007   2.699390   2.372990   1.380676   0.000000
     6  N    1.329951   2.401872   2.795346   2.404963   1.333603
     7  H    1.083467   2.136221   3.362956   3.787889   3.229916
     8  H    2.148941   1.081655   2.154908   3.377892   3.780326
     9  H    3.783131   3.370221   2.144231   1.078864   2.153682
    10  H    3.227156   3.782153   3.358352   2.132797   1.083004
    11  O    3.642406   2.410821   1.351732   2.350199   3.600183
    12  H    3.800614   2.433110   1.890987   3.145917   4.263189
                    6          7          8          9         10
     6  N    0.000000
     7  H    2.051386   0.000000
     8  H    3.367918   2.470438   0.000000
     9  H    3.374842   4.866210   4.282118   0.000000
    10  H    2.051646   4.094743   4.862743   2.480921   0.000000
    11  O    4.146212   4.536907   2.694835   2.582050   4.478244
    12  H    4.568850   4.529566   2.304656   3.516104   5.225635
                   11         12
    11  O    0.000000
    12  H    0.958834   0.000000
 Stoichiometry    C5H5NO
 Framework group  C1[X(C5H5NO)]
 Deg. of freedom    30
 Full point group                 C1      NOp   1
 RotChk:  IX=2 Diff= 1.57D-04
 Largest Abelian subgroup         C1      NOp   1
 Largest concise Abelian subgroup C1      NOp   1
                         Standard orientation:                         
 ---------------------------------------------------------------------
 Center     Atomic      Atomic             Coordinates (Angstroms)
 Number     Number       Type             X           Y           Z
 ---------------------------------------------------------------------
      1          6           0       -1.142896    1.144964   -0.000120
      2          6           0        0.240536    1.180499   -0.000046
      3          6           0        0.926950   -0.025669   -0.000011
      4          6           0        0.195744   -1.205130    0.000074
      5          6           0       -1.181902   -1.113706    0.000231
      6          7           0       -1.867842    0.029965    0.000007
      7          1           0       -1.699645    2.074443   -0.000094
      8          1           0        0.770305    2.123538   -0.000059
      9          1           0        0.701641   -2.158029    0.000042
     10          1           0       -1.775414   -2.019598    0.000036
     11          8           0        2.275958   -0.111445   -0.000061
     12          1           0        2.639737    0.775701   -0.000261
 ---------------------------------------------------------------------
 Rotational constants (GHZ):      6.0724223      2.6618979      1.8506498
 Leave Link  202 at Fri Aug 27 21:17:23 2021, MaxMem= 17179869184 cpu:         5.0
 (Enter /public3/home/sc51754/softwares/g09e01/l301.exe)
 Basis read from rwf:  (5D, 7F)
 No pseudopotential information found on rwf file.
 There are   320 symmetry adapted cartesian basis functions of A   symmetry.
 There are   280 symmetry adapted basis functions of A   symmetry.
   280 basis functions,   475 primitive gaussians,   320 cartesian basis functions
    25 alpha electrons       25 beta electrons
       nuclear repulsion energy       275.6195863413 Hartrees.
 IExCor= 4134 DFT=T Ex+Corr=M06L ExCW=0 ScaHFX=  0.000000
 ScaDFX=  1.000000  1.000000  1.000000  1.000000 ScalE2=  1.000000  1.000000
 IRadAn=      0 IRanWt=     -1 IRanGd=            0 ICorTp=0 IEmpDi=  4
 NAtoms=   12 NActive=   12 NUniq=   12 SFac= 1.00D+00 NAtFMM=   60 NAOKFM=F Big=F
 Integral buffers will be    131072 words long.
 Raffenetti 2 integral format.
 Two-electron integral symmetry is turned on.
 No density basis found on file   724.
 Leave Link  301 at Fri Aug 27 21:17:23 2021, MaxMem= 17179869184 cpu:         0.9
 (Enter /public3/home/sc51754/softwares/g09e01/l302.exe)
 NPDir=0 NMtPBC=     1 NCelOv=     1 NCel=       1 NClECP=     1 NCelD=      1
         NCelK=      1 NCelE2=     1 NClLst=     1 CellRange=     0.0.
 One-electron integrals computed using PRISM.
 NBasis=   280 RedAO= T EigKep=  1.91D-04  NBF=   280
 NBsUse=   280 1.00D-06 EigRej= -1.00D+00 NBFU=   280
 Precomputing XC quadrature grid using
 IXCGrd= 4 IRadAn=           0 IRanWt=          -1 IRanGd=           0 AccXCQ= 0.00D+00.
 Generated NRdTot=       0 NPtTot=           0 NUsed=           0 NTot=          32
 NSgBfM=   320   320   320   320   320 MxSgAt=    12 MxSgA2=    12.
 Leave Link  302 at Fri Aug 27 21:17:24 2021, MaxMem= 17179869184 cpu:        37.3
 (Enter /public3/home/sc51754/softwares/g09e01/l303.exe)
 DipDrv:  MaxL=1.
 Leave Link  303 at Fri Aug 27 21:17:24 2021, MaxMem= 17179869184 cpu:         8.3
 (Enter /public3/home/sc51754/softwares/g09e01/l401.exe)
 Initial guess from the checkpoint file:  "4HY_M06L_PC2_OPT_FREQ.chk"
 B after Tr=    -0.000000    0.000000    0.000000
         Rot=    1.000000    0.000038   -0.000013    0.000085 Ang=   0.01 deg.
 Guess basis will be translated and rotated to current coordinates.
 JPrj=2 DoOrth=T DoCkMO=T.
 Generating alternative initial guess.
 ExpMin= 7.41D-02 ExpMax= 1.48D+04 ExpMxC= 5.05D+02 IAcc=2 IRadAn=         4 AccDes= 0.00D+00
 Harris functional with IExCor= 1009 and IRadAn=       4 diagonalized for initial guess.
 HarFok:  IExCor= 1009 AccDes= 0.00D+00 IRadAn=         4 IDoV= 1 UseB2=F ITyADJ=14
 ICtDFT=  3500011 ScaDFX=  1.000000  1.000000  1.000000  1.000000
 FoFCou: FMM=F IPFlag=           0 FMFlag=      100000 FMFlg1=           0
         NFxFlg=           0 DoJE=T BraDBF=F KetDBF=T FulRan=T
         wScrn=  0.000000 ICntrl=     500 IOpCl=  0 I1Cent=   200000004 NGrid=           0
         NMat0=    1 NMatS0=      1 NMatT0=    0 NMatD0=    1 NMtDS0=    0 NMtDT0=    0
 Petite list used in FoFCou.
 Harris En= -323.360208291297    
 Leave Link  401 at Fri Aug 27 21:17:25 2021, MaxMem= 17179869184 cpu:        76.3
 (Enter /public3/home/sc51754/softwares/g09e01/l502.exe)
 Closed shell SCF:
 Using DIIS extrapolation, IDIIS=  1040.
 Integral symmetry usage will be decided dynamically.
 Keep J ints in memory in canonical form, NReq=790723944.
 IVT=      348554 IEndB=      348554 NGot= 17179869184 MDV= 16405683161
 LenX= 16405683161 LenY= 16405580320
 Requested convergence on RMS density matrix=1.00D-08 within 128 cycles.
 Requested convergence on MAX density matrix=1.00D-06.
 Requested convergence on             energy=1.00D-06.
 No special actions if energy rises.
 FoFCou: FMM=F IPFlag=           0 FMFlag=           0 FMFlg1=           0
         NFxFlg=           0 DoJE=F BraDBF=F KetDBF=F FulRan=T
         wScrn=  0.000000 ICntrl=     600 IOpCl=  0 I1Cent=           0 NGrid=           0
         NMat0=    1 NMatS0=  39340 NMatT0=    0 NMatD0=    1 NMtDS0=    0 NMtDT0=    0
 Symmetry not used in FoFCou.
 Integral accuracy reduced to 1.0D-05 until final iterations.

 Cycle   1  Pass 0  IDiag  1:
 E= -323.584629209875    
 DIIS: error= 1.04D-03 at cycle   1 NSaved=   1.
 NSaved= 1 IEnMin= 1 EnMin= -323.584629209875     IErMin= 1 ErrMin= 1.04D-03
 ErrMax= 1.04D-03  0.00D+00 EMaxC= 1.00D-01 BMatC= 2.92D-04 BMatP= 2.92D-04
 IDIUse=3 WtCom= 9.90D-01 WtEn= 1.04D-02
 Coeff-Com:  0.100D+01
 Coeff-En:   0.100D+01
 Coeff:      0.100D+01
 Gap=     0.608 Goal=   None    Shift=    0.000
 GapD=    0.608 DampG=2.000 DampE=1.000 DampFc=2.0000 IDamp=-1.
 RMSDP=8.91D-05 MaxDP=1.94D-03              OVMax= 3.24D-03

 Cycle   2  Pass 0  IDiag  1:
 E= -323.584807483887     Delta-E=       -0.000178274012 Rises=F Damp=F
 DIIS: error= 5.10D-04 at cycle   2 NSaved=   2.
 NSaved= 2 IEnMin= 2 EnMin= -323.584807483887     IErMin= 2 ErrMin= 5.10D-04
 ErrMax= 5.10D-04  0.00D+00 EMaxC= 1.00D-01 BMatC= 5.51D-05 BMatP= 2.92D-04
 IDIUse=3 WtCom= 9.95D-01 WtEn= 5.10D-03
 Coeff-Com:  0.244D+00 0.756D+00
 Coeff-En:   0.000D+00 0.100D+01
 Coeff:      0.242D+00 0.758D+00
 Gap=     0.183 Goal=   None    Shift=    0.000
 RMSDP=4.01D-05 MaxDP=1.63D-03 DE=-1.78D-04 OVMax= 2.58D-03

 Cycle   3  Pass 0  IDiag  1:
 E= -323.584831657975     Delta-E=       -0.000024174088 Rises=F Damp=F
 DIIS: error= 4.18D-04 at cycle   3 NSaved=   3.
 NSaved= 3 IEnMin= 3 EnMin= -323.584831657975     IErMin= 3 ErrMin= 4.18D-04
 ErrMax= 4.18D-04  0.00D+00 EMaxC= 1.00D-01 BMatC= 2.78D-05 BMatP= 5.51D-05
 IDIUse=3 WtCom= 9.96D-01 WtEn= 4.18D-03
 Coeff-Com:  0.226D-01 0.416D+00 0.561D+00
 Coeff-En:   0.000D+00 0.355D+00 0.645D+00
 Coeff:      0.225D-01 0.416D+00 0.562D+00
 Gap=     0.184 Goal=   None    Shift=    0.000
 RMSDP=1.80D-05 MaxDP=8.04D-04 DE=-2.42D-05 OVMax= 1.29D-03

 Cycle   4  Pass 0  IDiag  1:
 E= -323.584857566157     Delta-E=       -0.000025908183 Rises=F Damp=F
 DIIS: error= 8.05D-05 at cycle   4 NSaved=   4.
 NSaved= 4 IEnMin= 4 EnMin= -323.584857566157     IErMin= 4 ErrMin= 8.05D-05
 ErrMax= 8.05D-05  0.00D+00 EMaxC= 1.00D-01 BMatC= 1.65D-06 BMatP= 2.78D-05
 IDIUse=1 WtCom= 1.00D+00 WtEn= 0.00D+00
 Coeff-Com:  0.459D-02 0.211D+00 0.325D+00 0.460D+00
 Coeff:      0.459D-02 0.211D+00 0.325D+00 0.460D+00
 Gap=     0.183 Goal=   None    Shift=    0.000
 RMSDP=4.40D-06 MaxDP=2.22D-04 DE=-2.59D-05 OVMax= 6.58D-04

 Initial convergence to 1.0D-05 achieved.  Increase integral accuracy.
 Cycle   5  Pass 1  IDiag  1:
 E= -323.584664522788     Delta-E=        0.000193043369 Rises=F Damp=F
 DIIS: error= 3.77D-04 at cycle   1 NSaved=   1.
 NSaved= 1 IEnMin= 1 EnMin= -323.584664522788     IErMin= 1 ErrMin= 3.77D-04
 ErrMax= 3.77D-04  0.00D+00 EMaxC= 1.00D-01 BMatC= 5.51D-05 BMatP= 5.51D-05
 IDIUse=3 WtCom= 9.96D-01 WtEn= 3.77D-03
 Coeff-Com:  0.100D+01
 Coeff-En:   0.100D+01
 Coeff:      0.100D+01
 Gap=     0.184 Goal=   None    Shift=    0.000
 RMSDP=4.40D-06 MaxDP=2.22D-04 DE= 1.93D-04 OVMax= 9.85D-04

 Cycle   6  Pass 1  IDiag  1:
 E= -323.584687271454     Delta-E=       -0.000022748666 Rises=F Damp=F
 DIIS: error= 1.18D-04 at cycle   2 NSaved=   2.
 NSaved= 2 IEnMin= 2 EnMin= -323.584687271454     IErMin= 2 ErrMin= 1.18D-04
 ErrMax= 1.18D-04  0.00D+00 EMaxC= 1.00D-01 BMatC= 3.52D-06 BMatP= 5.51D-05
 IDIUse=3 WtCom= 9.99D-01 WtEn= 1.18D-03
 Coeff-Com:  0.109D+00 0.891D+00
 Coeff-En:   0.000D+00 0.100D+01
 Coeff:      0.109D+00 0.891D+00
 Gap=     0.183 Goal=   None    Shift=    0.000
 RMSDP=1.01D-05 MaxDP=3.20D-04 DE=-2.27D-05 OVMax= 1.21D-03

 Cycle   7  Pass 1  IDiag  1:
 E= -323.584685744478     Delta-E=        0.000001526976 Rises=F Damp=F
 DIIS: error= 1.30D-04 at cycle   3 NSaved=   3.
 NSaved= 3 IEnMin= 2 EnMin= -323.584687271454     IErMin= 2 ErrMin= 1.18D-04
 ErrMax= 1.30D-04  0.00D+00 EMaxC= 1.00D-01 BMatC= 4.65D-06 BMatP= 3.52D-06
 IDIUse=3 WtCom= 4.68D-01 WtEn= 5.32D-01
 Coeff-Com:  0.185D-01 0.537D+00 0.445D+00
 Coeff-En:   0.000D+00 0.598D+00 0.402D+00
 Coeff:      0.864D-02 0.570D+00 0.422D+00
 Gap=     0.184 Goal=   None    Shift=    0.000
 RMSDP=6.68D-06 MaxDP=3.08D-04 DE= 1.53D-06 OVMax= 1.09D-03

 Cycle   8  Pass 1  IDiag  1:
 E= -323.584689500777     Delta-E=       -0.000003756299 Rises=F Damp=F
 DIIS: error= 5.61D-05 at cycle   4 NSaved=   4.
 NSaved= 4 IEnMin= 4 EnMin= -323.584689500777     IErMin= 4 ErrMin= 5.61D-05
 ErrMax= 5.61D-05  0.00D+00 EMaxC= 1.00D-01 BMatC= 4.93D-07 BMatP= 3.52D-06
 IDIUse=1 WtCom= 1.00D+00 WtEn= 0.00D+00
 Coeff-Com: -0.256D-02 0.251D+00 0.267D+00 0.485D+00
 Coeff:     -0.256D-02 0.251D+00 0.267D+00 0.485D+00
 Gap=     0.183 Goal=   None    Shift=    0.000
 RMSDP=3.12D-06 MaxDP=1.13D-04 DE=-3.76D-06 OVMax= 4.28D-04

 Cycle   9  Pass 1  IDiag  1:
 E= -323.584689903467     Delta-E=       -0.000000402690 Rises=F Damp=F
 DIIS: error= 2.99D-05 at cycle   5 NSaved=   5.
 NSaved= 5 IEnMin= 5 EnMin= -323.584689903467     IErMin= 5 ErrMin= 2.99D-05
 ErrMax= 2.99D-05  0.00D+00 EMaxC= 1.00D-01 BMatC= 8.36D-08 BMatP= 4.93D-07
 IDIUse=1 WtCom= 1.00D+00 WtEn= 0.00D+00
 Coeff-Com: -0.449D-02 0.580D-01 0.835D-01 0.313D+00 0.550D+00
 Coeff:     -0.449D-02 0.580D-01 0.835D-01 0.313D+00 0.550D+00
 Gap=     0.183 Goal=   None    Shift=    0.000
 RMSDP=9.76D-07 MaxDP=3.54D-05 DE=-4.03D-07 OVMax= 1.68D-04

 Cycle  10  Pass 1  IDiag  1:
 E= -323.584689990818     Delta-E=       -0.000000087351 Rises=F Damp=F
 DIIS: error= 9.31D-06 at cycle   6 NSaved=   6.
 NSaved= 6 IEnMin= 6 EnMin= -323.584689990818     IErMin= 6 ErrMin= 9.31D-06
 ErrMax= 9.31D-06  0.00D+00 EMaxC= 1.00D-01 BMatC= 5.56D-09 BMatP= 8.36D-08
 IDIUse=1 WtCom= 1.00D+00 WtEn= 0.00D+00
 Coeff-Com: -0.244D-02 0.183D-01 0.320D-01 0.148D+00 0.318D+00 0.487D+00
 Coeff:     -0.244D-02 0.183D-01 0.320D-01 0.148D+00 0.318D+00 0.487D+00
 Gap=     0.183 Goal=   None    Shift=    0.000
 RMSDP=2.45D-07 MaxDP=1.05D-05 DE=-8.74D-08 OVMax= 5.11D-05

 Cycle  11  Pass 1  IDiag  1:
 E= -323.584689996086     Delta-E=       -0.000000005268 Rises=F Damp=F
 DIIS: error= 2.18D-06 at cycle   7 NSaved=   7.
 NSaved= 7 IEnMin= 7 EnMin= -323.584689996086     IErMin= 7 ErrMin= 2.18D-06
 ErrMax= 2.18D-06  0.00D+00 EMaxC= 1.00D-01 BMatC= 5.62D-10 BMatP= 5.56D-09
 IDIUse=1 WtCom= 1.00D+00 WtEn= 0.00D+00
 Coeff-Com: -0.235D-03-0.420D-02-0.323D-02 0.462D-02 0.456D-01 0.262D+00
 Coeff-Com:  0.696D+00
 Coeff:     -0.235D-03-0.420D-02-0.323D-02 0.462D-02 0.456D-01 0.262D+00
 Coeff:      0.696D+00
 Gap=     0.183 Goal=   None    Shift=    0.000
 RMSDP=9.00D-08 MaxDP=2.70D-06 DE=-5.27D-09 OVMax= 1.02D-05

 Cycle  12  Pass 1  IDiag  1:
 E= -323.584689996608     Delta-E=       -0.000000000522 Rises=F Damp=F
 DIIS: error= 1.79D-07 at cycle   8 NSaved=   8.
 NSaved= 8 IEnMin= 8 EnMin= -323.584689996608     IErMin= 8 ErrMin= 1.79D-07
 ErrMax= 1.79D-07  0.00D+00 EMaxC= 1.00D-01 BMatC= 1.03D-11 BMatP= 5.62D-10
 IDIUse=1 WtCom= 1.00D+00 WtEn= 0.00D+00
 Coeff-Com:  0.465D-04-0.208D-02-0.257D-02-0.550D-02 0.176D-03 0.538D-01
 Coeff-Com:  0.195D+00 0.761D+00
 Coeff:      0.465D-04-0.208D-02-0.257D-02-0.550D-02 0.176D-03 0.538D-01
 Coeff:      0.195D+00 0.761D+00
 Gap=     0.183 Goal=   None    Shift=    0.000
 RMSDP=2.19D-08 MaxDP=7.92D-07 DE=-5.22D-10 OVMax= 1.76D-06

 Cycle  13  Pass 1  IDiag  1:
 E= -323.584689996620     Delta-E=       -0.000000000013 Rises=F Damp=F
 DIIS: error= 1.57D-07 at cycle   9 NSaved=   9.
 NSaved= 9 IEnMin= 9 EnMin= -323.584689996620     IErMin= 9 ErrMin= 1.57D-07
 ErrMax= 1.57D-07  0.00D+00 EMaxC= 1.00D-01 BMatC= 6.06D-12 BMatP= 1.03D-11
 IDIUse=1 WtCom= 1.00D+00 WtEn= 0.00D+00
 Coeff-Com:  0.529D-04-0.862D-03-0.125D-02-0.386D-02-0.449D-02 0.583D-02
 Coeff-Com:  0.475D-01 0.468D+00 0.489D+00
 Coeff:      0.529D-04-0.862D-03-0.125D-02-0.386D-02-0.449D-02 0.583D-02
 Coeff:      0.475D-01 0.468D+00 0.489D+00
 Gap=     0.183 Goal=   None    Shift=    0.000
 RMSDP=9.62D-09 MaxDP=4.00D-07 DE=-1.25D-11 OVMax= 1.44D-06

 SCF Done:  E(RM06L) =  -323.584689997     A.U. after   13 cycles
            NFock= 13  Conv=0.96D-08     -V/T= 2.0035
 KE= 3.224485205833D+02 PE=-1.306529583917D+03 EE= 3.848767869953D+02
 Leave Link  502 at Fri Aug 27 21:17:37 2021, MaxMem= 17179869184 cpu:       219.1
 (Enter /public3/home/sc51754/softwares/g09e01/l701.exe)
 Compute integral first derivatives.
 ... and contract with generalized density number  0.
 Leave Link  701 at Fri Aug 27 21:17:39 2021, MaxMem= 17179869184 cpu:        66.0
 (Enter /public3/home/sc51754/softwares/g09e01/l702.exe)
 L702 exits ... SP integral derivatives will be done elsewhere.
 Leave Link  702 at Fri Aug 27 21:17:39 2021, MaxMem= 17179869184 cpu:         0.3
 (Enter /public3/home/sc51754/softwares/g09e01/l703.exe)
 Compute integral first derivatives, UseDBF=F ICtDFT=           0.
 Integral derivatives from FoFJK, PRISM(SPDF).
 Calling FoFJK, ICntrl=      2527 FMM=F ISym2X=0 I1Cent= 0 IOpClX= 0 NMat=1 NMatS=1 NMatT=0.
 FoFJK:  IHMeth= 1 ICntrl=    2527 DoSepK=F KAlg= 0 I1Cent=   0 FoldK=F
 IRaf=         0 NMat=   1 IRICut=       1 DoRegI=T DoRafI=F ISym2E= 0.
 FoFCou: FMM=F IPFlag=           0 FMFlag=      100000 FMFlg1=         800
         NFxFlg=           0 DoJE=F BraDBF=F KetDBF=F FulRan=T
         wScrn=  0.000000 ICntrl=    2527 IOpCl=  0 I1Cent=           0 NGrid=           0
         NMat0=    1 NMatS0=      1 NMatT0=    0 NMatD0=    1 NMtDS0=    0 NMtDT0=    0
 Symmetry not used in FoFCou.
 Leave Link  703 at Fri Aug 27 21:17:41 2021, MaxMem= 17179869184 cpu:       142.9
 (Enter /public3/home/sc51754/softwares/g09e01/l716.exe)
 Dipole        = 9.75084646D-01 4.88330496D-01-1.43029072D-04
 ***** Axes restored to original set *****
 -------------------------------------------------------------------
 Center     Atomic                   Forces (Hartrees/Bohr)
 Number     Number              X              Y              Z
 -------------------------------------------------------------------
      1        6           0.000675688    0.000744424   -0.000023501
      2        6           0.000495179    0.000515619    0.000005836
      3        6          -0.001192481   -0.001003340   -0.000001418
      4        6           0.000415414   -0.000369167   -0.000013547
      5        6           0.000900790   -0.000677045    0.000054267
[...]
 Iteration  2 RMS(Cart)=  0.00000015 RMS(Int)=  0.00000001
 ITry= 1 IFail=0 DXMaxC= 1.65D-03 DCOld= 1.00D+10 DXMaxT= 3.00D-01 DXLimC= 3.00D+00 Rises=F
 Variable       Old X    -DE/DX   Delta X   Delta X   Delta X     New X
                                 (Linear)    (Quad)   (Total)
    R1        2.61567   0.00016   0.00000   0.00014   0.00014   2.61581
    R2        2.51376  -0.00007   0.00000  -0.00003  -0.00003   2.51374
    R3        2.04850   0.00003   0.00000   0.00007   0.00007   2.04857
    R4        2.62477   0.00020   0.00000   0.00066   0.00066   2.62543
    R5        2.04432   0.00009   0.00000   0.00029   0.00029   2.04461
    R6        2.62478  -0.00008   0.00000  -0.00018  -0.00018   2.62461
    R7        2.55520  -0.00041   0.00000  -0.00096  -0.00096   2.55423
    R8        2.60993   0.00027   0.00000   0.00070   0.00070   2.61063
    R9        2.03886   0.00011   0.00000   0.00030   0.00030   2.03915
   R10        2.52053  -0.00016   0.00000  -0.00055  -0.00055   2.51997
   R11        2.04761   0.00002   0.00000   0.00009   0.00009   2.04770
   R12        1.81117  -0.00007   0.00000  -0.00009  -0.00009   1.81107
    A1        2.17069  -0.00004   0.00000  -0.00029  -0.00029   2.17039
    A2        2.08527   0.00004   0.00000   0.00028   0.00028   2.08555
    A3        2.02723  -0.00000   0.00000   0.00002   0.00002   2.02724
    A4        2.06362   0.00003   0.00000   0.00032   0.00032   2.06394
    A5        2.10830   0.00008   0.00000   0.00073   0.00073   2.10903
    A6        2.11126  -0.00011   0.00000  -0.00105  -0.00105   2.11021
    A7        2.06829  -0.00006   0.00000  -0.00029  -0.00029   2.06800
    A8        2.15025   0.00007   0.00000   0.00006   0.00006   2.15031
    A9        2.06465  -0.00002   0.00000   0.00023   0.00023   2.06488
   A10        2.06039  -0.00004   0.00000  -0.00015  -0.00015   2.06024
   A11        2.09872   0.00003   0.00000   0.00032   0.00032   2.09905
   A12        2.12407   0.00001   0.00000  -0.00017  -0.00017   2.12390
   A13        2.17511   0.00007   0.00000   0.00028   0.00028   2.17538
   A14        2.08499  -0.00005   0.00000  -0.00039  -0.00039   2.08460
   A15        2.02309  -0.00003   0.00000   0.00011   0.00011   2.02321
   A16        2.02827   0.00003   0.00000   0.00013   0.00013   2.02841
   A17        1.90401  -0.00017   0.00000  -0.00065  -0.00065   1.90336
    D1       -0.00008   0.00000   0.00000   0.00008   0.00008  -0.00000
    D2        3.14154   0.00000   0.00000   0.00005   0.00005   3.14159
    D3       -3.14155  -0.00000   0.00000  -0.00004  -0.00004   3.14159
    D4        0.00006  -0.00000   0.00000  -0.00007  -0.00007  -0.00000
    D5        0.00002  -0.00000   0.00000  -0.00002  -0.00002   0.00000
    D6        3.14149   0.00000   0.00000   0.00010   0.00010  -3.14159
    D7        0.00005  -0.00000   0.00000  -0.00005  -0.00005   0.00000
    D8       -3.14155  -0.00000   0.00000  -0.00004  -0.00004  -3.14159
    D9       -3.14157  -0.00000   0.00000  -0.00002  -0.00002  -3.14159
   D10        0.00001  -0.00000   0.00000  -0.00001  -0.00001   0.00000
   D11        0.00004  -0.00000   0.00000  -0.00004  -0.00004   0.00000
   D12       -3.14156  -0.00000   0.00000  -0.00003  -0.00003  -3.14159
   D13       -3.14154  -0.00000   0.00000  -0.00005  -0.00005  -3.14159
   D14        0.00004  -0.00000   0.00000  -0.00004  -0.00004   0.00000
   D15       -0.00011   0.00000   0.00000   0.00010   0.00010  -0.00001
   D16        3.14147   0.00000   0.00000   0.00011   0.00011   3.14159
   D17       -0.00011   0.00000   0.00000   0.00011   0.00011  -0.00000
   D18       -3.14150  -0.00000   0.00000  -0.00010  -0.00010   3.14159
   D19        3.14149   0.00000   0.00000   0.00011   0.00011   3.14159
   D20        0.00010  -0.00000   0.00000  -0.00010  -0.00010  -0.00000
   D21        0.00008  -0.00000   0.00000  -0.00008  -0.00008  -0.00000
   D22        3.14147   0.00000   0.00000   0.00012   0.00012  -3.14159
         Item               Value     Threshold  Converged?
 Maximum Force            0.000409     0.000450     YES
 RMS     Force            0.000093     0.000300     YES
 Maximum Displacement     0.001653     0.001800     YES
 RMS     Displacement     0.000403     0.001200     YES
 Predicted change in Energy=-6.463757D-07
 Optimization completed.
    -- Stationary point found.
                           ----------------------------
                           !   Optimized Parameters   !
                           ! (Angstroms and Degrees)  !
 --------------------------                            --------------------------
 ! Name  Definition              Value          Derivative Info.                !
 --------------------------------------------------------------------------------
 ! R1    R(1,2)                  1.3842         -DE/DX =    0.0002              !
 ! R2    R(1,6)                  1.3302         -DE/DX =   -0.0001              !
 ! R3    R(1,7)                  1.084          -DE/DX =    0.0                 !
 ! R4    R(2,3)                  1.389          -DE/DX =    0.0002              !
 ! R5    R(2,8)                  1.0818         -DE/DX =    0.0001              !
 ! R6    R(3,4)                  1.389          -DE/DX =   -0.0001              !
 ! R7    R(3,11)                 1.3522         -DE/DX =   -0.0004              !
 ! R8    R(4,5)                  1.3811         -DE/DX =    0.0003              !
 ! R9    R(4,9)                  1.0789         -DE/DX =    0.0001              !
 ! R10   R(5,6)                  1.3338         -DE/DX =   -0.0002              !
 ! R11   R(5,10)                 1.0835         -DE/DX =    0.0                 !
 ! R12   R(11,12)                0.9584         -DE/DX =   -0.0001              !
 ! A1    A(2,1,6)              124.3712         -DE/DX =    0.0                 !
 ! A2    A(2,1,7)              119.4773         -DE/DX =    0.0                 !
 ! A3    A(6,1,7)              116.1515         -DE/DX =    0.0                 !
 ! A4    A(1,2,3)              118.237          -DE/DX =    0.0                 !
 ! A5    A(1,2,8)              120.7968         -DE/DX =    0.0001              !
 ! A6    A(3,2,8)              120.9663         -DE/DX =   -0.0001              !
 ! A7    A(2,3,4)              118.5041         -DE/DX =   -0.0001              !
 ! A8    A(2,3,11)             123.2001         -DE/DX =    0.0001              !
 ! A9    A(4,3,11)             118.2958         -DE/DX =    0.0                 !
 ! A10   A(3,4,5)              118.0518         -DE/DX =    0.0                 !
 ! A11   A(3,4,9)              120.248          -DE/DX =    0.0                 !
 ! A12   A(5,4,9)              121.7002         -DE/DX =    0.0                 !
 ! A13   A(4,5,6)              124.6243         -DE/DX =    0.0001              !
 ! A14   A(4,5,10)             119.4609         -DE/DX =    0.0                 !
 ! A15   A(6,5,10)             115.9148         -DE/DX =    0.0                 !
 ! A16   A(1,6,5)              116.2116         -DE/DX =    0.0                 !
 ! A17   A(3,11,12)            109.0918         -DE/DX =   -0.0002              !
 ! D1    D(6,1,2,3)             -0.0047         -DE/DX =    0.0                 !
 ! D2    D(6,1,2,8)            179.9968         -DE/DX =    0.0                 !
 ! D3    D(7,1,2,3)            180.0022         -DE/DX =    0.0                 !
 ! D4    D(7,1,2,8)              0.0037         -DE/DX =    0.0                 !
 ! D5    D(2,1,6,5)              0.0009         -DE/DX =    0.0                 !
 ! D6    D(7,1,6,5)           -180.0057         -DE/DX =    0.0                 !
 ! D7    D(1,2,3,4)              0.0028         -DE/DX =    0.0                 !
 ! D8    D(1,2,3,11)          -179.9977         -DE/DX =    0.0                 !
 ! D9    D(8,2,3,4)           -179.9987         -DE/DX =    0.0                 !
 ! D10   D(8,2,3,11)             0.0008         -DE/DX =    0.0                 !
 ! D11   D(2,3,4,5)              0.0023         -DE/DX =    0.0                 !
 ! D12   D(2,3,4,9)           -179.9981         -DE/DX =    0.0                 !
 ! D13   D(11,3,4,5)          -179.9973         -DE/DX =    0.0                 !
 ! D14   D(11,3,4,9)             0.0024         -DE/DX =    0.0                 !
 ! D15   D(2,3,11,12)           -0.0063         -DE/DX =    0.0                 !
 ! D16   D(4,3,11,12)          179.9932         -DE/DX =    0.0                 !
 ! D17   D(3,4,5,6)             -0.0064         -DE/DX =    0.0                 !
 ! D18   D(3,4,5,10)           180.0056         -DE/DX =    0.0                 !
 ! D19   D(9,4,5,6)            179.9939         -DE/DX =    0.0                 !
 ! D20   D(9,4,5,10)             0.0059         -DE/DX =    0.0                 !
 ! D21   D(4,5,6,1)              0.0048         -DE/DX =    0.0                 !
 ! D22   D(10,5,6,1)          -180.0068         -DE/DX =    0.0                 !
 --------------------------------------------------------------------------------
 GradGradGradGradGradGradGradGradGradGradGradGradGradGradGradGradGradGrad

 Leave Link  103 at Fri Aug 27 21:18:48 2021, MaxMem= 17179869184 cpu:        68.4
 (Enter /public3/home/sc51754/softwares/g09e01/l9999.exe)
 1\1\GINC-P1908\Freq\RM06L\Gen\C5H5N1O1\SC51754\27-Aug-2021\0\\#P Geom=
 AllCheck Guess=TCheck SCRF=Check GenChk RM06L/ChkBas Freq\\4HY_M06L_PC
 2_OPT_FREQ\\0,1\C,1.1436822512,1.1464022714,-0.0000584529\C,-0.2400297
 383,1.1813146194,0.0000190543\C,-0.9278328421,-0.0253990886,-0.0000277
 38\C,-0.1956242928,-1.2057063722,-0.0000899074\C,1.1825146858,-1.11509
 43598,-0.0000537087\N,1.8667308947,0.0298435408,-0.000086056\H,1.70073
 86361,2.0763413375,0.0000119323\H,-0.7702938159,2.1242488497,0.0000890
 936\H,-0.7011210774,-2.1588759987,-0.0001588962\H,1.7761848356,-2.0215
 351272,-0.0001921949\O,-2.2774374255,-0.1083646512,-0.0000057709\H,-2.
 6459041115,0.7764039788,0.0001456447\\Version=EM64L-G09RevE.01\State=1
 -A\HF=-323.5847037\RMSD=4.575e-09\RMSF=1.478e-04\ZeroPoint=0.0933174\T
 hermal=0.098624\Dipole=-0.9767356,0.4880254,0.0000959\DipoleDeriv=0.47
 53378,0.0095795,-0.0000222,-0.0211578,0.3989281,0.0000235,0.0000138,0.
 0000492,0.0017136,-0.4291359,-0.1151573,0.0000012,-0.3252009,-0.092632
 9,0.0000211,-0.0000187,-0.0000052,-0.1501272,1.643547,-0.0020861,-0.00
 0028,0.0012723,0.3257488,-0.0000178,-0.0000328,-0.0000096,0.1239175,-0
 .4285925,0.1194076,0.0000182,0.2900135,-0.0819519,0.0000132,0.0000434,
 0.0000066,-0.1400679,0.4886679,-0.0421685,-0.0000052,0.0481663,0.40286
 21,0.0000266,-0.0000517,0.0000607,-0.0017434,-0.6158266,0.0161631,0.00
 00055,-0.0176018,-0.6283418,-0.0000406,0.0000122,-0.0000013,-0.2674886
 ,0.0231937,-0.0759207,0.0000019,-0.0629552,-0.1054574,-0.0000051,-0.00
 00178,-0.0000346,0.088438,-0.0260008,0.097451,0.0000118,0.080001,-0.05
 64237,-0.0000113,0.0000165,-0.0000115,0.1373089,0.0350637,-0.0633389,-
 0.0000041,-0.0551325,-0.0361713,-0.0000069,-0.0000126,-0.0000124,0.137
 7144,0.0213415,0.0833658,0.0000034,0.0636606,-0.095701,-0.0000082,0.00
 00314,-0.0000533,0.0901418,-1.5420405,0.0171508,0.0000283,-0.0014921,-
 0.1577029,0.0000301,0.0000008,0.0000338,-0.3314849,0.3544447,-0.044446
 4,-0.0000108,0.0004266,0.126844,-0.0000245,0.0000156,-0.0000225,0.3116
 778\Polar=81.449723,-1.3587224,75.6432706,-0.0010601,0.0014165,37.1152
 844\PG=C01 [X(C5H5N1O1)]\NImag=0\\0.68947151,0.04243418,0.73066789,-0.
 00000722,0.00002585,0.16090446,-0.33344864,-0.03640390,0.00001056,0.69
 800897,0.02698205,-0.12972216,-0.00000459,-0.03570157,0.72103561,0.000
 01472,-0.00000241,-0.06348930,-0.00002447,0.00003320,0.11635727,-0.031
 11630,-0.03382563,-0.00000114,-0.15826004,-0.10821700,-0.00000214,0.70
 573084,-0.08434459,0.04496617,0.00000416,-0.03720950,-0.28956285,-0.00
 001141,-0.01300070,0.71910351,-0.00000098,0.00000343,0.00145053,-0.000
 00153,-0.00001001,-0.06715099,-0.00001271,0.00003095,0.16734488,-0.046
 68166,0.03664826,0.00000222,0.05557202,0.01666794,-0.00000173,-0.15904
 941,0.04709948,0.00000482,0.71390261,0.01758766,-0.01440137,-0.0000005
 3,-0.01242535,-0.04685862,-0.00000158,0.11289248,-0.28845621,-0.000012
 37,0.03780686,0.73494332,0.00000101,-0.00000024,-0.00679754,0.00000003
 ,-0.00000240,0.00761174,0.00000460,-0.00001129,-0.06968521,0.00000777,
 0.00003642,0.12116297,0.04676189,-0.02044692,-0.00000224,-0.04477597,-
 0.01701160,0.00000061,-0.03767751,0.07816455,0.00000177,-0.34514219,-0
 .03684671,-0.00000869,0.70381325,0.02501342,-0.10005398,-0.00000246,-0
 .03826509,-0.01640461,0.00000124,0.02933273,0.05012650,0.00000242,0.02
 663007,-0.13312097,-0.00000557,-0.04538973,0.71939377,-0.00000109,-0.0
 0000242,0.00369067,0.00000018,0.00000088,-0.00742203,0.00000256,-0.000
 00048,0.00156401,-0.00000280,-0.00000429,-0.06366119,-0.00002014,0.000
 03328,0.16215993,-0.18262526,0.11191660,0.00000503,-0.03564350,0.03239
 651,0.00000263,0.01222814,0.00297048,-0.00000050,-0.03028983,-0.035114
 84,0.00000074,-0.17416184,-0.10395682,0.00000303,0.40295549,0.09476316
 ,-0.27771113,-0.00000646,0.09022850,0.02322765,-0.00000168,0.00290412,
 -0.08562401,-0.00000313,-0.09120702,0.01984579,0.00000318,-0.08647570,
 -0.27646811,-0.00000010,-0.00925469,0.65025108,0.00000158,-0.00000411,
 -0.07021845,0.00000439,-0.00000169,0.02263672,-0.00000049,-0.00000030,
 -0.00827522,-0.00000220,-0.00000007,0.02188808,0.00000794,0.00000414,-
 0.07014134,-0.00001027,0.00000543,0.09740261,-0.14071924,-0.12567109,-
 0.00000811,-0.01166299,-0.02766266,-0.00000160,-0.00515216,0.00239367,
 0.00000055,-0.00054365,0.00098553,-0.00000001,0.00068202,0.00490719,0.
 00000015,0.01387033,0.01844132,0.00000042,0.14363154,-0.12607631,-0.24
 135006,-0.00001423,0.00166009,0.00312951,-0.00000047,0.00118437,0.0014
 6320,-0.00000053,0.00008254,0.00024938,0.00000008,0.00304398,-0.002616
 66,-0.00000103,-0.00599471,-0.03415920,-0.00000068,0.12772125,0.273742
 90,-0.00000961,-0.00001792,-0.04269084,0.00000136,0.00000158,0.0066403
 2,0.00000097,-0.00000022,0.00833845,0.00000090,-0.00000048,-0.00116475
 ,-0.00000121,-0.00000101,0.01036715,-0.00000121,0.00000110,-0.00359020
 ,0.00000878,0.00001635,0.02722988,-0.00674446,0.03148569,0.00000122,-0
 .12281164,0.11631185,0.00001145,0.00748375,-0.01451537,-0.00000099,-0.
 00036172,-0.00360756,0.00000005,-0.00172973,-0.00223100,0.00000006,-0.
 00716710,0.00030309,0.00000068,0.00081883,-0.00042235,-0.00000028,0.12
 572325,-0.00162445,0.00243069,0.00000049,0.11601993,-0.27005617,-0.000
 01744,0.01953842,-0.01888423,-0.00000148,-0.00472415,-0.00350968,-0.00
 000057,-0.00141852,0.00020490,-0.00000002,-0.00015390,0.00269492,-0.00
 000043,0.00042161,0.00053163,0.00000013,-0.12795814,0.28542550,0.00000
 065,-0.00000178,-0.00059945,0.00001038,-0.00001687,-0.03078969,0.00000
 092,-0.00000064,0.00294766,-0.00000009,-0.00000049,0.00616969,0.000000
 17,0.00000039,-0.00057381,0.00000025,-0.00000011,0.00861086,0.,0.00000
 034,-0.00336319,-0.00001194,0.00001879,0.02234059,-0.00171988,0.002124
 66,0.,-0.00123547,0.00336776,0.,0.01113039,0.01587318,0.00000094,-0.11
 902982,-0.11781998,-0.00001073,-0.00581679,-0.03034674,-0.00000112,-0.
 00665157,-0.00066800,-0.00000015,0.00012363,-0.00031562,0.00000006,0.0
 0047520,0.00109829,-0.00000003,0.11994353,0.00140329,0.00028728,-0.000
 00008,0.00440364,-0.00309610,-0.00000074,-0.01735478,-0.01907554,-0.00
 000118,-0.11556317,-0.28324278,-0.00001840,0.00161481,0.00244060,0.000
 00048,0.00011657,0.00261312,-0.00000062,-0.00008194,-0.00002794,0.0000
 0012,-0.00085519,-0.00099566,0.,0.12787395,0.29782148,-0.00000009,0.00
 000035,-0.00054640,0.00000028,-0.00000059,0.00632171,-0.00000098,-0.00
 000072,0.00402263,-0.00000938,-0.00001895,-0.03279653,-0.00000070,-0.0
 0000084,-0.00041290,0.00000062,0.00000006,0.00886763,0.00000002,0.0000
 0005,-0.00163010,0.,-0.00000002,0.00020650,0.00001085,0.00001977,0.023
 55797,0.00106724,-0.00487020,0.00000062,-0.00058940,-0.00103852,-0.000
 00003,-0.00497234,-0.00240877,0.00000016,-0.01242885,0.02702606,0.0000
 0329,-0.15077298,0.12881649,0.00001761,0.01403346,-0.01671793,-0.00000
 188,0.00035807,-0.00061063,0.00000007,0.00010937,0.00008616,-0.0000001
 2,0.00092457,-0.00043350,-0.00000032,0.15400190,-0.00289019,-0.0031085
 4,-0.00000072,-0.00016252,0.00030048,0.00000009,-0.00145186,0.00121109
 ,-0.00000076,-0.00237744,0.00420412,-0.00000060,0.12923062,-0.23115038
 ,-0.00002529,0.00794080,-0.03409449,-0.00000177,0.00065987,-0.00101918
 ,0.00000003,0.00033483,-0.00003610,0.00000007,0.00042057,0.00050268,0.
 00000050,-0.13188388,0.26295171,0.00000167,-0.00000026,0.01002112,-0.0
 0000052,-0.00000055,-0.00108166,-0.00000061,-0.00000055,0.00866867,-0.
 00000176,0.00000078,0.00674400,0.00002130,-0.00003109,-0.04357153,-0.0
 0000020,0.00000249,-0.00327272,-0.00000007,0.00000010,0.00055427,-0.00
 000009,0.00000011,-0.00155004,0.00000020,0.00000025,-0.00355572,-0.000
 01955,0.00002840,0.02773835,0.00700775,-0.00430288,-0.00000071,-0.0491
 8629,-0.00685586,0.00000096,-0.31321507,-0.04501115,0.00000092,-0.0485
 7455,0.01318964,0.00000187,0.00846538,0.00242685,0.00000147,-0.0073796
 0,-0.00076716,-0.00000018,-0.00177768,-0.00031278,0.00000017,0.0044172
 4,0.00042674,-0.00000032,0.00172986,-0.00093712,-0.00000033,-0.0011348
 6,0.00036939,-0.00000021,0.50189575,0.00650810,-0.01030460,-0.00000156
 ,-0.04597646,0.00340286,0.00000059,0.01092448,-0.11589552,-0.00000824,
 0.05012934,0.00776700,-0.00000042,-0.00455956,-0.01178594,-0.00000079,
 -0.00079447,0.00900828,0.00000018,-0.00192319,0.00010810,0.00000032,-0
 .00070084,0.00314576,0.00000058,-0.00134517,0.00240329,0.00000035,0.00
 195060,0.00017606,0.00000026,-0.14006498,0.56535490,-0.00000062,-0.000
 00020,0.00888953,0.00000017,0.00000033,0.01184029,0.00001106,-0.000008
 42,-0.04664096,0.00000266,0.00000158,0.00700584,0.00000142,-0.00000046
 ,0.00602668,-0.00000023,-0.00000095,-0.00371748,-0.00000007,0.00000002
 ,-0.00082181,-0.00000043,0.00000035,-0.00356864,-0.00000003,0.00000031
 ,-0.00350770,0.00000019,0.,-0.00019668,-0.00003739,0.00008410,0.030845
 47,-0.00125295,0.00091123,-0.00000023,0.00403294,0.00076111,-0.0000004
 1,-0.02713031,0.04998871,0.00000753,-0.00737295,-0.00367381,0.00000005
 ,0.00035445,0.00306263,0.00000009,0.00083129,-0.00154972,0.00000016,0.
 00037130,0.00004018,0.,-0.00021300,-0.00171199,0.00000010,0.00012635,-
 0.00018657,0.00000003,-0.00059620,-0.00019019,-0.00000015,-0.10224792,
 0.12585217,0.00002325,0.13309699,0.00024368,-0.00170018,0.00000014,-0.
 00616776,0.00460441,0.00000061,-0.00292664,0.00062790,0.00000089,-0.00
 119271,0.00258001,-0.00000017,0.00009477,-0.00056512,-0.00000022,-0.00
 007153,0.00041610,-0.00000008,-0.00019157,-0.00005167,0.,0.00185499,-0
 .00095155,-0.00000029,-0.00026289,0.00036956,0.00000005,0.00008412,0.0
 0006255,0.00000006,0.18183931,-0.45338019,-0.00007668,-0.17330376,0.44
 798816,-0.00000003,-0.00000029,-0.00061434,-0.00000082,0.00000071,-0.0
 0147438,-0.00000205,-0.00000109,-0.00258445,-0.00000042,-0.00000002,0.
 00352290,-0.00000023,-0.00000003,0.00197436,0.00000011,0.00000016,-0.0
 0019050,-0.00000007,0.,0.00013082,0.00000026,0.00000009,0.00016950,0.,
 0.00000007,-0.00052709,-0.00000007,0.00000004,-0.00049806,0.00003376,-
 0.00007538,-0.00615455,-0.00003044,0.00007572,0.00624578\\-0.00018852,
 0.00006328,-0.00001274,-0.00015441,-0.00007920,0.00000339,0.00054859,0
 .00010087,-0.00000222,0.00027858,-0.00008083,-0.00000367,-0.00031090,-
 0.00025062,0.00002159,0.00011613,0.00011434,-0.00000355,-0.00004894,-0
 .00000699,0.00000461,0.00010839,-0.00003824,0.00000067,0.00005818,0.00
 009857,-0.00000164,0.00001022,0.00003268,-0.00000718,-0.00029923,0.000
 03593,-0.00000085,-0.00011811,0.00001021,0.00000158\\\@



 WE LOSE BECAUSE WE WIN

 GAMBLERS,

 RECOLLECTING WHICH,

 TOSS THEIR DICE AGAIN....


                          EMILY DICKINSON  BOLTS OF MELODY NO. 533
 Job cpu time:       0 days  0 hours 47 minutes 40.6 seconds.
 File lengths (MBytes):  RWF=     79 Int=      0 D2E=      0 Chk=      7 Scr=      1
 Normal termination of Gaussian 09 at Fri Aug 27 21:18:48 2021.
