 Entering Gaussian System, Link 0=g09
 AtFile(1): pc-2.gbs
            -H     0
            S    4   1.00
                  0.754230D+02           0.240650D-02
                  0.113500D+02           0.184870D-01
                  0.259930D+01           0.897420D-01
                  0.735130D+00           0.281110D+00
            S    1   1.00
                  0.231670D+00           0.100000D+01
            S    1   1.00
                  0.741470D-01           0.100000D+01
            P    1   1.00
                  0.160000D+01           0.100000D+01
            P    1   1.00
                  0.450000D+00           0.100000D+01
            D    1   1.00
                  0.125000D+01           0.100000D+01
            ****
            -C     0
            S    7   1.00
                  0.785710D+04           0.568250D-03
                  0.117870D+04           0.439150D-02
                  0.268320D+03           0.225040D-01
                  0.759480D+02           0.866530D-01
                  0.245590D+02           0.244050D+00
                  0.862120D+01           0.441480D+00
                  0.312780D+01           0.353320D+00
            S    7   1.00
                  0.117870D+04          -0.594920D-06
                  0.268320D+03          -0.627480D-04
                  0.759480D+02          -0.757730D-03
                  0.245590D+02          -0.733080D-02
                  0.862120D+01          -0.389320D-01
                  0.312780D+01          -0.889080D-01
                  0.822020D+00           0.216890D+00
            S    1   1.00
                  0.330170D+00           0.100000D+01
            S    1   1.00
                  0.114630D+00           0.100000D+01
            P    4   1.00
                  0.337750D+02           0.602940D-02
                  0.767660D+01           0.432280D-01
                  0.223570D+01           0.163010D+00
                  0.764470D+00           0.365040D+00
            P    1   1.00
                  0.262320D+00           0.100000D+01
            P    1   1.00
                  0.846380D-01           0.100000D+01
            D    1   1.00
                  0.140000D+01           0.100000D+01
            D    1   1.00
                  0.450000D+00           0.100000D+01
            F    1   1.00
                  0.950000D+00           0.100000D+01
            ****
            -N     0
            S    7   1.00
                  0.111010D+05           0.545700D-03
                  0.166530D+04           0.421810D-02
                  0.379080D+03           0.216450D-01
                  0.107300D+03           0.837760D-01
                  0.347470D+02           0.238810D+00
                  0.122490D+02           0.439940D+00
                  0.447430D+01           0.363640D+00
            S    7   1.00
                  0.166530D+04          -0.150060D-05
                  0.379080D+03          -0.587530D-04
                  0.107300D+03          -0.774530D-03
                  0.347470D+02          -0.721610D-02
                  0.122490D+02          -0.393380D-01
                  0.447430D+01          -0.906110D-01
                  0.124040D+01           0.198820D+00
            S    1   1.00
                  0.487430D+00           0.100000D+01
            S    1   1.00
                  0.164840D+00           0.100000D+01
            P    4   1.00
                  0.479340D+02           0.617060D-02
                  0.109990D+02           0.442600D-01
                  0.324720D+01           0.168250D+00
                  0.111140D+01           0.368480D+00
            P    1   1.00
                  0.379880D+00           0.100000D+01
            P    1   1.00
                  0.120680D+00           0.100000D+01
            D    1   1.00
                  0.180000D+01           0.100000D+01
            D    1   1.00
                  0.550000D+00           0.100000D+01
            F    1   1.00
                  0.102000D+01           0.100000D+01
            ****
            -O     0
            S    7   1.00
                  0.147820D+05           0.535190D-03
                  0.221730D+04           0.413750D-02
                  0.504740D+03           0.212450D-01
                  0.142870D+03           0.824530D-01
                  0.463000D+02           0.236710D+00
                  0.163370D+02           0.440390D+00
                  0.598280D+01           0.364650D+00
            S    7   1.00
                  0.221730D+04          -0.192750D-05
                  0.504740D+03          -0.579640D-04
                  0.142870D+03          -0.794940D-03
                  0.463000D+02          -0.731250D-02
                  0.163370D+02          -0.405740D-01
                  0.598280D+01          -0.915940D-01
                  0.167180D+01           0.209400D+00
            S    1   1.00
                  0.646620D+00           0.100000D+01
            S    1   1.00
                  0.216690D+00           0.100000D+01
            P    4   1.00
                  0.604240D+02           0.689490D-02
                  0.139350D+02           0.490050D-01
                  0.415310D+01           0.182550D+00
                  0.141580D+01           0.376330D+00
            P    1   1.00
                  0.475490D+00           0.100000D+01
            P    1   1.00
                  0.145290D+00           0.100000D+01
            D    1   1.00
                  0.220000D+01           0.100000D+01
            D    1   1.00
                  0.650000D+00           0.100000D+01
            F    1   1.00
                  0.110000D+01           0.100000D+01
            ****
 Initial command:
 /gpfs/share/home/1801110325/software/g09e01/l1.exe "./Gau-2162.inp" -scrdir="./"
 Entering Link 1 = /gpfs/share/home/1801110325/software/g09e01/l1.exe PID=      2163.
  
 Copyright (c) 1988,1990,1992,1993,1995,1998,2003,2009,2015,
            Gaussian, Inc.  All Rights Reserved.
  
 This is part of the Gaussian(R) 09 program.  It is based on
 the Gaussian(R) 03 system (copyright 2003, Gaussian, Inc.),
 the Gaussian(R) 98 system (copyright 1998, Gaussian, Inc.),
 the Gaussian(R) 94 system (copyright 1995, Gaussian, Inc.),
 the Gaussian 92(TM) system (copyright 1992, Gaussian, Inc.),
 the Gaussian 90(TM) system (copyright 1990, Gaussian, Inc.),
 the Gaussian 88(TM) system (copyright 1988, Gaussian, Inc.),
 the Gaussian 86(TM) system (copyright 1986, Carnegie Mellon
 University), and the Gaussian 82(TM) system (copyright 1983,
 Carnegie Mellon University). Gaussian is a federally registered
 trademark of Gaussian, Inc.
  
 This software contains proprietary and confidential information,
 including trade secrets, belonging to Gaussian, Inc.
  
 This software is provided under written license and may be
 used, copied, transmitted, or stored only in accord with that
 written license.
  
 The following legend is applicable only to US Government
 contracts under FAR:
  
                    RESTRICTED RIGHTS LEGEND
  
 Use, reproduction and disclosure by the US Government is
 subject to restrictions as set forth in subparagraphs (a)
 and (c) of the Commercial Computer Software - Restricted
 Rights clause in FAR 52.227-19.
  
 Gaussian, Inc.
 340 Quinnipiac St., Bldg. 40, Wallingford CT 06492
  
  
 ---------------------------------------------------------------
 Warning -- This program may not be used in any manner that
 competes with the business of Gaussian, Inc. or will provide
 assistance to any competitor of Gaussian, Inc.  The licensee
 of this program is prohibited from giving any competitor of
 Gaussian, Inc. access to this program.  By using this program,
 the user acknowledges that Gaussian, Inc. is engaged in the
 business of creating and licensing software in the field of
 computational chemistry and represents and warrants to the
 licensee that it is not a competitor of Gaussian, Inc. and that
 it will not use this program in any manner prohibited above.
 ---------------------------------------------------------------
  

 Cite this work as:
 Gaussian 09, Revision E.01,
 M. J. Frisch, G. W. Trucks, H. B. Schlegel, G. E. Scuseria, 
 M. A. Robb, J. R. Cheeseman, G. Scalmani, V. Barone, B. Mennucci, 
 G. A. Petersson, H. Nakatsuji, M. Caricato, X. Li, H. P. Hratchian, 
 A. F. Izmaylov, J. Bloino, G. Zheng, J. L. Sonnenberg, M. Hada, 
 M. Ehara, K. Toyota, R. Fukuda, J. Hasegawa, M. Ishida, T. Nakajima, 
 Y. Honda, O. Kitao, H. Nakai, T. Vreven, J. A. Montgomery, Jr., 
 J. E. Peralta, F. Ogliaro, M. Bearpark, J. J. Heyd, E. Brothers, 
 K. N. Kudin, V. N. Staroverov, T. Keith, R. Kobayashi, J. Normand, 
 K. Raghavachari, A. Rendell, J. C. Burant, S. S. Iyengar, J. Tomasi, 
 M. Cossi, N. Rega, J. M. Millam, M. Klene, J. E. Knox, J. B. Cross, 
 V. Bakken, C. Adamo, J. Jaramillo, R. Gomperts, R. E. Stratmann, 
 O. Yazyev, A. J. Austin, R. Cammi, C. Pomelli, J. W. Ochterski, 
 R. L. Martin, K. Morokuma, V. G. Zakrzewski, G. A. Voth, 
 P. Salvador, J. J. Dannenberg, S. Dapprich, A. D. Daniels, 
 O. Farkas, J. B. Foresman, J. V. Ortiz, J. Cioslowski, 
 and D. J. Fox, Gaussian, Inc., Wallingford CT, 2013.
 
 ******************************************
 Gaussian 09:  EM64L-G09RevE.01 30-Nov-2015
                 5-Sep-2021 
 ******************************************
 %nprocshared=6
 Will use up to    6 processors via shared memory.
 %mem=10GB
 %oldchk=4HY_B3LYP_PC2_OPT_FREQ.chk
 %chk=4HY_TPSSh_PC2_OPT_FREQ.chk
 Copying data from "4HY_B3LYP_PC2_OPT_FREQ.chk" to current chk file "4HY_TPSSh_PC2_OPT_FREQ.chk".
 ----------------------------------------------------------------------
 #p opt=(calcfc) freq TPSSh/gen SCF(novaracc,noincfock) int=acc2e=12 ge
 om=checkpoint
 ----------------------------------------------------------------------
 1/10=4,14=-1,18=20,19=15,26=3,29=2,38=1/1,3;
 2/9=110,12=2,40=1/2;
 3/5=7,11=2,14=-4,16=1,25=1,30=1,71=2,74=-35,140=1/1,2,3;
 4//1;
 5/5=100002,38=1,87=12/2;
 8/6=4,10=90,11=11,87=12/1;
 11/6=1,8=1,9=11,15=111,16=1,87=12/1,2,10;
 10/6=1,13=1,87=12/2;
 6/7=2,8=2,9=2,10=2,28=1/1;
 7/10=1,18=20,25=1,87=12/1,2,3,16;
 1/10=4,14=-1,18=20,19=15,26=3/3(2);
 2/9=110/2;
 99//99;
 2/9=110/2;
 3/5=7,6=1,11=2,14=-2,16=1,25=1,30=1,71=1,74=-35,82=7/1,2,3;
 4/5=5,16=3,69=1/1;
 5/5=100002,38=1,87=12/2;
 7/87=12/1,2,3,16;
 1/14=-1,18=20,19=15,26=3/3(-5);
 2/9=110/2;
 6/7=2,8=2,9=2,10=2,19=2,28=1/1;
 99/9=1/99;
 Leave Link    1 at Sun Sep  5 14:47:29 2021, MaxMem=  1342177280 cpu:         6.9
 (Enter /gpfs/share/home/1801110325/software/g09e01/l101.exe)
 ----------------------
 4HY_TPSSh_PC2_OPT_FREQ
 ----------------------
 Structure from the checkpoint file:  "4HY_TPSSh_PC2_OPT_FREQ.chk"
 Charge =  0 Multiplicity = 1
 Redundant internal coordinates found in file.
 C,0,1.1491249349,1.1505605846,-0.00008087
 C,0,-0.2388341706,1.1845168759,0.0000279858
 C,0,-0.9280206229,-0.0244062566,-0.0000225451
 C,0,-0.1955617493,-1.207276029,-0.0000905418
 C,0,1.1871527728,-1.1197933428,-0.0000030884
 N,0,1.8682104053,0.029259951,-0.0000847615
 H,0,1.7075119814,2.0797927759,-0.0000033718
 H,0,-0.7654394519,2.1307904583,0.000094631
 H,0,-0.7017522898,-2.1615706886,-0.0001880629
 H,0,1.7811265567,-2.0264071963,-0.0002009321
 O,0,-2.2831154904,-0.1086089389,-0.0000131807
 H,0,-2.6687948763,0.7727208063,0.0001577376
 Recover connectivity data from disk.
 NAtoms=     12 NQM=       12 NQMF=       0 NMMI=      0 NMMIF=      0
                NMic=       0 NMicF=      0.
                    Isotopes and Nuclear Properties:
 (Nuclear quadrupole moments (NQMom) in fm**2, nuclear magnetic moments (NMagM)
  in nuclear magnetons)

  Atom         1           2           3           4           5           6           7           8           9          10
 IAtWgt=          12          12          12          12          12          14           1           1           1           1
 AtmWgt=  12.0000000  12.0000000  12.0000000  12.0000000  12.0000000  14.0030740   1.0078250   1.0078250   1.0078250   1.0078250
 NucSpn=           0           0           0           0           0           2           1           1           1           1
 AtZEff=  -3.6000000  -3.6000000  -3.6000000  -3.6000000  -3.6000000  -4.5500000  -1.0000000  -1.0000000  -1.0000000  -1.0000000
 NQMom=    0.0000000   0.0000000   0.0000000   0.0000000   0.0000000   2.0440000   0.0000000   0.0000000   0.0000000   0.0000000
 NMagM=    0.0000000   0.0000000   0.0000000   0.0000000   0.0000000   0.4037610   2.7928460   2.7928460   2.7928460   2.7928460
 AtZNuc=   6.0000000   6.0000000   6.0000000   6.0000000   6.0000000   7.0000000   1.0000000   1.0000000   1.0000000   1.0000000

  Atom        11          12
 IAtWgt=          16           1
 AtmWgt=  15.9949146   1.0078250
 NucSpn=           0           1
 AtZEff=  -5.6000000  -1.0000000
 NQMom=    0.0000000   0.0000000
 NMagM=    0.0000000   2.7928460
 AtZNuc=   8.0000000   1.0000000
 Leave Link  101 at Sun Sep  5 14:47:30 2021, MaxMem=  1342177280 cpu:         2.6
 (Enter /gpfs/share/home/1801110325/software/g09e01/l103.exe)

 GradGradGradGradGradGradGradGradGradGradGradGradGradGradGradGradGradGrad
 Berny optimization.
 Initialization pass.
                           ----------------------------
                           !    Initial Parameters    !
                           ! (Angstroms and Degrees)  !
 --------------------------                            --------------------------
 ! Name  Definition              Value          Derivative Info.                !
 --------------------------------------------------------------------------------
 ! R1    R(1,2)                  1.3884         calculate D2E/DX2 analytically  !
 ! R2    R(1,6)                  1.3321         calculate D2E/DX2 analytically  !
 ! R3    R(1,7)                  1.0841         calculate D2E/DX2 analytically  !
 ! R4    R(2,3)                  1.3916         calculate D2E/DX2 analytically  !
 ! R5    R(2,8)                  1.0829         calculate D2E/DX2 analytically  !
 ! R6    R(3,4)                  1.3913         calculate D2E/DX2 analytically  !
 ! R7    R(3,11)                 1.3577         calculate D2E/DX2 analytically  !
 ! R8    R(4,5)                  1.3855         calculate D2E/DX2 analytically  !
 ! R9    R(4,9)                  1.0802         calculate D2E/DX2 analytically  !
 ! R10   R(5,6)                  1.3357         calculate D2E/DX2 analytically  !
 ! R11   R(5,10)                 1.0839         calculate D2E/DX2 analytically  !
 ! R12   R(11,12)                0.962          calculate D2E/DX2 analytically  !
 ! A1    A(2,1,6)              124.0733         calculate D2E/DX2 analytically  !
 ! A2    A(2,1,7)              119.6007         calculate D2E/DX2 analytically  !
 ! A3    A(6,1,7)              116.3259         calculate D2E/DX2 analytically  !
 ! A4    A(1,2,3)              118.2853         calculate D2E/DX2 analytically  !
 ! A5    A(1,2,8)              120.4976         calculate D2E/DX2 analytically  !
 ! A6    A(3,2,8)              121.2171         calculate D2E/DX2 analytically  !
 ! A7    A(2,3,4)              118.5466         calculate D2E/DX2 analytically  !
 ! A8    A(2,3,11)             123.2424         calculate D2E/DX2 analytically  !
 ! A9    A(4,3,11)             118.211          calculate D2E/DX2 analytically  !
 ! A10   A(3,4,5)              118.1465         calculate D2E/DX2 analytically  !
 ! A11   A(3,4,9)              120.2903         calculate D2E/DX2 analytically  !
 ! A12   A(5,4,9)              121.5632         calculate D2E/DX2 analytically  !
 ! A13   A(4,5,6)              124.2759         calculate D2E/DX2 analytically  !
 ! A14   A(4,5,10)             119.6109         calculate D2E/DX2 analytically  !
 ! A15   A(6,5,10)             116.1132         calculate D2E/DX2 analytically  !
 ! A16   A(1,6,5)              116.6724         calculate D2E/DX2 analytically  !
 ! A17   A(3,11,12)            110.079          calculate D2E/DX2 analytically  !
 ! D1    D(6,1,2,3)             -0.0076         calculate D2E/DX2 analytically  !
 ! D2    D(6,1,2,8)            179.9957         calculate D2E/DX2 analytically  !
 ! D3    D(7,1,2,3)           -179.9975         calculate D2E/DX2 analytically  !
 ! D4    D(7,1,2,8)              0.0058         calculate D2E/DX2 analytically  !
 ! D5    D(2,1,6,5)              0.0013         calculate D2E/DX2 analytically  !
 ! D6    D(7,1,6,5)            179.9915         calculate D2E/DX2 analytically  !
 ! D7    D(1,2,3,4)              0.0042         calculate D2E/DX2 analytically  !
 ! D8    D(1,2,3,11)          -179.9956         calculate D2E/DX2 analytically  !
 ! D9    D(8,2,3,4)           -179.9992         calculate D2E/DX2 analytically  !
 ! D10   D(8,2,3,11)             0.001          calculate D2E/DX2 analytically  !
 ! D11   D(2,3,4,5)              0.0048         calculate D2E/DX2 analytically  !
 ! D12   D(2,3,4,9)           -179.9965         calculate D2E/DX2 analytically  !
 ! D13   D(11,3,4,5)          -179.9955         calculate D2E/DX2 analytically  !
 ! D14   D(11,3,4,9)             0.0033         calculate D2E/DX2 analytically  !
 ! D15   D(2,3,11,12)           -0.0079         calculate D2E/DX2 analytically  !
 ! D16   D(4,3,11,12)          179.9923         calculate D2E/DX2 analytically  !
 ! D17   D(3,4,5,6)             -0.0118         calculate D2E/DX2 analytically  !
 ! D18   D(3,4,5,10)          -179.991          calculate D2E/DX2 analytically  !
 ! D19   D(9,4,5,6)            179.9894         calculate D2E/DX2 analytically  !
 ! D20   D(9,4,5,10)             0.0102         calculate D2E/DX2 analytically  !
 ! D21   D(4,5,6,1)              0.0087         calculate D2E/DX2 analytically  !
 ! D22   D(10,5,6,1)           179.9886         calculate D2E/DX2 analytically  !
 --------------------------------------------------------------------------------
 Trust Radius=3.00D-01 FncErr=1.00D-07 GrdErr=1.00D-06
 Number of steps in this run=     61 maximum allowed number of steps=    100.
 GradGradGradGradGradGradGradGradGradGradGradGradGradGradGradGradGradGrad

 Leave Link  103 at Sun Sep  5 14:47:30 2021, MaxMem=  1342177280 cpu:         0.9
 (Enter /gpfs/share/home/1801110325/software/g09e01/l202.exe)
                          Input orientation:                          
 ---------------------------------------------------------------------
 Center     Atomic      Atomic             Coordinates (Angstroms)
 Number     Number       Type             X           Y           Z
 ---------------------------------------------------------------------
      1          6           0        1.149125    1.150561   -0.000081
      2          6           0       -0.238834    1.184517    0.000028
      3          6           0       -0.928021   -0.024406   -0.000023
      4          6           0       -0.195562   -1.207276   -0.000091
      5          6           0        1.187153   -1.119793   -0.000003
      6          7           0        1.868210    0.029260   -0.000085
      7          1           0        1.707512    2.079793   -0.000003
      8          1           0       -0.765439    2.130790    0.000095
      9          1           0       -0.701752   -2.161571   -0.000188
     10          1           0        1.781127   -2.026407   -0.000201
     11          8           0       -2.283115   -0.108609   -0.000013
     12          1           0       -2.668795    0.772721    0.000158
 ---------------------------------------------------------------------
                    Distance matrix (angstroms):
                    1          2          3          4          5
     1  C    0.000000
     2  C    1.388374   0.000000
     3  C    2.386437   1.391572   0.000000
     4  C    2.714328   2.392184   1.391286   0.000000
     5  C    2.270672   2.709850   2.381981   1.385479   0.000000
     6  N    1.332066   2.402968   2.796746   2.405863   1.335726
     7  H    1.084098   2.142378   3.372490   3.798225   3.241624
     8  H    2.150909   1.082934   2.161320   3.386362   3.791954
     9  H    3.794201   3.377957   2.149109   1.080235   2.157142
    10  H    3.239221   3.793452   3.368603   2.139690   1.083860
    11  O    3.655924   2.418938   1.357708   2.359015   3.614589
    12  H    3.836571   2.464606   1.914604   3.168165   4.295340
                    6          7          8          9         10
     6  N    0.000000
     7  H    2.056820   0.000000
     8  H    3.369353   2.473477   0.000000
     9  H    3.377047   4.877881   4.292834   0.000000
    10  H    2.057511   4.106860   4.875171   2.486555   0.000000
    11  O    4.153615   4.551287   2.705226   2.591401   4.493998
    12  H    4.597516   4.567330   2.338186   3.532609   5.257083
                   11         12
    11  O    0.000000
    12  H    0.962024   0.000000
 Stoichiometry    C5H5NO
 Framework group  C1[X(C5H5NO)]
 Deg. of freedom    30
 Full point group                 C1      NOp   1
 RotChk:  IX=2 Diff= 7.24D-16
 Largest Abelian subgroup         C1      NOp   1
 Largest concise Abelian subgroup C1      NOp   1
                         Standard orientation:                         
 ---------------------------------------------------------------------
 Center     Atomic      Atomic             Coordinates (Angstroms)
 Number     Number       Type             X           Y           Z
 ---------------------------------------------------------------------
      1          6           0       -1.147702    1.151156    0.000044
      2          6           0        0.240294    1.183598   -0.000065
      3          6           0        0.928160   -0.026077   -0.000015
      4          6           0        0.194410   -1.208147    0.000053
      5          6           0       -1.188208   -1.119155   -0.000034
      6          7           0       -1.868011    0.030641    0.000048
      7          1           0       -1.705074    2.080998   -0.000034
      8          1           0        0.767932    2.129296   -0.000132
      9          1           0        0.699559   -2.162993    0.000151
     10          1           0       -1.783171   -2.025120    0.000164
     11          8           0        2.283162   -0.111759   -0.000024
     12          1           0        2.669803    0.769149   -0.000195
 ---------------------------------------------------------------------
 Rotational constants (GHZ):      6.0304138      2.6470402      1.8395658
 Leave Link  202 at Sun Sep  5 14:47:30 2021, MaxMem=  1342177280 cpu:         1.0
 (Enter /gpfs/share/home/1801110325/software/g09e01/l301.exe)
 General basis read from cards:  (5D, 7F)
 Centers:       7      8      9     10     12
 S 4 1.00
     Exponent=  7.5423000000D+01 Coefficients=  2.4065000000D-03
     Exponent=  1.1350000000D+01 Coefficients=  1.8487000000D-02
     Exponent=  2.5993000000D+00 Coefficients=  8.9742000000D-02
     Exponent=  7.3513000000D-01 Coefficients=  2.8111000000D-01
 S 1 1.00
     Exponent=  2.3167000000D-01 Coefficients=  1.0000000000D+00
 S 1 1.00
     Exponent=  7.4147000000D-02 Coefficients=  1.0000000000D+00
 P 1 1.00
     Exponent=  1.6000000000D+00 Coefficients=  1.0000000000D+00
 P 1 1.00
     Exponent=  4.5000000000D-01 Coefficients=  1.0000000000D+00
 D 1 1.00
     Exponent=  1.2500000000D+00 Coefficients=  1.0000000000D+00
 ****
 Centers:       1      2      3      4      5
 S 7 1.00
     Exponent=  7.8571000000D+03 Coefficients=  5.6825000000D-04
     Exponent=  1.1787000000D+03 Coefficients=  4.3915000000D-03
     Exponent=  2.6832000000D+02 Coefficients=  2.2504000000D-02
     Exponent=  7.5948000000D+01 Coefficients=  8.6653000000D-02
     Exponent=  2.4559000000D+01 Coefficients=  2.4405000000D-01
     Exponent=  8.6212000000D+00 Coefficients=  4.4148000000D-01
     Exponent=  3.1278000000D+00 Coefficients=  3.5332000000D-01
 S 7 1.00
     Exponent=  1.1787000000D+03 Coefficients= -5.9492000000D-07
     Exponent=  2.6832000000D+02 Coefficients= -6.2748000000D-05
     Exponent=  7.5948000000D+01 Coefficients= -7.5773000000D-04
     Exponent=  2.4559000000D+01 Coefficients= -7.3308000000D-03
     Exponent=  8.6212000000D+00 Coefficients= -3.8932000000D-02
     Exponent=  3.1278000000D+00 Coefficients= -8.8908000000D-02
     Exponent=  8.2202000000D-01 Coefficients=  2.1689000000D-01
 S 1 1.00
     Exponent=  3.3017000000D-01 Coefficients=  1.0000000000D+00
 S 1 1.00
     Exponent=  1.1463000000D-01 Coefficients=  1.0000000000D+00
 P 4 1.00
     Exponent=  3.3775000000D+01 Coefficients=  6.0294000000D-03
     Exponent=  7.6766000000D+00 Coefficients=  4.3228000000D-02
     Exponent=  2.2357000000D+00 Coefficients=  1.6301000000D-01
     Exponent=  7.6447000000D-01 Coefficients=  3.6504000000D-01
 P 1 1.00
     Exponent=  2.6232000000D-01 Coefficients=  1.0000000000D+00
 P 1 1.00
     Exponent=  8.4638000000D-02 Coefficients=  1.0000000000D+00
 D 1 1.00
     Exponent=  1.4000000000D+00 Coefficients=  1.0000000000D+00
 D 1 1.00
     Exponent=  4.5000000000D-01 Coefficients=  1.0000000000D+00
 F 1 1.00
     Exponent=  9.5000000000D-01 Coefficients=  1.0000000000D+00
 ****
 Centers:       6
 S 7 1.00
     Exponent=  1.1101000000D+04 Coefficients=  5.4570000000D-04
     Exponent=  1.6653000000D+03 Coefficients=  4.2181000000D-03
     Exponent=  3.7908000000D+02 Coefficients=  2.1645000000D-02
     Exponent=  1.0730000000D+02 Coefficients=  8.3776000000D-02
     Exponent=  3.4747000000D+01 Coefficients=  2.3881000000D-01
     Exponent=  1.2249000000D+01 Coefficients=  4.3994000000D-01
     Exponent=  4.4743000000D+00 Coefficients=  3.6364000000D-01
 S 7 1.00
     Exponent=  1.6653000000D+03 Coefficients= -1.5006000000D-06
     Exponent=  3.7908000000D+02 Coefficients= -5.8753000000D-05
     Exponent=  1.0730000000D+02 Coefficients= -7.7453000000D-04
     Exponent=  3.4747000000D+01 Coefficients= -7.2161000000D-03
     Exponent=  1.2249000000D+01 Coefficients= -3.9338000000D-02
     Exponent=  4.4743000000D+00 Coefficients= -9.0611000000D-02
     Exponent=  1.2404000000D+00 Coefficients=  1.9882000000D-01
 S 1 1.00
     Exponent=  4.8743000000D-01 Coefficients=  1.0000000000D+00
 S 1 1.00
     Exponent=  1.6484000000D-01 Coefficients=  1.0000000000D+00
 P 4 1.00
     Exponent=  4.7934000000D+01 Coefficients=  6.1706000000D-03
     Exponent=  1.0999000000D+01 Coefficients=  4.4260000000D-02
     Exponent=  3.2472000000D+00 Coefficients=  1.6825000000D-01
     Exponent=  1.1114000000D+00 Coefficients=  3.6848000000D-01
 P 1 1.00
     Exponent=  3.7988000000D-01 Coefficients=  1.0000000000D+00
 P 1 1.00
     Exponent=  1.2068000000D-01 Coefficients=  1.0000000000D+00
 D 1 1.00
     Exponent=  1.8000000000D+00 Coefficients=  1.0000000000D+00
 D 1 1.00
     Exponent=  5.5000000000D-01 Coefficients=  1.0000000000D+00
 F 1 1.00
     Exponent=  1.0200000000D+00 Coefficients=  1.0000000000D+00
 ****
 Centers:      11
 S 7 1.00
     Exponent=  1.4782000000D+04 Coefficients=  5.3519000000D-04
     Exponent=  2.2173000000D+03 Coefficients=  4.1375000000D-03
     Exponent=  5.0474000000D+02 Coefficients=  2.1245000000D-02
     Exponent=  1.4287000000D+02 Coefficients=  8.2453000000D-02
     Exponent=  4.6300000000D+01 Coefficients=  2.3671000000D-01
     Exponent=  1.6337000000D+01 Coefficients=  4.4039000000D-01
     Exponent=  5.9828000000D+00 Coefficients=  3.6465000000D-01
 S 7 1.00
     Exponent=  2.2173000000D+03 Coefficients= -1.9275000000D-06
     Exponent=  5.0474000000D+02 Coefficients= -5.7964000000D-05
     Exponent=  1.4287000000D+02 Coefficients= -7.9494000000D-04
     Exponent=  4.6300000000D+01 Coefficients= -7.3125000000D-03
     Exponent=  1.6337000000D+01 Coefficients= -4.0574000000D-02
     Exponent=  5.9828000000D+00 Coefficients= -9.1594000000D-02
     Exponent=  1.6718000000D+00 Coefficients=  2.0940000000D-01
 S 1 1.00
     Exponent=  6.4662000000D-01 Coefficients=  1.0000000000D+00
 S 1 1.00
     Exponent=  2.1669000000D-01 Coefficients=  1.0000000000D+00
 P 4 1.00
     Exponent=  6.0424000000D+01 Coefficients=  6.8949000000D-03
     Exponent=  1.3935000000D+01 Coefficients=  4.9005000000D-02
     Exponent=  4.1531000000D+00 Coefficients=  1.8255000000D-01
     Exponent=  1.4158000000D+00 Coefficients=  3.7633000000D-01
 P 1 1.00
     Exponent=  4.7549000000D-01 Coefficients=  1.0000000000D+00
 P 1 1.00
     Exponent=  1.4529000000D-01 Coefficients=  1.0000000000D+00
 D 1 1.00
     Exponent=  2.2000000000D+00 Coefficients=  1.0000000000D+00
 D 1 1.00
     Exponent=  6.5000000000D-01 Coefficients=  1.0000000000D+00
 F 1 1.00
     Exponent=  1.1000000000D+00 Coefficients=  1.0000000000D+00
 ****
 Ernie: Thresh=  0.10000D-02 Tol=  0.10000D-05 Strict=F.
 Ernie:  7 primitive shells out of 220 were deleted.
 There are   320 symmetry adapted cartesian basis functions of A   symmetry.
 There are   280 symmetry adapted basis functions of A   symmetry.
   280 basis functions,   475 primitive gaussians,   320 cartesian basis functions
    25 alpha electrons       25 beta electrons
       nuclear repulsion energy       274.8169568516 Hartrees.
 IExCor= 2523 DFT=T Ex+Corr=TPSSh ExCW=0 ScaHFX=  0.100000
 ScaDFX=  0.900000  0.900000  1.000000  1.000000 ScalE2=  1.000000  1.000000
 IRadAn=      0 IRanWt=     -1 IRanGd=            0 ICorTp=0 IEmpDi=  4
 NAtoms=   12 NActive=   12 NUniq=   12 SFac= 1.00D+00 NAtFMM=   60 NAOKFM=F Big=F
 Integral buffers will be    131072 words long.
 Raffenetti 2 integral format.
 Two-electron integral symmetry is turned on.
 Leave Link  301 at Sun Sep  5 14:47:31 2021, MaxMem=  1342177280 cpu:         3.0
 (Enter /gpfs/share/home/1801110325/software/g09e01/l302.exe)
 NPDir=0 NMtPBC=     1 NCelOv=     1 NCel=       1 NClECP=     1 NCelD=      1
         NCelK=      1 NCelE2=     1 NClLst=     1 CellRange=     0.0.
 One-electron integrals computed using PRISM.
 NBasis=   280 RedAO= T EigKep=  1.94D-04  NBF=   280
 NBsUse=   280 1.00D-06 EigRej= -1.00D+00 NBFU=   280
 Precomputing XC quadrature grid using
 IXCGrd= 4 IRadAn=           0 IRanWt=          -1 IRanGd=           0 AccXCQ= 0.00D+00.
 Generated NRdTot=       0 NPtTot=           0 NUsed=           0 NTot=          32
 NSgBfM=   320   320   320   320   320 MxSgAt=    12 MxSgA2=    12.
 Leave Link  302 at Sun Sep  5 14:47:31 2021, MaxMem=  1342177280 cpu:         2.9
 (Enter /gpfs/share/home/1801110325/software/g09e01/l303.exe)
 DipDrv:  MaxL=1.
 Leave Link  303 at Sun Sep  5 14:47:32 2021, MaxMem=  1342177280 cpu:         0.6
 (Enter /gpfs/share/home/1801110325/software/g09e01/l401.exe)
 ExpMin= 7.41D-02 ExpMax= 1.48D+04 ExpMxC= 5.05D+02 IAcc=2 IRadAn=         4 AccDes= 0.00D+00
 Harris functional with IExCor= 1009 and IRadAn=       4 diagonalized for initial guess.
 HarFok:  IExCor= 1009 AccDes= 0.00D+00 IRadAn=         4 IDoV= 1 UseB2=F ITyADJ=14
 ICtDFT=  3500011 ScaDFX=  1.000000  1.000000  1.000000  1.000000
 FoFCou: FMM=F IPFlag=           0 FMFlag=      100000 FMFlg1=           0
         NFxFlg=           0 DoJE=T BraDBF=F KetDBF=T FulRan=T
         wScrn=  0.000000 ICntrl=     500 IOpCl=  0 I1Cent=   200000004 NGrid=           0
         NMat0=    1 NMatS0=      1 NMatT0=    0 NMatD0=    1 NMtDS0=    0 NMtDT0=    0
 Petite list used in FoFCou.
 Harris En= -323.358408693094    
 JPrj=0 DoOrth=F DoCkMO=F.
 Leave Link  401 at Sun Sep  5 14:47:33 2021, MaxMem=  1342177280 cpu:         5.9
 (Enter /gpfs/share/home/1801110325/software/g09e01/l502.exe)
 Closed shell SCF:
 Using DIIS extrapolation, IDIIS=  1040.
 Integral symmetry usage will be decided dynamically.
 Keep R1 ints in memory in canonical form, NReq=790705384.
 IVT=      329994 IEndB=      329994 NGot=  1342177280 MDV=   568009817
 LenX=   568009817 LenY=   567906976
 Requested convergence on RMS density matrix=1.00D-08 within 128 cycles.
 Requested convergence on MAX density matrix=1.00D-06.
 Requested convergence on             energy=1.00D-06.
 No special actions if energy rises.
 FoFCou: FMM=F IPFlag=           0 FMFlag=           0 FMFlg1=           0
         NFxFlg=           0 DoJE=F BraDBF=F KetDBF=F FulRan=T
         wScrn=  0.000000 ICntrl=     600 IOpCl=  0 I1Cent=           0 NGrid=           0
         NMat0=    1 NMatS0=  39340 NMatT0=    0 NMatD0=    1 NMtDS0=    0 NMtDT0=    0
 Symmetry not used in FoFCou.

 Cycle   1  Pass 1  IDiag  1:
 E= -323.514799583884    
 DIIS: error= 2.91D-02 at cycle   1 NSaved=   1.
 NSaved= 1 IEnMin= 1 EnMin= -323.514799583884     IErMin= 1 ErrMin= 2.91D-02
 ErrMax= 2.91D-02  0.00D+00 EMaxC= 1.00D-01 BMatC= 1.53D-01 BMatP= 1.53D-01
 IDIUse=3 WtCom= 7.09D-01 WtEn= 2.91D-01
 Coeff-Com:  0.100D+01
 Coeff-En:   0.100D+01
 Coeff:      0.100D+01
 Gap=     0.215 Goal=   None    Shift=    0.000
 GapD=    0.215 DampG=1.000 DampE=0.500 DampFc=0.5000 IDamp=-1.
 Damping current iteration by 5.00D-01
 RMSDP=2.81D-03 MaxDP=1.14D-01              OVMax= 1.73D-01

 Cycle   2  Pass 1  IDiag  1:
 E= -323.572899769562     Delta-E=       -0.058100185678 Rises=F Damp=T
 DIIS: error= 7.27D-03 at cycle   2 NSaved=   2.
 NSaved= 2 IEnMin= 2 EnMin= -323.572899769562     IErMin= 2 ErrMin= 7.27D-03
 ErrMax= 7.27D-03  0.00D+00 EMaxC= 1.00D-01 BMatC= 1.22D-02 BMatP= 1.53D-01
 IDIUse=3 WtCom= 9.27D-01 WtEn= 7.27D-02
 Coeff-Com:  0.542D-01 0.946D+00
 Coeff-En:   0.137D+00 0.863D+00
 Coeff:      0.602D-01 0.940D+00
 Gap=     0.254 Goal=   None    Shift=    0.000
 RMSDP=6.53D-04 MaxDP=2.69D-02 DE=-5.81D-02 OVMax= 1.24D-01

 Cycle   3  Pass 1  IDiag  1:
 E= -323.644664289779     Delta-E=       -0.071764520217 Rises=F Damp=F
 DIIS: error= 5.85D-03 at cycle   3 NSaved=   3.
 NSaved= 3 IEnMin= 3 EnMin= -323.644664289779     IErMin= 3 ErrMin= 5.85D-03
 ErrMax= 5.85D-03  0.00D+00 EMaxC= 1.00D-01 BMatC= 6.89D-03 BMatP= 1.22D-02
 IDIUse=3 WtCom= 9.41D-01 WtEn= 5.85D-02
 Coeff-Com: -0.404D-01 0.414D+00 0.626D+00
 Coeff-En:   0.000D+00 0.000D+00 0.100D+01
 Coeff:     -0.381D-01 0.390D+00 0.648D+00
 Gap=     0.215 Goal=   None    Shift=    0.000
 RMSDP=3.84D-04 MaxDP=1.82D-02 DE=-7.18D-02 OVMax= 6.42D-02

 Cycle   4  Pass 1  IDiag  1:
 E= -323.645777338146     Delta-E=       -0.001113048367 Rises=F Damp=F
 DIIS: error= 5.94D-03 at cycle   4 NSaved=   4.
 NSaved= 4 IEnMin= 4 EnMin= -323.645777338146     IErMin= 3 ErrMin= 5.85D-03
 ErrMax= 5.94D-03  0.00D+00 EMaxC= 1.00D-01 BMatC= 5.22D-03 BMatP= 6.89D-03
 IDIUse=3 WtCom= 9.41D-01 WtEn= 5.94D-02
 Coeff-Com: -0.368D-01 0.138D+00 0.475D+00 0.424D+00
 Coeff-En:   0.000D+00 0.000D+00 0.462D+00 0.538D+00
 Coeff:     -0.346D-01 0.130D+00 0.475D+00 0.430D+00
 Gap=     0.211 Goal=   None    Shift=    0.000
 RMSDP=2.32D-04 MaxDP=9.28D-03 DE=-1.11D-03 OVMax= 3.29D-02

 Cycle   5  Pass 1  IDiag  1:
 E= -323.650875994014     Delta-E=       -0.005098655868 Rises=F Damp=F
 DIIS: error= 1.38D-03 at cycle   5 NSaved=   5.
 NSaved= 5 IEnMin= 5 EnMin= -323.650875994014     IErMin= 5 ErrMin= 1.38D-03
 ErrMax= 1.38D-03  0.00D+00 EMaxC= 1.00D-01 BMatC= 1.62D-04 BMatP= 5.22D-03
 IDIUse=3 WtCom= 9.86D-01 WtEn= 1.38D-02
 Coeff-Com: -0.125D-01 0.270D-01 0.178D+00 0.224D+00 0.584D+00
 Coeff-En:   0.000D+00 0.000D+00 0.000D+00 0.000D+00 0.100D+01
 Coeff:     -0.124D-01 0.266D-01 0.176D+00 0.221D+00 0.590D+00
 Gap=     0.208 Goal=   None    Shift=    0.000
 RMSDP=5.14D-05 MaxDP=1.77D-03 DE=-5.10D-03 OVMax= 7.57D-03

 Cycle   6  Pass 1  IDiag  1:
 E= -323.651012991620     Delta-E=       -0.000136997605 Rises=F Damp=F
 DIIS: error= 4.01D-04 at cycle   6 NSaved=   6.
 NSaved= 6 IEnMin= 6 EnMin= -323.651012991620     IErMin= 6 ErrMin= 4.01D-04
 ErrMax= 4.01D-04  0.00D+00 EMaxC= 1.00D-01 BMatC= 3.18D-05 BMatP= 1.62D-04
 IDIUse=3 WtCom= 9.96D-01 WtEn= 4.01D-03
 Coeff-Com: -0.591D-02 0.875D-02 0.828D-01 0.114D+00 0.384D+00 0.417D+00
 Coeff-En:   0.000D+00 0.000D+00 0.000D+00 0.000D+00 0.144D+00 0.856D+00
 Coeff:     -0.588D-02 0.872D-02 0.825D-01 0.113D+00 0.383D+00 0.419D+00
 Gap=     0.208 Goal=   None    Shift=    0.000
 RMSDP=1.60D-05 MaxDP=5.25D-04 DE=-1.37D-04 OVMax= 2.14D-03

 Cycle   7  Pass 1  IDiag  1:
 E= -323.651043657812     Delta-E=       -0.000030666192 Rises=F Damp=F
 DIIS: error= 5.54D-05 at cycle   7 NSaved=   7.
 NSaved= 7 IEnMin= 7 EnMin= -323.651043657812     IErMin= 7 ErrMin= 5.54D-05
 ErrMax= 5.54D-05  0.00D+00 EMaxC= 1.00D-01 BMatC= 6.87D-07 BMatP= 3.18D-05
 IDIUse=1 WtCom= 1.00D+00 WtEn= 0.00D+00
 Coeff-Com: -0.216D-02 0.274D-02 0.313D-01 0.440D-01 0.156D+00 0.201D+00
 Coeff-Com:  0.568D+00
 Coeff:     -0.216D-02 0.274D-02 0.313D-01 0.440D-01 0.156D+00 0.201D+00
 Coeff:      0.568D+00
 Gap=     0.208 Goal=   None    Shift=    0.000
 RMSDP=3.21D-06 MaxDP=1.27D-04 DE=-3.07D-05 OVMax= 4.63D-04

 Cycle   8  Pass 1  IDiag  1:
 E= -323.651044143594     Delta-E=       -0.000000485782 Rises=F Damp=F
 DIIS: error= 2.90D-05 at cycle   8 NSaved=   8.
 NSaved= 8 IEnMin= 8 EnMin= -323.651044143594     IErMin= 8 ErrMin= 2.90D-05
 ErrMax= 2.90D-05  0.00D+00 EMaxC= 1.00D-01 BMatC= 1.76D-07 BMatP= 6.87D-07
 IDIUse=1 WtCom= 1.00D+00 WtEn= 0.00D+00
 Coeff-Com: -0.305D-03 0.157D-03 0.528D-02 0.808D-02 0.308D-01 0.518D-01
 Coeff-Com:  0.355D+00 0.549D+00
 Coeff:     -0.305D-03 0.157D-03 0.528D-02 0.808D-02 0.308D-01 0.518D-01
 Coeff:      0.355D+00 0.549D+00
 Gap=     0.208 Goal=   None    Shift=    0.000
 RMSDP=1.26D-06 MaxDP=6.39D-05 DE=-4.86D-07 OVMax= 2.10D-04

 Cycle   9  Pass 1  IDiag  1:
 E= -323.651044318864     Delta-E=       -0.000000175270 Rises=F Damp=F
 DIIS: error= 5.87D-06 at cycle   9 NSaved=   9.
 NSaved= 9 IEnMin= 9 EnMin= -323.651044318864     IErMin= 9 ErrMin= 5.87D-06
 ErrMax= 5.87D-06  0.00D+00 EMaxC= 1.00D-01 BMatC= 7.93D-09 BMatP= 1.76D-07
 IDIUse=1 WtCom= 1.00D+00 WtEn= 0.00D+00
 Coeff-Com:  0.632D-07-0.109D-03 0.420D-03 0.960D-03 0.433D-02 0.120D-01
 Coeff-Com:  0.137D+00 0.270D+00 0.576D+00
 Coeff:      0.632D-07-0.109D-03 0.420D-03 0.960D-03 0.433D-02 0.120D-01
 Coeff:      0.137D+00 0.270D+00 0.576D+00
 Gap=     0.208 Goal=   None    Shift=    0.000
 RMSDP=3.25D-07 MaxDP=1.14D-05 DE=-1.75D-07 OVMax= 4.36D-05

 Cycle  10  Pass 1  IDiag  1:
 E= -323.651044324747     Delta-E=       -0.000000005883 Rises=F Damp=F
 DIIS: error= 2.46D-06 at cycle  10 NSaved=  10.
 NSaved=10 IEnMin=10 EnMin= -323.651044324747     IErMin=10 ErrMin= 2.46D-06
 ErrMax= 2.46D-06  0.00D+00 EMaxC= 1.00D-01 BMatC= 1.84D-09 BMatP= 7.93D-09
 IDIUse=1 WtCom= 1.00D+00 WtEn= 0.00D+00
 Coeff-Com:  0.285D-04-0.681D-04-0.285D-03-0.257D-03-0.691D-03 0.152D-02
 Coeff-Com:  0.389D-01 0.944D-01 0.360D+00 0.506D+00
 Coeff:      0.285D-04-0.681D-04-0.285D-03-0.257D-03-0.691D-03 0.152D-02
 Coeff:      0.389D-01 0.944D-01 0.360D+00 0.506D+00
 Gap=     0.208 Goal=   None    Shift=    0.000
 RMSDP=1.25D-07 MaxDP=5.15D-06 DE=-5.88D-09 OVMax= 2.08D-05

 Cycle  11  Pass 1  IDiag  1:
 E= -323.651044326592     Delta-E=       -0.000000001845 Rises=F Damp=F
 DIIS: error= 2.78D-07 at cycle  11 NSaved=  11.
 NSaved=11 IEnMin=11 EnMin= -323.651044326592     IErMin=11 ErrMin= 2.78D-07
 ErrMax= 2.78D-07  0.00D+00 EMaxC= 1.00D-01 BMatC= 2.74D-11 BMatP= 1.84D-09
 IDIUse=1 WtCom= 1.00D+00 WtEn= 0.00D+00
 Coeff-Com:  0.851D-05-0.144D-04-0.115D-03-0.140D-03-0.436D-03-0.712D-04
 Coeff-Com:  0.594D-02 0.164D-01 0.897D-01 0.178D+00 0.710D+00
 Coeff:      0.851D-05-0.144D-04-0.115D-03-0.140D-03-0.436D-03-0.712D-04
 Coeff:      0.594D-02 0.164D-01 0.897D-01 0.178D+00 0.710D+00
 Gap=     0.208 Goal=   None    Shift=    0.000
 RMSDP=1.93D-08 MaxDP=8.27D-07 DE=-1.84D-09 OVMax= 2.36D-06

 Cycle  12  Pass 1  IDiag  1:
 E= -323.651044326609     Delta-E=       -0.000000000017 Rises=F Damp=F
 DIIS: error= 2.28D-07 at cycle  12 NSaved=  12.
 NSaved=12 IEnMin=12 EnMin= -323.651044326609     IErMin=12 ErrMin= 2.28D-07
 ErrMax= 2.28D-07  0.00D+00 EMaxC= 1.00D-01 BMatC= 1.01D-11 BMatP= 2.74D-11
 IDIUse=1 WtCom= 1.00D+00 WtEn= 0.00D+00
 Coeff-Com:  0.273D-05-0.367D-05-0.435D-04-0.611D-04-0.189D-03-0.155D-03
 Coeff-Com:  0.404D-03 0.194D-02 0.248D-01 0.677D-01 0.441D+00 0.464D+00
 Coeff:      0.273D-05-0.367D-05-0.435D-04-0.611D-04-0.189D-03-0.155D-03
 Coeff:      0.404D-03 0.194D-02 0.248D-01 0.677D-01 0.441D+00 0.464D+00
 Gap=     0.208 Goal=   None    Shift=    0.000
 RMSDP=8.14D-09 MaxDP=3.93D-07 DE=-1.73D-11 OVMax= 1.13D-06

 SCF Done:  E(RTPSSh) =  -323.651044327     A.U. after   12 cycles
            NFock= 12  Conv=0.81D-08     -V/T= 2.0040
 KE= 3.223486411156D+02 PE=-1.304658734014D+03 EE= 3.838420917205D+02
 Leave Link  502 at Sun Sep  5 14:48:43 2021, MaxMem=  1342177280 cpu:       256.6
 (Enter /gpfs/share/home/1801110325/software/g09e01/l801.exe)
 DoSCS=F DFT=T ScalE2(SS,OS)=  1.000000  1.000000
 Range of M.O.s used for correlation:     1   280
 NBasis=   280 NAE=    25 NBE=    25 NFC=     0 NFV=     0
 NROrb=    280 NOA=    25 NOB=    25 NVA=   255 NVB=   255

 **** Warning!!: The largest alpha MO coefficient is  0.13244728D+02

 Leave Link  801 at Sun Sep  5 14:48:43 2021, MaxMem=  1342177280 cpu:         0.1
 (Enter /gpfs/share/home/1801110325/software/g09e01/l1101.exe)
 Using compressed storage, NAtomX=    12.
 Will process     13 centers per pass.
 Leave Link 1101 at Sun Sep  5 14:48:44 2021, MaxMem=  1342177280 cpu:         3.4
 (Enter /gpfs/share/home/1801110325/software/g09e01/l1102.exe)
 Symmetrizing basis deriv contribution to polar:
 IMax=3 JMax=2 DiffMx= 0.00D+00
 Leave Link 1102 at Sun Sep  5 14:48:44 2021, MaxMem=  1342177280 cpu:         0.3
 (Enter /gpfs/share/home/1801110325/software/g09e01/l1110.exe)
 Forming Gx(P) for the SCF density, NAtomX=    12.
 Integral derivatives from FoFJK, PRISM(SPDF).
 Do as many integral derivatives as possible in FoFJK.
 G2DrvN: MDV=    1342177080.
 G2DrvN: will do    13 centers at a time, making    1 passes.
 Calling FoFCou, ICntrl=  3107 FMM=F I1Cent=   0 AccDes= 1.00D-12.
 FoFJK:  IHMeth= 1 ICntrl=    3107 DoSepK=F KAlg= 0 I1Cent=   0 FoldK=F
 IRaf=         0 NMat=   1 IRICut=       1 DoRegI=T DoRafI=F ISym2E= 0.
 FoFCou: FMM=F IPFlag=           0 FMFlag=      100000 FMFlg1=           0
         NFxFlg=           0 DoJE=F BraDBF=F KetDBF=F FulRan=T
         wScrn=  0.000000 ICntrl=    3107 IOpCl=  0 I1Cent=           0 NGrid=           0
         NMat0=    1 NMatS0=      1 NMatT0=    0 NMatD0=    1 NMtDS0=    0 NMtDT0=    0
 Symmetry not used in FoFCou.
 End of G2Drv F.D. properties file   721 does not exist.
 End of G2Drv F.D. properties file   722 does not exist.
 End of G2Drv F.D. properties file   788 does not exist.
 Leave Link 1110 at Sun Sep  5 14:50:27 2021, MaxMem=  1342177280 cpu:       619.6
 (Enter /gpfs/share/home/1801110325/software/g09e01/l1002.exe)
 Minotr:  Closed shell wavefunction.
          IDoAtm=111111111111
          Direct CPHF calculation.
          Differentiating once with respect to nuclear coordinates.
          Requested convergence is 1.0D-08 RMS, and 1.0D-07 maximum.
          Secondary convergence is 1.0D-12 RMS, and 1.0D-12 maximum.
          NewPWx=T KeepS1=F KeepF1=F KeepIn=T MapXYZ=F SortEE=F KeepMc=T.
          MDV=    1342176876 using IRadAn=       2.
 Generate precomputed XC quadrature information.
 Keep R1 ints in memory in canonical form, NReq=790380183.
 FoFCou: FMM=F IPFlag=           0 FMFlag=           0 FMFlg1=           0
         NFxFlg=           0 DoJE=F BraDBF=F KetDBF=F FulRan=T
         wScrn=  0.000000 ICntrl=     600 IOpCl=  0 I1Cent=           0 NGrid=           0
         NMat0=    1 NMatS0=  39340 NMatT0=    0 NMatD0=    1 NMtDS0=    0 NMtDT0=    0
 Symmetry not used in FoFCou.
          Solving linear equations simultaneously, MaxMat=       0.
          There are    39 degrees of freedom in the 1st order CPHF.  IDoFFX=6 NUNeed=     0.
     33 vectors produced by pass  0 Test12= 1.63D-14 2.56D-09 XBig12= 1.75D-01 1.96D-01.
 AX will form    33 AO Fock derivatives at one time.
     33 vectors produced by pass  1 Test12= 1.63D-14 2.56D-09 XBig12= 6.26D-02 7.94D-02.
     33 vectors produced by pass  2 Test12= 1.63D-14 2.56D-09 XBig12= 5.00D-04 4.13D-03.
     33 vectors produced by pass  3 Test12= 1.63D-14 2.56D-09 XBig12= 3.67D-06 3.25D-04.
     33 vectors produced by pass  4 Test12= 1.63D-14 2.56D-09 XBig12= 1.11D-08 1.53D-05.
     32 vectors produced by pass  5 Test12= 1.63D-14 2.56D-09 XBig12= 1.17D-11 4.20D-07.
      9 vectors produced by pass  6 Test12= 1.63D-14 2.56D-09 XBig12= 1.24D-14 1.89D-08.
 InvSVY:  IOpt=1 It=  1 EMax= 1.78D-15
 Solved reduced A of dimension   206 with    33 vectors.
 End of Minotr F.D. properties file   721 does not exist.
 End of Minotr F.D. properties file   722 does not exist.
 End of Minotr F.D. properties file   788 does not exist.
 Leave Link 1002 at Sun Sep  5 14:53:00 2021, MaxMem=  1342177280 cpu:       914.0
 (Enter /gpfs/share/home/1801110325/software/g09e01/l601.exe)
 Copying SCF densities to generalized density rwf, IOpCl= 0 IROHF=0.

 **********************************************************************

            Population analysis using the SCF density.

 **********************************************************************

 Orbital symmetries:
       Occupied  (A) (A) (A) (A) (A) (A) (A) (A) (A) (A) (A) (A)
                 (A) (A) (A) (A) (A) (A) (A) (A) (A) (A) (A) (A)
                 (A)
       Virtual   (A) (A) (A) (A) (A) (A) (A) (A) (A) (A) (A) (A)
                 (A) (A) (A) (A) (A) (A) (A) (A) (A) (A) (A) (A)
                 (A) (A) (A) (A) (A) (A) (A) (A) (A) (A) (A) (A)
                 (A) (A) (A) (A) (A) (A) (A) (A) (A) (A) (A) (A)
                 (A) (A) (A) (A) (A) (A) (A) (A) (A) (A) (A) (A)
                 (A) (A) (A) (A) (A) (A) (A) (A) (A) (A) (A) (A)
                 (A) (A) (A) (A) (A) (A) (A) (A) (A) (A) (A) (A)
                 (A) (A) (A) (A) (A) (A) (A) (A) (A) (A) (A) (A)
                 (A) (A) (A) (A) (A) (A) (A) (A) (A) (A) (A) (A)
                 (A) (A) (A) (A) (A) (A) (A) (A) (A) (A) (A) (A)
                 (A) (A) (A) (A) (A) (A) (A) (A) (A) (A) (A) (A)
                 (A) (A) (A) (A) (A) (A) (A) (A) (A) (A) (A) (A)
                 (A) (A) (A) (A) (A) (A) (A) (A) (A) (A) (A) (A)
                 (A) (A) (A) (A) (A) (A) (A) (A) (A) (A) (A) (A)
                 (A) (A) (A) (A) (A) (A) (A) (A) (A) (A) (A) (A)
                 (A) (A) (A) (A) (A) (A) (A) (A) (A) (A) (A) (A)
                 (A) (A) (A) (A) (A) (A) (A) (A) (A) (A) (A) (A)
                 (A) (A) (A) (A) (A) (A) (A) (A) (A) (A) (A) (A)
                 (A) (A) (A) (A) (A) (A) (A) (A) (A) (A) (A) (A)
                 (A) (A) (A) (A) (A) (A) (A) (A) (A) (A) (A) (A)
                 (A) (A) (A) (A) (A) (A) (A) (A) (A) (A) (A) (A)
                 (A) (A) (A)
 The electronic state is 1-A.
 Alpha  occ. eigenvalues --  -19.10193 -14.23899 -10.19717 -10.15215 -10.15008
 Alpha  occ. eigenvalues --  -10.12789 -10.12221  -1.06252  -0.92112  -0.78265
 Alpha  occ. eigenvalues --   -0.75000  -0.63492  -0.61457  -0.55040  -0.49149
 Alpha  occ. eigenvalues --   -0.46948  -0.43866  -0.41878  -0.41808  -0.39278
 Alpha  occ. eigenvalues --   -0.36187  -0.34404  -0.26160  -0.24936  -0.24357
 Alpha virt. eigenvalues --   -0.03516  -0.03140  -0.00118   0.03241   0.04336
 Alpha virt. eigenvalues --    0.07846   0.08057   0.11536   0.12399   0.13325
 Alpha virt. eigenvalues --    0.16149   0.17610   0.18592   0.19493   0.20320
 Alpha virt. eigenvalues --    0.22108   0.22540   0.22807   0.25439   0.27144
 Alpha virt. eigenvalues --    0.27744   0.28600   0.29151   0.30882   0.32360
 Alpha virt. eigenvalues --    0.33253   0.33843   0.34424   0.35312   0.37523
 Alpha virt. eigenvalues --    0.38033   0.41317   0.43145   0.45582   0.46612
 Alpha virt. eigenvalues --    0.49103   0.50818   0.54331   0.54922   0.58345
 Alpha virt. eigenvalues --    0.59299   0.61239   0.64010   0.64381   0.64897
 Alpha virt. eigenvalues --    0.68832   0.70439   0.73358   0.75221   0.80597
 Alpha virt. eigenvalues --    0.82355   0.83632   0.85837   0.87959   0.89529
 Alpha virt. eigenvalues --    0.94208   0.95724   0.95889   0.97557   1.01893
 Alpha virt. eigenvalues --    1.03802   1.07477   1.10598   1.10849   1.13281
 Alpha virt. eigenvalues --    1.13340   1.15078   1.16279   1.17363   1.18907
 Alpha virt. eigenvalues --    1.23387   1.24440   1.29422   1.29650   1.30404
 Alpha virt. eigenvalues --    1.32629   1.34746   1.41830   1.42523   1.44379
 Alpha virt. eigenvalues --    1.45458   1.46569   1.49397   1.54540   1.57200
 Alpha virt. eigenvalues --    1.58043   1.59468   1.59721   1.63821   1.66709
 Alpha virt. eigenvalues --    1.67198   1.68827   1.71325   1.73293   1.75633
 Alpha virt. eigenvalues --    1.77848   1.78723   1.82043   1.84164   1.85251
 Alpha virt. eigenvalues --    1.85826   1.93201   1.95434   1.97736   1.98033
 Alpha virt. eigenvalues --    2.04271   2.09164   2.10285   2.18191   2.20859
 Alpha virt. eigenvalues --    2.22003   2.24502   2.26810   2.29555   2.32328
 Alpha virt. eigenvalues --    2.37039   2.41912   2.56930   2.60409   2.80782
 Alpha virt. eigenvalues --    2.87452   2.92421   2.98044   3.00287   3.15231
 Alpha virt. eigenvalues --    3.17431   3.23138   3.26133   3.27203   3.29333
 Alpha virt. eigenvalues --    3.34332   3.36007   3.36833   3.39683   3.41951
 Alpha virt. eigenvalues --    3.44464   3.46732   3.51859   3.55289   3.56440
 Alpha virt. eigenvalues --    3.59893   3.63422   3.65220   3.67275   3.71718
 Alpha virt. eigenvalues --    3.75143   3.77586   3.79749   3.81682   3.83636
 Alpha virt. eigenvalues --    3.85694   3.89937   3.92116   3.95204   4.03173
 Alpha virt. eigenvalues --    4.06075   4.06247   4.07259   4.09991   4.11142
 Alpha virt. eigenvalues --    4.12102   4.14292   4.16858   4.18342   4.19920
 Alpha virt. eigenvalues --    4.21077   4.22028   4.25049   4.27236   4.29120
 Alpha virt. eigenvalues --    4.31205   4.31259   4.32121   4.33048   4.35655
 Alpha virt. eigenvalues --    4.36791   4.40521   4.42920   4.45769   4.46755
 Alpha virt. eigenvalues --    4.47082   4.48067   4.49658   4.50615   4.50650
 Alpha virt. eigenvalues --    4.53989   4.56159   4.57463   4.58624   4.62096
 Alpha virt. eigenvalues --    4.63954   4.64498   4.68402   4.72957   4.77015
 Alpha virt. eigenvalues --    4.80864   4.81916   4.82625   4.85446   4.89820
 Alpha virt. eigenvalues --    4.93670   4.96699   4.98850   5.00285   5.05360
 Alpha virt. eigenvalues --    5.11233   5.13512   5.14871   5.20608   5.22113
 Alpha virt. eigenvalues --    5.23002   5.27031   5.35971   5.37339   5.37386
 Alpha virt. eigenvalues --    5.39166   5.42105   5.43960   5.46666   5.51140
 Alpha virt. eigenvalues --    5.52832   5.59187   5.63619   5.65443   5.66210
 Alpha virt. eigenvalues --    5.74271   5.74616   5.77942   5.84030   5.87774
 Alpha virt. eigenvalues --    5.89594   5.99027   6.09799   6.12988   6.16537
 Alpha virt. eigenvalues --    6.19253   6.23174   6.25382   6.34100   6.37456
 Alpha virt. eigenvalues --    6.46585   6.49026   6.55813   6.60790   6.68811
 Alpha virt. eigenvalues --    6.85705   7.14433   7.39338   9.20325  12.34063
 Alpha virt. eigenvalues --   12.46200  15.55111  17.33867  18.61881  22.19537
          Condensed to atoms (all electrons):
               1          2          3          4          5          6
     1  C    4.599630   0.444284  -0.038194  -0.056665  -0.107357   0.521689
     2  C    0.444284   5.019867   0.535237   0.000487  -0.060780  -0.035418
     3  C   -0.038194   0.535237   4.449835   0.547122  -0.048665  -0.020175
     4  C   -0.056665   0.000487   0.547122   4.905952   0.476970  -0.032325
     5  C   -0.107357  -0.060780  -0.048665   0.476970   4.607143   0.507190
     6  N    0.521689  -0.035418  -0.020175  -0.032325   0.507190   6.528161
     7  H    0.446078  -0.066402   0.004329  -0.004588   0.006299  -0.044080
     8  H   -0.013429   0.406108  -0.037926   0.005170  -0.000554   0.007293
     9  H   -0.002224   0.009673  -0.030312   0.411249  -0.023929   0.007170
    10  H    0.006485  -0.006686   0.008891  -0.070287   0.450425  -0.044744
    11  O    0.006295  -0.059159   0.302092  -0.058384   0.003693  -0.000512
    12  H    0.001515  -0.002318  -0.034129   0.006515  -0.000805   0.000466
               7          8          9         10         11         12
     1  C    0.446078  -0.013429  -0.002224   0.006485   0.006295   0.001515
     2  C   -0.066402   0.406108   0.009673  -0.006686  -0.059159  -0.002318
     3  C    0.004329  -0.037926  -0.030312   0.008891   0.302092  -0.034129
     4  C   -0.004588   0.005170   0.411249  -0.070287  -0.058384   0.006515
     5  C    0.006299  -0.000554  -0.023929   0.450425   0.003693  -0.000805
     6  N   -0.044080   0.007293   0.007170  -0.044744  -0.000512   0.000466
     7  H    0.613357  -0.003831   0.000197  -0.000206  -0.000438  -0.000102
     8  H   -0.003831   0.625093  -0.000562   0.000158  -0.006250   0.005085
     9  H    0.000197  -0.000562   0.596513  -0.005421   0.005145  -0.000586
    10  H   -0.000206   0.000158  -0.005421   0.609723  -0.000266   0.000114
    11  O   -0.000438  -0.006250   0.005145  -0.000266   7.851000   0.347027
    12  H   -0.000102   0.005085  -0.000586   0.000114   0.347027   0.468240
 Mulliken charges:
               1
     1  C    0.191892
     2  C   -0.184892
     3  C    0.361894
     4  C   -0.131218
     5  C    0.190371
     6  N   -0.394714
     7  H    0.049387
     8  H    0.013646
     9  H    0.033085
    10  H    0.051814
    11  O   -0.390243
    12  H    0.208978
 Sum of Mulliken charges =  -0.00000
 Mulliken charges with hydrogens summed into heavy atoms:
               1
     1  C    0.241279
     2  C   -0.171247
     3  C    0.361894
     4  C   -0.098133
     5  C    0.242185
     6  N   -0.394714
    11  O   -0.181264
 APT charges:
               1
     1  C   -0.304542
     2  C   -0.510495
     3  C   -0.005373
     4  C   -0.497091
     5  C   -0.282988
     6  N   -0.280228
     7  H    0.514995
     8  H    0.384683
     9  H    0.415782
    10  H    0.520674
    11  O   -0.584842
    12  H    0.629423
 Sum of APT charges =  -0.00000
 APT charges with hydrogens summed into heavy atoms:
               1
     1  C    0.210453
     2  C   -0.125811
     3  C   -0.005373
     4  C   -0.081309
     5  C    0.237687
     6  N   -0.280228
    11  O    0.044581
 Electronic spatial extent (au):  <R**2>=            637.3613
 Charge=             -0.0000 electrons
 Dipole moment (field-independent basis, Debye):
    X=              2.4004    Y=              1.2695    Z=             -0.0002  Tot=              2.7154
 Quadrupole moment (field-independent basis, Debye-Ang):
   XX=            -43.5688   YY=            -33.4903   ZZ=            -42.8514
   XY=              4.4514   XZ=             -0.0008   YZ=             -0.0010
 Traceless Quadrupole moment (field-independent basis, Debye-Ang):
   XX=             -3.5987   YY=              6.4799   ZZ=             -2.8812
   XY=              4.4514   XZ=             -0.0008   YZ=             -0.0010
 Octapole moment (field-independent basis, Debye-Ang**2):
  XXX=             33.2147  YYY=              0.3667  ZZZ=             -0.0001  XYY=              1.9165
  XXY=             11.9098  XXZ=             -0.0027  XZZ=              3.3566  YZZ=              0.0085
  YYZ=              0.0004  XYZ=             -0.0007
 Hexadecapole moment (field-independent basis, Debye-Ang**3):
 XXXX=           -519.2269 YYYY=           -255.2764 ZZZZ=            -45.9281 XXXY=             37.7692
 XXXZ=             -0.0023 YYYX=              2.6970 YYYZ=             -0.0017 ZZZX=              0.0042
 ZZZY=              0.0031 XXYY=           -107.0201 XXZZ=            -94.7700 YYZZ=            -60.4860
 XXYZ=             -0.0032 YYXZ=              0.0000 ZZXY=              0.4981
 N-N= 2.748169568516D+02 E-N=-1.304658719857D+03  KE= 3.223486411156D+02
  Exact polarizability:   0.000   0.000   0.000   0.000   0.000   0.000
 Approx polarizability: 147.529   1.376 132.745  -0.001  -0.001  59.349
 No NMR shielding tensors so no spin-rotation constants.
 Leave Link  601 at Sun Sep  5 14:53:00 2021, MaxMem=  1342177280 cpu:         1.1
 (Enter /gpfs/share/home/1801110325/software/g09e01/l701.exe)
 Compute integral second derivatives.
 ... and contract with generalized density number  0.
 Leave Link  701 at Sun Sep  5 14:53:01 2021, MaxMem=  1342177280 cpu:         3.4
 (Enter /gpfs/share/home/1801110325/software/g09e01/l702.exe)
 L702 exits ... SP integral derivatives will be done elsewhere.
 Leave Link  702 at Sun Sep  5 14:53:01 2021, MaxMem=  1342177280 cpu:         0.1
 (Enter /gpfs/share/home/1801110325/software/g09e01/l703.exe)
 Compute integral second derivatives, UseDBF=F ICtDFT=           0.
 Integral derivatives from FoFJK, PRISM(SPDF).
 Calling FoFJK, ICntrl=    100147 FMM=F ISym2X=0 I1Cent= 0 IOpClX= 0 NMat=1 NMatS=1 NMatT=0.
 FoFJK:  IHMeth= 1 ICntrl=  100147 DoSepK=F KAlg= 0 I1Cent=   0 FoldK=F
 IRaf=         0 NMat=   1 IRICut=       1 DoRegI=T DoRafI=F ISym2E= 0.
 FoFCou: FMM=F IPFlag=           0 FMFlag=      100000 FMFlg1=         800
         NFxFlg=           0 DoJE=F BraDBF=F KetDBF=F FulRan=T
         wScrn=  0.000000 ICntrl=  100147 IOpCl=  0 I1Cent=           0 NGrid=           0
         NMat0=    1 NMatS0=      1 NMatT0=    0 NMatD0=    1 NMtDS0=    0 NMtDT0=    0
 Symmetry not used in FoFCou.
 Leave Link  703 at Sun Sep  5 14:56:07 2021, MaxMem=  1342177280 cpu:      1114.1
 (Enter /gpfs/share/home/1801110325/software/g09e01/l716.exe)
 Dipole        = 9.44386204D-01 4.99455501D-01-9.41311960D-05
 Polarizability= 0.00000000D+00 0.00000000D+00 0.00000000D+00
                 0.00000000D+00 0.00000000D+00 0.00000000D+00
 ***** Axes restored to original set *****
 -------------------------------------------------------------------
 Center     Atomic                   Forces (Hartrees/Bohr)
 Number     Number              X              Y              Z
 -------------------------------------------------------------------
      1        6          -0.001186722    0.000364937    0.000018963
      2        6          -0.000069458    0.000790784   -0.000005575
      3        6           0.000258054    0.000868905    0.000001744
      4        6          -0.000624957   -0.000861581    0.000008083
      5        6          -0.001032153   -0.000085816   -0.000036130
      6        7           0.003788535   -0.000144598    0.000006701
      7        1           0.000585741    0.000506655   -0.000006664
      8        1          -0.000637374    0.000911863   -0.000000486
      9        1          -0.000448950   -0.000913029    0.000002541
     10        1           0.000583435   -0.000496298    0.000011592
     11        8          -0.001133789   -0.003591181    0.000000784
     12        1          -0.000082361    0.002649359   -0.000001553
 -------------------------------------------------------------------
 Cartesian Forces:  Max     0.003788535 RMS     0.001108579
 Force constants in Cartesian coordinates: 
                1             2             3             4             5 
      1  0.680158D+00
      2  0.426139D-01  0.731937D+00
      3 -0.134297D-04  0.212921D-04  0.156263D+00
      4 -0.329290D+00 -0.378614D-01  0.183642D-04  0.689016D+00
      5  0.284719D-01 -0.130211D+00 -0.446606D-05 -0.346324D-01  0.718737D+00
      6  0.221491D-04 -0.192529D-05 -0.621138D-01 -0.301625D-04  0.326967D-04
      7 -0.294578D-01 -0.340218D-01 -0.105147D-05 -0.158449D+00 -0.109419D+00
      8 -0.846534D-01  0.458508D-01  0.408713D-05 -0.373625D-01 -0.289364D+00
      9  0.000000D+00  0.399227D-05  0.112678D-02 -0.327472D-05 -0.123266D-04
     10 -0.477177D-01  0.371192D-01  0.205149D-05  0.568732D-01  0.163300D-01
     11  0.188598D-01 -0.146561D-01  0.000000D+00 -0.128459D-01 -0.465622D-01
     12  0.000000D+00  0.000000D+00 -0.640866D-02  0.134541D-05 -0.231925D-05
     13  0.516462D-01 -0.208136D-01 -0.306220D-05 -0.457487D-01 -0.185204D-01
     14  0.257763D-01 -0.980148D-01  0.000000D+00 -0.386045D-01 -0.167716D-01
     15 -0.227759D-05 -0.108214D-05  0.390527D-02  0.000000D+00  0.148325D-05
     16 -0.183368D+00  0.113644D+00  0.393297D-05 -0.343612D-01  0.323755D-01
     17  0.910400D-01 -0.278912D+00 -0.306669D-05  0.900004D-01  0.256494D-01
     18  0.000000D+00  0.000000D+00 -0.680461D-01  0.325451D-05 -0.258349D-05
     19 -0.139494D+00 -0.126490D+00 -0.738320D-05 -0.120251D-01 -0.276741D-01
     20 -0.125529D+00 -0.244336D+00 -0.150144D-04  0.183895D-02  0.366079D-02
     21 -0.944006D-05 -0.205379D-04 -0.416914D-01  0.189444D-05  0.225167D-05
     22 -0.705335D-02  0.317202D-01  0.000000D+00 -0.121630D+00  0.115491D+00
     23 -0.175311D-02  0.272061D-02  0.000000D+00  0.115614D+00 -0.270599D+00
     24  0.120620D-05 -0.261467D-05 -0.333122D-03  0.893020D-05 -0.147960D-04
     25 -0.157399D-02  0.194370D-02  0.000000D+00 -0.138196D-02  0.345415D-02
     26  0.116268D-02  0.182122D-03  0.000000D+00  0.419460D-02 -0.282944D-02
     27  0.000000D+00  0.000000D+00 -0.515852D-03  0.000000D+00  0.000000D+00
     28  0.628653D-03 -0.473520D-02  0.112472D-05 -0.475260D-03 -0.889674D-03
     29 -0.298715D-02 -0.279439D-02 -0.105715D-05 -0.992912D-04  0.249372D-03
     30  0.283778D-05  0.000000D+00  0.973768D-02  0.000000D+00  0.000000D+00
     31  0.678690D-02 -0.395655D-02 -0.111500D-05 -0.467528D-01 -0.586401D-02
     32  0.676477D-02 -0.103134D-01 -0.180732D-05 -0.448329D-01  0.388862D-02
     33  0.000000D+00  0.000000D+00  0.873477D-02  0.000000D+00  0.000000D+00
     34 -0.126421D-02  0.837459D-03  0.000000D+00  0.422515D-02  0.877425D-03
     35  0.233470D-03 -0.145318D-02  0.000000D+00 -0.540944D-02  0.415228D-02
     36  0.000000D+00  0.000000D+00 -0.659032D-03  0.000000D+00  0.000000D+00
                6             7             8             9            10 
      6  0.113681D+00
      7 -0.201893D-05  0.690294D+00
      8 -0.129964D-04 -0.120036D-01  0.712861D+00
      9 -0.653345D-01 -0.959847D-05  0.361737D-04  0.161488D+00
     10 -0.250012D-05 -0.157717D+00  0.458163D-01  0.583906D-05  0.702572D+00
     11 -0.171453D-05  0.113186D+00 -0.286677D+00 -0.152619D-04  0.384556D-01
     12  0.751653D-02  0.399894D-05 -0.149990D-04 -0.675816D-01  0.212699D-04
     13  0.126320D-05 -0.357838D-01  0.787468D-01  0.000000D+00 -0.338360D+00
     14  0.184366D-05  0.297379D-01  0.509102D-01  0.376732D-05  0.283579D-01
     15 -0.693674D-02  0.290881D-05  0.000000D+00  0.124963D-02 -0.123358D-04
     16  0.254446D-05  0.116470D-01  0.291813D-02  0.000000D+00 -0.287780D-01
     17 -0.186085D-05  0.293534D-02 -0.867680D-01 -0.317663D-05 -0.910619D-01
     18  0.220802D-01  0.000000D+00  0.215610D-05 -0.764131D-02 -0.202915D-05
     19 -0.151960D-05 -0.528083D-02  0.240434D-02  0.000000D+00 -0.430420D-03
     20  0.000000D+00  0.125704D-02  0.124340D-02  0.000000D+00  0.706081D-04
     21  0.656968D-02  0.130475D-05  0.000000D+00  0.810697D-02  0.147736D-05
     22  0.106105D-04  0.803937D-02 -0.148968D-01  0.000000D+00 -0.542622D-03
     23 -0.158295D-04  0.190917D-01 -0.189014D-01 -0.137778D-05 -0.451783D-02
     24 -0.304175D-01  0.000000D+00  0.000000D+00  0.307577D-02  0.000000D+00
     25  0.000000D+00  0.112785D-01  0.163656D-01  0.124967D-05 -0.118843D+00
     26  0.000000D+00 -0.169506D-01 -0.194304D-01 -0.172503D-05 -0.115370D+00
     27  0.601260D-02  0.000000D+00  0.000000D+00  0.420632D-02 -0.118977D-04
     28  0.000000D+00 -0.491221D-02 -0.245442D-02  0.000000D+00 -0.129010D-01
     29  0.000000D+00 -0.152974D-02  0.106359D-02 -0.128007D-05 -0.252665D-02
     30 -0.989305D-03 -0.124913D-05  0.000000D+00  0.841459D-02 -0.312738D-05
     31  0.000000D+00 -0.303136D+00 -0.427609D-01 -0.163045D-05 -0.472062D-01
     32  0.000000D+00  0.100427D-01 -0.111672D+00 -0.936817D-05  0.486797D-01
     33  0.112974D-01  0.906119D-05 -0.108102D-04 -0.440199D-01  0.209763D-05
     34  0.000000D+00 -0.265224D-01  0.478804D-01  0.791998D-05 -0.694962D-02
     35  0.000000D+00 -0.232579D-02  0.883494D-03  0.122388D-05 -0.135259D-02
     36 -0.136531D-02 -0.249321D-05  0.000000D+00 -0.309079D-02  0.000000D+00
               11            12            13            14            15 
     11  0.728964D+00
     12  0.449970D-04  0.118531D+00
     13 -0.372470D-01 -0.201468D-04  0.691660D+00
     14 -0.133238D+00 -0.712291D-05 -0.470270D-01  0.723248D+00
     15 -0.543953D-05 -0.624288D-01 -0.236431D-04  0.411905D-04  0.157820D+00
     16 -0.355015D-01  0.146770D-05 -0.175163D+00 -0.106450D+00  0.736926D-05
     17  0.224237D-01  0.370490D-05 -0.838116D-01 -0.279460D+00  0.516450D-05
     18  0.000000D+00  0.213815D-01  0.152892D-04  0.124018D-04 -0.682664D-01
     19  0.879352D-03  0.000000D+00  0.293772D-03  0.475934D-02  0.000000D+00
     20  0.224320D-03  0.000000D+00  0.310821D-02 -0.236269D-02 -0.123873D-05
     21  0.000000D+00 -0.103435D-02 -0.222660D-05 -0.125195D-05  0.100220D-01
     22 -0.370145D-02  0.000000D+00 -0.162447D-02 -0.208772D-02  0.000000D+00
     23 -0.313952D-02  0.000000D+00 -0.117288D-02  0.129845D-03  0.000000D+00
     24  0.000000D+00  0.587501D-02  0.000000D+00  0.000000D+00 -0.525972D-03
     25 -0.117315D+00 -0.140522D-04 -0.592834D-02 -0.305079D-01 -0.132696D-05
     26 -0.282306D+00 -0.234578D-04  0.175671D-02  0.307454D-02  0.000000D+00
     27 -0.240038D-04 -0.329914D-01 -0.155818D-05 -0.244477D-05 -0.141164D-03
     28  0.271426D-01  0.454858D-05 -0.149587D+00  0.130612D+00  0.258697D-04
     29  0.464580D-02  0.000000D+00  0.129673D+00 -0.235436D+00 -0.383762D-04
     30  0.165899D-05  0.679210D-02  0.319849D-04 -0.486233D-04 -0.424706D-01
     31  0.117474D-01  0.133069D-05  0.820948D-02  0.248106D-02  0.215532D-05
     32  0.790255D-02  0.000000D+00 -0.475872D-02 -0.116182D-01  0.000000D+00
     33  0.240404D-05  0.707758D-02  0.203359D-05  0.000000D+00  0.583421D-02
     34 -0.366006D-02  0.000000D+00  0.385642D-03  0.295213D-02  0.000000D+00
     35  0.241745D-02  0.000000D+00  0.668639D-04 -0.461364D-03  0.000000D+00
     36  0.000000D+00  0.327151D-02  0.000000D+00  0.000000D+00  0.193840D-02
               16            17            18            19            20 
     16  0.402148D+00
     17 -0.811164D-02  0.649025D+00
     18 -0.134583D-04 -0.815985D-05  0.936494D-01
     19  0.140396D-01  0.195869D-01  0.000000D+00  0.142744D+00
     20 -0.675133D-02 -0.329485D-01  0.000000D+00  0.127562D+00  0.274796D+00
     21 -0.159170D-05  0.306667D-05 -0.340539D-02  0.836939D-05  0.166052D-04
     22 -0.728147D-02  0.164003D-03  0.000000D+00  0.914110D-03 -0.548216D-03
     23 -0.212357D-03  0.227818D-02  0.000000D+00  0.468766D-03  0.528889D-03
     24  0.000000D+00  0.000000D+00  0.843218D-02  0.000000D+00  0.000000D+00
     25 -0.677625D-02 -0.483750D-03  0.000000D+00  0.128972D-03 -0.253201D-03
     26  0.324271D-03  0.224534D-02  0.000000D+00 -0.817146D-04 -0.107074D-04
     27  0.000000D+00  0.000000D+00  0.869005D-02  0.000000D+00  0.000000D+00
     28  0.142376D-01 -0.178954D-01 -0.254257D-05  0.364235D-03 -0.599561D-03
     29  0.863779D-02 -0.330013D-01 -0.181981D-05  0.645850D-03 -0.936057D-03
     30  0.000000D+00  0.526105D-05 -0.312800D-02  0.000000D+00  0.000000D+00
     31 -0.719743D-02 -0.839437D-03  0.000000D+00 -0.161462D-02 -0.189770D-03
     32 -0.801092D-03  0.912744D-02  0.000000D+00 -0.187594D-02  0.177577D-03
     33  0.000000D+00 -0.161891D-05 -0.357730D-02  0.000000D+00  0.000000D+00
     34  0.852751D-03 -0.152286D-02  0.000000D+00  0.360148D-03  0.341101D-04
     35 -0.722887D-04  0.340055D-03  0.000000D+00 -0.185100D-03 -0.372243D-04
     36  0.000000D+00  0.000000D+00 -0.168753D-03  0.000000D+00  0.000000D+00
               21            22            23            24            25 
     21  0.263876D-01
     22  0.000000D+00  0.124488D+00
     23  0.000000D+00 -0.126732D+00  0.285905D+00
     24 -0.332910D-02 -0.109901D-04  0.172683D-04  0.216351D-01
     25  0.000000D+00  0.526316D-03  0.101667D-02  0.000000D+00  0.119586D+00
     26  0.000000D+00 -0.787865D-03 -0.898764D-03  0.000000D+00  0.126856D+00
     27 -0.147565D-02  0.000000D+00  0.000000D+00  0.236972D-03  0.142146D-04
     28  0.000000D+00  0.119146D-03  0.826185D-04  0.000000D+00  0.925404D-03
     29  0.000000D+00  0.269171D-03 -0.226779D-04  0.000000D+00  0.555137D-03
     30  0.487426D-03  0.000000D+00  0.000000D+00 -0.140092D-02  0.000000D+00
     31  0.000000D+00  0.425070D-02  0.131170D-04  0.000000D+00  0.187992D-02
     32  0.000000D+00 -0.263385D-03  0.285906D-02  0.000000D+00 -0.139383D-02
     33 -0.747793D-03  0.000000D+00  0.000000D+00 -0.358850D-02  0.000000D+00
     34  0.000000D+00 -0.205860D-03 -0.189872D-02  0.000000D+00  0.178480D-03
     35  0.000000D+00  0.137356D-02 -0.860235D-03  0.000000D+00 -0.237759D-03
     36  0.109957D-03  0.000000D+00  0.000000D+00  0.340142D-03  0.000000D+00
               26            27            28            29            30 
     26  0.296935D+00
     27  0.254418D-04  0.234091D-01
     28 -0.497445D-03  0.000000D+00  0.153207D+00
     29  0.496072D-03  0.000000D+00 -0.132717D+00  0.265433D+00
     30  0.000000D+00 -0.353045D-02 -0.288211D-04  0.422757D-04  0.267412D-01
     31 -0.511560D-03  0.000000D+00 -0.105854D-02  0.283382D-03  0.000000D+00
     32  0.216704D-02  0.000000D+00  0.188331D-02  0.236162D-03  0.000000D+00
     33  0.000000D+00 -0.333336D-02  0.000000D+00  0.000000D+00 -0.205850D-03
     34 -0.947628D-04  0.000000D+00 -0.547608D-03 -0.204620D-03  0.000000D+00
     35  0.374781D-03  0.000000D+00  0.676485D-04  0.661175D-04  0.000000D+00
     36  0.000000D+00 -0.567226D-03  0.000000D+00  0.000000D+00 -0.447803D-03
               31            32            33            34            35 
     31  0.492464D+00
     32 -0.148607D+00  0.553984D+00
     33 -0.395583D-04  0.929628D-04  0.266233D-01
     34 -0.106626D+00  0.135162D+00  0.277616D-04  0.136113D+00
     35  0.188204D+00 -0.446739D+00 -0.842749D-04 -0.180362D+00  0.441317D+00
     36  0.392741D-04 -0.834005D-04 -0.409456D-02 -0.351878D-04  0.830090D-04
               36 
     36  0.473346D-02
 FormGI is forming the generalized inverse of G from B-inverse, IUseBI=4.
 Leave Link  716 at Sun Sep  5 14:56:07 2021, MaxMem=  1342177280 cpu:         0.5
 (Enter /gpfs/share/home/1801110325/software/g09e01/l103.exe)

 GradGradGradGradGradGradGradGradGradGradGradGradGradGradGradGradGradGrad
 Berny optimization.
 Red2BG is reusing G-inverse.
 Internal  Forces:  Max     0.002460065 RMS     0.000807061
 Search for a local minimum.
 Step number   1 out of a maximum of   61
 All quantities printed in internal units (Hartrees-Bohrs-Radians)
 RMS Force = .80706D-03 SwitMx=.10000D-02 MixMth= 2
 Mixed Optimization -- En-DIIS/RFO-DIIS
 Second derivative matrix not updated -- analytic derivatives used.
 ITU=  0
     Eigenvalues ---    0.00869   0.01573   0.01705   0.02050   0.02345
     Eigenvalues ---    0.02831   0.03206   0.03667   0.03920   0.10287
     Eigenvalues ---    0.10922   0.12806   0.13291   0.15939   0.18557
     Eigenvalues ---    0.19247   0.21874   0.22407   0.30261   0.35008
     Eigenvalues ---    0.35132   0.35720   0.36379   0.38833   0.41526
     Eigenvalues ---    0.47055   0.47390   0.49661   0.52691   0.54665
 RFO step:  Lambda=-9.56798854D-05 EMin= 8.69358490D-03
 Linear search not attempted -- first point.
 Iteration  1 RMS(Cart)=  0.00300057 RMS(Int)=  0.00001652
 Iteration  2 RMS(Cart)=  0.00001716 RMS(Int)=  0.00000081
 Iteration  3 RMS(Cart)=  0.00000000 RMS(Int)=  0.00000081
 ITry= 1 IFail=0 DXMaxC= 9.75D-03 DCOld= 1.00D+10 DXMaxT= 3.00D-01 DXLimC= 3.00D+00 Rises=F
 Variable       Old X    -DE/DX   Delta X   Delta X   Delta X     New X
                                 (Linear)    (Quad)   (Total)
    R1        2.62365   0.00135   0.00000   0.00197   0.00197   2.62562
    R2        2.51724   0.00214   0.00000   0.00483   0.00484   2.52208
    R3        2.04865   0.00074   0.00000   0.00202   0.00202   2.05066
    R4        2.62969   0.00142   0.00000   0.00273   0.00273   2.63242
    R5        2.04645   0.00111   0.00000   0.00298   0.00298   2.04943
    R6        2.62915   0.00120   0.00000   0.00220   0.00220   2.63135
    R7        2.56570   0.00127   0.00000   0.00414   0.00414   2.56984
    R8        2.61818   0.00144   0.00000   0.00242   0.00242   2.62060
    R9        2.04135   0.00102   0.00000   0.00256   0.00256   2.04391
   R10        2.52416   0.00193   0.00000   0.00425   0.00425   2.52841
   R11        2.04820   0.00073   0.00000   0.00208   0.00208   2.05028
   R12        1.81796   0.00246   0.00000   0.00512   0.00512   1.82309
    A1        2.16549   0.00061   0.00000   0.00322   0.00322   2.16871
    A2        2.08743  -0.00006   0.00000   0.00039   0.00039   2.08782
    A3        2.03027  -0.00055   0.00000  -0.00361  -0.00361   2.02666
    A4        2.06447  -0.00016   0.00000  -0.00103  -0.00104   2.06343
    A5        2.10308   0.00020   0.00000   0.00117   0.00117   2.10425
    A6        2.11564  -0.00004   0.00000  -0.00013  -0.00013   2.11551
    A7        2.06903   0.00021   0.00000   0.00088   0.00087   2.06990
    A8        2.15099   0.00011   0.00000  -0.00018  -0.00018   2.15080
    A9        2.06317  -0.00032   0.00000  -0.00069  -0.00069   2.06248
   A10        2.06205  -0.00025   0.00000  -0.00158  -0.00158   2.06046
   A11        2.09946   0.00015   0.00000   0.00150   0.00150   2.10096
   A12        2.12168   0.00009   0.00000   0.00008   0.00008   2.12176
   A13        2.16902   0.00076   0.00000   0.00385   0.00385   2.17287
   A14        2.08760  -0.00016   0.00000  -0.00016  -0.00016   2.08745
   A15        2.02656  -0.00060   0.00000  -0.00369  -0.00369   2.02286
   A16        2.03632  -0.00118   0.00000  -0.00533  -0.00533   2.03099
   A17        1.92124  -0.00179   0.00000  -0.01163  -0.01163   1.90961
    D1       -0.00013   0.00001   0.00000   0.00013   0.00013  -0.00000
    D2        3.14152   0.00000   0.00000   0.00007   0.00007   3.14159
    D3       -3.14155  -0.00000   0.00000  -0.00004  -0.00004  -3.14159
    D4        0.00010  -0.00000   0.00000  -0.00010  -0.00010   0.00000
    D5        0.00002  -0.00000   0.00000  -0.00002  -0.00002   0.00000
    D6        3.14144   0.00001   0.00000   0.00015   0.00015   3.14159
    D7        0.00007  -0.00000   0.00000  -0.00007  -0.00007   0.00000
    D8       -3.14152  -0.00000   0.00000  -0.00008  -0.00008  -3.14159
    D9       -3.14158  -0.00000   0.00000  -0.00001  -0.00001  -3.14159
   D10        0.00002  -0.00000   0.00000  -0.00002  -0.00002   0.00000
   D11        0.00008  -0.00000   0.00000  -0.00008  -0.00008   0.00000
   D12       -3.14153  -0.00000   0.00000  -0.00006  -0.00006  -3.14159
   D13       -3.14151  -0.00000   0.00000  -0.00008  -0.00008  -3.14159
   D14        0.00006  -0.00000   0.00000  -0.00006  -0.00006   0.00000
   D15       -0.00014   0.00000   0.00000   0.00014   0.00014  -0.00000
   D16        3.14146   0.00000   0.00000   0.00013   0.00013   3.14159
   D17       -0.00021   0.00001   0.00000   0.00020   0.00020  -0.00000
   D18       -3.14144  -0.00001   0.00000  -0.00016  -0.00016  -3.14159
   D19        3.14141   0.00001   0.00000   0.00018   0.00018   3.14159
   D20        0.00018  -0.00001   0.00000  -0.00018  -0.00018   0.00000
   D21        0.00015  -0.00001   0.00000  -0.00015  -0.00015   0.00000
   D22        3.14139   0.00001   0.00000   0.00020   0.00020   3.14159
         Item               Value     Threshold  Converged?
 Maximum Force            0.002460     0.000450     NO 
 RMS     Force            0.000807     0.000300     NO 
 Maximum Displacement     0.009752     0.001800     NO 
 RMS     Displacement     0.003003     0.001200     NO 
 Predicted change in Energy=-4.785695D-05
 Lowest energy point so far.  Saving SCF results.
 GradGradGradGradGradGradGradGradGradGradGradGradGradGradGradGradGradGrad

 Leave Link  103 at Sun Sep  5 14:56:08 2021, MaxMem=  1342177280 cpu:         0.7
 (Enter /gpfs/share/home/1801110325/software/g09e01/l202.exe)
                          Input orientation:                          
 ---------------------------------------------------------------------
 Center     Atomic      Atomic             Coordinates (Angstroms)
 Number     Number       Type             X           Y           Z
 ---------------------------------------------------------------------
      1          6           0        1.148567    1.150873   -0.000017
      2          6           0       -0.240422    1.185324    0.000028
      3          6           0       -0.929480   -0.025335   -0.000009
      4          6           0       -0.196617   -1.209325   -0.000090
      5          6           0        1.187253   -1.119818   -0.000127
      6          7           0        1.872270    0.029500   -0.000094
      7          1           0        1.708182    2.080611    0.000011
      8          1           0       -0.768578    2.132537    0.000091
      9          1           0       -0.702179   -2.165487   -0.000121
     10          1           0        1.782964   -2.026612   -0.000190
     11          8           0       -2.286716   -0.110374    0.000028
     12          1           0       -2.663634    0.777684    0.000083
 ---------------------------------------------------------------------
                    Distance matrix (angstroms):
                    1          2          3          4          5
     1  C    0.000000
     2  C    1.389416   0.000000
     3  C    2.387832   1.393017   0.000000
     4  C    2.716625   2.395049   1.392451   0.000000
     5  C    2.271020   2.711445   2.382950   1.386762   0.000000
     6  N    1.334625   2.408194   2.802287   2.411428   1.337977
     7  H    1.085165   2.144434   3.375244   3.801571   3.242547
     8  H    2.153859   1.084510   2.163863   3.390454   3.795140
     9  H    3.797829   3.382477   2.152189   1.081591   2.159486
    10  H    3.240195   3.796132   3.370824   2.141658   1.084964
    11  O    3.659496   2.422014   1.359898   2.361399   3.617657
    12  H    3.830424   2.457260   1.911055   3.167708   4.293000
                    6          7          8          9         10
     6  N    0.000000
     7  H    2.057664   0.000000
     8  H    3.375922   2.477305   0.000000
     9  H    3.383159   4.882540   4.298537   0.000000
    10  H    2.058051   4.107904   4.879435   2.489020   0.000000
    11  O    4.161338   4.556274   2.708393   2.595043   4.498251
    12  H    4.597196   4.561842   2.329563   3.536886   5.257025
                   11         12
    11  O    0.000000
    12  H    0.964735   0.000000
 Stoichiometry    C5H5NO
 Framework group  C1[X(C5H5NO)]
 Deg. of freedom    30
 Full point group                 C1      NOp   1
 RotChk:  IX=2 Diff= 6.88D-04
 Largest Abelian subgroup         C1      NOp   1
 Largest concise Abelian subgroup C1      NOp   1
                         Standard orientation:                         
 ---------------------------------------------------------------------
 Center     Atomic      Atomic             Coordinates (Angstroms)
 Number     Number       Type             X           Y           Z
 ---------------------------------------------------------------------
      1          6           0       -1.148176    1.151317   -0.000020
      2          6           0        0.240834    1.184927   -0.000065
      3          6           0        0.929158   -0.026149   -0.000027
      4          6           0        0.195580   -1.209694    0.000053
      5          6           0       -1.188236   -1.119350    0.000090
      6          7           0       -1.872558    0.030383    0.000057
      7          1           0       -1.707228    2.081394   -0.000047
      8          1           0        0.769563    2.131821   -0.000128
      9          1           0        0.700563   -2.166163    0.000084
     10          1           0       -1.784496   -2.025783    0.000153
     11          8           0        2.286343   -0.112009   -0.000065
     12          1           0        2.663799    0.775821   -0.000120
 ---------------------------------------------------------------------
 Rotational constants (GHZ):      6.0209261      2.6401300      1.8353452
 Leave Link  202 at Sun Sep  5 14:56:08 2021, MaxMem=  1342177280 cpu:         0.2
 (Enter /gpfs/share/home/1801110325/software/g09e01/l301.exe)
 Basis read from rwf:  (5D, 7F)
 No pseudopotential information found on rwf file.
[...]
 Iteration  1 RMS(Cart)=  0.00002015 RMS(Int)=  0.00000000
 Iteration  2 RMS(Cart)=  0.00000000 RMS(Int)=  0.00000000
 ITry= 1 IFail=0 DXMaxC= 1.08D-04 DCOld= 1.00D+10 DXMaxT= 3.00D-01 DXLimC= 3.00D+00 Rises=F
 Variable       Old X    -DE/DX   Delta X   Delta X   Delta X     New X
                                 (Linear)    (Quad)   (Total)
    R1        2.62562   0.00000   0.00000   0.00000   0.00000   2.62562
    R2        2.52208   0.00002   0.00000   0.00004   0.00004   2.52211
    R3        2.05066   0.00000   0.00000   0.00001   0.00001   2.05067
    R4        2.63242   0.00001   0.00000   0.00002   0.00002   2.63244
    R5        2.04943   0.00001   0.00000   0.00002   0.00002   2.04944
    R6        2.63135   0.00001   0.00000   0.00001   0.00001   2.63136
    R7        2.56984   0.00002   0.00000   0.00003   0.00003   2.56986
    R8        2.62060   0.00001   0.00000   0.00002   0.00002   2.62062
    R9        2.04391   0.00000   0.00000   0.00001   0.00001   2.04392
   R10        2.52841   0.00001   0.00000   0.00003   0.00003   2.52844
   R11        2.05028   0.00000   0.00000   0.00001   0.00001   2.05029
   R12        1.82309   0.00003   0.00000   0.00005   0.00005   1.82313
    A1        2.16871  -0.00000   0.00000   0.00000   0.00000   2.16871
    A2        2.08782  -0.00000   0.00000   0.00000   0.00000   2.08782
    A3        2.02666   0.00000   0.00000  -0.00000  -0.00000   2.02665
    A4        2.06343   0.00000   0.00000   0.00000   0.00000   2.06343
    A5        2.10425   0.00000   0.00000   0.00001   0.00001   2.10425
    A6        2.11551  -0.00000   0.00000  -0.00001  -0.00001   2.11550
    A7        2.06990   0.00000   0.00000   0.00001   0.00001   2.06991
    A8        2.15080  -0.00000   0.00000  -0.00001  -0.00001   2.15080
    A9        2.06248   0.00000   0.00000  -0.00000  -0.00000   2.06248
   A10        2.06046  -0.00000   0.00000  -0.00001  -0.00001   2.06046
   A11        2.10096   0.00000   0.00000   0.00001   0.00001   2.10097
   A12        2.12176   0.00000   0.00000   0.00000   0.00000   2.12176
   A13        2.17287   0.00000   0.00000   0.00001   0.00001   2.17288
   A14        2.08745  -0.00000   0.00000  -0.00000  -0.00000   2.08744
   A15        2.02286  -0.00000   0.00000  -0.00001  -0.00001   2.02286
   A16        2.03099  -0.00000   0.00000  -0.00001  -0.00001   2.03097
   A17        1.90961   0.00001   0.00000   0.00004   0.00004   1.90965
    D1       -0.00000   0.00000   0.00000   0.00000   0.00000  -0.00000
    D2        3.14159   0.00000   0.00000   0.00000   0.00000   3.14159
    D3       -3.14159  -0.00000   0.00000   0.00000   0.00000  -3.14159
    D4        0.00000  -0.00000   0.00000  -0.00000  -0.00000  -0.00000
    D5        0.00000  -0.00000   0.00000  -0.00000  -0.00000   0.00000
    D6        3.14159   0.00000   0.00000   0.00000   0.00000   3.14159
    D7        0.00000  -0.00000   0.00000  -0.00000  -0.00000   0.00000
    D8       -3.14159  -0.00000   0.00000  -0.00000  -0.00000   3.14159
    D9       -3.14159  -0.00000   0.00000   0.00000   0.00000  -3.14159
   D10        0.00000  -0.00000   0.00000  -0.00000  -0.00000   0.00000
   D11        0.00000  -0.00000   0.00000  -0.00000  -0.00000  -0.00000
   D12       -3.14159  -0.00000   0.00000  -0.00000  -0.00000  -3.14159
   D13       -3.14159  -0.00000   0.00000  -0.00000  -0.00000  -3.14159
   D14        0.00000  -0.00000   0.00000  -0.00000  -0.00000   0.00000
   D15       -0.00000   0.00000   0.00000   0.00000   0.00000   0.00000
   D16        3.14159   0.00000   0.00000   0.00000   0.00000  -3.14159
   D17       -0.00000   0.00000   0.00000   0.00000   0.00000  -0.00000
   D18       -3.14159  -0.00000   0.00000  -0.00000  -0.00000  -3.14159
   D19        3.14159   0.00000   0.00000   0.00000   0.00000   3.14159
   D20        0.00000  -0.00000   0.00000  -0.00000  -0.00000  -0.00000
   D21        0.00000  -0.00000   0.00000  -0.00000  -0.00000   0.00000
   D22        3.14159   0.00000   0.00000   0.00000   0.00000  -3.14159
         Item               Value     Threshold  Converged?
 Maximum Force            0.000025     0.000450     YES
 RMS     Force            0.000006     0.000300     YES
 Maximum Displacement     0.000108     0.001800     YES
 RMS     Displacement     0.000020     0.001200     YES
 Predicted change in Energy=-1.907980D-09
 Optimization completed.
    -- Stationary point found.
                           ----------------------------
                           !   Optimized Parameters   !
                           ! (Angstroms and Degrees)  !
 --------------------------                            --------------------------
 ! Name  Definition              Value          Derivative Info.                !
 --------------------------------------------------------------------------------
 ! R1    R(1,2)                  1.3894         -DE/DX =    0.0                 !
 ! R2    R(1,6)                  1.3346         -DE/DX =    0.0                 !
 ! R3    R(1,7)                  1.0852         -DE/DX =    0.0                 !
 ! R4    R(2,3)                  1.393          -DE/DX =    0.0                 !
 ! R5    R(2,8)                  1.0845         -DE/DX =    0.0                 !
 ! R6    R(3,4)                  1.3925         -DE/DX =    0.0                 !
 ! R7    R(3,11)                 1.3599         -DE/DX =    0.0                 !
 ! R8    R(4,5)                  1.3868         -DE/DX =    0.0                 !
 ! R9    R(4,9)                  1.0816         -DE/DX =    0.0                 !
 ! R10   R(5,6)                  1.338          -DE/DX =    0.0                 !
 ! R11   R(5,10)                 1.085          -DE/DX =    0.0                 !
 ! R12   R(11,12)                0.9647         -DE/DX =    0.0                 !
 ! A1    A(2,1,6)              124.2579         -DE/DX =    0.0                 !
 ! A2    A(2,1,7)              119.6232         -DE/DX =    0.0                 !
 ! A3    A(6,1,7)              116.1189         -DE/DX =    0.0                 !
 ! A4    A(1,2,3)              118.2259         -DE/DX =    0.0                 !
 ! A5    A(1,2,8)              120.5644         -DE/DX =    0.0                 !
 ! A6    A(3,2,8)              121.2097         -DE/DX =    0.0                 !
 ! A7    A(2,3,4)              118.5967         -DE/DX =    0.0                 !
 ! A8    A(2,3,11)             123.232          -DE/DX =    0.0                 !
 ! A9    A(4,3,11)             118.1713         -DE/DX =    0.0                 !
 ! A10   A(3,4,5)              118.0559         -DE/DX =    0.0                 !
 ! A11   A(3,4,9)              120.3762         -DE/DX =    0.0                 !
 ! A12   A(5,4,9)              121.5679         -DE/DX =    0.0                 !
 ! A13   A(4,5,6)              124.4965         -DE/DX =    0.0                 !
 ! A14   A(4,5,10)             119.6019         -DE/DX =    0.0                 !
 ! A15   A(6,5,10)             115.9016         -DE/DX =    0.0                 !
 ! A16   A(1,6,5)              116.3671         -DE/DX =    0.0                 !
 ! A17   A(3,11,12)            109.4126         -DE/DX =    0.0                 !
 ! D1    D(6,1,2,3)             -0.0001         -DE/DX =    0.0                 !
 ! D2    D(6,1,2,8)            179.9999         -DE/DX =    0.0                 !
 ! D3    D(7,1,2,3)           -180.0            -DE/DX =    0.0                 !
 ! D4    D(7,1,2,8)              0.0            -DE/DX =    0.0                 !
 ! D5    D(2,1,6,5)              0.0            -DE/DX =    0.0                 !
 ! D6    D(7,1,6,5)            179.9999         -DE/DX =    0.0                 !
 ! D7    D(1,2,3,4)              0.0            -DE/DX =    0.0                 !
 ! D8    D(1,2,3,11)           180.0            -DE/DX =    0.0                 !
 ! D9    D(8,2,3,4)           -180.0            -DE/DX =    0.0                 !
 ! D10   D(8,2,3,11)             0.0            -DE/DX =    0.0                 !
 ! D11   D(2,3,4,5)              0.0            -DE/DX =    0.0                 !
 ! D12   D(2,3,4,9)           -180.0            -DE/DX =    0.0                 !
 ! D13   D(11,3,4,5)          -180.0            -DE/DX =    0.0                 !
 ! D14   D(11,3,4,9)             0.0            -DE/DX =    0.0                 !
 ! D15   D(2,3,11,12)            0.0            -DE/DX =    0.0                 !
 ! D16   D(4,3,11,12)         -180.0            -DE/DX =    0.0                 !
 ! D17   D(3,4,5,6)             -0.0001         -DE/DX =    0.0                 !
 ! D18   D(3,4,5,10)          -180.0            -DE/DX =    0.0                 !
 ! D19   D(9,4,5,6)            179.9999         -DE/DX =    0.0                 !
 ! D20   D(9,4,5,10)             0.0001         -DE/DX =    0.0                 !
 ! D21   D(4,5,6,1)              0.0001         -DE/DX =    0.0                 !
 ! D22   D(10,5,6,1)          -180.0001         -DE/DX =    0.0                 !
 --------------------------------------------------------------------------------
 GradGradGradGradGradGradGradGradGradGradGradGradGradGradGradGradGradGrad

 Leave Link  103 at Sun Sep  5 15:05:27 2021, MaxMem=  1342177280 cpu:         0.1
 (Enter /gpfs/share/home/1801110325/software/g09e01/l9999.exe)
 1\1\GINC-A7U03N02\Freq\RTPSSh\Gen\C5H5N1O1\1801110325\05-Sep-2021\0\\#
 P Geom=AllCheck Guess=TCheck SCRF=Check GenChk RTPSSh/ChkBas Freq\\4HY
 _TPSSh_PC2_OPT_FREQ\\0,1\C,1.1485666012,1.1508727895,-0.0000174237\C,-
 0.2404221297,1.1853238594,0.0000281213\C,-0.9294795897,-0.0253350805,-
 0.0000094744\C,-0.1966172348,-1.2093247087,-0.0000895953\C,1.187252867
 9,-1.1198178556,-0.0001268708\N,1.8722704985,0.0295004787,-0.000093621
 9\H,1.7081821243,2.0806112162,0.000010522\H,-0.7685784141,2.1325372302
 ,0.0000908327\H,-0.7021793713,-2.1654870908,-0.0001210686\H,1.78296353
 85,-2.0266115895,-0.0001900178\O,-2.2867164236,-0.1103741121,0.0000282
 541\H,-2.6636344672,0.7776838632,0.0000833424\\Version=EM64L-G09RevE.0
 1\State=1-A\HF=-323.6510923\RMSD=1.810e-09\RMSF=6.984e-06\ZeroPoint=0.
 0926592\Thermal=0.0980179\Dipole=-0.9381975,0.501106,0.0000535\DipoleD
 eriv=0.465079,0.0308263,-0.0000134,-0.0078316,0.379298,0.000019,-0.000
 0149,0.0000182,-0.0091041,-0.4307879,-0.1252171,0.0000025,-0.3187291,-
 0.0988488,0.0000127,-0.0000069,0.0000064,-0.1524686,1.5868666,-0.00423
 76,-0.0000462,-0.0000735,0.3166859,0.0000103,-0.0000459,0.0000104,0.10
 24041,-0.4298582,0.134238,0.0000154,0.2848854,-0.0847253,-0.0000059,0.
 000023,-0.0000013,-0.1421772,0.4807601,-0.0622604,-0.0000178,0.0349954
 ,0.3869271,0.0000181,-0.0000141,0.0000216,-0.0111415,-0.6083071,0.0170
 133,0.0000111,-0.0180642,-0.6185811,-0.0000163,0.0000096,-0.000017,-0.
 2725832,0.0291951,-0.0767396,-0.0000014,-0.0628581,-0.0905514,-0.00000
 74,-0.0000009,-0.0000073,0.1032476,-0.0133988,0.0939188,0.0000096,0.08
 30386,-0.0487049,-0.0000122,0.0000092,-0.0000124,0.148477,0.0445247,-0
 .0614232,0.0000001,-0.0547823,-0.0268513,-0.0000068,0.0000003,-0.00000
 66,0.1485298,0.0257936,0.0834156,0.0000064,0.0648873,-0.0815527,-0.000
 0109,0.000006,-0.0000122,0.104182,-1.5152191,0.0166685,0.0000373,0.000
 3178,-0.1654269,0.0000083,0.0000363,0.0000079,-0.3364095,0.3653521,-0.
 0462027,-0.0000038,-0.0057856,0.1323315,-0.0000088,-0.0000017,-0.00000
 76,0.3170435\Polar=82.3662644,-1.4427985,77.1163281,-0.0014389,0.00193
 05,38.0712373\PG=C01 [X(C5H5N1O1)]\NImag=0\\0.67600627,0.04451995,0.72
 478941,-0.00001394,0.00002596,0.15699047,-0.32682461,-0.03766950,0.000
 00650,0.68468160,0.02865332,-0.13009856,-0.00000419,-0.03482262,0.7133
 3378,0.00000981,-0.00000210,-0.06202829,-0.00001950,0.00003015,0.11434
 262,-0.02938096,-0.03398567,-0.00000072,-0.15751193,-0.10793104,-0.000
 00245,0.68416919,-0.08464782,0.04562116,0.00000480,-0.03594366,-0.2870
 1635,-0.00000969,-0.01288194,0.70871752,-0.00000314,0.00000323,0.00106
 715,0.00000103,-0.00000750,-0.06534263,-0.00001672,0.00002704,0.162123
 74,-0.04768096,0.03690779,0.00000307,0.05671311,0.01633836,-0.00000079
 ,-0.15703608,0.04472888,0.00000495,0.69739549,0.01885786,-0.01457059,-
 0.00000094,-0.01278905,-0.04632507,-0.00000221,0.11192933,-0.28481230,
 -0.00001396,0.03828766,0.72494988,0.00000221,-0.00000157,-0.00635251,-
 0.00000210,-0.00000310,0.00743667,0.00000821,-0.00001193,-0.06764428,-
 0.00001575,0.00002825,0.11918510,0.05192985,-0.02071396,-0.00000251,-0
 .04568866,-0.01851675,0.00000030,-0.03587114,0.07867274,0.00000494,-0.
 33523878,-0.03756788,0.00000630,0.68732830,0.02578843,-0.09779463,-0.0
 0000566,-0.03842092,-0.01673733,0.00000071,0.02969096,0.05081382,0.000
 00152,0.02807424,-0.13325659,-0.00000428,-0.04827581,0.71667462,-0.000
 00031,-0.00000423,0.00395741,-0.00000065,0.00000011,-0.00686903,0.0000
 0258,-0.00000006,0.00118139,0.00000963,-0.00000232,-0.06245551,-0.0000
 1866,0.00002841,0.15858752,-0.18245919,0.11090317,0.00000884,-0.034029
 40,0.03189835,0.00000328,0.01163535,0.00294211,-0.00000044,-0.02839008
 ,-0.03503209,-0.00000015,-0.17456152,-0.10425197,-0.00000171,0.3999715
 9,0.08798395,-0.27339042,-0.00001262,0.08936853,0.02570395,-0.00000258
 ,0.00296851,-0.08636484,-0.00000394,-0.09043144,0.02247378,0.00000291,
 -0.08132728,-0.27456604,-0.00000726,-0.00756168,0.63789385,0.00000765,
 -0.00001321,-0.06849852,0.00000605,-0.00000083,0.02179926,-0.00000046,
 -0.00000385,-0.00758072,-0.00000282,0.00000112,0.02112876,-0.00000051,
 -0.00000655,-0.06865153,-0.00000983,0.00002620,0.09482986,-0.13907198,
 -0.12559607,-0.00000308,-0.01193104,-0.02756467,-0.00000077,-0.0052747
 1,0.00239655,0.00000054,-0.00042588,0.00087072,0.00000002,0.00027121,0
 .00476062,0.00000053,0.01392174,0.01957509,0.00000041,0.14235729,-0.12
 450184,-0.24284816,-0.00000587,0.00185627,0.00365303,-0.00000019,0.001
 25340,0.00124155,-0.00000037,0.00007828,0.00023215,0.00000006,0.003198
 79,-0.00243825,-0.00000070,-0.00690126,-0.03278972,-0.00000120,0.12657
 165,0.27324596,-0.00000304,-0.00000589,-0.04195511,0.00000066,0.000000
 74,0.00649539,0.00000048,-0.00000040,0.00809898,0.,0.00000002,-0.00103
 515,0.00000043,-0.00000076,0.00996174,-0.00000088,-0.00000198,-0.00330
 299,0.00000257,0.00000801,0.02667501,-0.00705552,0.03157445,0.00000174
 ,-0.12124523,0.11418056,0.00000841,0.00796258,-0.01479851,-0.00000085,
 -0.00053936,-0.00368967,0.00000002,-0.00161411,-0.00207320,-0.00000007
 ,-0.00718938,0.00011164,0.00000049,0.00090348,-0.00054971,-0.00000016,
 0.12405555,-0.00172487,0.00272380,0.00000021,0.11430257,-0.26808736,-0
 .00001504,0.01901858,-0.01885292,-0.00000166,-0.00450952,-0.00312803,-
 0.00000030,-0.00117136,0.00012469,0.00000007,-0.00024242,0.00227852,-0
 .00000029,0.00046684,0.00052785,0.00000017,-0.12533470,0.28336419,0.00
 000012,-0.00000085,-0.00038245,0.00000840,-0.00001501,-0.03062178,0.00
 000078,-0.00000061,0.00299792,-0.00000002,-0.00000032,0.00583606,-0.00
 000002,0.00000010,-0.00052948,0.00000047,-0.00000030,0.00839202,-0.000
 00011,0.00000020,-0.00332925,-0.00000930,0.00001654,0.02198929,-0.0015
 6824,0.00192945,0.00000013,-0.00138688,0.00344306,0.00000039,0.0112496
 8,0.01630460,0.00000058,-0.11811086,-0.11592811,-0.00000308,-0.0059360
 1,-0.03039849,-0.00000130,-0.00669381,-0.00044449,0.00000044,0.0001293
 8,-0.00024891,-0.00000006,0.00052670,0.00101511,0.00000004,0.11882696,
 0.00115727,0.00017998,0.,0.00417860,-0.00280125,-0.00000056,-0.0168374
 1,-0.01928567,-0.00000063,-0.11402455,-0.28055934,-0.00000855,0.001733
 35,0.00303619,0.00000011,0.00033987,0.00223973,-0.00000033,-0.00008154
 ,-0.00001057,0.00000007,-0.00078211,-0.00089355,-0.00000003,0.12540574
 ,0.29508455,0.00000008,-0.00000001,-0.00051949,0.00000043,-0.00000053,
 0.00597671,-0.00000104,-0.00000163,0.00412163,-0.00000298,-0.00000849,
 -0.03315188,0.00000026,0.00000106,-0.00018155,0.00000049,-0.00000029,0
 .00864232,-0.00000005,0.00000008,-0.00145910,-0.00000005,-0.00000009,0
 .00024222,0.00000322,0.00000937,0.02372972,0.00061991,-0.00473426,0.00
 000006,-0.00047224,-0.00088540,-0.00000006,-0.00491643,-0.00245911,0.0
 0000029,-0.01283252,0.02704438,0.00000194,-0.14922175,0.12966503,0.000
 00969,0.01412194,-0.01787011,-0.00000140,0.00036639,-0.00060958,-0.000
 00002,0.00011960,0.00008230,-0.00000004,0.00091495,-0.00049306,-0.0000
 0016,0.15289723,-0.00306662,-0.00287474,-0.00000051,-0.00010909,0.0002
 5651,0.00000006,-0.00152597,0.00106118,-0.00000032,-0.00254957,0.00464
 519,-0.00000003,0.12860947,-0.23379700,-0.00001330,0.00878377,-0.03288
 760,-0.00000171,0.00065766,-0.00095711,-0.00000009,0.00026612,-0.00002
 225,0.00000006,0.00055529,0.00049865,0.00000018,-0.13169205,0.26377489
 ,0.00000016,-0.00000046,0.00968886,-0.00000003,0.00000007,-0.00098702,
 0.00000032,-0.00000028,0.00841396,0.00000045,-0.00000091,0.00673536,0.
 00000970,-0.00001343,-0.04276812,-0.00000011,-0.00000083,-0.00303236,0
 .00000003,-0.00000005,0.00047937,-0.00000004,0.00000006,-0.00138545,-0
 .00000010,0.00000021,-0.00352632,-0.00001042,0.00001561,0.02703971,0.0
 0676564,-0.00397052,-0.00000014,-0.04643492,-0.00567947,0.00000152,-0.
 29814381,-0.04251334,0.00000581,-0.04681978,0.01164213,0.00000224,0.00
 821464,0.00248153,0.00000006,-0.00717276,-0.00083863,0.00000007,-0.001
 60794,-0.00018047,0.00000002,0.00425372,0.00001404,-0.00000025,0.00186
 478,-0.00049649,-0.00000018,-0.00104763,0.00027381,0.00000004,0.482625
 25,0.00675688,-0.01024294,-0.00000114,-0.04443592,0.00388418,0.0000010
 2,0.01013742,-0.11160645,-0.00000362,0.04843086,0.00791724,-0.00000145
 ,-0.00471123,-0.01159974,-0.00000070,-0.00081203,0.00906387,0.00000063
 ,-0.00186632,0.00017961,0.00000011,-0.00030920,0.00284022,0.00000032,-
 0.00139679,0.00213886,0.00000031,0.00188510,0.00023621,-0.00000003,-0.
 14131072,0.54919028,0.00000037,-0.00000079,0.00870521,-0.00000038,-0.0
 0000016,0.01116586,0.00000832,-0.00000199,-0.04475993,0.00000400,-0.00
 000030,0.00705878,-0.00000029,-0.00000092,0.00585711,0.00000007,0.0000
 0062,-0.00356744,-0.00000007,0.00000005,-0.00073902,-0.00000026,0.0000
 0031,-0.00356283,-0.00000023,0.00000029,-0.00331564,0.00000012,0.00000
 001,-0.00020989,-0.00002080,0.00002944,0.02928955,-0.00128021,0.000835
 18,0.00000006,0.00413021,0.00088631,-0.00000015,-0.02688174,0.04819951
 ,0.00000303,-0.00703429,-0.00362528,0.00000014,0.00038797,0.00295958,0
 .00000019,0.00084552,-0.00153408,-0.00000010,0.00036208,0.00003340,0.,
 -0.00017803,-0.00191657,-0.00000007,0.00018335,-0.00009966,-0.00000003
 ,-0.00054945,-0.00020281,0.,-0.10249718,0.12763196,0.00000914,0.132511
 77,0.00022351,-0.00149432,-0.00000005,-0.00551520,0.00423447,0.0000004
 4,-0.00183617,0.00048330,0.00000022,-0.00133098,0.00243369,0.,0.000069
 94,-0.00045974,-0.00000012,-0.00006581,0.00034492,0.00000003,-0.000190
 53,-0.00003633,0.,0.00140433,-0.00087514,-0.00000010,-0.00023645,0.000
 37242,0.00000005,0.00006678,0.00006606,0.00000002,0.18057812,-0.442001
 35,-0.00002656,-0.17316755,0.43693203,0.00000003,-0.00000007,-0.000672
 72,-0.00000041,0.00000026,-0.00136777,0.00000068,-0.00000139,-0.002677
 21,0.00000025,0.00000007,0.00325862,0.00000005,-0.00000021,0.00191004,
 -0.00000003,0.00000007,-0.00015866,-0.00000002,0.,0.00011013,0.0000000
 5,0.00000001,0.00035372,-0.00000003,0.00000005,-0.00055862,0.,0.000000
 03,-0.00044810,0.00001161,-0.00002488,-0.00592176,-0.00001219,0.000026
 06,0.00617234\\0.00000662,-0.00001115,-0.00000014,-0.00000260,-0.00000
 349,0.00000006,-0.00000831,0.00000595,0.,0.00000321,0.00000360,-0.0000
 0009,0.00000210,0.00000765,0.00000030,-0.00001863,0.00000350,-0.000000
 08,-0.00000184,-0.00000283,0.00000005,0.00000296,-0.00000506,0.,0.0000
 0245,0.00000368,-0.00000003,-0.00000120,0.00000333,-0.00000008,0.00000
 028,0.00001617,-0.00000002,0.00001495,-0.00002135,0.00000002\\\@


 ERROR IS A HARDY PLANT... IT FLOURISHETH IN EVERY SOIL.
            MARTIN FARQUHAR TUPPER
 Job cpu time:       0 days  0 hours 46 minutes 43.8 seconds.
 File lengths (MBytes):  RWF=   2128 Int=      0 D2E=      0 Chk=     32 Scr=     32
 Normal termination of Gaussian 09 at Sun Sep  5 15:05:27 2021.
