 Entering Gaussian System, Link 0=g09
 AtFile(1): pc-2.gbs
            -H     0
            S    4   1.00
                  0.754230D+02           0.240650D-02
                  0.113500D+02           0.184870D-01
                  0.259930D+01           0.897420D-01
                  0.735130D+00           0.281110D+00
            S    1   1.00
                  0.231670D+00           0.100000D+01
            S    1   1.00
                  0.741470D-01           0.100000D+01
            P    1   1.00
                  0.160000D+01           0.100000D+01
            P    1   1.00
                  0.450000D+00           0.100000D+01
            D    1   1.00
                  0.125000D+01           0.100000D+01
            ****
            -C     0
            S    7   1.00
                  0.785710D+04           0.568250D-03
                  0.117870D+04           0.439150D-02
                  0.268320D+03           0.225040D-01
                  0.759480D+02           0.866530D-01
                  0.245590D+02           0.244050D+00
                  0.862120D+01           0.441480D+00
                  0.312780D+01           0.353320D+00
            S    7   1.00
                  0.117870D+04          -0.594920D-06
                  0.268320D+03          -0.627480D-04
                  0.759480D+02          -0.757730D-03
                  0.245590D+02          -0.733080D-02
                  0.862120D+01          -0.389320D-01
                  0.312780D+01          -0.889080D-01
                  0.822020D+00           0.216890D+00
            S    1   1.00
                  0.330170D+00           0.100000D+01
            S    1   1.00
                  0.114630D+00           0.100000D+01
            P    4   1.00
                  0.337750D+02           0.602940D-02
                  0.767660D+01           0.432280D-01
                  0.223570D+01           0.163010D+00
                  0.764470D+00           0.365040D+00
            P    1   1.00
                  0.262320D+00           0.100000D+01
            P    1   1.00
                  0.846380D-01           0.100000D+01
            D    1   1.00
                  0.140000D+01           0.100000D+01
            D    1   1.00
                  0.450000D+00           0.100000D+01
            F    1   1.00
                  0.950000D+00           0.100000D+01
            ****
            -N     0
            S    7   1.00
                  0.111010D+05           0.545700D-03
                  0.166530D+04           0.421810D-02
                  0.379080D+03           0.216450D-01
                  0.107300D+03           0.837760D-01
                  0.347470D+02           0.238810D+00
                  0.122490D+02           0.439940D+00
                  0.447430D+01           0.363640D+00
            S    7   1.00
                  0.166530D+04          -0.150060D-05
                  0.379080D+03          -0.587530D-04
                  0.107300D+03          -0.774530D-03
                  0.347470D+02          -0.721610D-02
                  0.122490D+02          -0.393380D-01
                  0.447430D+01          -0.906110D-01
                  0.124040D+01           0.198820D+00
            S    1   1.00
                  0.487430D+00           0.100000D+01
            S    1   1.00
                  0.164840D+00           0.100000D+01
            P    4   1.00
                  0.479340D+02           0.617060D-02
                  0.109990D+02           0.442600D-01
                  0.324720D+01           0.168250D+00
                  0.111140D+01           0.368480D+00
            P    1   1.00
                  0.379880D+00           0.100000D+01
            P    1   1.00
                  0.120680D+00           0.100000D+01
            D    1   1.00
                  0.180000D+01           0.100000D+01
            D    1   1.00
                  0.550000D+00           0.100000D+01
            F    1   1.00
                  0.102000D+01           0.100000D+01
            ****
            -O     0
            S    7   1.00
                  0.147820D+05           0.535190D-03
                  0.221730D+04           0.413750D-02
                  0.504740D+03           0.212450D-01
                  0.142870D+03           0.824530D-01
                  0.463000D+02           0.236710D+00
                  0.163370D+02           0.440390D+00
                  0.598280D+01           0.364650D+00
            S    7   1.00
                  0.221730D+04          -0.192750D-05
                  0.504740D+03          -0.579640D-04
                  0.142870D+03          -0.794940D-03
                  0.463000D+02          -0.731250D-02
                  0.163370D+02          -0.405740D-01
                  0.598280D+01          -0.915940D-01
                  0.167180D+01           0.209400D+00
            S    1   1.00
                  0.646620D+00           0.100000D+01
            S    1   1.00
                  0.216690D+00           0.100000D+01
            P    4   1.00
                  0.604240D+02           0.689490D-02
                  0.139350D+02           0.490050D-01
                  0.415310D+01           0.182550D+00
                  0.141580D+01           0.376330D+00
            P    1   1.00
                  0.475490D+00           0.100000D+01
            P    1   1.00
                  0.145290D+00           0.100000D+01
            D    1   1.00
                  0.220000D+01           0.100000D+01
            D    1   1.00
                  0.650000D+00           0.100000D+01
            F    1   1.00
                  0.110000D+01           0.100000D+01
            ****
 Initial command:
 /public3/home/sc51754/softwares/g09e01/l1.exe "./Gau-14239.inp" -scrdir="./"
 Entering Link 1 = /public3/home/sc51754/softwares/g09e01/l1.exe PID=     14240.
  
 Copyright (c) 1988,1990,1992,1993,1995,1998,2003,2009,2015,
            Gaussian, Inc.  All Rights Reserved.
  
 This is part of the Gaussian(R) 09 program.  It is based on
 the Gaussian(R) 03 system (copyright 2003, Gaussian, Inc.),
 the Gaussian(R) 98 system (copyright 1998, Gaussian, Inc.),
 the Gaussian(R) 94 system (copyright 1995, Gaussian, Inc.),
 the Gaussian 92(TM) system (copyright 1992, Gaussian, Inc.),
 the Gaussian 90(TM) system (copyright 1990, Gaussian, Inc.),
 the Gaussian 88(TM) system (copyright 1988, Gaussian, Inc.),
 the Gaussian 86(TM) system (copyright 1986, Carnegie Mellon
 University), and the Gaussian 82(TM) system (copyright 1983,
 Carnegie Mellon University). Gaussian is a federally registered
 trademark of Gaussian, Inc.
  
 This software contains proprietary and confidential information,
 including trade secrets, belonging to Gaussian, Inc.
  
 This software is provided under written license and may be
 used, copied, transmitted, or stored only in accord with that
 written license.
  
 The following legend is applicable only to US Government
 contracts under FAR:
  
                    RESTRICTED RIGHTS LEGEND
  
 Use, reproduction and disclosure by the US Government is
 subject to restrictions as set forth in subparagraphs (a)
 and (c) of the Commercial Computer Software - Restricted
 Rights clause in FAR 52.227-19.
  
 Gaussian, Inc.
 340 Quinnipiac St., Bldg. 40, Wallingford CT 06492
  
  
 ---------------------------------------------------------------
 Warning -- This program may not be used in any manner that
 competes with the business of Gaussian, Inc. or will provide
 assistance to any competitor of Gaussian, Inc.  The licensee
 of this program is prohibited from giving any competitor of
 Gaussian, Inc. access to this program.  By using this program,
 the user acknowledges that Gaussian, Inc. is engaged in the
 business of creating and licensing software in the field of
 computational chemistry and represents and warrants to the
 licensee that it is not a competitor of Gaussian, Inc. and that
 it will not use this program in any manner prohibited above.
 ---------------------------------------------------------------
  

 Cite this work as:
 Gaussian 09, Revision E.01,
 M. J. Frisch, G. W. Trucks, H. B. Schlegel, G. E. Scuseria, 
 M. A. Robb, J. R. Cheeseman, G. Scalmani, V. Barone, B. Mennucci, 
 G. A. Petersson, H. Nakatsuji, M. Caricato, X. Li, H. P. Hratchian, 
 A. F. Izmaylov, J. Bloino, G. Zheng, J. L. Sonnenberg, M. Hada, 
 M. Ehara, K. Toyota, R. Fukuda, J. Hasegawa, M. Ishida, T. Nakajima, 
 Y. Honda, O. Kitao, H. Nakai, T. Vreven, J. A. Montgomery, Jr., 
 J. E. Peralta, F. Ogliaro, M. Bearpark, J. J. Heyd, E. Brothers, 
 K. N. Kudin, V. N. Staroverov, T. Keith, R. Kobayashi, J. Normand, 
 K. Raghavachari, A. Rendell, J. C. Burant, S. S. Iyengar, J. Tomasi, 
 M. Cossi, N. Rega, J. M. Millam, M. Klene, J. E. Knox, J. B. Cross, 
 V. Bakken, C. Adamo, J. Jaramillo, R. Gomperts, R. E. Stratmann, 
 O. Yazyev, A. J. Austin, R. Cammi, C. Pomelli, J. W. Ochterski, 
 R. L. Martin, K. Morokuma, V. G. Zakrzewski, G. A. Voth, 
 P. Salvador, J. J. Dannenberg, S. Dapprich, A. D. Daniels, 
 O. Farkas, J. B. Foresman, J. V. Ortiz, J. Cioslowski, 
 and D. J. Fox, Gaussian, Inc., Wallingford CT, 2013.
 
 ******************************************
 Gaussian 09:  EM64L-G09RevE.01 30-Nov-2015
                27-Aug-2021 
 ******************************************
 %nprocshared=64
 Will use up to   64 processors via shared memory.
 %mem=128GB
 %chk=4HY_PBEPBE_PC2_OPT_FREQ.chk
 ----------------------
 #p opt freq PBEPBE/gen
 ----------------------
 1/14=-1,18=20,19=15,26=3,38=1/1,3;
 2/9=110,12=2,17=6,18=5,40=1/2;
 3/5=7,11=2,16=1,25=1,30=1,71=1,74=1009/1,2,3;
 4//1;
 5/5=2,38=5/2;
 6/7=2,8=2,9=2,10=2,28=1/1;
 7//1,2,3,16;
 1/14=-1,18=20,19=15,26=3/3(2);
 2/9=110/2;
 99//99;
 2/9=110/2;
 3/5=7,6=1,11=2,16=1,25=1,30=1,71=1,74=1009,82=7/1,2,3;
 4/5=5,16=3,69=1/1;
 5/5=2,38=5/2;
 7//1,2,3,16;
 1/14=-1,18=20,19=15,26=3/3(-5);
 2/9=110/2;
 6/7=2,8=2,9=2,10=2,19=2,28=1/1;
 99/9=1/99;
 Leave Link    1 at Fri Aug 27 21:10:12 2021, MaxMem= 17179869184 cpu:       320.8
 (Enter /public3/home/sc51754/softwares/g09e01/l101.exe)
 -----------------------
 4HY_PBEPBE_PC2_OPT_FREQ
 -----------------------
 Symbolic Z-matrix:
 Charge =  0 Multiplicity = 1
 C                     1.15223   1.15341  -0.00011 
 C                    -0.24145   1.18944   0.00003 
 C                    -0.93443  -0.02499   0.00004 
 C                    -0.19715  -1.21307  -0.00009 
 C                     1.19102  -1.12281   0.00022 
 N                     1.87822   0.02956   0.00002 
 H                     1.71189   2.08718  -0.0001 
 H                    -0.77027   2.13945  -0.00002 
 H                    -0.70664  -2.17013  -0.00044 
 H                     1.78719  -2.03343  -0.00024 
 O                    -2.29029  -0.1124   -0.00001 
 H                    -2.6687    0.77737   0.00031 
 
 NAtoms=     12 NQM=       12 NQMF=       0 NMMI=      0 NMMIF=      0
                NMic=       0 NMicF=      0.
                    Isotopes and Nuclear Properties:
 (Nuclear quadrupole moments (NQMom) in fm**2, nuclear magnetic moments (NMagM)
  in nuclear magnetons)

  Atom         1           2           3           4           5           6           7           8           9          10
 IAtWgt=          12          12          12          12          12          14           1           1           1           1
 AtmWgt=  12.0000000  12.0000000  12.0000000  12.0000000  12.0000000  14.0030740   1.0078250   1.0078250   1.0078250   1.0078250
 NucSpn=           0           0           0           0           0           2           1           1           1           1
 AtZEff=   0.0000000   0.0000000   0.0000000   0.0000000   0.0000000   0.0000000   0.0000000   0.0000000   0.0000000   0.0000000
 NQMom=    0.0000000   0.0000000   0.0000000   0.0000000   0.0000000   2.0440000   0.0000000   0.0000000   0.0000000   0.0000000
 NMagM=    0.0000000   0.0000000   0.0000000   0.0000000   0.0000000   0.4037610   2.7928460   2.7928460   2.7928460   2.7928460
 AtZNuc=   6.0000000   6.0000000   6.0000000   6.0000000   6.0000000   7.0000000   1.0000000   1.0000000   1.0000000   1.0000000

  Atom        11          12
 IAtWgt=          16           1
 AtmWgt=  15.9949146   1.0078250
 NucSpn=           0           1
 AtZEff=   0.0000000   0.0000000
 NQMom=    0.0000000   0.0000000
 NMagM=    0.0000000   2.7928460
 AtZNuc=   8.0000000   1.0000000
 Leave Link  101 at Fri Aug 27 21:10:12 2021, MaxMem= 17179869184 cpu:        10.5
 (Enter /public3/home/sc51754/softwares/g09e01/l103.exe)

 GradGradGradGradGradGradGradGradGradGradGradGradGradGradGradGradGradGrad
 Berny optimization.
 Initialization pass.
                           ----------------------------
                           !    Initial Parameters    !
                           ! (Angstroms and Degrees)  !
 --------------------------                            --------------------------
 ! Name  Definition              Value          Derivative Info.                !
 --------------------------------------------------------------------------------
 ! R1    R(1,2)                  1.3941         estimate D2E/DX2                !
 ! R2    R(1,6)                  1.3379         estimate D2E/DX2                !
 ! R3    R(1,7)                  1.0886         estimate D2E/DX2                !
 ! R4    R(2,3)                  1.3982         estimate D2E/DX2                !
 ! R5    R(2,8)                  1.0873         estimate D2E/DX2                !
 ! R6    R(3,4)                  1.3983         estimate D2E/DX2                !
 ! R7    R(3,11)                 1.3587         estimate D2E/DX2                !
 ! R8    R(4,5)                  1.3911         estimate D2E/DX2                !
 ! R9    R(4,9)                  1.0842         estimate D2E/DX2                !
 ! R10   R(5,6)                  1.3417         estimate D2E/DX2                !
 ! R11   R(5,10)                 1.0884         estimate D2E/DX2                !
 ! R12   R(11,12)                0.9669         estimate D2E/DX2                !
 ! A1    A(2,1,6)              124.3426         estimate D2E/DX2                !
 ! A2    A(2,1,7)              119.4556         estimate D2E/DX2                !
 ! A3    A(6,1,7)              116.2018         estimate D2E/DX2                !
 ! A4    A(1,2,3)              118.2292         estimate D2E/DX2                !
 ! A5    A(1,2,8)              120.5831         estimate D2E/DX2                !
 ! A6    A(3,2,8)              121.1877         estimate D2E/DX2                !
 ! A7    A(2,3,4)              118.4682         estimate D2E/DX2                !
 ! A8    A(2,3,11)             123.3985         estimate D2E/DX2                !
 ! A9    A(4,3,11)             118.1333         estimate D2E/DX2                !
 ! A10   A(3,4,5)              118.1015         estimate D2E/DX2                !
 ! A11   A(3,4,9)              120.1493         estimate D2E/DX2                !
 ! A12   A(5,4,9)              121.7493         estimate D2E/DX2                !
 ! A13   A(4,5,6)              124.5296         estimate D2E/DX2                !
 ! A14   A(4,5,10)             119.4914         estimate D2E/DX2                !
 ! A15   A(6,5,10)             115.9789         estimate D2E/DX2                !
 ! A16   A(1,6,5)              116.3289         estimate D2E/DX2                !
 ! A17   A(3,11,12)            109.3507         estimate D2E/DX2                !
 ! D1    D(6,1,2,3)             -0.0135         estimate D2E/DX2                !
 ! D2    D(6,1,2,8)            179.9955         estimate D2E/DX2                !
 ! D3    D(7,1,2,3)           -179.9987         estimate D2E/DX2                !
 ! D4    D(7,1,2,8)              0.0102         estimate D2E/DX2                !
 ! D5    D(2,1,6,5)              0.0039         estimate D2E/DX2                !
 ! D6    D(7,1,6,5)            179.9896         estimate D2E/DX2                !
 ! D7    D(1,2,3,4)              0.0007         estimate D2E/DX2                !
 ! D8    D(1,2,3,11)          -179.9909         estimate D2E/DX2                !
 ! D9    D(8,2,3,4)            179.9917         estimate D2E/DX2                !
 ! D10   D(8,2,3,11)             0.0001         estimate D2E/DX2                !
 ! D11   D(2,3,4,5)              0.0198         estimate D2E/DX2                !
 ! D12   D(2,3,4,9)           -179.978          estimate D2E/DX2                !
 ! D13   D(11,3,4,5)          -179.9882         estimate D2E/DX2                !
 ! D14   D(11,3,4,9)             0.014          estimate D2E/DX2                !
 ! D15   D(2,3,11,12)           -0.0225         estimate D2E/DX2                !
 ! D16   D(4,3,11,12)          179.9859         estimate D2E/DX2                !
 ! D17   D(3,4,5,6)             -0.0313         estimate D2E/DX2                !
 ! D18   D(3,4,5,10)          -179.9777         estimate D2E/DX2                !
 ! D19   D(9,4,5,6)            179.9664         estimate D2E/DX2                !
 ! D20   D(9,4,5,10)             0.0201         estimate D2E/DX2                !
 ! D21   D(4,5,6,1)              0.0192         estimate D2E/DX2                !
 ! D22   D(10,5,6,1)           179.9673         estimate D2E/DX2                !
 --------------------------------------------------------------------------------
 Trust Radius=3.00D-01 FncErr=1.00D-07 GrdErr=1.00D-06
 Number of steps in this run=     61 maximum allowed number of steps=    100.
 GradGradGradGradGradGradGradGradGradGradGradGradGradGradGradGradGradGrad

 Leave Link  103 at Fri Aug 27 21:10:12 2021, MaxMem= 17179869184 cpu:         0.1
 (Enter /public3/home/sc51754/softwares/g09e01/l202.exe)
                          Input orientation:                          
 ---------------------------------------------------------------------
 Center     Atomic      Atomic             Coordinates (Angstroms)
 Number     Number       Type             X           Y           Z
 ---------------------------------------------------------------------
      1          6           0        1.152230    1.153409   -0.000114
      2          6           0       -0.241450    1.189435    0.000028
      3          6           0       -0.934425   -0.024989    0.000035
      4          6           0       -0.197153   -1.213074   -0.000085
      5          6           0        1.191022   -1.122808    0.000218
      6          7           0        1.878221    0.029557    0.000015
      7          1           0        1.711886    2.087182   -0.000101
      8          1           0       -0.770273    2.139452   -0.000016
      9          1           0       -0.706644   -2.170125   -0.000442
     10          1           0        1.787188   -2.033434   -0.000236
     11          8           0       -2.290294   -0.112398   -0.000014
     12          1           0       -2.668700    0.777372    0.000305
 ---------------------------------------------------------------------
                    Distance matrix (angstroms):
                    1          2          3          4          5
     1  C    0.000000
     2  C    1.394146   0.000000
     3  C    2.396404   1.398227   0.000000
     4  C    2.724165   2.402917   1.398255   0.000000
     5  C    2.276548   2.720008   2.392223   1.391107   0.000000
     6  N    1.337949   2.416262   2.813175   2.418948   1.341711
     7  H    1.088645   2.149761   3.385887   3.812626   3.251974
     8  H    2.160625   1.087284   2.170657   3.401161   3.806444
     9  H    3.808056   3.391615   2.157196   1.084218   2.167489
    10  H    3.249483   3.808183   3.382459   2.147231   1.088418
    11  O    3.667866   2.427454   1.358684   2.364895   3.624981
    12  H    3.839389   2.461979   1.910888   3.173393   4.302109
                    6          7          8          9         10
     6  N    0.000000
     7  H    2.064337   0.000000
     8  H    3.386174   2.482709   0.000000
     9  H    3.394131   4.896320   4.310047   0.000000
    10  H    2.064999   4.121304   4.894240   2.497575   0.000000
    11  O    4.170931   4.566793   2.716853   2.596572   4.507354
    12  H    4.608006   4.572213   2.336512   3.540820   5.268355
                   11         12
    11  O    0.000000
    12  H    0.966893   0.000000
 Stoichiometry    C5H5NO
 Framework group  C1[X(C5H5NO)]
 Deg. of freedom    30
 Full point group                 C1      NOp   1
 Largest Abelian subgroup         C1      NOp   1
 Largest concise Abelian subgroup C1      NOp   1
                         Standard orientation:                         
 ---------------------------------------------------------------------
 Center     Atomic      Atomic             Coordinates (Angstroms)
 Number     Number       Type             X           Y           Z
 ---------------------------------------------------------------------
      1          6           0       -1.152230    1.153409    0.000114
      2          6           0        0.241450    1.189435   -0.000028
      3          6           0        0.934425   -0.024989   -0.000035
      4          6           0        0.197153   -1.213074    0.000085
      5          6           0       -1.191022   -1.122808   -0.000218
      6          7           0       -1.878221    0.029557   -0.000015
      7          1           0       -1.711887    2.087182    0.000101
      8          1           0        0.770272    2.139452    0.000016
      9          1           0        0.706644   -2.170125    0.000442
     10          1           0       -1.787188   -2.033434    0.000236
     11          8           0        2.290294   -0.112397    0.000014
     12          1           0        2.668700    0.777373   -0.000305
 ---------------------------------------------------------------------
 Rotational constants (GHZ):      5.9862655      2.6268417      1.8257026
 Leave Link  202 at Fri Aug 27 21:10:12 2021, MaxMem= 17179869184 cpu:         3.9
 (Enter /public3/home/sc51754/softwares/g09e01/l301.exe)
 General basis read from cards:  (5D, 7F)
 Centers:       7      8      9     10     12
 S 4 1.00
     Exponent=  7.5423000000D+01 Coefficients=  2.4065000000D-03
     Exponent=  1.1350000000D+01 Coefficients=  1.8487000000D-02
     Exponent=  2.5993000000D+00 Coefficients=  8.9742000000D-02
     Exponent=  7.3513000000D-01 Coefficients=  2.8111000000D-01
 S 1 1.00
     Exponent=  2.3167000000D-01 Coefficients=  1.0000000000D+00
 S 1 1.00
     Exponent=  7.4147000000D-02 Coefficients=  1.0000000000D+00
 P 1 1.00
     Exponent=  1.6000000000D+00 Coefficients=  1.0000000000D+00
 P 1 1.00
     Exponent=  4.5000000000D-01 Coefficients=  1.0000000000D+00
 D 1 1.00
     Exponent=  1.2500000000D+00 Coefficients=  1.0000000000D+00
 ****
 Centers:       1      2      3      4      5
 S 7 1.00
     Exponent=  7.8571000000D+03 Coefficients=  5.6825000000D-04
     Exponent=  1.1787000000D+03 Coefficients=  4.3915000000D-03
     Exponent=  2.6832000000D+02 Coefficients=  2.2504000000D-02
     Exponent=  7.5948000000D+01 Coefficients=  8.6653000000D-02
     Exponent=  2.4559000000D+01 Coefficients=  2.4405000000D-01
     Exponent=  8.6212000000D+00 Coefficients=  4.4148000000D-01
     Exponent=  3.1278000000D+00 Coefficients=  3.5332000000D-01
 S 7 1.00
     Exponent=  1.1787000000D+03 Coefficients= -5.9492000000D-07
     Exponent=  2.6832000000D+02 Coefficients= -6.2748000000D-05
     Exponent=  7.5948000000D+01 Coefficients= -7.5773000000D-04
     Exponent=  2.4559000000D+01 Coefficients= -7.3308000000D-03
     Exponent=  8.6212000000D+00 Coefficients= -3.8932000000D-02
     Exponent=  3.1278000000D+00 Coefficients= -8.8908000000D-02
     Exponent=  8.2202000000D-01 Coefficients=  2.1689000000D-01
 S 1 1.00
     Exponent=  3.3017000000D-01 Coefficients=  1.0000000000D+00
 S 1 1.00
     Exponent=  1.1463000000D-01 Coefficients=  1.0000000000D+00
 P 4 1.00
     Exponent=  3.3775000000D+01 Coefficients=  6.0294000000D-03
     Exponent=  7.6766000000D+00 Coefficients=  4.3228000000D-02
     Exponent=  2.2357000000D+00 Coefficients=  1.6301000000D-01
     Exponent=  7.6447000000D-01 Coefficients=  3.6504000000D-01
 P 1 1.00
     Exponent=  2.6232000000D-01 Coefficients=  1.0000000000D+00
 P 1 1.00
     Exponent=  8.4638000000D-02 Coefficients=  1.0000000000D+00
 D 1 1.00
     Exponent=  1.4000000000D+00 Coefficients=  1.0000000000D+00
 D 1 1.00
     Exponent=  4.5000000000D-01 Coefficients=  1.0000000000D+00
 F 1 1.00
     Exponent=  9.5000000000D-01 Coefficients=  1.0000000000D+00
 ****
 Centers:       6
 S 7 1.00
     Exponent=  1.1101000000D+04 Coefficients=  5.4570000000D-04
     Exponent=  1.6653000000D+03 Coefficients=  4.2181000000D-03
     Exponent=  3.7908000000D+02 Coefficients=  2.1645000000D-02
     Exponent=  1.0730000000D+02 Coefficients=  8.3776000000D-02
     Exponent=  3.4747000000D+01 Coefficients=  2.3881000000D-01
     Exponent=  1.2249000000D+01 Coefficients=  4.3994000000D-01
     Exponent=  4.4743000000D+00 Coefficients=  3.6364000000D-01
 S 7 1.00
     Exponent=  1.6653000000D+03 Coefficients= -1.5006000000D-06
     Exponent=  3.7908000000D+02 Coefficients= -5.8753000000D-05
     Exponent=  1.0730000000D+02 Coefficients= -7.7453000000D-04
     Exponent=  3.4747000000D+01 Coefficients= -7.2161000000D-03
     Exponent=  1.2249000000D+01 Coefficients= -3.9338000000D-02
     Exponent=  4.4743000000D+00 Coefficients= -9.0611000000D-02
     Exponent=  1.2404000000D+00 Coefficients=  1.9882000000D-01
 S 1 1.00
     Exponent=  4.8743000000D-01 Coefficients=  1.0000000000D+00
 S 1 1.00
     Exponent=  1.6484000000D-01 Coefficients=  1.0000000000D+00
 P 4 1.00
     Exponent=  4.7934000000D+01 Coefficients=  6.1706000000D-03
     Exponent=  1.0999000000D+01 Coefficients=  4.4260000000D-02
     Exponent=  3.2472000000D+00 Coefficients=  1.6825000000D-01
     Exponent=  1.1114000000D+00 Coefficients=  3.6848000000D-01
 P 1 1.00
     Exponent=  3.7988000000D-01 Coefficients=  1.0000000000D+00
 P 1 1.00
     Exponent=  1.2068000000D-01 Coefficients=  1.0000000000D+00
 D 1 1.00
     Exponent=  1.8000000000D+00 Coefficients=  1.0000000000D+00
 D 1 1.00
     Exponent=  5.5000000000D-01 Coefficients=  1.0000000000D+00
 F 1 1.00
     Exponent=  1.0200000000D+00 Coefficients=  1.0000000000D+00
 ****
 Centers:      11
 S 7 1.00
     Exponent=  1.4782000000D+04 Coefficients=  5.3519000000D-04
     Exponent=  2.2173000000D+03 Coefficients=  4.1375000000D-03
     Exponent=  5.0474000000D+02 Coefficients=  2.1245000000D-02
     Exponent=  1.4287000000D+02 Coefficients=  8.2453000000D-02
     Exponent=  4.6300000000D+01 Coefficients=  2.3671000000D-01
     Exponent=  1.6337000000D+01 Coefficients=  4.4039000000D-01
     Exponent=  5.9828000000D+00 Coefficients=  3.6465000000D-01
 S 7 1.00
     Exponent=  2.2173000000D+03 Coefficients= -1.9275000000D-06
     Exponent=  5.0474000000D+02 Coefficients= -5.7964000000D-05
     Exponent=  1.4287000000D+02 Coefficients= -7.9494000000D-04
     Exponent=  4.6300000000D+01 Coefficients= -7.3125000000D-03
     Exponent=  1.6337000000D+01 Coefficients= -4.0574000000D-02
     Exponent=  5.9828000000D+00 Coefficients= -9.1594000000D-02
     Exponent=  1.6718000000D+00 Coefficients=  2.0940000000D-01
 S 1 1.00
     Exponent=  6.4662000000D-01 Coefficients=  1.0000000000D+00
 S 1 1.00
     Exponent=  2.1669000000D-01 Coefficients=  1.0000000000D+00
 P 4 1.00
     Exponent=  6.0424000000D+01 Coefficients=  6.8949000000D-03
     Exponent=  1.3935000000D+01 Coefficients=  4.9005000000D-02
     Exponent=  4.1531000000D+00 Coefficients=  1.8255000000D-01
     Exponent=  1.4158000000D+00 Coefficients=  3.7633000000D-01
 P 1 1.00
     Exponent=  4.7549000000D-01 Coefficients=  1.0000000000D+00
 P 1 1.00
     Exponent=  1.4529000000D-01 Coefficients=  1.0000000000D+00
 D 1 1.00
     Exponent=  2.2000000000D+00 Coefficients=  1.0000000000D+00
 D 1 1.00
     Exponent=  6.5000000000D-01 Coefficients=  1.0000000000D+00
 F 1 1.00
     Exponent=  1.1000000000D+00 Coefficients=  1.0000000000D+00
 ****
 Ernie: Thresh=  0.10000D-02 Tol=  0.10000D-05 Strict=F.
 Ernie:  7 primitive shells out of 220 were deleted.
 There are   320 symmetry adapted cartesian basis functions of A   symmetry.
 There are   280 symmetry adapted basis functions of A   symmetry.
   280 basis functions,   475 primitive gaussians,   320 cartesian basis functions
    25 alpha electrons       25 beta electrons
       nuclear repulsion energy       273.7666329457 Hartrees.
 IExCor= 1009 DFT=T Ex=PBE Corr=PBE ExCW=0 ScaHFX=  0.000000
 ScaDFX=  1.000000  1.000000  1.000000  1.000000 ScalE2=  1.000000  1.000000
 IRadAn=      0 IRanWt=     -1 IRanGd=            0 ICorTp=0 IEmpDi=  4
 NAtoms=   12 NActive=   12 NUniq=   12 SFac= 1.00D+00 NAtFMM=   60 NAOKFM=F Big=F
 Integral buffers will be    131072 words long.
 Raffenetti 2 integral format.
 Two-electron integral symmetry is turned on.
 Leave Link  301 at Fri Aug 27 21:10:12 2021, MaxMem= 17179869184 cpu:         3.2
 (Enter /public3/home/sc51754/softwares/g09e01/l302.exe)
 NPDir=0 NMtPBC=     1 NCelOv=     1 NCel=       1 NClECP=     1 NCelD=      1
         NCelK=      1 NCelE2=     1 NClLst=     1 CellRange=     0.0.
 One-electron integrals computed using PRISM.
 NBasis=   280 RedAO= T EigKep=  2.00D-04  NBF=   280
 NBsUse=   280 1.00D-06 EigRej= -1.00D+00 NBFU=   280
 Precomputing XC quadrature grid using
 IXCGrd= 4 IRadAn=           0 IRanWt=          -1 IRanGd=           0 AccXCQ= 0.00D+00.
 Generated NRdTot=       0 NPtTot=           0 NUsed=           0 NTot=          32
 NSgBfM=   320   320   320   320   320 MxSgAt=    12 MxSgA2=    12.
 Leave Link  302 at Fri Aug 27 21:10:13 2021, MaxMem= 17179869184 cpu:        42.9
 (Enter /public3/home/sc51754/softwares/g09e01/l303.exe)
 DipDrv:  MaxL=1.
 Leave Link  303 at Fri Aug 27 21:10:14 2021, MaxMem= 17179869184 cpu:        15.5
 (Enter /public3/home/sc51754/softwares/g09e01/l401.exe)
 ExpMin= 7.41D-02 ExpMax= 1.48D+04 ExpMxC= 5.05D+02 IAcc=2 IRadAn=         4 AccDes= 0.00D+00
 Harris functional with IExCor= 1009 and IRadAn=       4 diagonalized for initial guess.
 HarFok:  IExCor= 1009 AccDes= 0.00D+00 IRadAn=         4 IDoV= 1 UseB2=F ITyADJ=14
 ICtDFT=  3500011 ScaDFX=  1.000000  1.000000  1.000000  1.000000
 FoFCou: FMM=F IPFlag=           0 FMFlag=      100000 FMFlg1=           0
         NFxFlg=           0 DoJE=T BraDBF=F KetDBF=T FulRan=T
         wScrn=  0.000000 ICntrl=     500 IOpCl=  0 I1Cent=   200000004 NGrid=           0
         NMat0=    1 NMatS0=      1 NMatT0=    0 NMatD0=    1 NMtDS0=    0 NMtDT0=    0
 Petite list used in FoFCou.
 Harris En= -323.354402034469    
 JPrj=0 DoOrth=F DoCkMO=F.
 Leave Link  401 at Fri Aug 27 21:10:15 2021, MaxMem= 17179869184 cpu:        57.4
 (Enter /public3/home/sc51754/softwares/g09e01/l502.exe)
 Closed shell SCF:
 Using DIIS extrapolation, IDIIS=  1040.
 Integral symmetry usage will be decided dynamically.
 Keep J ints in memory in canonical form, NReq=790723944.
 IVT=      348554 IEndB=      348554 NGot= 17179869184 MDV= 16405683161
 LenX= 16405683161 LenY= 16405580320
 Requested convergence on RMS density matrix=1.00D-08 within 128 cycles.
 Requested convergence on MAX density matrix=1.00D-06.
 Requested convergence on             energy=1.00D-06.
 No special actions if energy rises.
 FoFCou: FMM=F IPFlag=           0 FMFlag=           0 FMFlg1=           0
         NFxFlg=           0 DoJE=F BraDBF=F KetDBF=F FulRan=T
         wScrn=  0.000000 ICntrl=     600 IOpCl=  0 I1Cent=           0 NGrid=           0
         NMat0=    1 NMatS0=  39340 NMatT0=    0 NMatD0=    1 NMtDS0=    0 NMtDT0=    0
 Symmetry not used in FoFCou.
 Integral accuracy reduced to 1.0D-05 until final iterations.

 Cycle   1  Pass 0  IDiag  1:
 E= -323.130867699963    
 DIIS: error= 2.65D-02 at cycle   1 NSaved=   1.
 NSaved= 1 IEnMin= 1 EnMin= -323.130867699963     IErMin= 1 ErrMin= 2.65D-02
 ErrMax= 2.65D-02  0.00D+00 EMaxC= 1.00D-01 BMatC= 1.32D-01 BMatP= 1.32D-01
 IDIUse=3 WtCom= 7.35D-01 WtEn= 2.65D-01
 Coeff-Com:  0.100D+01
 Coeff-En:   0.100D+01
 Coeff:      0.100D+01
 Gap=     0.172 Goal=   None    Shift=    0.000
 GapD=    0.172 DampG=1.000 DampE=0.500 DampFc=0.5000 IDamp=-1.
 Damping current iteration by 5.00D-01
 RMSDP=3.42D-03 MaxDP=1.19D-01              OVMax= 1.95D-01

 Cycle   2  Pass 0  IDiag  1:
 E= -323.169012836586     Delta-E=       -0.038145136623 Rises=F Damp=T
 DIIS: error= 6.38D-03 at cycle   2 NSaved=   2.
 NSaved= 2 IEnMin= 2 EnMin= -323.169012836586     IErMin= 2 ErrMin= 6.38D-03
 ErrMax= 6.38D-03  0.00D+00 EMaxC= 1.00D-01 BMatC= 1.39D-02 BMatP= 1.32D-01
 IDIUse=3 WtCom= 9.36D-01 WtEn= 6.38D-02
 Coeff-Com:  0.193D+00 0.807D+00
 Coeff-En:   0.329D+00 0.671D+00
 Coeff:      0.201D+00 0.799D+00
 Gap=     0.204 Goal=   None    Shift=    0.000
 RMSDP=8.51D-04 MaxDP=2.81D-02 DE=-3.81D-02 OVMax= 1.60D-01

 Cycle   3  Pass 0  IDiag  1:
 E= -323.248693312496     Delta-E=       -0.079680475910 Rises=F Damp=F
 DIIS: error= 7.16D-03 at cycle   3 NSaved=   3.
 NSaved= 3 IEnMin= 3 EnMin= -323.248693312496     IErMin= 2 ErrMin= 6.38D-03
 ErrMax= 7.16D-03  0.00D+00 EMaxC= 1.00D-01 BMatC= 1.10D-02 BMatP= 1.39D-02
 IDIUse=3 WtCom= 9.28D-01 WtEn= 7.16D-02
 Coeff-Com:  0.747D-01 0.484D+00 0.442D+00
 Coeff-En:   0.000D+00 0.000D+00 0.100D+01
 Coeff:      0.694D-01 0.449D+00 0.482D+00
 Gap=     0.149 Goal=   None    Shift=    0.000
 RMSDP=4.62D-04 MaxDP=2.28D-02 DE=-7.97D-02 OVMax= 8.15D-02

 Cycle   4  Pass 0  IDiag  1:
 E= -323.253466487358     Delta-E=       -0.004773174862 Rises=F Damp=F
 DIIS: error= 6.52D-03 at cycle   4 NSaved=   4.
 NSaved= 4 IEnMin= 4 EnMin= -323.253466487358     IErMin= 2 ErrMin= 6.38D-03
 ErrMax= 6.52D-03  0.00D+00 EMaxC= 1.00D-01 BMatC= 5.72D-03 BMatP= 1.10D-02
 IDIUse=3 WtCom= 9.35D-01 WtEn= 6.52D-02
 Coeff-Com:  0.125D-01 0.192D+00 0.391D+00 0.405D+00
 Coeff-En:   0.000D+00 0.000D+00 0.392D+00 0.608D+00
 Coeff:      0.117D-01 0.179D+00 0.391D+00 0.418D+00
 Gap=     0.163 Goal=   None    Shift=    0.000
 RMSDP=2.58D-04 MaxDP=1.00D-02 DE=-4.77D-03 OVMax= 3.64D-02

 Cycle   5  Pass 0  IDiag  1:
 E= -323.259051837004     Delta-E=       -0.005585349646 Rises=F Damp=F
 DIIS: error= 1.69D-03 at cycle   5 NSaved=   5.
 NSaved= 5 IEnMin= 5 EnMin= -323.259051837004     IErMin= 5 ErrMin= 1.69D-03
 ErrMax= 1.69D-03  0.00D+00 EMaxC= 1.00D-01 BMatC= 2.22D-04 BMatP= 5.72D-03
 IDIUse=3 WtCom= 9.83D-01 WtEn= 1.69D-02
 Coeff-Com:  0.150D-02 0.683D-01 0.192D+00 0.255D+00 0.483D+00
 Coeff-En:   0.000D+00 0.000D+00 0.000D+00 0.000D+00 0.100D+01
 Coeff:      0.147D-02 0.671D-01 0.189D+00 0.251D+00 0.492D+00
 Gap=     0.161 Goal=   None    Shift=    0.000
 RMSDP=6.28D-05 MaxDP=2.23D-03 DE=-5.59D-03 OVMax= 1.02D-02

 Cycle   6  Pass 0  IDiag  1:
 E= -323.259241442319     Delta-E=       -0.000189605315 Rises=F Damp=F
 DIIS: error= 5.31D-04 at cycle   6 NSaved=   6.
 NSaved= 6 IEnMin= 6 EnMin= -323.259241442319     IErMin= 6 ErrMin= 5.31D-04
 ErrMax= 5.31D-04  0.00D+00 EMaxC= 1.00D-01 BMatC= 5.47D-05 BMatP= 2.22D-04
 IDIUse=3 WtCom= 9.95D-01 WtEn= 5.31D-03
 Coeff-Com: -0.177D-02 0.147D-01 0.642D-01 0.104D+00 0.357D+00 0.461D+00
 Coeff-En:   0.000D+00 0.000D+00 0.000D+00 0.000D+00 0.218D+00 0.782D+00
 Coeff:     -0.176D-02 0.147D-01 0.639D-01 0.104D+00 0.356D+00 0.463D+00
 Gap=     0.161 Goal=   None    Shift=    0.000
 RMSDP=2.12D-05 MaxDP=7.13D-04 DE=-1.90D-04 OVMax= 3.09D-03

 Cycle   7  Pass 0  IDiag  1:
 E= -323.259292732776     Delta-E=       -0.000051290457 Rises=F Damp=F
 DIIS: error= 1.16D-04 at cycle   7 NSaved=   7.
 NSaved= 7 IEnMin= 7 EnMin= -323.259292732776     IErMin= 7 ErrMin= 1.16D-04
 ErrMax= 1.16D-04  0.00D+00 EMaxC= 1.00D-01 BMatC= 2.62D-06 BMatP= 5.47D-05
 IDIUse=3 WtCom= 9.99D-01 WtEn= 1.16D-03
 Coeff-Com: -0.112D-02 0.640D-02 0.322D-01 0.546D-01 0.203D+00 0.286D+00
 Coeff-Com:  0.419D+00
 Coeff-En:   0.000D+00 0.000D+00 0.000D+00 0.000D+00 0.000D+00 0.000D+00
 Coeff-En:   0.100D+01
 Coeff:     -0.111D-02 0.639D-02 0.322D-01 0.545D-01 0.202D+00 0.286D+00
 Coeff:      0.420D+00
 Gap=     0.161 Goal=   None    Shift=    0.000
 RMSDP=5.82D-06 MaxDP=2.28D-04 DE=-5.13D-05 OVMax= 8.95D-04

 Initial convergence to 1.0D-05 achieved.  Increase integral accuracy.
 Cycle   8  Pass 1  IDiag  1:
 E= -323.259264783286     Delta-E=        0.000027949490 Rises=F Damp=F
 DIIS: error= 4.16D-05 at cycle   1 NSaved=   1.
 NSaved= 1 IEnMin= 1 EnMin= -323.259264783286     IErMin= 1 ErrMin= 4.16D-05
 ErrMax= 4.16D-05  0.00D+00 EMaxC= 1.00D-01 BMatC= 4.77D-07 BMatP= 4.77D-07
 IDIUse=1 WtCom= 1.00D+00 WtEn= 0.00D+00
 Coeff-Com:  0.100D+01
 Coeff:      0.100D+01
 Gap=     0.161 Goal=   None    Shift=    0.000
 RMSDP=5.82D-06 MaxDP=2.28D-04 DE= 2.79D-05 OVMax= 9.14D-04

 Cycle   9  Pass 1  IDiag  1:
 E= -323.259263306939     Delta-E=        0.000001476347 Rises=F Damp=F
 DIIS: error= 1.09D-04 at cycle   2 NSaved=   2.
 NSaved= 2 IEnMin= 1 EnMin= -323.259264783286     IErMin= 1 ErrMin= 4.16D-05
 ErrMax= 1.09D-04  0.00D+00 EMaxC= 1.00D-01 BMatC= 1.82D-06 BMatP= 4.77D-07
 IDIUse=3 WtCom= 4.89D-01 WtEn= 5.11D-01
 Coeff-Com:  0.679D+00 0.321D+00
 Coeff-En:   0.759D+00 0.241D+00
 Coeff:      0.720D+00 0.280D+00
 Gap=     0.161 Goal=   None    Shift=    0.000
 RMSDP=3.77D-06 MaxDP=1.41D-04 DE= 1.48D-06 OVMax= 6.26D-04

 Cycle  10  Pass 1  IDiag  1:
 E= -323.259265326674     Delta-E=       -0.000002019735 Rises=F Damp=F
 DIIS: error= 9.23D-06 at cycle   3 NSaved=   3.
 NSaved= 3 IEnMin= 3 EnMin= -323.259265326674     IErMin= 3 ErrMin= 9.23D-06
 ErrMax= 9.23D-06  0.00D+00 EMaxC= 1.00D-01 BMatC= 1.40D-08 BMatP= 4.77D-07
 IDIUse=1 WtCom= 1.00D+00 WtEn= 0.00D+00
 Coeff-Com:  0.124D+00 0.458D-01 0.830D+00
 Coeff:      0.124D+00 0.458D-01 0.830D+00
 Gap=     0.161 Goal=   None    Shift=    0.000
 RMSDP=6.63D-07 MaxDP=3.30D-05 DE=-2.02D-06 OVMax= 1.19D-04

 Cycle  11  Pass 1  IDiag  1:
 E= -323.259265313715     Delta-E=        0.000000012959 Rises=F Damp=F
 DIIS: error= 1.64D-05 at cycle   4 NSaved=   4.
 NSaved= 4 IEnMin= 3 EnMin= -323.259265326674     IErMin= 3 ErrMin= 9.23D-06
 ErrMax= 1.64D-05  0.00D+00 EMaxC= 1.00D-01 BMatC= 2.54D-08 BMatP= 1.40D-08
 IDIUse=1 WtCom= 1.00D+00 WtEn= 0.00D+00
 Coeff-Com:  0.842D-02-0.469D-02 0.580D+00 0.416D+00
 Coeff:      0.842D-02-0.469D-02 0.580D+00 0.416D+00
 Gap=     0.161 Goal=   None    Shift=    0.000
 RMSDP=5.14D-07 MaxDP=2.28D-05 DE= 1.30D-08 OVMax= 1.00D-04

 Cycle  12  Pass 1  IDiag  1:
 E= -323.259265337343     Delta-E=       -0.000000023627 Rises=F Damp=F
 DIIS: error= 5.62D-06 at cycle   5 NSaved=   5.
 NSaved= 5 IEnMin= 5 EnMin= -323.259265337343     IErMin= 5 ErrMin= 5.62D-06
 ErrMax= 5.62D-06  0.00D+00 EMaxC= 1.00D-01 BMatC= 2.00D-09 BMatP= 1.40D-08
 IDIUse=1 WtCom= 1.00D+00 WtEn= 0.00D+00
 Coeff-Com: -0.229D-02-0.545D-02 0.321D+00 0.283D+00 0.403D+00
 Coeff:     -0.229D-02-0.545D-02 0.321D+00 0.283D+00 0.403D+00
 Gap=     0.161 Goal=   None    Shift=    0.000
 RMSDP=1.83D-07 MaxDP=5.66D-06 DE=-2.36D-08 OVMax= 2.86D-05

 Cycle  13  Pass 1  IDiag  1:
 E= -323.259265339299     Delta-E=       -0.000000001956 Rises=F Damp=F
 DIIS: error= 1.06D-06 at cycle   6 NSaved=   6.
 NSaved= 6 IEnMin= 6 EnMin= -323.259265339299     IErMin= 6 ErrMin= 1.06D-06
 ErrMax= 1.06D-06  0.00D+00 EMaxC= 1.00D-01 BMatC= 3.60D-10 BMatP= 2.00D-09
 IDIUse=1 WtCom= 1.00D+00 WtEn= 0.00D+00
 Coeff-Com: -0.312D-02-0.349D-02 0.168D+00 0.162D+00 0.302D+00 0.375D+00
 Coeff:     -0.312D-02-0.349D-02 0.168D+00 0.162D+00 0.302D+00 0.375D+00
 Gap=     0.161 Goal=   None    Shift=    0.000
 RMSDP=5.20D-08 MaxDP=2.57D-06 DE=-1.96D-09 OVMax= 9.79D-06

 Cycle  14  Pass 1  IDiag  1:
 E= -323.259265339651     Delta-E=       -0.000000000352 Rises=F Damp=F
 DIIS: error= 1.66D-07 at cycle   7 NSaved=   7.
 NSaved= 7 IEnMin= 7 EnMin= -323.259265339651     IErMin= 7 ErrMin= 1.66D-07
 ErrMax= 1.66D-07  0.00D+00 EMaxC= 1.00D-01 BMatC= 6.40D-12 BMatP= 3.60D-10
 IDIUse=1 WtCom= 1.00D+00 WtEn= 0.00D+00
 Coeff-Com: -0.138D-02-0.140D-02 0.698D-01 0.688D-01 0.134D+00 0.195D+00
 Coeff-Com:  0.534D+00
 Coeff:     -0.138D-02-0.140D-02 0.698D-01 0.688D-01 0.134D+00 0.195D+00
 Coeff:      0.534D+00
 Gap=     0.161 Goal=   None    Shift=    0.000
 RMSDP=1.06D-08 MaxDP=4.57D-07 DE=-3.52D-10 OVMax= 9.72D-07

 Cycle  15  Pass 1  IDiag  1:
 E= -323.259265339660     Delta-E=       -0.000000000009 Rises=F Damp=F
 DIIS: error= 7.29D-08 at cycle   8 NSaved=   8.
 NSaved= 8 IEnMin= 8 EnMin= -323.259265339660     IErMin= 8 ErrMin= 7.29D-08
 ErrMax= 7.29D-08  0.00D+00 EMaxC= 1.00D-01 BMatC= 1.51D-12 BMatP= 6.40D-12
 IDIUse=1 WtCom= 1.00D+00 WtEn= 0.00D+00
 Coeff-Com: -0.416D-03-0.333D-03 0.179D-01 0.181D-01 0.377D-01 0.652D-01
 Coeff-Com:  0.351D+00 0.511D+00
 Coeff:     -0.416D-03-0.333D-03 0.179D-01 0.181D-01 0.377D-01 0.652D-01
 Coeff:      0.351D+00 0.511D+00
 Gap=     0.161 Goal=   None    Shift=    0.000
 RMSDP=3.73D-09 MaxDP=1.84D-07 DE=-8.64D-12 OVMax= 3.56D-07

 SCF Done:  E(RPBE-PBE) =  -323.259265340     A.U. after   15 cycles
            NFock= 15  Conv=0.37D-08     -V/T= 2.0032
 KE= 3.222165956839D+02 PE=-1.302425270272D+03 EE= 3.831827763032D+02
 Leave Link  502 at Fri Aug 27 21:10:26 2021, MaxMem= 17179869184 cpu:       194.3
 (Enter /public3/home/sc51754/softwares/g09e01/l601.exe)
 Copying SCF densities to generalized density rwf, IOpCl= 0 IROHF=0.

 **********************************************************************

            Population analysis using the SCF density.

 **********************************************************************

 Orbital symmetries:
       Occupied  (A) (A) (A) (A) (A) (A) (A) (A) (A) (A) (A) (A)
                 (A) (A) (A) (A) (A) (A) (A) (A) (A) (A) (A) (A)
                 (A)
       Virtual   (A) (A) (A) (A) (A) (A) (A) (A) (A) (A) (A) (A)
                 (A) (A) (A) (A) (A) (A) (A) (A) (A) (A) (A) (A)
                 (A) (A) (A) (A) (A) (A) (A) (A) (A) (A) (A) (A)
                 (A) (A) (A) (A) (A) (A) (A) (A) (A) (A) (A) (A)
                 (A) (A) (A) (A) (A) (A) (A) (A) (A) (A) (A) (A)
                 (A) (A) (A) (A) (A) (A) (A) (A) (A) (A) (A) (A)
                 (A) (A) (A) (A) (A) (A) (A) (A) (A) (A) (A) (A)
                 (A) (A) (A) (A) (A) (A) (A) (A) (A) (A) (A) (A)
                 (A) (A) (A) (A) (A) (A) (A) (A) (A) (A) (A) (A)
                 (A) (A) (A) (A) (A) (A) (A) (A) (A) (A) (A) (A)
                 (A) (A) (A) (A) (A) (A) (A) (A) (A) (A) (A) (A)
                 (A) (A) (A) (A) (A) (A) (A) (A) (A) (A) (A) (A)
                 (A) (A) (A) (A) (A) (A) (A) (A) (A) (A) (A) (A)
                 (A) (A) (A) (A) (A) (A) (A) (A) (A) (A) (A) (A)
                 (A) (A) (A) (A) (A) (A) (A) (A) (A) (A) (A) (A)
                 (A) (A) (A) (A) (A) (A) (A) (A) (A) (A) (A) (A)
                 (A) (A) (A) (A) (A) (A) (A) (A) (A) (A) (A) (A)
                 (A) (A) (A) (A) (A) (A) (A) (A) (A) (A) (A) (A)
                 (A) (A) (A) (A) (A) (A) (A) (A) (A) (A) (A) (A)
                 (A) (A) (A) (A) (A) (A) (A) (A) (A) (A) (A) (A)
                 (A) (A) (A) (A) (A) (A) (A) (A) (A) (A) (A) (A)
                 (A) (A) (A)
 The electronic state is 1-A.
 Alpha  occ. eigenvalues --  -18.80202 -13.97584  -9.96912  -9.92316  -9.92113
 Alpha  occ. eigenvalues --   -9.90150  -9.89573  -0.99953  -0.86125  -0.72977
 Alpha  occ. eigenvalues --   -0.69753  -0.59460  -0.57296  -0.51569  -0.45933
 Alpha  occ. eigenvalues --   -0.43527  -0.40627  -0.39003  -0.38734  -0.36419
 Alpha  occ. eigenvalues --   -0.33706  -0.31644  -0.24657  -0.23270  -0.21763
 Alpha virt. eigenvalues --   -0.05628  -0.05191  -0.02115   0.01416   0.02741
 Alpha virt. eigenvalues --    0.06312   0.06389   0.08382   0.10216   0.10906
 Alpha virt. eigenvalues --    0.13942   0.15386   0.16400   0.17360   0.18234
 Alpha virt. eigenvalues --    0.19586   0.20169   0.20385   0.22731   0.24748
 Alpha virt. eigenvalues --    0.25100   0.26175   0.26448   0.27690   0.29234
 Alpha virt. eigenvalues --    0.30395   0.30821   0.31431   0.32315   0.34289
 Alpha virt. eigenvalues --    0.35090   0.38286   0.39821   0.42561   0.43727
 Alpha virt. eigenvalues --    0.46028   0.47775   0.50828   0.52550   0.54638
 Alpha virt. eigenvalues --    0.55971   0.56223   0.59456   0.60852   0.61564
 Alpha virt. eigenvalues --    0.65140   0.67357   0.69374   0.71337   0.76631
 Alpha virt. eigenvalues --    0.78126   0.79575   0.81702   0.83843   0.85669
 Alpha virt. eigenvalues --    0.89881   0.91222   0.91472   0.93165   0.97125
 Alpha virt. eigenvalues --    0.98956   1.03182   1.05580   1.05592   1.07992
 Alpha virt. eigenvalues --    1.08724   1.09346   1.11212   1.12401   1.14132
 Alpha virt. eigenvalues --    1.18316   1.18652   1.23371   1.24264   1.24969
 Alpha virt. eigenvalues --    1.26670   1.28450   1.35882   1.36800   1.38880
 Alpha virt. eigenvalues --    1.39969   1.41141   1.43977   1.48959   1.50624
 Alpha virt. eigenvalues --    1.51706   1.53126   1.53889   1.57554   1.60362
 Alpha virt. eigenvalues --    1.60501   1.62582   1.65071   1.67061   1.70069
 Alpha virt. eigenvalues --    1.70960   1.72097   1.75173   1.77389   1.78229
 Alpha virt. eigenvalues --    1.78927   1.85676   1.88298   1.90392   1.90425
 Alpha virt. eigenvalues --    1.96551   2.00868   2.02268   2.08885   2.10917
 Alpha virt. eigenvalues --    2.13346   2.15226   2.16370   2.20182   2.23034
 Alpha virt. eigenvalues --    2.28191   2.32091   2.46308   2.49378   2.68520
 Alpha virt. eigenvalues --    2.78096   2.82647   2.87260   2.90307   3.02436
 Alpha virt. eigenvalues --    3.06427   3.12049   3.13524   3.16066   3.17023
 Alpha virt. eigenvalues --    3.23318   3.23558   3.25426   3.27737   3.30786
 Alpha virt. eigenvalues --    3.31878   3.34648   3.39953   3.42791   3.44989
 Alpha virt. eigenvalues --    3.48353   3.50939   3.51670   3.55050   3.56757
 Alpha virt. eigenvalues --    3.62113   3.64616   3.66131   3.69055   3.70680
 Alpha virt. eigenvalues --    3.73387   3.76680   3.79430   3.84887   3.90858
 Alpha virt. eigenvalues --    3.91242   3.93489   3.93735   3.97613   3.97830
 Alpha virt. eigenvalues --    3.99052   4.02847   4.03808   4.04882   4.06321
 Alpha virt. eigenvalues --    4.08056   4.09003   4.11017   4.13183   4.16576
 Alpha virt. eigenvalues --    4.16899   4.18577   4.19484   4.20710   4.22218
 Alpha virt. eigenvalues --    4.24447   4.25012   4.28155   4.29776   4.31071
 Alpha virt. eigenvalues --    4.33616   4.34106   4.35388   4.36161   4.38739
 Alpha virt. eigenvalues --    4.40110   4.41435   4.42563   4.43372   4.46187
 Alpha virt. eigenvalues --    4.46486   4.48617   4.54919   4.56663   4.61780
 Alpha virt. eigenvalues --    4.66139   4.67696   4.69130   4.72251   4.76442
 Alpha virt. eigenvalues --    4.80376   4.82288   4.84311   4.87200   4.91238
 Alpha virt. eigenvalues --    4.96467   4.98427   4.99230   5.04749   5.06491
 Alpha virt. eigenvalues --    5.08150   5.12328   5.21603   5.21821   5.22273
 Alpha virt. eigenvalues --    5.22991   5.23825   5.26361   5.30747   5.34590
 Alpha virt. eigenvalues --    5.37294   5.42710   5.44777   5.46346   5.48092
 Alpha virt. eigenvalues --    5.55176   5.56738   5.59876   5.65832   5.66092
 Alpha virt. eigenvalues --    5.69756   5.81577   5.90047   5.95270   5.97459
 Alpha virt. eigenvalues --    6.00731   6.04176   6.09746   6.15586   6.18541
 Alpha virt. eigenvalues --    6.27873   6.34153   6.35399   6.43943   6.48102
 Alpha virt. eigenvalues --    6.70387   6.92212   7.19245   8.96221  12.08810
 Alpha virt. eigenvalues --   12.21900  15.29479  17.08879  18.31747  21.82080
          Condensed to atoms (all electrons):
               1          2          3          4          5          6
     1  C    4.683287   0.408909  -0.035129  -0.053448  -0.109230   0.525935
     2  C    0.408909   5.096122   0.517242  -0.003177  -0.055953  -0.045065
     3  C   -0.035129   0.517242   4.511599   0.529888  -0.049071  -0.021262
     4  C   -0.053448  -0.003177   0.529888   4.971730   0.448901  -0.042249
     5  C   -0.109230  -0.055953  -0.049071   0.448901   4.684151   0.511076
     6  N    0.525935  -0.045065  -0.021262  -0.042249   0.511076   6.484559
     7  H    0.447506  -0.073447   0.003923  -0.004277   0.008548  -0.043946
     8  H   -0.012776   0.401603  -0.043713   0.005751  -0.000007   0.007306
     9  H   -0.001868   0.010859  -0.037662   0.406490  -0.023153   0.007176
    10  H    0.008839  -0.006777   0.009485  -0.078735   0.452934  -0.044781
    11  O    0.007304  -0.070720   0.329732  -0.062203   0.004574  -0.000514
    12  H    0.002305  -0.002006  -0.037515   0.007163  -0.000772   0.000600
               7          8          9         10         11         12
     1  C    0.447506  -0.012776  -0.001868   0.008839   0.007304   0.002305
     2  C   -0.073447   0.401603   0.010859  -0.006777  -0.070720  -0.002006
     3  C    0.003923  -0.043713  -0.037662   0.009485   0.329732  -0.037515
     4  C   -0.004277   0.005751   0.406490  -0.078735  -0.062203   0.007163
     5  C    0.008548  -0.000007  -0.023153   0.452934   0.004574  -0.000772
     6  N   -0.043946   0.007306   0.007176  -0.044781  -0.000514   0.000600
     7  H    0.604451  -0.003815   0.000282  -0.000102  -0.000455  -0.000094
     8  H   -0.003815   0.618390  -0.000484   0.000225  -0.007462   0.005776
     9  H    0.000282  -0.000484   0.590311  -0.005716   0.005218  -0.000767
    10  H   -0.000102   0.000225  -0.005716   0.600333  -0.000237   0.000150
    11  O   -0.000455  -0.007462   0.005218  -0.000237   7.798301   0.338880
    12  H   -0.000094   0.005776  -0.000767   0.000150   0.338880   0.484782
 Mulliken charges:
               1
     1  C    0.128366
     2  C   -0.177590
     3  C    0.322483
     4  C   -0.125835
     5  C    0.128002
     6  N   -0.338834
     7  H    0.061426
     8  H    0.029206
     9  H    0.049314
    10  H    0.064382
    11  O   -0.342418
    12  H    0.201498
 Sum of Mulliken charges =  -0.00000
 Mulliken charges with hydrogens summed into heavy atoms:
               1
     1  C    0.189791
     2  C   -0.148384
     3  C    0.322483
     4  C   -0.076521
     5  C    0.192384
     6  N   -0.338834
    11  O   -0.140920
 Electronic spatial extent (au):  <R**2>=            642.0491
 Charge=             -0.0000 electrons
 Dipole moment (field-independent basis, Debye):
    X=              2.4780    Y=              1.2544    Z=             -0.0000  Tot=              2.7774
 Quadrupole moment (field-independent basis, Debye-Ang):
   XX=            -43.6826   YY=            -33.8788   ZZ=            -43.1869
   XY=              4.3931   XZ=             -0.0017   YZ=             -0.0017
 Traceless Quadrupole moment (field-independent basis, Debye-Ang):
   XX=             -3.4331   YY=              6.3706   ZZ=             -2.9375
   XY=              4.3931   XZ=             -0.0017   YZ=             -0.0017
 Octapole moment (field-independent basis, Debye-Ang**2):
  XXX=             33.6403  YYY=              0.3312  ZZZ=              0.0004  XYY=              2.1493
  XXY=             11.7965  XXZ=             -0.0032  XZZ=              3.4378  YZZ=             -0.0089
  YYZ=              0.0034  XYZ=             -0.0014
 Hexadecapole moment (field-independent basis, Debye-Ang**3):
 XXXX=           -527.8446 YYYY=           -261.7750 ZZZZ=            -47.2628 XXXY=             37.3457
 XXXZ=             -0.0153 YYYX=              2.6300 YYYZ=             -0.0091 ZZZX=             -0.0012
 ZZZY=             -0.0017 XXYY=           -109.6286 XXZZ=            -96.5622 YYZZ=            -62.0454
 XXYZ=             -0.0067 YYXZ=             -0.0022 ZZXY=              0.4672
 N-N= 2.737666329457D+02 E-N=-1.302425261156D+03  KE= 3.222165956839D+02
 No NMR shielding tensors so no spin-rotation constants.
 Leave Link  601 at Fri Aug 27 21:10:27 2021, MaxMem= 17179869184 cpu:        49.0
 (Enter /public3/home/sc51754/softwares/g09e01/l701.exe)
 Compute integral first derivatives.
 ... and contract with generalized density number  0.
 Leave Link  701 at Fri Aug 27 21:10:28 2021, MaxMem= 17179869184 cpu:        67.9
 (Enter /public3/home/sc51754/softwares/g09e01/l702.exe)
 L702 exits ... SP integral derivatives will be done elsewhere.
 Leave Link  702 at Fri Aug 27 21:10:28 2021, MaxMem= 17179869184 cpu:         0.2
 (Enter /public3/home/sc51754/softwares/g09e01/l703.exe)
 Compute integral first derivatives, UseDBF=F ICtDFT=           0.
 Integral derivatives from FoFJK, PRISM(SPDF).
 Calling FoFJK, ICntrl=      2527 FMM=F ISym2X=0 I1Cent= 0 IOpClX= 0 NMat=1 NMatS=1 NMatT=0.
 FoFJK:  IHMeth= 1 ICntrl=    2527 DoSepK=F KAlg= 0 I1Cent=   0 FoldK=F
 IRaf=         0 NMat=   1 IRICut=       1 DoRegI=T DoRafI=F ISym2E= 0.
 FoFCou: FMM=F IPFlag=           0 FMFlag=      100000 FMFlg1=         800
         NFxFlg=           0 DoJE=F BraDBF=F KetDBF=F FulRan=T
         wScrn=  0.000000 ICntrl=    2527 IOpCl=  0 I1Cent=           0 NGrid=           0
         NMat0=    1 NMatS0=      1 NMatT0=    0 NMatD0=    1 NMtDS0=    0 NMtDT0=    0
 Symmetry not used in FoFCou.
 Leave Link  703 at Fri Aug 27 21:10:30 2021, MaxMem= 17179869184 cpu:       135.5
 (Enter /public3/home/sc51754/softwares/g09e01/l716.exe)
 Dipole        = 9.74914552D-01 4.93533127D-01-3.20377143D-06
 ***** Axes restored to original set *****
 -------------------------------------------------------------------
 Center     Atomic                   Forces (Hartrees/Bohr)
 Number     Number              X              Y              Z
 -------------------------------------------------------------------
      1        6          -0.001782586   -0.000524426    0.000030501
      2        6           0.001133035   -0.002286296   -0.000005008
      3        6           0.002050902   -0.000059647   -0.000008453
      4        6           0.000697663    0.002669197    0.000020368
      5        6          -0.001482096    0.000958158   -0.000083219
      6        7           0.002224264   -0.000320429    0.000018046
      7        1           0.001722738    0.002810371   -0.000009568
      8        1          -0.001596048    0.002918804    0.000001225
      9        1          -0.001429707   -0.003170571    0.000010059
     10        1           0.001780085   -0.002753142    0.000026378
     11        8          -0.001834589   -0.004593577    0.000002615
     12        1          -0.001483662    0.004351559   -0.000002946
 -------------------------------------------------------------------
 Cartesian Forces:  Max     0.004593577 RMS     0.001828333
 Leave Link  716 at Fri Aug 27 21:10:30 2021, MaxMem= 17179869184 cpu:         0.3
 (Enter /public3/home/sc51754/softwares/g09e01/l103.exe)

 GradGradGradGradGradGradGradGradGradGradGradGradGradGradGradGradGradGrad
 Berny optimization.
 FormGI is forming the generalized inverse of G from B-inverse, IUseBI=4.
 Internal  Forces:  Max     0.004583673 RMS     0.001342754
 Search for a local minimum.
 Step number   1 out of a maximum of   61
 All quantities printed in internal units (Hartrees-Bohrs-Radians)
 RMS Force = .13428D-02 SwitMx=.10000D-02 MixMth= 1
 Mixed Optimization -- RFO/linear search
 Second derivative matrix not updated -- first step.
 ITU=  0
     Eigenvalues ---    0.02120   0.02139   0.02144   0.02163   0.02209
     Eigenvalues ---    0.02238   0.02269   0.02294   0.02415   0.16000
     Eigenvalues ---    0.16000   0.16000   0.16000   0.16000   0.22000
     Eigenvalues ---    0.22826   0.23882   0.25000   0.34970   0.34996
     Eigenvalues ---    0.35128   0.35490   0.42425   0.43849   0.46118
     Eigenvalues ---    0.46897   0.53214   0.54017   0.55021   0.56489
 RFO step:  Lambda=-2.18782769D-04 EMin= 2.11976327D-02
 Linear search not attempted -- first point.
 Iteration  1 RMS(Cart)=  0.00418622 RMS(Int)=  0.00000433
 Iteration  2 RMS(Cart)=  0.00000648 RMS(Int)=  0.00000016
 Iteration  3 RMS(Cart)=  0.00000000 RMS(Int)=  0.00000016
 ITry= 1 IFail=0 DXMaxC= 1.32D-02 DCOld= 1.00D+10 DXMaxT= 3.00D-01 DXLimC= 3.00D+00 Rises=F
 Variable       Old X    -DE/DX   Delta X   Delta X   Delta X     New X
                                 (Linear)    (Quad)   (Total)
    R1        2.63455   0.00113   0.00000   0.00244   0.00244   2.63699
    R2        2.52836   0.00228   0.00000   0.00407   0.00407   2.53243
    R3        2.05724   0.00330   0.00000   0.00942   0.00942   2.06666
    R4        2.64227   0.00118   0.00000   0.00244   0.00244   2.64471
    R5        2.05467   0.00333   0.00000   0.00946   0.00946   2.06413
    R6        2.64232   0.00089   0.00000   0.00178   0.00178   2.64410
    R7        2.56754   0.00333   0.00000   0.00625   0.00625   2.57379
    R8        2.62881   0.00131   0.00000   0.00278   0.00278   2.63159
    R9        2.04887   0.00347   0.00000   0.00977   0.00977   2.05865
   R10        2.53547   0.00192   0.00000   0.00348   0.00348   2.53895
   R11        2.05681   0.00328   0.00000   0.00936   0.00936   2.06617
   R12        1.82716   0.00458   0.00000   0.00848   0.00848   1.83564
    A1        2.17019  -0.00027   0.00000  -0.00093  -0.00093   2.16926
    A2        2.08489   0.00017   0.00000   0.00067   0.00067   2.08556
    A3        2.02810   0.00010   0.00000   0.00027   0.00027   2.02837
    A4        2.06349   0.00036   0.00000   0.00130   0.00130   2.06479
    A5        2.10457  -0.00020   0.00000  -0.00080  -0.00080   2.10377
    A6        2.11512  -0.00016   0.00000  -0.00050  -0.00050   2.11463
    A7        2.06766  -0.00001   0.00000  -0.00063  -0.00063   2.06703
    A8        2.15371  -0.00026   0.00000  -0.00075  -0.00075   2.15296
    A9        2.06181   0.00027   0.00000   0.00138   0.00138   2.06320
   A10        2.06126   0.00024   0.00000   0.00066   0.00066   2.06192
   A11        2.09700   0.00012   0.00000   0.00113   0.00114   2.09814
   A12        2.12493  -0.00035   0.00000  -0.00180  -0.00180   2.12313
   A13        2.17345  -0.00007   0.00000  -0.00012  -0.00012   2.17333
   A14        2.08552   0.00002   0.00000  -0.00005  -0.00005   2.08547
   A15        2.02421   0.00005   0.00000   0.00017   0.00017   2.02438
   A16        2.03032  -0.00025   0.00000  -0.00028  -0.00028   2.03004
   A17        1.90853  -0.00062   0.00000  -0.00384  -0.00384   1.90469
    D1       -0.00024   0.00001   0.00000   0.00040   0.00040   0.00016
    D2        3.14151   0.00000   0.00000   0.00019   0.00019  -3.14148
    D3       -3.14157  -0.00000   0.00000  -0.00007  -0.00007   3.14155
    D4        0.00018  -0.00001   0.00000  -0.00028  -0.00028  -0.00010
    D5        0.00007  -0.00000   0.00000  -0.00006  -0.00006   0.00001
    D6        3.14141   0.00001   0.00000   0.00039   0.00039  -3.14138
    D7        0.00001  -0.00000   0.00000  -0.00012  -0.00012  -0.00011
    D8       -3.14143  -0.00001   0.00000  -0.00028  -0.00028   3.14148
    D9        3.14145   0.00000   0.00000   0.00009   0.00009   3.14154
   D10        0.00000  -0.00000   0.00000  -0.00007  -0.00007  -0.00006
   D11        0.00034  -0.00001   0.00000  -0.00044  -0.00044  -0.00010
   D12       -3.14121  -0.00001   0.00000  -0.00044  -0.00044   3.14154
   D13       -3.14139  -0.00001   0.00000  -0.00030  -0.00030   3.14150
   D14        0.00024  -0.00001   0.00000  -0.00030  -0.00030  -0.00005
   D15       -0.00039   0.00001   0.00000   0.00025   0.00025  -0.00014
   D16        3.14135   0.00000   0.00000   0.00010   0.00010   3.14144
   D17       -0.00055   0.00002   0.00000   0.00083   0.00083   0.00029
   D18       -3.14120  -0.00002   0.00000  -0.00065  -0.00065   3.14133
   D19        3.14101   0.00002   0.00000   0.00083   0.00083  -3.14134
   D20        0.00035  -0.00002   0.00000  -0.00065  -0.00065  -0.00030
   D21        0.00034  -0.00001   0.00000  -0.00058  -0.00058  -0.00024
   D22        3.14102   0.00002   0.00000   0.00086   0.00086  -3.14130
         Item               Value     Threshold  Converged?
 Maximum Force            0.004584     0.000450     NO 
 RMS     Force            0.001343     0.000300     NO 
 Maximum Displacement     0.013234     0.001800     NO 
 RMS     Displacement     0.004186     0.001200     NO 
 Predicted change in Energy=-1.094519D-04
 Lowest energy point so far.  Saving SCF results.
 GradGradGradGradGradGradGradGradGradGradGradGradGradGradGradGradGradGrad

 Leave Link  103 at Fri Aug 27 21:10:31 2021, MaxMem= 17179869184 cpu:        36.6
 (Enter /public3/home/sc51754/softwares/g09e01/l202.exe)
                          Input orientation:                          
 ---------------------------------------------------------------------
 Center     Atomic      Atomic             Coordinates (Angstroms)
 Number     Number       Type             X           Y           Z
 ---------------------------------------------------------------------
      1          6           0        1.153140    1.155036    0.000068
      2          6           0       -0.241874    1.189337   -0.000014
      3          6           0       -0.935538   -0.026181   -0.000042
      4          6           0       -0.197064   -1.214629   -0.000123
      5          6           0        1.192584   -1.124367   -0.000290
      6          7           0        1.880671    0.029614   -0.000060
      7          1           0        1.714801    2.093419    0.000047
      8          1           0       -0.773570    2.143487   -0.000005
      9          1           0       -0.707323   -2.177128   -0.000093
     10          1           0        1.791354   -2.039209   -0.000107
     11          8           0       -2.294776   -0.112726    0.000011
     12          1           0       -2.670795    0.782926    0.000202
 ---------------------------------------------------------------------
                    Distance matrix (angstroms):
                    1          2          3          4          5
     1  C    0.000000
     2  C    1.395436   0.000000
     3  C    2.399551   1.399519   0.000000
     4  C    2.727336   2.404384   1.399197   0.000000
     5  C    2.279744   2.722296   2.394768   1.392576   0.000000
     6  N    1.340102   2.418709   2.816761   2.421802   1.343553
     7  H    1.093630   2.155444   3.393670   3.820787   3.259886
     8  H    2.165467   1.092292   2.175704   3.407243   3.813742
     9  H    3.816365   3.398490   2.163020   1.089389   2.172085
    10  H    3.257379   3.815433   3.389428   2.152612   1.093372
    11  O    3.673601   2.431003   1.361991   2.369512   3.631129
    12  H    3.841998   2.462688   1.914621   3.179555   4.308534
                    6          7          8          9         10
     6  N    0.000000
     7  H    2.070460   0.000000
     8  H    3.393148   2.488875   0.000000
     9  H    3.401091   4.909609   4.321123   0.000000
    10  H    2.070750   4.133337   4.906504   2.502481   0.000000
    11  O    4.177872   4.576438   2.721132   2.604182   4.517499
    12  H    4.613385   4.577210   2.334650   3.552062   5.279699
                   11         12
    11  O    0.000000
    12  H    0.971381   0.000000
 Stoichiometry    C5H5NO
 Framework group  C1[X(C5H5NO)]
 Deg. of freedom    30
 Full point group                 C1      NOp   1
 RotChk:  IX=2 Diff= 2.69D-04
 Largest Abelian subgroup         C1      NOp   1
 Largest concise Abelian subgroup C1      NOp   1
                         Standard orientation:                         
 ---------------------------------------------------------------------
 Center     Atomic      Atomic             Coordinates (Angstroms)
 Number     Number       Type             X           Y           Z
 ---------------------------------------------------------------------
      1          6           0       -1.153152    1.155571   -0.000121
      2          6           0        0.241869    1.189608   -0.000040
      3          6           0        0.935301   -0.026042   -0.000012
      4          6           0        0.196602   -1.214350    0.000069
      5          6           0       -1.193029   -1.123823    0.000236
      6          7           0       -1.880896    0.030288    0.000006
      7          1           0       -1.714634    2.094061   -0.000101
      8          1           0        0.773746    2.143657   -0.000049
      9          1           0        0.706679   -2.176946    0.000039
     10          1           0       -1.791972   -2.038552    0.000053
     11          8           0        2.294524   -0.112845   -0.000065
     12          1           0        2.670713    0.782735   -0.000256
 ---------------------------------------------------------------------
 Rotational constants (GHZ):      5.9694469      2.6187123      1.8202113
 Leave Link  202 at Fri Aug 27 21:10:31 2021, MaxMem= 17179869184 cpu:         3.8
 (Enter /public3/home/sc51754/softwares/g09e01/l301.exe)
 Basis read from rwf:  (5D, 7F)
 No pseudopotential information found on rwf file.
 There are   320 symmetry adapted cartesian basis functions of A   symmetry.
 There are   280 symmetry adapted basis functions of A   symmetry.
   280 basis functions,   475 primitive gaussians,   320 cartesian basis functions
    25 alpha electrons       25 beta electrons
       nuclear repulsion energy       273.3210767605 Hartrees.
 IExCor= 1009 DFT=T Ex=PBE Corr=PBE ExCW=0 ScaHFX=  0.000000
 ScaDFX=  1.000000  1.000000  1.000000  1.000000 ScalE2=  1.000000  1.000000
 IRadAn=      0 IRanWt=     -1 IRanGd=            0 ICorTp=0 IEmpDi=  4
 NAtoms=   12 NActive=   12 NUniq=   12 SFac= 1.00D+00 NAtFMM=   60 NAOKFM=F Big=F
 Integral buffers will be    131072 words long.
 Raffenetti 2 integral format.
 Two-electron integral symmetry is turned on.
 No density basis found on file   724.
 Leave Link  301 at Fri Aug 27 21:10:32 2021, MaxMem= 17179869184 cpu:         0.9
 (Enter /public3/home/sc51754/softwares/g09e01/l302.exe)
 NPDir=0 NMtPBC=     1 NCelOv=     1 NCel=       1 NClECP=     1 NCelD=      1
         NCelK=      1 NCelE2=     1 NClLst=     1 CellRange=     0.0.
 One-electron integrals computed using PRISM.
 NBasis=   280 RedAO= T EigKep=  2.02D-04  NBF=   280
 NBsUse=   280 1.00D-06 EigRej= -1.00D+00 NBFU=   280
 Precomputing XC quadrature grid using
 IXCGrd= 4 IRadAn=           0 IRanWt=          -1 IRanGd=           0 AccXCQ= 0.00D+00.
 Generated NRdTot=       0 NPtTot=           0 NUsed=           0 NTot=          32
 NSgBfM=   320   320   320   320   320 MxSgAt=    12 MxSgA2=    12.
 Leave Link  302 at Fri Aug 27 21:10:32 2021, MaxMem= 17179869184 cpu:        39.2
 (Enter /public3/home/sc51754/softwares/g09e01/l303.exe)
 DipDrv:  MaxL=1.
 Leave Link  303 at Fri Aug 27 21:10:33 2021, MaxMem= 17179869184 cpu:        12.0
 (Enter /public3/home/sc51754/softwares/g09e01/l401.exe)
 Initial guess from the checkpoint file:  "4HY_PBEPBE_PC2_OPT_FREQ.chk"
 B after Tr=     0.000000   -0.000000    0.000000
         Rot=    1.000000    0.000037   -0.000013    0.000146 Ang=   0.02 deg.
 Guess basis will be translated and rotated to current coordinates.
 JPrj=2 DoOrth=T DoCkMO=T.
 Leave Link  401 at Fri Aug 27 21:10:34 2021, MaxMem= 17179869184 cpu:        62.6
 (Enter /public3/home/sc51754/softwares/g09e01/l502.exe)
 Closed shell SCF:
 Using DIIS extrapolation, IDIIS=  1040.
 Integral symmetry usage will be decided dynamically.
 Keep J ints in memory in canonical form, NReq=790723944.
 IVT=      348554 IEndB=      348554 NGot= 17179869184 MDV= 16405683161
 LenX= 16405683161 LenY= 16405580320
 Requested convergence on RMS density matrix=1.00D-08 within 128 cycles.
 Requested convergence on MAX density matrix=1.00D-06.
 Requested convergence on             energy=1.00D-06.
 No special actions if energy rises.
 FoFCou: FMM=F IPFlag=           0 FMFlag=           0 FMFlg1=           0
         NFxFlg=           0 DoJE=F BraDBF=F KetDBF=F FulRan=T
         wScrn=  0.000000 ICntrl=     600 IOpCl=  0 I1Cent=           0 NGrid=           0
         NMat0=    1 NMatS0=  39340 NMatT0=    0 NMatD0=    1 NMtDS0=    0 NMtDT0=    0
 Symmetry not used in FoFCou.

 Cycle   1  Pass 1  IDiag  1:
 E= -323.259348200043    
 DIIS: error= 3.32D-04 at cycle   1 NSaved=   1.
 NSaved= 1 IEnMin= 1 EnMin= -323.259348200043     IErMin= 1 ErrMin= 3.32D-04
 ErrMax= 3.32D-04  0.00D+00 EMaxC= 1.00D-01 BMatC= 3.56D-05 BMatP= 3.56D-05
 IDIUse=3 WtCom= 9.97D-01 WtEn= 3.32D-03
 Coeff-Com:  0.100D+01
 Coeff-En:   0.100D+01
 Coeff:      0.100D+01
 Gap=     0.553 Goal=   None    Shift=    0.000
 RMSDP=2.42D-05 MaxDP=7.46D-04              OVMax= 1.43D-03

 Cycle   2  Pass 1  IDiag  1:
 E= -323.259374665082     Delta-E=       -0.000026465039 Rises=F Damp=F
 DIIS: error= 1.93D-04 at cycle   2 NSaved=   2.
 NSaved= 2 IEnMin= 2 EnMin= -323.259374665082     IErMin= 2 ErrMin= 1.93D-04
 ErrMax= 1.93D-04  0.00D+00 EMaxC= 1.00D-01 BMatC= 4.93D-06 BMatP= 3.56D-05
 IDIUse=3 WtCom= 9.98D-01 WtEn= 1.93D-03
 Coeff-Com:  0.199D+00 0.801D+00
 Coeff-En:   0.000D+00 0.100D+01
 Coeff:      0.198D+00 0.802D+00
 Gap=     0.161 Goal=   None    Shift=    0.000
 RMSDP=1.22D-05 MaxDP=4.87D-04 DE=-2.65D-05 OVMax= 7.66D-04

 Cycle   3  Pass 1  IDiag  1:
 E= -323.259374526792     Delta-E=        0.000000138290 Rises=F Damp=F
 DIIS: error= 1.90D-04 at cycle   3 NSaved=   3.
 NSaved= 3 IEnMin= 2 EnMin= -323.259374665082     IErMin= 3 ErrMin= 1.90D-04
 ErrMax= 1.90D-04  0.00D+00 EMaxC= 1.00D-01 BMatC= 5.67D-06 BMatP= 4.93D-06
 IDIUse=3 WtCom= 4.20D-01 WtEn= 5.80D-01
 Coeff-Com:  0.494D-01 0.513D+00 0.437D+00
 Coeff-En:   0.000D+00 0.507D+00 0.493D+00
 Coeff:      0.208D-01 0.510D+00 0.469D+00
 Gap=     0.161 Goal=   None    Shift=    0.000
 RMSDP=6.83D-06 MaxDP=3.24D-04 DE= 1.38D-07 OVMax= 6.27D-04

 Cycle   4  Pass 1  IDiag  1:
 E= -323.259378328510     Delta-E=       -0.000003801718 Rises=F Damp=F
 DIIS: error= 5.82D-05 at cycle   4 NSaved=   4.
 NSaved= 4 IEnMin= 4 EnMin= -323.259378328510     IErMin= 4 ErrMin= 5.82D-05
 ErrMax= 5.82D-05  0.00D+00 EMaxC= 1.00D-01 BMatC= 6.02D-07 BMatP= 4.93D-06
 IDIUse=1 WtCom= 1.00D+00 WtEn= 0.00D+00
 Coeff-Com:  0.121D-01 0.245D+00 0.295D+00 0.448D+00
 Coeff:      0.121D-01 0.245D+00 0.295D+00 0.448D+00
 Gap=     0.161 Goal=   None    Shift=    0.000
 RMSDP=2.51D-06 MaxDP=1.01D-04 DE=-3.80D-06 OVMax= 3.62D-04

 Cycle   5  Pass 1  IDiag  1:
 E= -323.259378793244     Delta-E=       -0.000000464734 Rises=F Damp=F
 DIIS: error= 2.77D-05 at cycle   5 NSaved=   5.
 NSaved= 5 IEnMin= 5 EnMin= -323.259378793244     IErMin= 5 ErrMin= 2.77D-05
 ErrMax= 2.77D-05  0.00D+00 EMaxC= 1.00D-01 BMatC= 8.45D-08 BMatP= 6.02D-07
 IDIUse=1 WtCom= 1.00D+00 WtEn= 0.00D+00
 Coeff-Com:  0.176D-02 0.107D+00 0.153D+00 0.316D+00 0.422D+00
 Coeff:      0.176D-02 0.107D+00 0.153D+00 0.316D+00 0.422D+00
 Gap=     0.161 Goal=   None    Shift=    0.000
 RMSDP=1.00D-06 MaxDP=3.88D-05 DE=-4.65D-07 OVMax= 1.41D-04

 Cycle   6  Pass 1  IDiag  1:
 E= -323.259378869746     Delta-E=       -0.000000076502 Rises=F Damp=F
 DIIS: error= 7.89D-06 at cycle   6 NSaved=   6.
 NSaved= 6 IEnMin= 6 EnMin= -323.259378869746     IErMin= 6 ErrMin= 7.89D-06
 ErrMax= 7.89D-06  0.00D+00 EMaxC= 1.00D-01 BMatC= 1.06D-08 BMatP= 8.45D-08
 IDIUse=1 WtCom= 1.00D+00 WtEn= 0.00D+00
 Coeff-Com:  0.107D-03 0.542D-01 0.815D-01 0.185D+00 0.303D+00 0.376D+00
 Coeff:      0.107D-03 0.542D-01 0.815D-01 0.185D+00 0.303D+00 0.376D+00
 Gap=     0.161 Goal=   None    Shift=    0.000
 RMSDP=3.78D-07 MaxDP=1.39D-05 DE=-7.65D-08 OVMax= 6.09D-05

 Cycle   7  Pass 1  IDiag  1:
 E= -323.259378879798     Delta-E=       -0.000000010052 Rises=F Damp=F
 DIIS: error= 1.68D-06 at cycle   7 NSaved=   7.
 NSaved= 7 IEnMin= 7 EnMin= -323.259378879798     IErMin= 7 ErrMin= 1.68D-06
 ErrMax= 1.68D-06  0.00D+00 EMaxC= 1.00D-01 BMatC= 6.46D-10 BMatP= 1.06D-08
 IDIUse=1 WtCom= 1.00D+00 WtEn= 0.00D+00
 Coeff-Com: -0.195D-03 0.174D-01 0.278D-01 0.685D-01 0.124D+00 0.234D+00
 Coeff-Com:  0.528D+00
 Coeff:     -0.195D-03 0.174D-01 0.278D-01 0.685D-01 0.124D+00 0.234D+00
 Coeff:      0.528D+00
 Gap=     0.161 Goal=   None    Shift=    0.000
 RMSDP=7.85D-08 MaxDP=3.64D-06 DE=-1.01D-08 OVMax= 1.54D-05

 Cycle   8  Pass 1  IDiag  1:
 E= -323.259378880362     Delta-E=       -0.000000000564 Rises=F Damp=F
 DIIS: error= 5.30D-07 at cycle   8 NSaved=   8.
 NSaved= 8 IEnMin= 8 EnMin= -323.259378880362     IErMin= 8 ErrMin= 5.30D-07
 ErrMax= 5.30D-07  0.00D+00 EMaxC= 1.00D-01 BMatC= 6.60D-11 BMatP= 6.46D-10
 IDIUse=1 WtCom= 1.00D+00 WtEn= 0.00D+00
 Coeff-Com: -0.130D-03 0.790D-02 0.128D-01 0.326D-01 0.611D-01 0.126D+00
 Coeff-Com:  0.338D+00 0.421D+00
 Coeff:     -0.130D-03 0.790D-02 0.128D-01 0.326D-01 0.611D-01 0.126D+00
 Coeff:      0.338D+00 0.421D+00
 Gap=     0.161 Goal=   None    Shift=    0.000
 RMSDP=2.73D-08 MaxDP=1.40D-06 DE=-5.64D-10 OVMax= 4.23D-06

 Cycle   9  Pass 1  IDiag  1:
 E= -323.259378880427     Delta-E=       -0.000000000065 Rises=F Damp=F
 DIIS: error= 1.58D-07 at cycle   9 NSaved=   9.
 NSaved= 9 IEnMin= 9 EnMin= -323.259378880427     IErMin= 9 ErrMin= 1.58D-07
 ErrMax= 1.58D-07  0.00D+00 EMaxC= 1.00D-01 BMatC= 3.94D-12 BMatP= 6.60D-11
 IDIUse=1 WtCom= 1.00D+00 WtEn= 0.00D+00
 Coeff-Com: -0.395D-04 0.192D-02 0.315D-02 0.833D-02 0.163D-01 0.363D-01
 Coeff-Com:  0.110D+00 0.229D+00 0.595D+00
 Coeff:     -0.395D-04 0.192D-02 0.315D-02 0.833D-02 0.163D-01 0.363D-01
 Coeff:      0.110D+00 0.229D+00 0.595D+00
 Gap=     0.161 Goal=   None    Shift=    0.000
 RMSDP=8.66D-09 MaxDP=3.29D-07 DE=-6.50D-11 OVMax= 1.39D-06

 SCF Done:  E(RPBE-PBE) =  -323.259378880     A.U. after    9 cycles
            NFock=  9  Conv=0.87D-08     -V/T= 2.0034
 KE= 3.221506456396D+02 PE=-1.301485239619D+03 EE= 3.827541383382D+02
 Leave Link  502 at Fri Aug 27 21:10:42 2021, MaxMem= 17179869184 cpu:       149.2
 (Enter /public3/home/sc51754/softwares/g09e01/l701.exe)
 Compute integral first derivatives.
 ... and contract with generalized density number  0.
 Leave Link  701 at Fri Aug 27 21:10:44 2021, MaxMem= 17179869184 cpu:        61.9
 (Enter /public3/home/sc51754/softwares/g09e01/l702.exe)
 L702 exits ... SP integral derivatives will be done elsewhere.
 Leave Link  702 at Fri Aug 27 21:10:44 2021, MaxMem= 17179869184 cpu:         0.3
 (Enter /public3/home/sc51754/softwares/g09e01/l703.exe)
 Compute integral first derivatives, UseDBF=F ICtDFT=           0.
 Integral derivatives from FoFJK, PRISM(SPDF).
 Calling FoFJK, ICntrl=      2527 FMM=F ISym2X=0 I1Cent= 0 IOpClX= 0 NMat=1 NMatS=1 NMatT=0.
 FoFJK:  IHMeth= 1 ICntrl=    2527 DoSepK=F KAlg= 0 I1Cent=   0 FoldK=F
 IRaf=         0 NMat=   1 IRICut=       1 DoRegI=T DoRafI=F ISym2E= 0.
 FoFCou: FMM=F IPFlag=           0 FMFlag=      100000 FMFlg1=         800
         NFxFlg=           0 DoJE=F BraDBF=F KetDBF=F FulRan=T
         wScrn=  0.000000 ICntrl=    2527 IOpCl=  0 I1Cent=           0 NGrid=           0
         NMat0=    1 NMatS0=      1 NMatT0=    0 NMatD0=    1 NMtDS0=    0 NMtDT0=    0
 Symmetry not used in FoFCou.
 Leave Link  703 at Fri Aug 27 21:10:46 2021, MaxMem= 17179869184 cpu:       137.8
 (Enter /public3/home/sc51754/softwares/g09e01/l716.exe)
 Dipole        = 9.68090321D-01 4.93981230D-01-1.39995097D-04
 ***** Axes restored to original set *****
 -------------------------------------------------------------------
 Center     Atomic                   Forces (Hartrees/Bohr)
 Number     Number              X              Y              Z
 -------------------------------------------------------------------
      1        6          -0.000577217    0.000091004   -0.000021446
      2        6           0.000226231   -0.000291562    0.000006189
      3        6           0.001060757    0.000089347   -0.000001019
      4        6          -0.000221346    0.000361402   -0.000013464
      5        6          -0.000285226    0.000190960    0.000049717
      6        7           0.000404289   -0.000199031   -0.000011039
      7        1           0.000051171   -0.000047217    0.000007781
      8        1          -0.000055014    0.000069679    0.000001559
      9        1           0.000059766   -0.000073470   -0.000002215
     10        1           0.000025115    0.000015497   -0.000016342
     11        8          -0.000792504   -0.000678885    0.000000970
     12        1           0.000103976    0.000472277   -0.000000692
 -------------------------------------------------------------------
 Cartesian Forces:  Max     0.001060757 RMS     0.000310032
 Leave Link  716 at Fri Aug 27 21:10:46 2021, MaxMem= 17179869184 cpu:         0.3
 (Enter /public3/home/sc51754/softwares/g09e01/l103.exe)

 GradGradGradGradGradGradGradGradGradGradGradGradGradGradGradGradGradGrad
 Berny optimization.
 Using GEDIIS/GDIIS optimizer.
 FormGI is forming the generalized inverse of G from B-inverse, IUseBI=4.
 Internal  Forces:  Max     0.000700934 RMS     0.000167731
 Search for a local minimum.
 Step number   2 out of a maximum of   61
 All quantities printed in internal units (Hartrees-Bohrs-Radians)
 RMS Force = .16773D-03 SwitMx=.10000D-02 MixMth= 2
 Mixed Optimization -- En-DIIS/RFO-DIIS
 Update second derivatives using D2CorX and points    1    2
 DE= -1.14D-04 DEPred=-1.09D-04 R= 1.04D+00
 TightC=F SS=  1.41D+00  RLast= 2.36D-02 DXNew= 5.0454D-01 7.0682D-02
 Trust test= 1.04D+00 RLast= 2.36D-02 DXMaxT set to 3.00D-01
 ITU=  1  0
 Use linear search instead of GDIIS.
     Eigenvalues ---    0.02120   0.02139   0.02144   0.02163   0.02210
     Eigenvalues ---    0.02238   0.02269   0.02295   0.02415   0.15572
     Eigenvalues ---    0.16000   0.16000   0.16000   0.16007   0.21979
     Eigenvalues ---    0.22872   0.23805   0.24984   0.34944   0.34991
     Eigenvalues ---    0.35213   0.35531   0.42434   0.44310   0.46103
     Eigenvalues ---    0.47628   0.50553   0.53970   0.55657   0.56434
 RFO step:  Lambda=-4.36917280D-06 EMin= 2.11977143D-02
 Quartic linear search produced a step of  0.04463.
 Iteration  1 RMS(Cart)=  0.00085690 RMS(Int)=  0.00000162
 Iteration  2 RMS(Cart)=  0.00000157 RMS(Int)=  0.00000006
 Iteration  3 RMS(Cart)=  0.00000000 RMS(Int)=  0.00000006
 ITry= 1 IFail=0 DXMaxC= 4.12D-03 DCOld= 1.00D+10 DXMaxT= 3.00D-01 DXLimC= 3.00D+00 Rises=F
 Variable       Old X    -DE/DX   Delta X   Delta X   Delta X     New X
                                 (Linear)    (Quad)   (Total)
    R1        2.63699  -0.00028   0.00011  -0.00069  -0.00058   2.63641
    R2        2.53243   0.00016   0.00018   0.00021   0.00040   2.53282
    R3        2.06666  -0.00001   0.00042  -0.00027   0.00015   2.06681
    R4        2.64471  -0.00024   0.00011  -0.00063  -0.00052   2.64419
    R5        2.06413   0.00009   0.00042   0.00003   0.00046   2.06459
    R6        2.64410  -0.00042   0.00008  -0.00102  -0.00094   2.64316
    R7        2.57379   0.00070   0.00028   0.00122   0.00150   2.57529
    R8        2.63159  -0.00010   0.00012  -0.00028  -0.00016   2.63143
    R9        2.05865   0.00004   0.00044  -0.00013   0.00031   2.05896
   R10        2.53895  -0.00006   0.00016  -0.00018  -0.00002   2.53893
   R11        2.06617   0.00000   0.00042  -0.00022   0.00019   2.06637
   R12        1.83564   0.00039   0.00038   0.00056   0.00093   1.83658
    A1        2.16926   0.00007  -0.00004   0.00041   0.00037   2.16963
    A2        2.08556   0.00003   0.00003   0.00024   0.00026   2.08582
    A3        2.02837  -0.00011   0.00001  -0.00065  -0.00064   2.02773
    A4        2.06479   0.00005   0.00006   0.00014   0.00020   2.06499
    A5        2.10377  -0.00001  -0.00004   0.00004   0.00001   2.10378
    A6        2.11463  -0.00004  -0.00002  -0.00018  -0.00020   2.11442
    A7        2.06703   0.00003  -0.00003   0.00001  -0.00002   2.06700
    A8        2.15296  -0.00006  -0.00003  -0.00015  -0.00018   2.15278
    A9        2.06320   0.00003   0.00006   0.00014   0.00020   2.06340
   A10        2.06192  -0.00001   0.00003  -0.00019  -0.00016   2.06177
   A11        2.09814   0.00010   0.00005   0.00066   0.00071   2.09884
   A12        2.12313  -0.00008  -0.00008  -0.00047  -0.00055   2.12258
   A13        2.17333   0.00015  -0.00001   0.00075   0.00075   2.17408
   A14        2.08547  -0.00004  -0.00000  -0.00016  -0.00016   2.08531
   A15        2.02438  -0.00011   0.00001  -0.00059  -0.00059   2.02380
   A16        2.03004  -0.00030  -0.00001  -0.00112  -0.00114   2.02891
   A17        1.90469  -0.00051  -0.00017  -0.00323  -0.00341   1.90129
    D1        0.00016  -0.00001   0.00002  -0.00029  -0.00027  -0.00011
[...]
 Iteration  2 RMS(Cart)=  0.00000008 RMS(Int)=  0.00000001
 ITry= 1 IFail=0 DXMaxC= 9.34D-04 DCOld= 1.00D+10 DXMaxT= 3.00D-01 DXLimC= 3.00D+00 Rises=F
 Variable       Old X    -DE/DX   Delta X   Delta X   Delta X     New X
                                 (Linear)    (Quad)   (Total)
    R1        2.63641  -0.00010   0.00000  -0.00033  -0.00033   2.63608
    R2        2.53282   0.00013   0.00000   0.00043   0.00043   2.53325
    R3        2.06681  -0.00006   0.00000  -0.00021  -0.00021   2.06660
    R4        2.64419  -0.00000   0.00000   0.00002   0.00002   2.64421
    R5        2.06459  -0.00005   0.00000  -0.00017  -0.00017   2.06442
    R6        2.64316  -0.00006   0.00000  -0.00036  -0.00036   2.64280
    R7        2.57529   0.00030   0.00000   0.00086   0.00086   2.57615
    R8        2.63143   0.00000   0.00000   0.00016   0.00016   2.63159
    R9        2.05896  -0.00008   0.00000  -0.00024  -0.00024   2.05872
   R10        2.53893   0.00000   0.00000  -0.00009  -0.00009   2.53883
   R11        2.06637  -0.00005   0.00000  -0.00014  -0.00014   2.06623
   R12        1.83658  -0.00001   0.00000  -0.00002  -0.00002   1.83656
    A1        2.16963  -0.00002   0.00000  -0.00012  -0.00012   2.16951
    A2        2.08582   0.00002   0.00000   0.00029   0.00029   2.08611
    A3        2.02773  -0.00000   0.00000  -0.00017  -0.00017   2.02756
    A4        2.06499   0.00001   0.00000   0.00001   0.00001   2.06499
    A5        2.10378  -0.00001   0.00000  -0.00003  -0.00003   2.10375
    A6        2.11442   0.00001   0.00000   0.00002   0.00002   2.11444
    A7        2.06700   0.00004   0.00000   0.00025   0.00025   2.06725
    A8        2.15278  -0.00008   0.00000  -0.00049  -0.00049   2.15229
    A9        2.06340   0.00004   0.00000   0.00024   0.00024   2.06364
   A10        2.06177  -0.00001   0.00000  -0.00018  -0.00018   2.06159
   A11        2.09884   0.00006   0.00000   0.00064   0.00064   2.09949
   A12        2.12258  -0.00005   0.00000  -0.00047  -0.00047   2.12211
   A13        2.17408  -0.00001   0.00000   0.00006   0.00006   2.17414
   A14        2.08531  -0.00000   0.00000  -0.00009  -0.00009   2.08522
   A15        2.02380   0.00001   0.00000   0.00003   0.00003   2.02382
   A16        2.02891  -0.00001   0.00000  -0.00002  -0.00002   2.02889
   A17        1.90129  -0.00001   0.00000  -0.00031  -0.00031   1.90098
    D1       -0.00011   0.00000   0.00000   0.00011   0.00011  -0.00000
    D2        3.14153   0.00000   0.00000   0.00006   0.00006   3.14159
    D3       -3.14155  -0.00000   0.00000  -0.00004  -0.00004   3.14159
    D4        0.00009  -0.00000   0.00000  -0.00009  -0.00009  -0.00000
    D5        0.00002  -0.00000   0.00000  -0.00002  -0.00002   0.00000
    D6        3.14147   0.00000   0.00000   0.00013   0.00013   3.14159
    D7        0.00006  -0.00000   0.00000  -0.00006  -0.00006   0.00000
    D8       -3.14154  -0.00000   0.00000  -0.00006  -0.00006  -3.14159
    D9       -3.14158  -0.00000   0.00000  -0.00002  -0.00002  -3.14159
   D10        0.00001  -0.00000   0.00000  -0.00001  -0.00001   0.00000
   D11        0.00006  -0.00000   0.00000  -0.00006  -0.00006   0.00000
   D12       -3.14154  -0.00000   0.00000  -0.00005  -0.00005  -3.14159
   D13       -3.14152  -0.00000   0.00000  -0.00007  -0.00007  -3.14159
   D14        0.00006  -0.00000   0.00000  -0.00005  -0.00005   0.00000
   D15       -0.00011   0.00000   0.00000   0.00011   0.00011  -0.00000
   D16        3.14148   0.00000   0.00000   0.00011   0.00011   3.14159
   D17       -0.00016   0.00001   0.00000   0.00016   0.00016  -0.00000
   D18       -3.14146  -0.00000   0.00000  -0.00013  -0.00013   3.14159
   D19        3.14144   0.00001   0.00000   0.00015   0.00015   3.14159
   D20        0.00014  -0.00001   0.00000  -0.00014  -0.00014  -0.00000
   D21        0.00012  -0.00000   0.00000  -0.00012  -0.00012   0.00000
   D22        3.14143   0.00001   0.00000   0.00016   0.00016  -3.14159
         Item               Value     Threshold  Converged?
 Maximum Force            0.000301     0.000450     YES
 RMS     Force            0.000055     0.000300     YES
 Maximum Displacement     0.000934     0.001800     YES
 RMS     Displacement     0.000269     0.001200     YES
 Predicted change in Energy=-2.783915D-07
 Optimization completed.
    -- Stationary point found.
                           ----------------------------
                           !   Optimized Parameters   !
                           ! (Angstroms and Degrees)  !
 --------------------------                            --------------------------
 ! Name  Definition              Value          Derivative Info.                !
 --------------------------------------------------------------------------------
 ! R1    R(1,2)                  1.3951         -DE/DX =   -0.0001              !
 ! R2    R(1,6)                  1.3403         -DE/DX =    0.0001              !
 ! R3    R(1,7)                  1.0937         -DE/DX =   -0.0001              !
 ! R4    R(2,3)                  1.3992         -DE/DX =    0.0                 !
 ! R5    R(2,8)                  1.0925         -DE/DX =   -0.0001              !
 ! R6    R(3,4)                  1.3987         -DE/DX =   -0.0001              !
 ! R7    R(3,11)                 1.3628         -DE/DX =    0.0003              !
 ! R8    R(4,5)                  1.3925         -DE/DX =    0.0                 !
 ! R9    R(4,9)                  1.0896         -DE/DX =   -0.0001              !
 ! R10   R(5,6)                  1.3435         -DE/DX =    0.0                 !
 ! R11   R(5,10)                 1.0935         -DE/DX =    0.0                 !
 ! R12   R(11,12)                0.9719         -DE/DX =    0.0                 !
 ! A1    A(2,1,6)              124.3105         -DE/DX =    0.0                 !
 ! A2    A(2,1,7)              119.5089         -DE/DX =    0.0                 !
 ! A3    A(6,1,7)              116.1806         -DE/DX =    0.0                 !
 ! A4    A(1,2,3)              118.315          -DE/DX =    0.0                 !
 ! A5    A(1,2,8)              120.5374         -DE/DX =    0.0                 !
 ! A6    A(3,2,8)              121.1476         -DE/DX =    0.0                 !
 ! A7    A(2,3,4)              118.4306         -DE/DX =    0.0                 !
 ! A8    A(2,3,11)             123.3451         -DE/DX =   -0.0001              !
 ! A9    A(4,3,11)             118.2243         -DE/DX =    0.0                 !
 ! A10   A(3,4,5)              118.1305         -DE/DX =    0.0                 !
 ! A11   A(3,4,9)              120.2549         -DE/DX =    0.0001              !
 ! A12   A(5,4,9)              121.6146         -DE/DX =    0.0                 !
 ! A13   A(4,5,6)              124.5657         -DE/DX =    0.0                 !
 ! A14   A(4,5,10)             119.4793         -DE/DX =    0.0                 !
 ! A15   A(6,5,10)             115.955          -DE/DX =    0.0                 !
 ! A16   A(1,6,5)              116.2477         -DE/DX =    0.0                 !
 ! A17   A(3,11,12)            108.9356         -DE/DX =    0.0                 !
 ! D1    D(6,1,2,3)             -0.0061         -DE/DX =    0.0                 !
 ! D2    D(6,1,2,8)            179.9963         -DE/DX =    0.0                 !
 ! D3    D(7,1,2,3)            180.0024         -DE/DX =    0.0                 !
 ! D4    D(7,1,2,8)              0.0049         -DE/DX =    0.0                 !
 ! D5    D(2,1,6,5)              0.001          -DE/DX =    0.0                 !
 ! D6    D(7,1,6,5)            179.9927         -DE/DX =    0.0                 !
 ! D7    D(1,2,3,4)              0.0034         -DE/DX =    0.0                 !
 ! D8    D(1,2,3,11)          -179.9968         -DE/DX =    0.0                 !
 ! D9    D(8,2,3,4)           -179.999          -DE/DX =    0.0                 !
 ! D10   D(8,2,3,11)             0.0007         -DE/DX =    0.0                 !
 ! D11   D(2,3,4,5)              0.0037         -DE/DX =    0.0                 !
 ! D12   D(2,3,4,9)           -179.9971         -DE/DX =    0.0                 !
 ! D13   D(11,3,4,5)          -179.9961         -DE/DX =    0.0                 !
 ! D14   D(11,3,4,9)             0.0032         -DE/DX =    0.0                 !
 ! D15   D(2,3,11,12)           -0.0062         -DE/DX =    0.0                 !
 ! D16   D(4,3,11,12)          179.9936         -DE/DX =    0.0                 !
 ! D17   D(3,4,5,6)             -0.0094         -DE/DX =    0.0                 !
 ! D18   D(3,4,5,10)           180.0075         -DE/DX =    0.0                 !
 ! D19   D(9,4,5,6)            179.9913         -DE/DX =    0.0                 !
 ! D20   D(9,4,5,10)             0.0082         -DE/DX =    0.0                 !
 ! D21   D(4,5,6,1)              0.007          -DE/DX =    0.0                 !
 ! D22   D(10,5,6,1)          -180.0094         -DE/DX =    0.0                 !
 --------------------------------------------------------------------------------
 GradGradGradGradGradGradGradGradGradGradGradGradGradGradGradGradGradGrad

 Leave Link  103 at Fri Aug 27 21:11:42 2021, MaxMem= 17179869184 cpu:        79.9
 (Enter /public3/home/sc51754/softwares/g09e01/l9999.exe)
 1\1\GINC-P1908\Freq\RPBEPBE\Gen\C5H5N1O1\SC51754\27-Aug-2021\0\\#P Geo
 m=AllCheck Guess=TCheck SCRF=Check GenChk RPBEPBE/ChkBas Freq\\4HY_PBE
 PBE_PC2_OPT_FREQ\\0,1\C,1.1526474842,1.1548231715,-0.0000701402\C,-0.2
 420677911,1.1887639178,0.0000243157\C,-0.9355269643,-0.0265557679,-0.0
 000231817\C,-0.1972220844,-1.2145235101,-0.0000896374\C,1.1923217924,-
 1.1239384938,-0.0000261004\N,1.8809941586,0.0296802575,-0.0000862943\H
 ,1.7143606438,2.0932691625,0.0000053844\H,-0.7741285282,2.1429867511,0
 .0000924827\H,-0.7068000573,-2.1775678726,-0.0001762572\H,1.7912146441
 ,-2.0388233359,-0.0002003832\O,-2.2955703573,-0.1129824554,-0.00000363
 33\H,-2.6686149405,0.7844471754,0.0001464449\\Version=EM64L-G09RevE.01
 \State=1-A\HF=-323.2593816\RMSD=4.182e-09\RMSF=1.037e-04\ZeroPoint=0.0
 903422\Thermal=0.0958216\Dipole=-0.964538,0.4942918,0.000085\DipoleDer
 iv=0.4473793,0.0173512,-0.0000236,-0.0022466,0.3628649,0.0000163,0.000
 0157,0.0000644,-0.019475,-0.417124,-0.1118823,0.0000013,-0.3258048,-0.
 0959214,0.0000206,-0.0000151,-0.0000183,-0.1462228,1.5316924,-0.000388
 8,-0.0000276,0.0064757,0.2891714,-0.0000148,-0.0000311,-0.0000171,0.09
 07735,-0.4204749,0.1185716,0.0000218,0.2811659,-0.0828375,0.0000148,0.
 0000441,0.0000017,-0.1365998,0.4625184,-0.0501099,-0.0000022,0.036683,
 0.3717008,0.000023,-0.0000654,0.0000895,-0.0208467,-0.5999894,0.019658
 7,0.0000024,-0.0202275,-0.5931218,-0.0000347,0.0000158,0.0000012,-0.26
 19339,0.0347324,-0.0746613,0.0000028,-0.0596922,-0.0902195,-0.0000037,
 -0.0000214,-0.0000443,0.1043597,-0.0138247,0.0918568,0.0000123,0.08285
 04,-0.0417885,-0.0000114,0.0000181,-0.0000041,0.1462636,0.0462269,-0.0
 600122,-0.0000063,-0.0540225,-0.0201393,-0.0000082,-0.0000154,-0.00000
 97,0.1463948,0.0308817,0.081571,0.0000026,0.0615028,-0.0806554,-0.0000
 068,0.0000427,-0.0000759,0.1050919,-1.4608572,0.0110806,0.0000263,-0.0
 075367,-0.1420813,0.0000291,-0.0000014,0.0000351,-0.3184435,0.3588392,
 -0.0430354,-0.0000098,0.0008525,0.1230276,-0.0000243,0.0000135,-0.0000
 225,0.3106382\Polar=85.6412944,-1.6202258,79.7583801,-0.0010952,0.0013
 987,38.9644698\PG=C01 [X(C5H5N1O1)]\NImag=0\\0.64800779,0.04085117,0.6
 9252800,-0.00001113,0.00002259,0.14640058,-0.31646653,-0.03422670,0.00
 001485,0.65738320,0.02409748,-0.11967507,-0.00000412,-0.02994683,0.682
 23098,0.00001847,-0.00000205,-0.05819959,-0.00002664,0.00003094,0.1063
 6344,-0.02833465,-0.03093663,-0.00000094,-0.14936853,-0.10542764,-0.00
 000210,0.66200232,-0.07655544,0.03973953,0.00000378,-0.04003785,-0.275
 70913,-0.00001164,-0.01216812,0.68063215,-0.00000029,0.00000346,0.0011
 6768,-0.00000229,-0.00001062,-0.06183451,-0.00001115,0.00003198,0.1534
 1065,-0.04160893,0.03253993,0.00000184,0.04999665,0.01444120,-0.000001
 91,-0.14997335,0.04863503,0.00000528,0.67072265,0.01517634,-0.01266385
 ,-0.00000041,-0.01082558,-0.04462346,-0.00000175,0.10855595,-0.2729777
 5,-0.00001365,0.03370585,0.69266767,0.00000054,0.00000024,-0.00596061,
 0.00000076,-0.00000226,0.00745188,0.00000436,-0.00001320,-0.06405236,0
 .00001388,0.00003952,0.11117828,0.04271223,-0.01679172,-0.00000244,-0.
 03986076,-0.01501953,0.00000090,-0.03398842,0.07101700,0.00000068,-0.3
 2473732,-0.03300112,-0.00001432,0.65864771,0.02160133,-0.09399150,-0.0
 0000094,-0.03387887,-0.01459211,0.00000153,0.02761032,0.04429193,0.000
 00280,0.02433878,-0.12228617,-0.00000585,-0.04448007,0.68470838,-0.000
 00141,-0.00000165,0.00414815,0.00000051,0.00000094,-0.00651970,0.00000
 256,-0.00000063,0.00134328,-0.00000804,-0.00000441,-0.05868105,-0.0000
 2150,0.00003689,0.14806159,-0.17111791,0.10532881,0.00000423,-0.033535
 80,0.02997626,0.00000253,0.00963082,0.00259412,-0.00000050,-0.02833648
 ,-0.03291537,0.00000102,-0.16317113,-0.09861016,0.00000518,0.37904181,
 0.09069919,-0.26352769,-0.00000462,0.08178869,0.02100633,-0.00000178,0
 .00238943,-0.07623055,-0.00000278,-0.08269097,0.01778602,0.00000296,-0
 .08403706,-0.26504703,0.00000314,-0.00751320,0.61633740,0.00000049,-0.
 00000196,-0.06478829,0.00000348,-0.00000193,0.02090556,-0.00000045,0.0
 0000096,-0.00714954,-0.00000178,-0.00000049,0.02025383,0.00001130,0.00
 000837,-0.06499735,-0.00001153,-0.00000190,0.08977243,-0.13047750,-0.1
 1994644,-0.00000727,-0.01189249,-0.02569165,-0.00000139,-0.00469453,0.
 00222924,0.00000059,-0.00044554,0.00080461,-0.00000005,0.00056669,0.00
 461229,0.00000009,0.01262302,0.01789948,0.00000030,0.13432134,-0.11969
 105,-0.23098696,-0.00001419,0.00126908,0.00283119,-0.00000039,0.001103
 62,0.00139178,-0.00000056,0.00010187,0.00020241,0.00000013,0.00262151,
 -0.00222913,-0.00000109,-0.00523346,-0.03179361,-0.00000029,0.12116280
 ,0.26088208,-0.00000895,-0.00001840,-0.03840125,0.00000160,0.00000176,
 0.00595333,0.00000104,-0.00000022,0.00753422,0.00000109,-0.00000054,-0
 .00114826,-0.00000161,-0.00000106,0.00936576,-0.00000124,0.00000192,-0
 .00329087,0.00000796,0.00001588,0.02444325,-0.00712405,0.02943692,0.00
 000101,-0.11348746,0.11014299,0.00000991,0.00638322,-0.01332600,-0.000
 00083,-0.00019870,-0.00343077,0.00000003,-0.00158856,-0.00197166,0.000
 00011,-0.00651316,-0.00005381,0.00000076,0.00074370,-0.00041318,-0.000
 00032,0.11734496,-0.00142148,0.00194145,0.00000026,0.11016613,-0.25628
 531,-0.00001540,0.01775779,-0.01790837,-0.00000138,-0.00433407,-0.0028
 6690,-0.00000050,-0.00106681,0.00016118,-0.00000004,-0.00005884,0.0022
 8515,-0.00000034,0.00034225,0.00046181,0.00000014,-0.12069569,0.271295
 55,0.00000093,-0.00000211,-0.00050194,0.00000868,-0.00001471,-0.027969
 45,0.00000069,-0.00000062,0.00283645,-0.00000005,-0.00000046,0.0053265
 5,0.00000022,0.00000040,-0.00052391,0.00000026,0.00000005,0.00788374,-
 0.00000002,0.00000033,-0.00305812,-0.00001038,0.00001679,0.02006155,-0
 .00152143,0.00185074,-0.00000004,-0.00109835,0.00312228,-0.00000009,0.
 00995400,0.01477553,0.00000101,-0.11081189,-0.11188932,-0.00001155,-0.
 00595101,-0.02826362,-0.00000114,-0.00604135,-0.00030066,-0.00000032,0
 .00011864,-0.00026132,0.00000010,0.00042373,0.00095781,-0.00000005,0.1
 1241044,0.00106377,0.00021051,-0.00000007,0.00397620,-0.00254234,-0.00
 000071,-0.01569527,-0.01831990,-0.00000144,-0.10998313,-0.26827618,-0.
 00001998,0.00146994,0.00223876,0.00000037,0.00015344,0.00223403,-0.000
 00068,-0.00007830,-0.00002429,0.00000012,-0.00072189,-0.00078928,0.,0.
 12085706,0.28259006,-0.00000007,0.00000043,-0.00052225,0.00000020,-0.0
 0000055,0.00552928,-0.00000090,-0.00000056,0.00393432,-0.00000994,-0.0
 0002059,-0.03050877,-0.00000111,-0.00000168,-0.00030429,0.00000062,0.0
 0000033,0.00813448,0.00000003,0.00000003,-0.00141788,0.00000002,-0.000
 00001,0.00023506,0.00001170,0.00002164,0.02181965,0.00089202,-0.004569
 14,0.00000086,-0.00048694,-0.00082121,-0.00000002,-0.00439135,-0.00224
 872,0.00000020,-0.01279268,0.02517308,0.00000372,-0.14030341,0.1239570
 0,0.00002193,0.01282591,-0.01625712,-0.00000217,0.00031230,-0.00052733
 ,0.00000013,0.00010774,0.00007757,-0.00000016,0.00075793,-0.00037501,-
 0.00000033,0.14453419,-0.00248836,-0.00264868,-0.00000090,-0.00013801,
 0.00023524,0.00000015,-0.00137991,0.00120512,-0.00000099,-0.00194762,0
 .00377471,-0.00000077,0.12370921,-0.22209398,-0.00003253,0.00710177,-0
 .03189391,-0.00000163,0.00056912,-0.00081820,0.00000007,0.00027865,-0.
 00003690,0.00000007,0.00041680,0.00043950,0.00000062,-0.12619089,0.251
 58987,0.00000210,-0.00000012,0.00910893,-0.00000062,-0.00000064,-0.001
 10540,-0.00000088,-0.00000061,0.00779466,-0.00000223,0.00000105,0.0062
 2078,0.00002655,-0.00004007,-0.03919267,-0.00000040,0.00000363,-0.0030
 2654,-0.00000009,0.00000015,0.00057405,-0.00000011,0.00000009,-0.00133
 238,0.00000031,0.00000030,-0.00326280,-0.00002425,0.00003584,0.0247887
 7,0.00625181,-0.00428486,-0.00000078,-0.04507315,-0.00577218,0.0000007
 8,-0.29025228,-0.04113349,0.00000065,-0.04517786,0.01205776,0.00000161
 ,0.00723384,0.00224544,0.00000155,-0.00617776,-0.00045855,-0.00000027,
 -0.00151438,-0.00016953,0.00000021,0.00415667,0.00016004,-0.00000025,0
 .00161084,-0.00056046,-0.00000025,-0.00092709,0.00026182,-0.00000019,0
 .46424136,0.00650502,-0.00918365,-0.00000159,-0.04220848,0.00280507,0.
 00000057,0.00901072,-0.10502490,-0.00000750,0.04609262,0.00660782,-0.0
 0000020,-0.00434079,-0.01050724,-0.00000071,-0.00092347,0.00831440,0.0
 0000003,-0.00172078,0.00011775,0.00000036,-0.00068773,0.00263042,0.000
 00052,-0.00099980,0.00184207,0.00000029,0.00165614,0.00017854,0.000000
 30,-0.13196649,0.52430772,-0.00000066,-0.00000019,0.00822258,0.0000002
 5,0.00000055,0.01093482,0.00000914,-0.00000797,-0.04248905,0.00000239,
 0.00000163,0.00654433,0.00000142,-0.00000032,0.00546631,-0.00000022,-0
 .00000106,-0.00354268,-0.00000007,0.00000002,-0.00067285,-0.00000038,0
 .00000026,-0.00333201,0.00000005,0.00000038,-0.00306986,0.00000014,0.0
 0000001,-0.00012145,-0.00003363,0.00007547,0.02799808,-0.00121284,0.00
 074792,-0.00000019,0.00389017,0.00089884,-0.00000045,-0.02696723,0.046
 21868,0.00000663,-0.00663656,-0.00341145,0.,0.00044014,0.00283924,0.00
 000017,0.00077203,-0.00146543,0.00000018,0.00033875,0.00003700,0.,-0.0
 0024809,-0.00188470,0.00000014,0.00014848,-0.00010634,0.00000003,-0.00
 052861,-0.00019258,-0.00000019,-0.09437199,0.11958304,0.00002158,0.124
 37576,0.00016203,-0.00174209,0.00000021,-0.00593776,0.00431861,0.00000
 053,-0.00082024,-0.00108991,0.00000070,-0.00089949,0.00265568,-0.00000
 008,-0.00008056,-0.00065308,-0.00000029,0.00010008,0.00052946,-0.00000
 013,-0.00018262,-0.00003483,-0.00000001,0.00144217,-0.00088881,-0.0000
 0026,-0.00026551,0.00039706,0.00000007,0.00012564,0.00006869,0.0000000
 9,0.16962050,-0.42208801,-0.00006877,-0.16326421,0.41852722,-0.0000000
 3,-0.00000024,-0.00067398,-0.00000078,0.00000066,-0.00150967,-0.000001
 38,-0.00000126,-0.00249579,-0.00000052,0.00000011,0.00337541,-0.000000
 10,-0.00000005,0.00183389,0.00000006,0.00000010,-0.00015478,-0.0000000
 7,0.,0.00011865,0.00000018,0.00000014,0.00037446,0.,0.00000006,-0.0005
 6694,-0.00000006,0.00000006,-0.00044594,0.00003057,-0.00006753,-0.0059
 3823,-0.00002789,0.00006795,0.00608294\\0.00014979,-0.00020001,-0.0000
 1476,-0.00002815,-0.00003873,0.00000422,-0.00039764,0.00008074,-0.0000
 0186,0.00013954,-0.00000874,-0.00000569,-0.00003572,0.00006098,0.00002
 774,-0.00006897,0.00011264,-0.00000524,0.00002001,0.00006152,0.0000053
 1,-0.00003560,0.00004327,0.00000052,-0.00007802,-0.00004564,-0.0000021
 3,0.00003246,-0.00003750,-0.00000888,0.00030878,-0.00003098,-0.0000008
 8,-0.00000649,0.00000247,0.00000164\\\@


 HAPPINESS IS NOT HAVING WHAT YOU WANT --
 HAPPINESS IS WANTING WHAT YOU HAVE!

              -- FROM MRS. SEVERN'S DESK
 Job cpu time:       0 days  0 hours 38 minutes 19.0 seconds.
 File lengths (MBytes):  RWF=     79 Int=      0 D2E=      0 Chk=      7 Scr=      1
 Normal termination of Gaussian 09 at Fri Aug 27 21:11:43 2021.
