 Entering Gaussian System, Link 0=g09
 AtFile(1): pc-2.gbs
            -H     0
            S    4   1.00
                  0.754230D+02           0.240650D-02
                  0.113500D+02           0.184870D-01
                  0.259930D+01           0.897420D-01
                  0.735130D+00           0.281110D+00
            S    1   1.00
                  0.231670D+00           0.100000D+01
            S    1   1.00
                  0.741470D-01           0.100000D+01
            P    1   1.00
                  0.160000D+01           0.100000D+01
            P    1   1.00
                  0.450000D+00           0.100000D+01
            D    1   1.00
                  0.125000D+01           0.100000D+01
            ****
            -C     0
            S    7   1.00
                  0.785710D+04           0.568250D-03
                  0.117870D+04           0.439150D-02
                  0.268320D+03           0.225040D-01
                  0.759480D+02           0.866530D-01
                  0.245590D+02           0.244050D+00
                  0.862120D+01           0.441480D+00
                  0.312780D+01           0.353320D+00
            S    7   1.00
                  0.117870D+04          -0.594920D-06
                  0.268320D+03          -0.627480D-04
                  0.759480D+02          -0.757730D-03
                  0.245590D+02          -0.733080D-02
                  0.862120D+01          -0.389320D-01
                  0.312780D+01          -0.889080D-01
                  0.822020D+00           0.216890D+00
            S    1   1.00
                  0.330170D+00           0.100000D+01
            S    1   1.00
                  0.114630D+00           0.100000D+01
            P    4   1.00
                  0.337750D+02           0.602940D-02
                  0.767660D+01           0.432280D-01
                  0.223570D+01           0.163010D+00
                  0.764470D+00           0.365040D+00
            P    1   1.00
                  0.262320D+00           0.100000D+01
            P    1   1.00
                  0.846380D-01           0.100000D+01
            D    1   1.00
                  0.140000D+01           0.100000D+01
            D    1   1.00
                  0.450000D+00           0.100000D+01
            F    1   1.00
                  0.950000D+00           0.100000D+01
            ****
            -N     0
            S    7   1.00
                  0.111010D+05           0.545700D-03
                  0.166530D+04           0.421810D-02
                  0.379080D+03           0.216450D-01
                  0.107300D+03           0.837760D-01
                  0.347470D+02           0.238810D+00
                  0.122490D+02           0.439940D+00
                  0.447430D+01           0.363640D+00
            S    7   1.00
                  0.166530D+04          -0.150060D-05
                  0.379080D+03          -0.587530D-04
                  0.107300D+03          -0.774530D-03
                  0.347470D+02          -0.721610D-02
                  0.122490D+02          -0.393380D-01
                  0.447430D+01          -0.906110D-01
                  0.124040D+01           0.198820D+00
            S    1   1.00
                  0.487430D+00           0.100000D+01
            S    1   1.00
                  0.164840D+00           0.100000D+01
            P    4   1.00
                  0.479340D+02           0.617060D-02
                  0.109990D+02           0.442600D-01
                  0.324720D+01           0.168250D+00
                  0.111140D+01           0.368480D+00
            P    1   1.00
                  0.379880D+00           0.100000D+01
            P    1   1.00
                  0.120680D+00           0.100000D+01
            D    1   1.00
                  0.180000D+01           0.100000D+01
            D    1   1.00
                  0.550000D+00           0.100000D+01
            F    1   1.00
                  0.102000D+01           0.100000D+01
            ****
            -O     0
            S    7   1.00
                  0.147820D+05           0.535190D-03
                  0.221730D+04           0.413750D-02
                  0.504740D+03           0.212450D-01
                  0.142870D+03           0.824530D-01
                  0.463000D+02           0.236710D+00
                  0.163370D+02           0.440390D+00
                  0.598280D+01           0.364650D+00
            S    7   1.00
                  0.221730D+04          -0.192750D-05
                  0.504740D+03          -0.579640D-04
                  0.142870D+03          -0.794940D-03
                  0.463000D+02          -0.731250D-02
                  0.163370D+02          -0.405740D-01
                  0.598280D+01          -0.915940D-01
                  0.167180D+01           0.209400D+00
            S    1   1.00
                  0.646620D+00           0.100000D+01
            S    1   1.00
                  0.216690D+00           0.100000D+01
            P    4   1.00
                  0.604240D+02           0.689490D-02
                  0.139350D+02           0.490050D-01
                  0.415310D+01           0.182550D+00
                  0.141580D+01           0.376330D+00
            P    1   1.00
                  0.475490D+00           0.100000D+01
            P    1   1.00
                  0.145290D+00           0.100000D+01
            D    1   1.00
                  0.220000D+01           0.100000D+01
            D    1   1.00
                  0.650000D+00           0.100000D+01
            F    1   1.00
                  0.110000D+01           0.100000D+01
            ****
 Initial command:
 /public3/home/sc51754/softwares/g09e01/l1.exe "./Gau-57584.inp" -scrdir="./"
 Entering Link 1 = /public3/home/sc51754/softwares/g09e01/l1.exe PID=     57585.
  
 Copyright (c) 1988,1990,1992,1993,1995,1998,2003,2009,2015,
            Gaussian, Inc.  All Rights Reserved.
  
 This is part of the Gaussian(R) 09 program.  It is based on
 the Gaussian(R) 03 system (copyright 2003, Gaussian, Inc.),
 the Gaussian(R) 98 system (copyright 1998, Gaussian, Inc.),
 the Gaussian(R) 94 system (copyright 1995, Gaussian, Inc.),
 the Gaussian 92(TM) system (copyright 1992, Gaussian, Inc.),
 the Gaussian 90(TM) system (copyright 1990, Gaussian, Inc.),
 the Gaussian 88(TM) system (copyright 1988, Gaussian, Inc.),
 the Gaussian 86(TM) system (copyright 1986, Carnegie Mellon
 University), and the Gaussian 82(TM) system (copyright 1983,
 Carnegie Mellon University). Gaussian is a federally registered
 trademark of Gaussian, Inc.
  
 This software contains proprietary and confidential information,
 including trade secrets, belonging to Gaussian, Inc.
  
 This software is provided under written license and may be
 used, copied, transmitted, or stored only in accord with that
 written license.
  
 The following legend is applicable only to US Government
 contracts under FAR:
  
                    RESTRICTED RIGHTS LEGEND
  
 Use, reproduction and disclosure by the US Government is
 subject to restrictions as set forth in subparagraphs (a)
 and (c) of the Commercial Computer Software - Restricted
 Rights clause in FAR 52.227-19.
  
 Gaussian, Inc.
 340 Quinnipiac St., Bldg. 40, Wallingford CT 06492
  
  
 ---------------------------------------------------------------
 Warning -- This program may not be used in any manner that
 competes with the business of Gaussian, Inc. or will provide
 assistance to any competitor of Gaussian, Inc.  The licensee
 of this program is prohibited from giving any competitor of
 Gaussian, Inc. access to this program.  By using this program,
 the user acknowledges that Gaussian, Inc. is engaged in the
 business of creating and licensing software in the field of
 computational chemistry and represents and warrants to the
 licensee that it is not a competitor of Gaussian, Inc. and that
 it will not use this program in any manner prohibited above.
 ---------------------------------------------------------------
  

 Cite this work as:
 Gaussian 09, Revision E.01,
 M. J. Frisch, G. W. Trucks, H. B. Schlegel, G. E. Scuseria, 
 M. A. Robb, J. R. Cheeseman, G. Scalmani, V. Barone, B. Mennucci, 
 G. A. Petersson, H. Nakatsuji, M. Caricato, X. Li, H. P. Hratchian, 
 A. F. Izmaylov, J. Bloino, G. Zheng, J. L. Sonnenberg, M. Hada, 
 M. Ehara, K. Toyota, R. Fukuda, J. Hasegawa, M. Ishida, T. Nakajima, 
 Y. Honda, O. Kitao, H. Nakai, T. Vreven, J. A. Montgomery, Jr., 
 J. E. Peralta, F. Ogliaro, M. Bearpark, J. J. Heyd, E. Brothers, 
 K. N. Kudin, V. N. Staroverov, T. Keith, R. Kobayashi, J. Normand, 
 K. Raghavachari, A. Rendell, J. C. Burant, S. S. Iyengar, J. Tomasi, 
 M. Cossi, N. Rega, J. M. Millam, M. Klene, J. E. Knox, J. B. Cross, 
 V. Bakken, C. Adamo, J. Jaramillo, R. Gomperts, R. E. Stratmann, 
 O. Yazyev, A. J. Austin, R. Cammi, C. Pomelli, J. W. Ochterski, 
 R. L. Martin, K. Morokuma, V. G. Zakrzewski, G. A. Voth, 
 P. Salvador, J. J. Dannenberg, S. Dapprich, A. D. Daniels, 
 O. Farkas, J. B. Foresman, J. V. Ortiz, J. Cioslowski, 
 and D. J. Fox, Gaussian, Inc., Wallingford CT, 2013.
 
 ******************************************
 Gaussian 09:  EM64L-G09RevE.01 30-Nov-2015
                27-Aug-2021 
 ******************************************
 %nprocshared=64
 Will use up to   64 processors via shared memory.
 %mem=128GB
 %chk=4HY_M06_PC2_OPT_FREQ.chk
 -------------------
 #p opt freq M06/gen
 -------------------
 1/14=-1,18=20,19=15,26=3,38=1/1,3;
 2/9=110,12=2,17=6,18=5,40=1/2;
 3/5=7,11=2,16=1,25=1,30=1,71=1,74=-54/1,2,3;
 4//1;
 5/5=2,38=5/2;
 6/7=2,8=2,9=2,10=2,28=1/1;
 7//1,2,3,16;
 1/14=-1,18=20,19=15,26=3/3(2);
 2/9=110/2;
 99//99;
 2/9=110/2;
 3/5=7,6=1,11=2,16=1,25=1,30=1,71=1,74=-54,82=7/1,2,3;
 4/5=5,16=3,69=1/1;
 5/5=2,38=5/2;
 7//1,2,3,16;
 1/14=-1,18=20,19=15,26=3/3(-5);
 2/9=110/2;
 6/7=2,8=2,9=2,10=2,19=2,28=1/1;
 99/9=1/99;
 Leave Link    1 at Fri Aug 27 21:27:56 2021, MaxMem= 17179869184 cpu:         3.9
 (Enter /public3/home/sc51754/softwares/g09e01/l101.exe)
 --------------------
 4HY_M06_PC2_OPT_FREQ
 --------------------
 Symbolic Z-matrix:
 Charge =  0 Multiplicity = 1
 C                     1.15223   1.15341  -0.00011 
 C                    -0.24145   1.18944   0.00003 
 C                    -0.93443  -0.02499   0.00004 
 C                    -0.19715  -1.21307  -0.00009 
 C                     1.19102  -1.12281   0.00022 
 N                     1.87822   0.02956   0.00002 
 H                     1.71189   2.08718  -0.0001 
 H                    -0.77027   2.13945  -0.00002 
 H                    -0.70664  -2.17013  -0.00044 
 H                     1.78719  -2.03343  -0.00024 
 O                    -2.29029  -0.1124   -0.00001 
 H                    -2.6687    0.77737   0.00031 
 
 NAtoms=     12 NQM=       12 NQMF=       0 NMMI=      0 NMMIF=      0
                NMic=       0 NMicF=      0.
                    Isotopes and Nuclear Properties:
 (Nuclear quadrupole moments (NQMom) in fm**2, nuclear magnetic moments (NMagM)
  in nuclear magnetons)

  Atom         1           2           3           4           5           6           7           8           9          10
 IAtWgt=          12          12          12          12          12          14           1           1           1           1
 AtmWgt=  12.0000000  12.0000000  12.0000000  12.0000000  12.0000000  14.0030740   1.0078250   1.0078250   1.0078250   1.0078250
 NucSpn=           0           0           0           0           0           2           1           1           1           1
 AtZEff=   0.0000000   0.0000000   0.0000000   0.0000000   0.0000000   0.0000000   0.0000000   0.0000000   0.0000000   0.0000000
 NQMom=    0.0000000   0.0000000   0.0000000   0.0000000   0.0000000   2.0440000   0.0000000   0.0000000   0.0000000   0.0000000
 NMagM=    0.0000000   0.0000000   0.0000000   0.0000000   0.0000000   0.4037610   2.7928460   2.7928460   2.7928460   2.7928460
 AtZNuc=   6.0000000   6.0000000   6.0000000   6.0000000   6.0000000   7.0000000   1.0000000   1.0000000   1.0000000   1.0000000

  Atom        11          12
 IAtWgt=          16           1
 AtmWgt=  15.9949146   1.0078250
 NucSpn=           0           1
 AtZEff=   0.0000000   0.0000000
 NQMom=    0.0000000   0.0000000
 NMagM=    0.0000000   2.7928460
 AtZNuc=   8.0000000   1.0000000
 Leave Link  101 at Fri Aug 27 21:27:56 2021, MaxMem= 17179869184 cpu:         7.5
 (Enter /public3/home/sc51754/softwares/g09e01/l103.exe)

 GradGradGradGradGradGradGradGradGradGradGradGradGradGradGradGradGradGrad
 Berny optimization.
 Initialization pass.
                           ----------------------------
                           !    Initial Parameters    !
                           ! (Angstroms and Degrees)  !
 --------------------------                            --------------------------
 ! Name  Definition              Value          Derivative Info.                !
 --------------------------------------------------------------------------------
 ! R1    R(1,2)                  1.3941         estimate D2E/DX2                !
 ! R2    R(1,6)                  1.3379         estimate D2E/DX2                !
 ! R3    R(1,7)                  1.0886         estimate D2E/DX2                !
 ! R4    R(2,3)                  1.3982         estimate D2E/DX2                !
 ! R5    R(2,8)                  1.0873         estimate D2E/DX2                !
 ! R6    R(3,4)                  1.3983         estimate D2E/DX2                !
 ! R7    R(3,11)                 1.3587         estimate D2E/DX2                !
 ! R8    R(4,5)                  1.3911         estimate D2E/DX2                !
 ! R9    R(4,9)                  1.0842         estimate D2E/DX2                !
 ! R10   R(5,6)                  1.3417         estimate D2E/DX2                !
 ! R11   R(5,10)                 1.0884         estimate D2E/DX2                !
 ! R12   R(11,12)                0.9669         estimate D2E/DX2                !
 ! A1    A(2,1,6)              124.3426         estimate D2E/DX2                !
 ! A2    A(2,1,7)              119.4556         estimate D2E/DX2                !
 ! A3    A(6,1,7)              116.2018         estimate D2E/DX2                !
 ! A4    A(1,2,3)              118.2292         estimate D2E/DX2                !
 ! A5    A(1,2,8)              120.5831         estimate D2E/DX2                !
 ! A6    A(3,2,8)              121.1877         estimate D2E/DX2                !
 ! A7    A(2,3,4)              118.4682         estimate D2E/DX2                !
 ! A8    A(2,3,11)             123.3985         estimate D2E/DX2                !
 ! A9    A(4,3,11)             118.1333         estimate D2E/DX2                !
 ! A10   A(3,4,5)              118.1015         estimate D2E/DX2                !
 ! A11   A(3,4,9)              120.1493         estimate D2E/DX2                !
 ! A12   A(5,4,9)              121.7493         estimate D2E/DX2                !
 ! A13   A(4,5,6)              124.5296         estimate D2E/DX2                !
 ! A14   A(4,5,10)             119.4914         estimate D2E/DX2                !
 ! A15   A(6,5,10)             115.9789         estimate D2E/DX2                !
 ! A16   A(1,6,5)              116.3289         estimate D2E/DX2                !
 ! A17   A(3,11,12)            109.3507         estimate D2E/DX2                !
 ! D1    D(6,1,2,3)             -0.0135         estimate D2E/DX2                !
 ! D2    D(6,1,2,8)            179.9955         estimate D2E/DX2                !
 ! D3    D(7,1,2,3)           -179.9987         estimate D2E/DX2                !
 ! D4    D(7,1,2,8)              0.0102         estimate D2E/DX2                !
 ! D5    D(2,1,6,5)              0.0039         estimate D2E/DX2                !
 ! D6    D(7,1,6,5)            179.9896         estimate D2E/DX2                !
 ! D7    D(1,2,3,4)              0.0007         estimate D2E/DX2                !
 ! D8    D(1,2,3,11)          -179.9909         estimate D2E/DX2                !
 ! D9    D(8,2,3,4)            179.9917         estimate D2E/DX2                !
 ! D10   D(8,2,3,11)             0.0001         estimate D2E/DX2                !
 ! D11   D(2,3,4,5)              0.0198         estimate D2E/DX2                !
 ! D12   D(2,3,4,9)           -179.978          estimate D2E/DX2                !
 ! D13   D(11,3,4,5)          -179.9882         estimate D2E/DX2                !
 ! D14   D(11,3,4,9)             0.014          estimate D2E/DX2                !
 ! D15   D(2,3,11,12)           -0.0225         estimate D2E/DX2                !
 ! D16   D(4,3,11,12)          179.9859         estimate D2E/DX2                !
 ! D17   D(3,4,5,6)             -0.0313         estimate D2E/DX2                !
 ! D18   D(3,4,5,10)          -179.9777         estimate D2E/DX2                !
 ! D19   D(9,4,5,6)            179.9664         estimate D2E/DX2                !
 ! D20   D(9,4,5,10)             0.0201         estimate D2E/DX2                !
 ! D21   D(4,5,6,1)              0.0192         estimate D2E/DX2                !
 ! D22   D(10,5,6,1)           179.9673         estimate D2E/DX2                !
 --------------------------------------------------------------------------------
 Trust Radius=3.00D-01 FncErr=1.00D-07 GrdErr=1.00D-06
 Number of steps in this run=     61 maximum allowed number of steps=    100.
 GradGradGradGradGradGradGradGradGradGradGradGradGradGradGradGradGradGrad

 Leave Link  103 at Fri Aug 27 21:27:56 2021, MaxMem= 17179869184 cpu:         0.2
 (Enter /public3/home/sc51754/softwares/g09e01/l202.exe)
                          Input orientation:                          
 ---------------------------------------------------------------------
 Center     Atomic      Atomic             Coordinates (Angstroms)
 Number     Number       Type             X           Y           Z
 ---------------------------------------------------------------------
      1          6           0        1.152230    1.153409   -0.000114
      2          6           0       -0.241450    1.189435    0.000028
      3          6           0       -0.934425   -0.024989    0.000035
      4          6           0       -0.197153   -1.213074   -0.000085
      5          6           0        1.191022   -1.122808    0.000218
      6          7           0        1.878221    0.029557    0.000015
      7          1           0        1.711886    2.087182   -0.000101
      8          1           0       -0.770273    2.139452   -0.000016
      9          1           0       -0.706644   -2.170125   -0.000442
     10          1           0        1.787188   -2.033434   -0.000236
     11          8           0       -2.290294   -0.112398   -0.000014
     12          1           0       -2.668700    0.777372    0.000305
 ---------------------------------------------------------------------
                    Distance matrix (angstroms):
                    1          2          3          4          5
     1  C    0.000000
     2  C    1.394146   0.000000
     3  C    2.396404   1.398227   0.000000
     4  C    2.724165   2.402917   1.398255   0.000000
     5  C    2.276548   2.720008   2.392223   1.391107   0.000000
     6  N    1.337949   2.416262   2.813175   2.418948   1.341711
     7  H    1.088645   2.149761   3.385887   3.812626   3.251974
     8  H    2.160625   1.087284   2.170657   3.401161   3.806444
     9  H    3.808056   3.391615   2.157196   1.084218   2.167489
    10  H    3.249483   3.808183   3.382459   2.147231   1.088418
    11  O    3.667866   2.427454   1.358684   2.364895   3.624981
    12  H    3.839389   2.461979   1.910888   3.173393   4.302109
                    6          7          8          9         10
     6  N    0.000000
     7  H    2.064337   0.000000
     8  H    3.386174   2.482709   0.000000
     9  H    3.394131   4.896320   4.310047   0.000000
    10  H    2.064999   4.121304   4.894240   2.497575   0.000000
    11  O    4.170931   4.566793   2.716853   2.596572   4.507354
    12  H    4.608006   4.572213   2.336512   3.540820   5.268355
                   11         12
    11  O    0.000000
    12  H    0.966893   0.000000
 Stoichiometry    C5H5NO
 Framework group  C1[X(C5H5NO)]
 Deg. of freedom    30
 Full point group                 C1      NOp   1
 Largest Abelian subgroup         C1      NOp   1
 Largest concise Abelian subgroup C1      NOp   1
                         Standard orientation:                         
 ---------------------------------------------------------------------
 Center     Atomic      Atomic             Coordinates (Angstroms)
 Number     Number       Type             X           Y           Z
 ---------------------------------------------------------------------
      1          6           0       -1.152230    1.153409    0.000114
      2          6           0        0.241450    1.189435   -0.000028
      3          6           0        0.934425   -0.024989   -0.000035
      4          6           0        0.197153   -1.213074    0.000085
      5          6           0       -1.191022   -1.122808   -0.000218
      6          7           0       -1.878221    0.029557   -0.000015
      7          1           0       -1.711887    2.087182    0.000101
      8          1           0        0.770272    2.139452    0.000016
      9          1           0        0.706644   -2.170125    0.000442
     10          1           0       -1.787188   -2.033434    0.000236
     11          8           0        2.290294   -0.112397    0.000014
     12          1           0        2.668700    0.777373   -0.000305
 ---------------------------------------------------------------------
 Rotational constants (GHZ):      5.9862655      2.6268417      1.8257026
 Leave Link  202 at Fri Aug 27 21:27:56 2021, MaxMem= 17179869184 cpu:         4.5
 (Enter /public3/home/sc51754/softwares/g09e01/l301.exe)
 General basis read from cards:  (5D, 7F)
 Centers:       7      8      9     10     12
 S 4 1.00
     Exponent=  7.5423000000D+01 Coefficients=  2.4065000000D-03
     Exponent=  1.1350000000D+01 Coefficients=  1.8487000000D-02
     Exponent=  2.5993000000D+00 Coefficients=  8.9742000000D-02
     Exponent=  7.3513000000D-01 Coefficients=  2.8111000000D-01
 S 1 1.00
     Exponent=  2.3167000000D-01 Coefficients=  1.0000000000D+00
 S 1 1.00
     Exponent=  7.4147000000D-02 Coefficients=  1.0000000000D+00
 P 1 1.00
     Exponent=  1.6000000000D+00 Coefficients=  1.0000000000D+00
 P 1 1.00
     Exponent=  4.5000000000D-01 Coefficients=  1.0000000000D+00
 D 1 1.00
     Exponent=  1.2500000000D+00 Coefficients=  1.0000000000D+00
 ****
 Centers:       1      2      3      4      5
 S 7 1.00
     Exponent=  7.8571000000D+03 Coefficients=  5.6825000000D-04
     Exponent=  1.1787000000D+03 Coefficients=  4.3915000000D-03
     Exponent=  2.6832000000D+02 Coefficients=  2.2504000000D-02
     Exponent=  7.5948000000D+01 Coefficients=  8.6653000000D-02
     Exponent=  2.4559000000D+01 Coefficients=  2.4405000000D-01
     Exponent=  8.6212000000D+00 Coefficients=  4.4148000000D-01
     Exponent=  3.1278000000D+00 Coefficients=  3.5332000000D-01
 S 7 1.00
     Exponent=  1.1787000000D+03 Coefficients= -5.9492000000D-07
     Exponent=  2.6832000000D+02 Coefficients= -6.2748000000D-05
     Exponent=  7.5948000000D+01 Coefficients= -7.5773000000D-04
     Exponent=  2.4559000000D+01 Coefficients= -7.3308000000D-03
     Exponent=  8.6212000000D+00 Coefficients= -3.8932000000D-02
     Exponent=  3.1278000000D+00 Coefficients= -8.8908000000D-02
     Exponent=  8.2202000000D-01 Coefficients=  2.1689000000D-01
 S 1 1.00
     Exponent=  3.3017000000D-01 Coefficients=  1.0000000000D+00
 S 1 1.00
     Exponent=  1.1463000000D-01 Coefficients=  1.0000000000D+00
 P 4 1.00
     Exponent=  3.3775000000D+01 Coefficients=  6.0294000000D-03
     Exponent=  7.6766000000D+00 Coefficients=  4.3228000000D-02
     Exponent=  2.2357000000D+00 Coefficients=  1.6301000000D-01
     Exponent=  7.6447000000D-01 Coefficients=  3.6504000000D-01
 P 1 1.00
     Exponent=  2.6232000000D-01 Coefficients=  1.0000000000D+00
 P 1 1.00
     Exponent=  8.4638000000D-02 Coefficients=  1.0000000000D+00
 D 1 1.00
     Exponent=  1.4000000000D+00 Coefficients=  1.0000000000D+00
 D 1 1.00
     Exponent=  4.5000000000D-01 Coefficients=  1.0000000000D+00
 F 1 1.00
     Exponent=  9.5000000000D-01 Coefficients=  1.0000000000D+00
 ****
 Centers:       6
 S 7 1.00
     Exponent=  1.1101000000D+04 Coefficients=  5.4570000000D-04
     Exponent=  1.6653000000D+03 Coefficients=  4.2181000000D-03
     Exponent=  3.7908000000D+02 Coefficients=  2.1645000000D-02
     Exponent=  1.0730000000D+02 Coefficients=  8.3776000000D-02
     Exponent=  3.4747000000D+01 Coefficients=  2.3881000000D-01
     Exponent=  1.2249000000D+01 Coefficients=  4.3994000000D-01
     Exponent=  4.4743000000D+00 Coefficients=  3.6364000000D-01
 S 7 1.00
     Exponent=  1.6653000000D+03 Coefficients= -1.5006000000D-06
     Exponent=  3.7908000000D+02 Coefficients= -5.8753000000D-05
     Exponent=  1.0730000000D+02 Coefficients= -7.7453000000D-04
     Exponent=  3.4747000000D+01 Coefficients= -7.2161000000D-03
     Exponent=  1.2249000000D+01 Coefficients= -3.9338000000D-02
     Exponent=  4.4743000000D+00 Coefficients= -9.0611000000D-02
     Exponent=  1.2404000000D+00 Coefficients=  1.9882000000D-01
 S 1 1.00
     Exponent=  4.8743000000D-01 Coefficients=  1.0000000000D+00
 S 1 1.00
     Exponent=  1.6484000000D-01 Coefficients=  1.0000000000D+00
 P 4 1.00
     Exponent=  4.7934000000D+01 Coefficients=  6.1706000000D-03
     Exponent=  1.0999000000D+01 Coefficients=  4.4260000000D-02
     Exponent=  3.2472000000D+00 Coefficients=  1.6825000000D-01
     Exponent=  1.1114000000D+00 Coefficients=  3.6848000000D-01
 P 1 1.00
     Exponent=  3.7988000000D-01 Coefficients=  1.0000000000D+00
 P 1 1.00
     Exponent=  1.2068000000D-01 Coefficients=  1.0000000000D+00
 D 1 1.00
     Exponent=  1.8000000000D+00 Coefficients=  1.0000000000D+00
 D 1 1.00
     Exponent=  5.5000000000D-01 Coefficients=  1.0000000000D+00
 F 1 1.00
     Exponent=  1.0200000000D+00 Coefficients=  1.0000000000D+00
 ****
 Centers:      11
 S 7 1.00
     Exponent=  1.4782000000D+04 Coefficients=  5.3519000000D-04
     Exponent=  2.2173000000D+03 Coefficients=  4.1375000000D-03
     Exponent=  5.0474000000D+02 Coefficients=  2.1245000000D-02
     Exponent=  1.4287000000D+02 Coefficients=  8.2453000000D-02
     Exponent=  4.6300000000D+01 Coefficients=  2.3671000000D-01
     Exponent=  1.6337000000D+01 Coefficients=  4.4039000000D-01
     Exponent=  5.9828000000D+00 Coefficients=  3.6465000000D-01
 S 7 1.00
     Exponent=  2.2173000000D+03 Coefficients= -1.9275000000D-06
     Exponent=  5.0474000000D+02 Coefficients= -5.7964000000D-05
     Exponent=  1.4287000000D+02 Coefficients= -7.9494000000D-04
     Exponent=  4.6300000000D+01 Coefficients= -7.3125000000D-03
     Exponent=  1.6337000000D+01 Coefficients= -4.0574000000D-02
     Exponent=  5.9828000000D+00 Coefficients= -9.1594000000D-02
     Exponent=  1.6718000000D+00 Coefficients=  2.0940000000D-01
 S 1 1.00
     Exponent=  6.4662000000D-01 Coefficients=  1.0000000000D+00
 S 1 1.00
     Exponent=  2.1669000000D-01 Coefficients=  1.0000000000D+00
 P 4 1.00
     Exponent=  6.0424000000D+01 Coefficients=  6.8949000000D-03
     Exponent=  1.3935000000D+01 Coefficients=  4.9005000000D-02
     Exponent=  4.1531000000D+00 Coefficients=  1.8255000000D-01
     Exponent=  1.4158000000D+00 Coefficients=  3.7633000000D-01
 P 1 1.00
     Exponent=  4.7549000000D-01 Coefficients=  1.0000000000D+00
 P 1 1.00
     Exponent=  1.4529000000D-01 Coefficients=  1.0000000000D+00
 D 1 1.00
     Exponent=  2.2000000000D+00 Coefficients=  1.0000000000D+00
 D 1 1.00
     Exponent=  6.5000000000D-01 Coefficients=  1.0000000000D+00
 F 1 1.00
     Exponent=  1.1000000000D+00 Coefficients=  1.0000000000D+00
 ****
 Ernie: Thresh=  0.10000D-02 Tol=  0.10000D-05 Strict=F.
 Ernie:  7 primitive shells out of 220 were deleted.
 There are   320 symmetry adapted cartesian basis functions of A   symmetry.
 There are   280 symmetry adapted basis functions of A   symmetry.
   280 basis functions,   475 primitive gaussians,   320 cartesian basis functions
    25 alpha electrons       25 beta electrons
       nuclear repulsion energy       273.7666329457 Hartrees.
 IExCor= 4235 DFT=T Ex+Corr=M06 ExCW=0 ScaHFX=  0.270000
 ScaDFX=  1.000000  1.000000  1.000000  1.000000 ScalE2=  1.000000  1.000000
 IRadAn=      0 IRanWt=     -1 IRanGd=            0 ICorTp=0 IEmpDi=  4
 NAtoms=   12 NActive=   12 NUniq=   12 SFac= 1.00D+00 NAtFMM=   60 NAOKFM=F Big=F
 Integral buffers will be    131072 words long.
 Raffenetti 2 integral format.
 Two-electron integral symmetry is turned on.
 Leave Link  301 at Fri Aug 27 21:27:56 2021, MaxMem= 17179869184 cpu:         2.1
 (Enter /public3/home/sc51754/softwares/g09e01/l302.exe)
 NPDir=0 NMtPBC=     1 NCelOv=     1 NCel=       1 NClECP=     1 NCelD=      1
         NCelK=      1 NCelE2=     1 NClLst=     1 CellRange=     0.0.
 One-electron integrals computed using PRISM.
 NBasis=   280 RedAO= T EigKep=  2.00D-04  NBF=   280
 NBsUse=   280 1.00D-06 EigRej= -1.00D+00 NBFU=   280
 Precomputing XC quadrature grid using
 IXCGrd= 4 IRadAn=           0 IRanWt=          -1 IRanGd=           0 AccXCQ= 0.00D+00.
 Generated NRdTot=       0 NPtTot=           0 NUsed=           0 NTot=          32
 NSgBfM=   320   320   320   320   320 MxSgAt=    12 MxSgA2=    12.
 Leave Link  302 at Fri Aug 27 21:27:57 2021, MaxMem= 17179869184 cpu:        42.0
 (Enter /public3/home/sc51754/softwares/g09e01/l303.exe)
 DipDrv:  MaxL=1.
 Leave Link  303 at Fri Aug 27 21:27:58 2021, MaxMem= 17179869184 cpu:        14.7
 (Enter /public3/home/sc51754/softwares/g09e01/l401.exe)
 ExpMin= 7.41D-02 ExpMax= 1.48D+04 ExpMxC= 5.05D+02 IAcc=2 IRadAn=         4 AccDes= 0.00D+00
 Harris functional with IExCor= 1009 and IRadAn=       4 diagonalized for initial guess.
 HarFok:  IExCor= 1009 AccDes= 0.00D+00 IRadAn=         4 IDoV= 1 UseB2=F ITyADJ=14
 ICtDFT=  3500011 ScaDFX=  1.000000  1.000000  1.000000  1.000000
 FoFCou: FMM=F IPFlag=           0 FMFlag=      100000 FMFlg1=           0
         NFxFlg=           0 DoJE=T BraDBF=F KetDBF=T FulRan=T
         wScrn=  0.000000 ICntrl=     500 IOpCl=  0 I1Cent=   200000004 NGrid=           0
         NMat0=    1 NMatS0=      1 NMatT0=    0 NMatD0=    1 NMtDS0=    0 NMtDT0=    0
 Petite list used in FoFCou.
 Harris En= -323.354402034469    
 JPrj=0 DoOrth=F DoCkMO=F.
 Leave Link  401 at Fri Aug 27 21:27:59 2021, MaxMem= 17179869184 cpu:        47.3
 (Enter /public3/home/sc51754/softwares/g09e01/l502.exe)
 Closed shell SCF:
 Using DIIS extrapolation, IDIIS=  1040.
 Integral symmetry usage will be decided dynamically.
 Keep R1 ints in memory in canonical form, NReq=790723944.
 IVT=      348554 IEndB=      348554 NGot= 17179869184 MDV= 16405683161
 LenX= 16405683161 LenY= 16405580320
 Requested convergence on RMS density matrix=1.00D-08 within 128 cycles.
 Requested convergence on MAX density matrix=1.00D-06.
 Requested convergence on             energy=1.00D-06.
 No special actions if energy rises.
 FoFCou: FMM=F IPFlag=           0 FMFlag=           0 FMFlg1=           0
         NFxFlg=           0 DoJE=F BraDBF=F KetDBF=F FulRan=T
         wScrn=  0.000000 ICntrl=     600 IOpCl=  0 I1Cent=           0 NGrid=           0
         NMat0=    1 NMatS0=  39340 NMatT0=    0 NMatD0=    1 NMtDS0=    0 NMtDT0=    0
 Symmetry not used in FoFCou.
 Integral accuracy reduced to 1.0D-05 until final iterations.

 Cycle   1  Pass 0  IDiag  1:
 E= -323.302176909400    
 DIIS: error= 2.77D-02 at cycle   1 NSaved=   1.
 NSaved= 1 IEnMin= 1 EnMin= -323.302176909400     IErMin= 1 ErrMin= 2.77D-02
 ErrMax= 2.77D-02  0.00D+00 EMaxC= 1.00D-01 BMatC= 1.34D-01 BMatP= 1.34D-01
 IDIUse=3 WtCom= 7.23D-01 WtEn= 2.77D-01
 Coeff-Com:  0.100D+01
 Coeff-En:   0.100D+01
 Coeff:      0.100D+01
 Gap=     0.259 Goal=   None    Shift=    0.000
 GapD=    0.259 DampG=1.000 DampE=0.500 DampFc=0.5000 IDamp=-1.
 Damping current iteration by 5.00D-01
 RMSDP=2.56D-03 MaxDP=1.08D-01              OVMax= 1.50D-01

 Cycle   2  Pass 0  IDiag  1:
 E= -323.358913420908     Delta-E=       -0.056736511508 Rises=F Damp=T
 DIIS: error= 4.19D-03 at cycle   2 NSaved=   2.
 NSaved= 2 IEnMin= 2 EnMin= -323.358913420908     IErMin= 2 ErrMin= 4.19D-03
 ErrMax= 4.19D-03  0.00D+00 EMaxC= 1.00D-01 BMatC= 5.86D-03 BMatP= 1.34D-01
 IDIUse=3 WtCom= 9.58D-01 WtEn= 4.19D-02
 Coeff-Com:  0.885D-02 0.991D+00
 Coeff-En:   0.325D-01 0.967D+00
 Coeff:      0.984D-02 0.990D+00
 Gap=     0.272 Goal=   None    Shift=    0.000
 RMSDP=7.53D-04 MaxDP=2.01D-02 DE=-5.67D-02 OVMax= 9.24D-02

 Cycle   3  Pass 0  IDiag  1:
 E= -323.421086286185     Delta-E=       -0.062172865277 Rises=F Damp=F
 DIIS: error= 3.45D-03 at cycle   3 NSaved=   3.
 NSaved= 3 IEnMin= 3 EnMin= -323.421086286185     IErMin= 3 ErrMin= 3.45D-03
 ErrMax= 3.45D-03  0.00D+00 EMaxC= 1.00D-01 BMatC= 3.24D-03 BMatP= 5.86D-03
 IDIUse=3 WtCom= 9.65D-01 WtEn= 3.45D-02
 Coeff-Com: -0.427D-01 0.414D+00 0.629D+00
 Coeff-En:   0.000D+00 0.000D+00 0.100D+01
 Coeff:     -0.413D-01 0.400D+00 0.641D+00
 Gap=     0.254 Goal=   None    Shift=    0.000
 RMSDP=2.29D-04 MaxDP=1.06D-02 DE=-6.22D-02 OVMax= 3.28D-02

 Cycle   4  Pass 0  IDiag  1:
 E= -323.422617275813     Delta-E=       -0.001530989629 Rises=F Damp=F
 DIIS: error= 2.87D-03 at cycle   4 NSaved=   4.
 NSaved= 4 IEnMin= 4 EnMin= -323.422617275813     IErMin= 4 ErrMin= 2.87D-03
 ErrMax= 2.87D-03  0.00D+00 EMaxC= 1.00D-01 BMatC= 1.32D-03 BMatP= 3.24D-03
 IDIUse=3 WtCom= 9.71D-01 WtEn= 2.87D-02
 Coeff-Com: -0.295D-01 0.148D+00 0.412D+00 0.469D+00
 Coeff-En:   0.000D+00 0.000D+00 0.326D+00 0.674D+00
 Coeff:     -0.286D-01 0.144D+00 0.410D+00 0.475D+00
 Gap=     0.255 Goal=   None    Shift=    0.000
 RMSDP=1.21D-04 MaxDP=4.57D-03 DE=-1.53D-03 OVMax= 1.50D-02

 Cycle   5  Pass 0  IDiag  1:
 E= -323.423848636191     Delta-E=       -0.001231360377 Rises=F Damp=F
 DIIS: error= 7.10D-04 at cycle   5 NSaved=   5.
 NSaved= 5 IEnMin= 5 EnMin= -323.423848636191     IErMin= 5 ErrMin= 7.10D-04
 ErrMax= 7.10D-04  0.00D+00 EMaxC= 1.00D-01 BMatC= 5.27D-05 BMatP= 1.32D-03
 IDIUse=3 WtCom= 9.93D-01 WtEn= 7.10D-03
 Coeff-Com: -0.730D-02 0.151D-01 0.897D-01 0.212D+00 0.690D+00
 Coeff-En:   0.000D+00 0.000D+00 0.000D+00 0.000D+00 0.100D+01
 Coeff:     -0.725D-02 0.150D-01 0.891D-01 0.211D+00 0.692D+00
 Gap=     0.254 Goal=   None    Shift=    0.000
 RMSDP=3.24D-05 MaxDP=9.39D-04 DE=-1.23D-03 OVMax= 3.38D-03

 Cycle   6  Pass 0  IDiag  1:
 E= -323.423894716956     Delta-E=       -0.000046080765 Rises=F Damp=F
 DIIS: error= 1.63D-04 at cycle   6 NSaved=   6.
 NSaved= 6 IEnMin= 6 EnMin= -323.423894716956     IErMin= 6 ErrMin= 1.63D-04
 ErrMax= 1.63D-04  0.00D+00 EMaxC= 1.00D-01 BMatC= 6.78D-06 BMatP= 5.27D-05
 IDIUse=3 WtCom= 9.98D-01 WtEn= 1.63D-03
 Coeff-Com: -0.289D-02 0.170D-02 0.300D-01 0.950D-01 0.385D+00 0.491D+00
 Coeff-En:   0.000D+00 0.000D+00 0.000D+00 0.000D+00 0.124D-01 0.988D+00
 Coeff:     -0.288D-02 0.170D-02 0.299D-01 0.949D-01 0.385D+00 0.492D+00
 Gap=     0.253 Goal=   None    Shift=    0.000
 RMSDP=8.45D-06 MaxDP=3.04D-04 DE=-4.61D-05 OVMax= 9.87D-04

 Initial convergence to 1.0D-05 achieved.  Increase integral accuracy.
 Cycle   7  Pass 1  IDiag  1:
 E= -323.423739462449     Delta-E=        0.000155254507 Rises=F Damp=F
 DIIS: error= 4.14D-04 at cycle   1 NSaved=   1.
 NSaved= 1 IEnMin= 1 EnMin= -323.423739462449     IErMin= 1 ErrMin= 4.14D-04
 ErrMax= 4.14D-04  0.00D+00 EMaxC= 1.00D-01 BMatC= 6.01D-05 BMatP= 6.01D-05
 IDIUse=3 WtCom= 9.96D-01 WtEn= 4.14D-03
 Coeff-Com:  0.100D+01
 Coeff-En:   0.100D+01
 Coeff:      0.100D+01
 Gap=     0.253 Goal=   None    Shift=    0.000
 RMSDP=8.45D-06 MaxDP=3.04D-04 DE= 1.55D-04 OVMax= 9.35D-04

 Cycle   8  Pass 1  IDiag  1:
 E= -323.423764088237     Delta-E=       -0.000024625788 Rises=F Damp=F
 DIIS: error= 1.44D-04 at cycle   2 NSaved=   2.
 NSaved= 2 IEnMin= 2 EnMin= -323.423764088237     IErMin= 2 ErrMin= 1.44D-04
 ErrMax= 1.44D-04  0.00D+00 EMaxC= 1.00D-01 BMatC= 3.50D-06 BMatP= 6.01D-05
 IDIUse=3 WtCom= 9.99D-01 WtEn= 1.44D-03
 Coeff-Com:  0.118D+00 0.882D+00
 Coeff-En:   0.000D+00 0.100D+01
 Coeff:      0.118D+00 0.882D+00
 Gap=     0.253 Goal=   None    Shift=    0.000
 RMSDP=9.70D-06 MaxDP=4.44D-04 DE=-2.46D-05 OVMax= 1.05D-03

 Cycle   9  Pass 1  IDiag  1:
 E= -323.423763426553     Delta-E=        0.000000661685 Rises=F Damp=F
 DIIS: error= 1.10D-04 at cycle   3 NSaved=   3.
 NSaved= 3 IEnMin= 2 EnMin= -323.423764088237     IErMin= 3 ErrMin= 1.10D-04
 ErrMax= 1.10D-04  0.00D+00 EMaxC= 1.00D-01 BMatC= 3.35D-06 BMatP= 3.50D-06
 IDIUse=3 WtCom= 9.99D-01 WtEn= 1.10D-03
 Coeff-Com:  0.280D-01 0.498D+00 0.474D+00
 Coeff-En:   0.000D+00 0.550D+00 0.450D+00
 Coeff:      0.280D-01 0.498D+00 0.474D+00
 Gap=     0.253 Goal=   None    Shift=    0.000
 RMSDP=6.31D-06 MaxDP=2.77D-04 DE= 6.62D-07 OVMax= 8.14D-04

 Cycle  10  Pass 1  IDiag  1:
 E= -323.423766547717     Delta-E=       -0.000003121164 Rises=F Damp=F
 DIIS: error= 3.10D-05 at cycle   4 NSaved=   4.
 NSaved= 4 IEnMin= 4 EnMin= -323.423766547717     IErMin= 4 ErrMin= 3.10D-05
 ErrMax= 3.10D-05  0.00D+00 EMaxC= 1.00D-01 BMatC= 2.45D-07 BMatP= 3.35D-06
 IDIUse=1 WtCom= 1.00D+00 WtEn= 0.00D+00
 Coeff-Com: -0.217D-02 0.131D+00 0.243D+00 0.627D+00
 Coeff:     -0.217D-02 0.131D+00 0.243D+00 0.627D+00
 Gap=     0.253 Goal=   None    Shift=    0.000
 RMSDP=1.64D-06 MaxDP=5.45D-05 DE=-3.12D-06 OVMax= 2.39D-04

 Cycle  11  Pass 1  IDiag  1:
 E= -323.423766751386     Delta-E=       -0.000000203670 Rises=F Damp=F
 DIIS: error= 1.01D-05 at cycle   5 NSaved=   5.
 NSaved= 5 IEnMin= 5 EnMin= -323.423766751386     IErMin= 5 ErrMin= 1.01D-05
 ErrMax= 1.01D-05  0.00D+00 EMaxC= 1.00D-01 BMatC= 3.60D-08 BMatP= 2.45D-07
 IDIUse=1 WtCom= 1.00D+00 WtEn= 0.00D+00
 Coeff-Com: -0.364D-02 0.274D-01 0.950D-01 0.357D+00 0.524D+00
 Coeff:     -0.364D-02 0.274D-01 0.950D-01 0.357D+00 0.524D+00
 Gap=     0.253 Goal=   None    Shift=    0.000
 RMSDP=6.06D-07 MaxDP=2.29D-05 DE=-2.04D-07 OVMax= 6.38D-05

 Cycle  12  Pass 1  IDiag  1:
 E= -323.423766782781     Delta-E=       -0.000000031394 Rises=F Damp=F
 DIIS: error= 3.71D-06 at cycle   6 NSaved=   6.
 NSaved= 6 IEnMin= 6 EnMin= -323.423766782781     IErMin= 6 ErrMin= 3.71D-06
 ErrMax= 3.71D-06  0.00D+00 EMaxC= 1.00D-01 BMatC= 2.69D-09 BMatP= 3.60D-08
 IDIUse=1 WtCom= 1.00D+00 WtEn= 0.00D+00
 Coeff-Com: -0.178D-02 0.471D-02 0.321D-01 0.146D+00 0.285D+00 0.534D+00
 Coeff:     -0.178D-02 0.471D-02 0.321D-01 0.146D+00 0.285D+00 0.534D+00
 Gap=     0.253 Goal=   None    Shift=    0.000
 RMSDP=1.87D-07 MaxDP=9.73D-06 DE=-3.14D-08 OVMax= 1.94D-05

 Cycle  13  Pass 1  IDiag  1:
 E= -323.423766784771     Delta-E=       -0.000000001990 Rises=F Damp=F
 DIIS: error= 1.10D-06 at cycle   7 NSaved=   7.
 NSaved= 7 IEnMin= 7 EnMin= -323.423766784771     IErMin= 7 ErrMin= 1.10D-06
 ErrMax= 1.10D-06  0.00D+00 EMaxC= 1.00D-01 BMatC= 3.28D-10 BMatP= 2.69D-09
 IDIUse=1 WtCom= 1.00D+00 WtEn= 0.00D+00
 Coeff-Com: -0.251D-04-0.486D-02-0.845D-02-0.144D-01 0.196D-01 0.272D+00
 Coeff-Com:  0.736D+00
 Coeff:     -0.251D-04-0.486D-02-0.845D-02-0.144D-01 0.196D-01 0.272D+00
 Coeff:      0.736D+00
 Gap=     0.253 Goal=   None    Shift=    0.000
 RMSDP=7.17D-08 MaxDP=2.30D-06 DE=-1.99D-09 OVMax= 6.71D-06

 Cycle  14  Pass 1  IDiag  1:
 E= -323.423766785046     Delta-E=       -0.000000000275 Rises=F Damp=F
 DIIS: error= 3.87D-07 at cycle   8 NSaved=   8.
 NSaved= 8 IEnMin= 8 EnMin= -323.423766785046     IErMin= 8 ErrMin= 3.87D-07
 ErrMax= 3.87D-07  0.00D+00 EMaxC= 1.00D-01 BMatC= 2.49D-11 BMatP= 3.28D-10
 IDIUse=1 WtCom= 1.00D+00 WtEn= 0.00D+00
 Coeff-Com:  0.781D-04-0.257D-02-0.576D-02-0.142D-01-0.376D-02 0.100D+00
 Coeff-Com:  0.348D+00 0.578D+00
 Coeff:      0.781D-04-0.257D-02-0.576D-02-0.142D-01-0.376D-02 0.100D+00
 Coeff:      0.348D+00 0.578D+00
 Gap=     0.253 Goal=   None    Shift=    0.000
 RMSDP=1.93D-08 MaxDP=1.04D-06 DE=-2.75D-10 OVMax= 3.13D-06

 Cycle  15  Pass 1  IDiag  1:
 E= -323.423766785068     Delta-E=       -0.000000000022 Rises=F Damp=F
 DIIS: error= 1.57D-07 at cycle   9 NSaved=   9.
 NSaved= 9 IEnMin= 9 EnMin= -323.423766785068     IErMin= 9 ErrMin= 1.57D-07
 ErrMax= 1.57D-07  0.00D+00 EMaxC= 1.00D-01 BMatC= 5.14D-12 BMatP= 2.49D-11
 IDIUse=1 WtCom= 1.00D+00 WtEn= 0.00D+00
 Coeff-Com:  0.517D-04-0.378D-03-0.142D-02-0.485D-02-0.643D-02-0.450D-02
 Coeff-Com:  0.303D-01 0.327D+00 0.660D+00
 Coeff:      0.517D-04-0.378D-03-0.142D-02-0.485D-02-0.643D-02-0.450D-02
 Coeff:      0.303D-01 0.327D+00 0.660D+00
 Gap=     0.253 Goal=   None    Shift=    0.000
 RMSDP=7.03D-09 MaxDP=3.66D-07 DE=-2.23D-11 OVMax= 9.40D-07

 SCF Done:  E(RM06) =  -323.423766785     A.U. after   15 cycles
            NFock= 15  Conv=0.70D-08     -V/T= 2.0037
 KE= 3.222239601835D+02 PE=-1.302647782869D+03 EE= 3.832334229543D+02
 Leave Link  502 at Fri Aug 27 21:28:11 2021, MaxMem= 17179869184 cpu:       260.2
 (Enter /public3/home/sc51754/softwares/g09e01/l601.exe)
 Copying SCF densities to generalized density rwf, IOpCl= 0 IROHF=0.

 **********************************************************************

            Population analysis using the SCF density.

 **********************************************************************

 Orbital symmetries:
       Occupied  (A) (A) (A) (A) (A) (A) (A) (A) (A) (A) (A) (A)
                 (A) (A) (A) (A) (A) (A) (A) (A) (A) (A) (A) (A)
                 (A)
       Virtual   (A) (A) (A) (A) (A) (A) (A) (A) (A) (A) (A) (A)
                 (A) (A) (A) (A) (A) (A) (A) (A) (A) (A) (A) (A)
                 (A) (A) (A) (A) (A) (A) (A) (A) (A) (A) (A) (A)
                 (A) (A) (A) (A) (A) (A) (A) (A) (A) (A) (A) (A)
                 (A) (A) (A) (A) (A) (A) (A) (A) (A) (A) (A) (A)
                 (A) (A) (A) (A) (A) (A) (A) (A) (A) (A) (A) (A)
                 (A) (A) (A) (A) (A) (A) (A) (A) (A) (A) (A) (A)
                 (A) (A) (A) (A) (A) (A) (A) (A) (A) (A) (A) (A)
                 (A) (A) (A) (A) (A) (A) (A) (A) (A) (A) (A) (A)
                 (A) (A) (A) (A) (A) (A) (A) (A) (A) (A) (A) (A)
                 (A) (A) (A) (A) (A) (A) (A) (A) (A) (A) (A) (A)
                 (A) (A) (A) (A) (A) (A) (A) (A) (A) (A) (A) (A)
                 (A) (A) (A) (A) (A) (A) (A) (A) (A) (A) (A) (A)
                 (A) (A) (A) (A) (A) (A) (A) (A) (A) (A) (A) (A)
                 (A) (A) (A) (A) (A) (A) (A) (A) (A) (A) (A) (A)
                 (A) (A) (A) (A) (A) (A) (A) (A) (A) (A) (A) (A)
                 (A) (A) (A) (A) (A) (A) (A) (A) (A) (A) (A) (A)
                 (A) (A) (A) (A) (A) (A) (A) (A) (A) (A) (A) (A)
                 (A) (A) (A) (A) (A) (A) (A) (A) (A) (A) (A) (A)
                 (A) (A) (A) (A) (A) (A) (A) (A) (A) (A) (A) (A)
                 (A) (A) (A) (A) (A) (A) (A) (A) (A) (A) (A) (A)
                 (A) (A) (A)
 The electronic state is 1-A.
 Alpha  occ. eigenvalues --  -19.25638 -14.37761 -10.32775 -10.28005 -10.27782
 Alpha  occ. eigenvalues --  -10.25214 -10.24642  -1.10852  -0.95227  -0.81319
 Alpha  occ. eigenvalues --   -0.77702  -0.66316  -0.64218  -0.57848  -0.52272
 Alpha  occ. eigenvalues --   -0.49455  -0.46633  -0.45018  -0.44378  -0.42624
 Alpha  occ. eigenvalues --   -0.39292  -0.37047  -0.28230  -0.27428  -0.27397
 Alpha virt. eigenvalues --   -0.02072  -0.01567  -0.01409   0.02104   0.02331
 Alpha virt. eigenvalues --    0.04773   0.05522   0.12608   0.12717   0.13908
 Alpha virt. eigenvalues --    0.17018   0.17366   0.17820   0.20256   0.20314
 Alpha virt. eigenvalues --    0.21171   0.22633   0.22839   0.24589   0.25930
 Alpha virt. eigenvalues --    0.26872   0.27036   0.28277   0.29972   0.30584
 Alpha virt. eigenvalues --    0.31990   0.33435   0.34345   0.35325   0.36896
 Alpha virt. eigenvalues --    0.38074   0.42030   0.42994   0.44627   0.44801
 Alpha virt. eigenvalues --    0.47262   0.48887   0.51630   0.52582   0.56660
 Alpha virt. eigenvalues --    0.56927   0.60485   0.61504   0.62065   0.65353
 Alpha virt. eigenvalues --    0.66132   0.67190   0.73912   0.75247   0.79276
 Alpha virt. eigenvalues --    0.81153   0.84121   0.85575   0.87116   0.88533
 Alpha virt. eigenvalues --    0.92417   0.94270   0.95567   0.96324   0.99502
 Alpha virt. eigenvalues --    1.01419   1.04660   1.08782   1.09823   1.10537
 Alpha virt. eigenvalues --    1.12156   1.13220   1.14533   1.15419   1.16924
 Alpha virt. eigenvalues --    1.22314   1.24197   1.27952   1.28835   1.29430
 Alpha virt. eigenvalues --    1.31056   1.33502   1.39711   1.41482   1.42835
 Alpha virt. eigenvalues --    1.42836   1.44838   1.46200   1.51457   1.56287
 Alpha virt. eigenvalues --    1.57019   1.57399   1.58917   1.62334   1.64411
 Alpha virt. eigenvalues --    1.65088   1.65973   1.69044   1.70476   1.71330
 Alpha virt. eigenvalues --    1.76210   1.78448   1.79545   1.82328   1.82762
 Alpha virt. eigenvalues --    1.85351   1.90346   1.93975   1.95650   1.98958
 Alpha virt. eigenvalues --    2.03664   2.07646   2.08483   2.11561   2.12933
 Alpha virt. eigenvalues --    2.17796   2.19054   2.21443   2.25291   2.27479
 Alpha virt. eigenvalues --    2.36763   2.40635   2.51153   2.51949   2.71115
 Alpha virt. eigenvalues --    2.87386   2.89547   2.90715   2.97574   3.08270
 Alpha virt. eigenvalues --    3.10627   3.14471   3.18123   3.19697   3.21198
 Alpha virt. eigenvalues --    3.28222   3.28710   3.29047   3.33409   3.36415
 Alpha virt. eigenvalues --    3.38823   3.39692   3.45463   3.48962   3.52160
 Alpha virt. eigenvalues --    3.53215   3.54742   3.56459   3.58290   3.61552
 Alpha virt. eigenvalues --    3.65975   3.68487   3.72214   3.72829   3.77586
 Alpha virt. eigenvalues --    3.79652   3.81354   3.85453   3.87841   3.93217
 Alpha virt. eigenvalues --    3.96950   3.98427   4.00120   4.04313   4.04764
 Alpha virt. eigenvalues --    4.05233   4.05804   4.08777   4.09691   4.12857
 Alpha virt. eigenvalues --    4.13902   4.15011   4.16734   4.17249   4.21305
 Alpha virt. eigenvalues --    4.22059   4.22224   4.24486   4.25510   4.26475
 Alpha virt. eigenvalues --    4.27360   4.29928   4.30488   4.34425   4.34969
 Alpha virt. eigenvalues --    4.38690   4.38980   4.39208   4.42132   4.42576
 Alpha virt. eigenvalues --    4.43824   4.44043   4.45979   4.49174   4.50662
 Alpha virt. eigenvalues --    4.51515   4.54140   4.59860   4.60527   4.67195
 Alpha virt. eigenvalues --    4.72208   4.72316   4.73298   4.75718   4.82697
 Alpha virt. eigenvalues --    4.86122   4.86654   4.88207   4.92721   4.94592
 Alpha virt. eigenvalues --    5.01104   5.02665   5.03634   5.07120   5.08920
 Alpha virt. eigenvalues --    5.13709   5.17377   5.20164   5.24135   5.24586
 Alpha virt. eigenvalues --    5.26339   5.27427   5.29546   5.30724   5.39813
 Alpha virt. eigenvalues --    5.42995   5.44653   5.45305   5.45548   5.52923
 Alpha virt. eigenvalues --    5.54783   5.59911   5.63941   5.65445   5.68935
 Alpha virt. eigenvalues --    5.72232   5.85453   5.89650   5.98433   5.99357
 Alpha virt. eigenvalues --    6.03160   6.07137   6.21350   6.23203   6.28725
 Alpha virt. eigenvalues --    6.32711   6.40499   6.48194   6.51868   6.61528
 Alpha virt. eigenvalues --    6.85043   6.94487   7.29546   9.01532  12.17208
 Alpha virt. eigenvalues --   12.29918  15.42896  17.21857  18.46074  21.99633
          Condensed to atoms (all electrons):
               1          2          3          4          5          6
     1  C    4.754507   0.387004  -0.021820  -0.071346  -0.084099   0.454533
     2  C    0.387004   5.119934   0.452404   0.012595  -0.076050  -0.018797
     3  C   -0.021820   0.452404   4.630053   0.444463  -0.021974  -0.027600
     4  C   -0.071346   0.012595   0.444463   5.066222   0.388508  -0.014650
     5  C   -0.084099  -0.076050  -0.021974   0.388508   4.783198   0.437070
     6  N    0.454533  -0.018797  -0.027600  -0.014650   0.437070   6.650836
     7  H    0.476238  -0.093326   0.007093  -0.005412   0.007534  -0.054325
     8  H   -0.030330   0.451426  -0.068077   0.003035   0.000717   0.006719
     9  H   -0.001324   0.007206  -0.064578   0.466039  -0.047171   0.006950
    10  H    0.007601  -0.007271   0.011688  -0.100344   0.482648  -0.055303
    11  O    0.006563  -0.063921   0.244049  -0.055882   0.004642  -0.000524
    12  H    0.000992   0.001946  -0.030051   0.004390  -0.000403   0.000354
               7          8          9         10         11         12
     1  C    0.476238  -0.030330  -0.001324   0.007601   0.006563   0.000992
     2  C   -0.093326   0.451426   0.007206  -0.007271  -0.063921   0.001946
     3  C    0.007093  -0.068077  -0.064578   0.011688   0.244049  -0.030051
     4  C   -0.005412   0.003035   0.466039  -0.100344  -0.055882   0.004390
     5  C    0.007534   0.000717  -0.047171   0.482648   0.004642  -0.000403
     6  N   -0.054325   0.006719   0.006950  -0.055303  -0.000524   0.000354
     7  H    0.610518  -0.013004   0.000237  -0.000337  -0.000373  -0.000090
     8  H   -0.013004   0.628320  -0.000496   0.000229  -0.005431   0.006141
     9  H    0.000237  -0.000496   0.599125  -0.014690   0.003847  -0.000937
    10  H   -0.000337   0.000229  -0.014690   0.606432  -0.000236   0.000119
    11  O   -0.000373  -0.005431   0.003847  -0.000236   7.935892   0.343494
    12  H   -0.000090   0.006141  -0.000937   0.000119   0.343494   0.458353
 Mulliken charges:
               1
     1  C    0.121479
     2  C   -0.173151
     3  C    0.444348
     4  C   -0.137616
     5  C    0.125379
     6  N   -0.385263
     7  H    0.065246
     8  H    0.020750
     9  H    0.045791
    10  H    0.069465
    11  O   -0.412120
    12  H    0.215692
 Sum of Mulliken charges =  -0.00000
 Mulliken charges with hydrogens summed into heavy atoms:
               1
     1  C    0.186725
     2  C   -0.152401
     3  C    0.444348
     4  C   -0.091825
     5  C    0.194844
     6  N   -0.385263
    11  O   -0.196428
 Electronic spatial extent (au):  <R**2>=            641.2844
 Charge=             -0.0000 electrons
 Dipole moment (field-independent basis, Debye):
    X=              2.3909    Y=              1.2928    Z=             -0.0001  Tot=              2.7180
 Quadrupole moment (field-independent basis, Debye-Ang):
   XX=            -43.5276   YY=            -33.4346   ZZ=            -42.7576
   XY=              4.4943   XZ=             -0.0017   YZ=             -0.0016
 Traceless Quadrupole moment (field-independent basis, Debye-Ang):
   XX=             -3.6210   YY=              6.4720   ZZ=             -2.8510
   XY=              4.4943   XZ=             -0.0017   YZ=             -0.0016
 Octapole moment (field-independent basis, Debye-Ang**2):
  XXX=             33.0724  YYY=              0.4129  ZZZ=              0.0004  XYY=              2.0904
  XXY=             12.0955  XXZ=             -0.0034  XZZ=              3.4005  YZZ=             -0.0021
  YYZ=              0.0033  XYZ=             -0.0016
 Hexadecapole moment (field-independent basis, Debye-Ang**3):
 XXXX=           -520.4813 YYYY=           -256.4934 ZZZZ=            -45.8030 XXXY=             38.1273
 XXXZ=             -0.0155 YYYX=              2.7624 YYYZ=             -0.0089 ZZZX=             -0.0012
 ZZZY=             -0.0017 XXYY=           -106.9970 XXZZ=            -94.8175 YYZZ=            -60.7048
 XXYZ=             -0.0066 YYXZ=             -0.0021 ZZXY=              0.4661
 N-N= 2.737666329457D+02 E-N=-1.302647791246D+03  KE= 3.222239601835D+02
 No NMR shielding tensors so no spin-rotation constants.
 Leave Link  601 at Fri Aug 27 21:28:12 2021, MaxMem= 17179869184 cpu:        50.8
 (Enter /public3/home/sc51754/softwares/g09e01/l701.exe)
 Compute integral first derivatives.
 ... and contract with generalized density number  0.
 Leave Link  701 at Fri Aug 27 21:28:13 2021, MaxMem= 17179869184 cpu:        74.6
 (Enter /public3/home/sc51754/softwares/g09e01/l702.exe)
 L702 exits ... SP integral derivatives will be done elsewhere.
 Leave Link  702 at Fri Aug 27 21:28:13 2021, MaxMem= 17179869184 cpu:         0.2
 (Enter /public3/home/sc51754/softwares/g09e01/l703.exe)
 Compute integral first derivatives, UseDBF=F ICtDFT=           0.
 Integral derivatives from FoFJK, PRISM(SPDF).
 Calling FoFJK, ICntrl=      2127 FMM=F ISym2X=0 I1Cent= 0 IOpClX= 0 NMat=1 NMatS=1 NMatT=0.
 FoFJK:  IHMeth= 1 ICntrl=    2127 DoSepK=F KAlg= 0 I1Cent=   0 FoldK=F
 IRaf=         0 NMat=   1 IRICut=       1 DoRegI=T DoRafI=F ISym2E= 0.
 FoFCou: FMM=F IPFlag=           0 FMFlag=      100000 FMFlg1=         800
         NFxFlg=           0 DoJE=F BraDBF=F KetDBF=F FulRan=T
         wScrn=  0.000000 ICntrl=    2127 IOpCl=  0 I1Cent=           0 NGrid=           0
         NMat0=    1 NMatS0=      1 NMatT0=    0 NMatD0=    1 NMtDS0=    0 NMtDT0=    0
 Symmetry not used in FoFCou.
 Leave Link  703 at Fri Aug 27 21:28:16 2021, MaxMem= 17179869184 cpu:       144.4
 (Enter /public3/home/sc51754/softwares/g09e01/l716.exe)
 Dipole        = 9.40634643D-01 5.08616791D-01-2.21361486D-05
 ***** Axes restored to original set *****
 -------------------------------------------------------------------
 Center     Atomic                   Forces (Hartrees/Bohr)
 Number     Number              X              Y              Z
 -------------------------------------------------------------------
      1        6          -0.002986825   -0.008836969    0.000034662
      2        6           0.003308606   -0.007668696   -0.000006530
      3        6           0.002381686   -0.001291668   -0.000010579
      4        6           0.003202240    0.008453000    0.000022986
      5        6          -0.003481149    0.008231938   -0.000094890
      6        7          -0.013186753    0.000051745    0.000019361
      7        1          -0.001347271   -0.001962908   -0.000010069
      8        1           0.001055622   -0.002449290    0.000001576
      9        1           0.001146943    0.002234082    0.000012388
     10        1          -0.001453391    0.001894118    0.000030955
     11        8           0.008164564    0.008581440    0.000006715
     12        1           0.003195727   -0.007236792   -0.000006576
 -------------------------------------------------------------------
 Cartesian Forces:  Max     0.013186753 RMS     0.004494686
 Leave Link  716 at Fri Aug 27 21:28:16 2021, MaxMem= 17179869184 cpu:         0.3
 (Enter /public3/home/sc51754/softwares/g09e01/l103.exe)

 GradGradGradGradGradGradGradGradGradGradGradGradGradGradGradGradGradGrad
 Berny optimization.
 FormGI is forming the generalized inverse of G from B-inverse, IUseBI=4.
 Internal  Forces:  Max     0.012551844 RMS     0.004620467
 Search for a local minimum.
 Step number   1 out of a maximum of   61
 All quantities printed in internal units (Hartrees-Bohrs-Radians)
 RMS Force = .46205D-02 SwitMx=.10000D-02 MixMth= 1
 Mixed Optimization -- RFO/linear search
 Second derivative matrix not updated -- first step.
 ITU=  0
     Eigenvalues ---    0.02120   0.02139   0.02144   0.02163   0.02209
     Eigenvalues ---    0.02238   0.02269   0.02294   0.02415   0.16000
     Eigenvalues ---    0.16000   0.16000   0.16000   0.16000   0.22000
     Eigenvalues ---    0.22826   0.23882   0.25000   0.34970   0.34996
     Eigenvalues ---    0.35128   0.35490   0.42425   0.43849   0.46118
     Eigenvalues ---    0.46897   0.53214   0.54017   0.55021   0.56489
 RFO step:  Lambda=-2.18051018D-03 EMin= 2.11976327D-02
 Linear search not attempted -- first point.
 Iteration  1 RMS(Cart)=  0.01583509 RMS(Int)=  0.00001021
 Iteration  2 RMS(Cart)=  0.00001769 RMS(Int)=  0.00000234
 Iteration  3 RMS(Cart)=  0.00000000 RMS(Int)=  0.00000234
 ITry= 1 IFail=0 DXMaxC= 5.35D-02 DCOld= 1.00D+10 DXMaxT= 3.00D-01 DXLimC= 3.00D+00 Rises=F
 Variable       Old X    -DE/DX   Delta X   Delta X   Delta X     New X
                                 (Linear)    (Quad)   (Total)
    R1        2.63455  -0.01122   0.00000  -0.02398  -0.02398   2.61057
    R2        2.52836  -0.01255   0.00000  -0.02192  -0.02192   2.50644
    R3        2.05724  -0.00237   0.00000  -0.00674  -0.00674   2.05050
    R4        2.64227  -0.01244   0.00000  -0.02668  -0.02668   2.61559
    R5        2.05467  -0.00265   0.00000  -0.00750  -0.00750   2.04717
    R6        2.64232  -0.01244   0.00000  -0.02667  -0.02667   2.61565
    R7        2.56754  -0.01142   0.00000  -0.02136  -0.02136   2.54618
    R8        2.62881  -0.01122   0.00000  -0.02371  -0.02371   2.60510
    R9        2.04887  -0.00251   0.00000  -0.00704  -0.00704   2.04183
   R10        2.53547  -0.01221   0.00000  -0.02162  -0.02163   2.51384
   R11        2.05681  -0.00238   0.00000  -0.00677  -0.00677   2.05004
   R12        1.82716  -0.00793   0.00000  -0.01462  -0.01462   1.81254
    A1        2.17019   0.00015   0.00000   0.00017   0.00017   2.17035
    A2        2.08489  -0.00025   0.00000  -0.00116  -0.00116   2.08374
    A3        2.02810   0.00010   0.00000   0.00099   0.00099   2.02910
    A4        2.06349  -0.00052   0.00000  -0.00159  -0.00159   2.06190
    A5        2.10457   0.00055   0.00000   0.00262   0.00262   2.10719
    A6        2.11512  -0.00004   0.00000  -0.00103  -0.00103   2.11409
    A7        2.06766   0.00061   0.00000   0.00363   0.00364   2.07130
    A8        2.15371  -0.00112   0.00000  -0.00505  -0.00505   2.14866
    A9        2.06181   0.00051   0.00000   0.00142   0.00141   2.06323
   A10        2.06126  -0.00055   0.00000  -0.00167  -0.00166   2.05960
   A11        2.09700   0.00026   0.00000   0.00072   0.00072   2.09772
   A12        2.12493   0.00029   0.00000   0.00094   0.00094   2.12587
   A13        2.17345   0.00011   0.00000   0.00006   0.00005   2.17350
   A14        2.08552  -0.00021   0.00000  -0.00101  -0.00101   2.08451
   A15        2.02421   0.00011   0.00000   0.00095   0.00095   2.02517
   A16        2.03032   0.00021   0.00000  -0.00060  -0.00061   2.02971
   A17        1.90853  -0.00017   0.00000  -0.00106  -0.00106   1.90747
    D1       -0.00024   0.00001   0.00000   0.00037   0.00037   0.00014
    D2        3.14151   0.00000   0.00000   0.00018   0.00018  -3.14149
    D3       -3.14157  -0.00000   0.00000  -0.00007  -0.00007   3.14154
    D4        0.00018  -0.00001   0.00000  -0.00027  -0.00027  -0.00009
    D5        0.00007  -0.00000   0.00000  -0.00005  -0.00005   0.00001
    D6        3.14141   0.00001   0.00000   0.00038   0.00038  -3.14140
    D7        0.00001  -0.00000   0.00000  -0.00011  -0.00011  -0.00010
    D8       -3.14143  -0.00001   0.00000  -0.00027  -0.00027   3.14149
    D9        3.14145   0.00000   0.00000   0.00008   0.00008   3.14153
   D10        0.00000  -0.00000   0.00000  -0.00007  -0.00007  -0.00007
   D11        0.00034  -0.00001   0.00000  -0.00042  -0.00042  -0.00007
   D12       -3.14121  -0.00001   0.00000  -0.00043  -0.00043   3.14155
   D13       -3.14139  -0.00001   0.00000  -0.00028  -0.00028   3.14152
   D14        0.00024  -0.00001   0.00000  -0.00028  -0.00028  -0.00004
   D15       -0.00039   0.00001   0.00000   0.00021   0.00021  -0.00018
   D16        3.14135   0.00000   0.00000   0.00006   0.00006   3.14141
   D17       -0.00055   0.00002   0.00000   0.00079   0.00079   0.00025
   D18       -3.14120  -0.00002   0.00000  -0.00065  -0.00065   3.14133
   D19        3.14101   0.00002   0.00000   0.00080   0.00080  -3.14138
   D20        0.00035  -0.00002   0.00000  -0.00065  -0.00064  -0.00029
   D21        0.00034  -0.00001   0.00000  -0.00055  -0.00055  -0.00021
   D22        3.14102   0.00002   0.00000   0.00085   0.00085  -3.14131
         Item               Value     Threshold  Converged?
 Maximum Force            0.012552     0.000450     NO 
 RMS     Force            0.004620     0.000300     NO 
 Maximum Displacement     0.053545     0.001800     NO 
 RMS     Displacement     0.015832     0.001200     NO 
 Predicted change in Energy=-1.095086D-03
 Lowest energy point so far.  Saving SCF results.
 GradGradGradGradGradGradGradGradGradGradGradGradGradGradGradGradGradGrad

 Leave Link  103 at Fri Aug 27 21:28:18 2021, MaxMem= 17179869184 cpu:        97.7
 (Enter /public3/home/sc51754/softwares/g09e01/l202.exe)
                          Input orientation:                          
 ---------------------------------------------------------------------
 Center     Atomic      Atomic             Coordinates (Angstroms)
 Number     Number       Type             X           Y           Z
 ---------------------------------------------------------------------
      1          6           0        1.140687    1.143545    0.000056
      2          6           0       -0.240334    1.178213   -0.000015
      3          6           0       -0.923505   -0.025545   -0.000048
      4          6           0       -0.195211   -1.202590   -0.000132
      5          6           0        1.180412   -1.112648   -0.000270
      6          7           0        1.861402    0.030095   -0.000058
      7          1           0        1.696736    2.075318    0.000038
      8          1           0       -0.770408    2.122986   -0.000005
      9          1           0       -0.703509   -2.156054   -0.000117
     10          1           0        1.774025   -2.020664   -0.000087
     11          8           0       -2.268322   -0.108570    0.000004
     12          1           0       -2.640365    0.775492    0.000226
 ---------------------------------------------------------------------
                    Distance matrix (angstroms):
                    1          2          3          4          5
     1  C    0.000000
     2  C    1.381457   0.000000
     3  C    2.372269   1.384108   0.000000
     4  C    2.699811   2.381231   1.384142   0.000000
     5  C    2.256543   2.695657   2.368177   1.378560   0.000000
     6  N    1.326349   2.394884   2.785462   2.397743   1.330266
     7  H    1.085077   2.134722   3.358465   3.784726   3.229508
     8  H    2.147461   1.083316   2.153978   3.374953   3.778230
     9  H    3.780003   3.366285   2.141838   1.080491   2.153568
    10  H    3.226970   3.780272   3.355170   2.132401   1.084836
    11  O    3.631686   2.401780   1.347378   2.344071   3.591927
    12  H    3.798924   2.433585   1.894537   3.145089   4.261855
                    6          7          8          9         10
     6  N    0.000000
     7  H    2.051842   0.000000
     8  H    3.362531   2.467605   0.000000
     9  H    3.370165   4.864740   4.279563   0.000000
    10  H    2.052619   4.096711   4.862506   2.481230   0.000000
    11  O    4.132051   4.526705   2.687673   2.576982   4.471764
    12  H    4.563061   4.527692   2.304882   3.513599   5.225450
                   11         12
    11  O    0.000000
    12  H    0.959156   0.000000
 Stoichiometry    C5H5NO
 Framework group  C1[X(C5H5NO)]
 Deg. of freedom    30
 Full point group                 C1      NOp   1
 RotChk:  IX=2 Diff= 1.95D-03
 Largest Abelian subgroup         C1      NOp   1
 Largest concise Abelian subgroup C1      NOp   1
                         Standard orientation:                         
 ---------------------------------------------------------------------
 Center     Atomic      Atomic             Coordinates (Angstroms)
 Number     Number       Type             X           Y           Z
 ---------------------------------------------------------------------
      1          6           0       -1.138869    1.144617   -0.000111
      2          6           0        0.242199    1.177380   -0.000041
      3          6           0        0.923708   -0.027320   -0.000007
      4          6           0        0.193792   -1.203360    0.000077
      5          6           0       -1.181706   -1.111520    0.000214
      6          7           0       -1.861119    0.032161    0.000003
      7          1           0       -1.693632    2.077156   -0.000094
      8          1           0        0.773575    2.121420   -0.000051
      9          1           0        0.700773   -2.157524    0.000062
     10          1           0       -1.776571   -2.018716    0.000032
     11          8           0        2.268410   -0.112200   -0.000059
     12          1           0        2.641672    0.771348   -0.000281
 ---------------------------------------------------------------------
 Rotational constants (GHZ):      6.0879740      2.6772503      1.8595109
 Leave Link  202 at Fri Aug 27 21:28:18 2021, MaxMem= 17179869184 cpu:         6.4
 (Enter /public3/home/sc51754/softwares/g09e01/l301.exe)
 Basis read from rwf:  (5D, 7F)
 No pseudopotential information found on rwf file.
 There are   320 symmetry adapted cartesian basis functions of A   symmetry.
 There are   280 symmetry adapted basis functions of A   symmetry.
   280 basis functions,   475 primitive gaussians,   320 cartesian basis functions
    25 alpha electrons       25 beta electrons
       nuclear repulsion energy       276.1839116705 Hartrees.
 IExCor= 4235 DFT=T Ex+Corr=M06 ExCW=0 ScaHFX=  0.270000
 ScaDFX=  1.000000  1.000000  1.000000  1.000000 ScalE2=  1.000000  1.000000
 IRadAn=      0 IRanWt=     -1 IRanGd=            0 ICorTp=0 IEmpDi=  4
 NAtoms=   12 NActive=   12 NUniq=   12 SFac= 1.00D+00 NAtFMM=   60 NAOKFM=F Big=F
 Integral buffers will be    131072 words long.
 Raffenetti 2 integral format.
 Two-electron integral symmetry is turned on.
 No density basis found on file   724.
 Leave Link  301 at Fri Aug 27 21:28:18 2021, MaxMem= 17179869184 cpu:         1.0
 (Enter /public3/home/sc51754/softwares/g09e01/l302.exe)
 NPDir=0 NMtPBC=     1 NCelOv=     1 NCel=       1 NClECP=     1 NCelD=      1
         NCelK=      1 NCelE2=     1 NClLst=     1 CellRange=     0.0.
 One-electron integrals computed using PRISM.
 NBasis=   280 RedAO= T EigKep=  1.88D-04  NBF=   280
 NBsUse=   280 1.00D-06 EigRej= -1.00D+00 NBFU=   280
 Precomputing XC quadrature grid using
 IXCGrd= 4 IRadAn=           0 IRanWt=          -1 IRanGd=           0 AccXCQ= 0.00D+00.
 Generated NRdTot=       0 NPtTot=           0 NUsed=           0 NTot=          32
 NSgBfM=   320   320   320   320   320 MxSgAt=    12 MxSgA2=    12.
 Leave Link  302 at Fri Aug 27 21:28:19 2021, MaxMem= 17179869184 cpu:        44.9
 (Enter /public3/home/sc51754/softwares/g09e01/l303.exe)
 DipDrv:  MaxL=1.
 Leave Link  303 at Fri Aug 27 21:28:19 2021, MaxMem= 17179869184 cpu:        12.3
 (Enter /public3/home/sc51754/softwares/g09e01/l401.exe)
 Initial guess from the checkpoint file:  "4HY_M06_PC2_OPT_FREQ.chk"
 B after Tr=    -0.000000   -0.000000    0.000000
         Rot=    1.000000    0.000037   -0.000012    0.000651 Ang=   0.07 deg.
 Guess basis will be translated and rotated to current coordinates.
 JPrj=2 DoOrth=T DoCkMO=T.
 Generating alternative initial guess.
 ExpMin= 7.41D-02 ExpMax= 1.48D+04 ExpMxC= 5.05D+02 IAcc=2 IRadAn=         4 AccDes= 0.00D+00
 Harris functional with IExCor= 1009 and IRadAn=       4 diagonalized for initial guess.
 HarFok:  IExCor= 1009 AccDes= 0.00D+00 IRadAn=         4 IDoV= 1 UseB2=F ITyADJ=14
 ICtDFT=  3500011 ScaDFX=  1.000000  1.000000  1.000000  1.000000
 FoFCou: FMM=F IPFlag=           0 FMFlag=      100000 FMFlg1=           0
         NFxFlg=           0 DoJE=T BraDBF=F KetDBF=T FulRan=T
         wScrn=  0.000000 ICntrl=     500 IOpCl=  0 I1Cent=   200000004 NGrid=           0
         NMat0=    1 NMatS0=      1 NMatT0=    0 NMatD0=    1 NMtDS0=    0 NMtDT0=    0
 Petite list used in FoFCou.
 Harris En= -323.361496427192    
 Leave Link  401 at Fri Aug 27 21:28:20 2021, MaxMem= 17179869184 cpu:        51.5
 (Enter /public3/home/sc51754/softwares/g09e01/l502.exe)
 Closed shell SCF:
 Using DIIS extrapolation, IDIIS=  1040.
 Integral symmetry usage will be decided dynamically.
 Keep R1 ints in memory in canonical form, NReq=790723944.
 IVT=      348554 IEndB=      348554 NGot= 17179869184 MDV= 16405683161
 LenX= 16405683161 LenY= 16405580320
 Requested convergence on RMS density matrix=1.00D-08 within 128 cycles.
 Requested convergence on MAX density matrix=1.00D-06.
 Requested convergence on             energy=1.00D-06.
 No special actions if energy rises.
 FoFCou: FMM=F IPFlag=           0 FMFlag=           0 FMFlg1=           0
         NFxFlg=           0 DoJE=F BraDBF=F KetDBF=F FulRan=T
         wScrn=  0.000000 ICntrl=     600 IOpCl=  0 I1Cent=           0 NGrid=           0
         NMat0=    1 NMatS0=  39340 NMatT0=    0 NMatD0=    1 NMtDS0=    0 NMtDT0=    0
 Symmetry not used in FoFCou.
 Integral accuracy reduced to 1.0D-05 until final iterations.

 Cycle   1  Pass 0  IDiag  1:
 E= -323.424490146882    
 DIIS: error= 1.21D-03 at cycle   1 NSaved=   1.
 NSaved= 1 IEnMin= 1 EnMin= -323.424490146882     IErMin= 1 ErrMin= 1.21D-03
 ErrMax= 1.21D-03  0.00D+00 EMaxC= 1.00D-01 BMatC= 4.05D-04 BMatP= 4.05D-04
 IDIUse=3 WtCom= 9.88D-01 WtEn= 1.21D-02
 Coeff-Com:  0.100D+01
 Coeff-En:   0.100D+01
 Coeff:      0.100D+01
 Gap=     0.653 Goal=   None    Shift=    0.000
 GapD=    0.653 DampG=2.000 DampE=1.000 DampFc=2.0000 IDamp=-1.
 RMSDP=8.75D-05 MaxDP=2.57D-03              OVMax= 4.07D-03

 Cycle   2  Pass 0  IDiag  1:
 E= -323.424752628793     Delta-E=       -0.000262481911 Rises=F Damp=F
 DIIS: error= 5.08D-04 at cycle   2 NSaved=   2.
 NSaved= 2 IEnMin= 2 EnMin= -323.424752628793     IErMin= 2 ErrMin= 5.08D-04
 ErrMax= 5.08D-04  0.00D+00 EMaxC= 1.00D-01 BMatC= 6.46D-05 BMatP= 4.05D-04
 IDIUse=3 WtCom= 9.95D-01 WtEn= 5.08D-03
 Coeff-Com:  0.217D+00 0.783D+00
 Coeff-En:   0.000D+00 0.100D+01
 Coeff:      0.216D+00 0.784D+00
 Gap=     0.255 Goal=   None    Shift=    0.000
 RMSDP=4.41D-05 MaxDP=1.80D-03 DE=-2.62D-04 OVMax= 2.46D-03

 Cycle   3  Pass 0  IDiag  1:
 E= -323.424788890008     Delta-E=       -0.000036261215 Rises=F Damp=F
 DIIS: error= 4.15D-04 at cycle   3 NSaved=   3.
 NSaved= 3 IEnMin= 3 EnMin= -323.424788890008     IErMin= 3 ErrMin= 4.15D-04
 ErrMax= 4.15D-04  0.00D+00 EMaxC= 1.00D-01 BMatC= 2.48D-05 BMatP= 6.46D-05
 IDIUse=3 WtCom= 9.96D-01 WtEn= 4.15D-03
 Coeff-Com:  0.769D-03 0.379D+00 0.620D+00
 Coeff-En:   0.000D+00 0.278D+00 0.722D+00
 Coeff:      0.765D-03 0.379D+00 0.621D+00
 Gap=     0.256 Goal=   None    Shift=    0.000
 RMSDP=1.69D-05 MaxDP=6.22D-04 DE=-3.63D-05 OVMax= 1.05D-03

 Cycle   4  Pass 0  IDiag  1:
 E= -323.424812934198     Delta-E=       -0.000024044190 Rises=F Damp=F
 DIIS: error= 5.99D-05 at cycle   4 NSaved=   4.
 NSaved= 4 IEnMin= 4 EnMin= -323.424812934198     IErMin= 4 ErrMin= 5.99D-05
 ErrMax= 5.99D-05  0.00D+00 EMaxC= 1.00D-01 BMatC= 8.71D-07 BMatP= 2.48D-05
 IDIUse=1 WtCom= 1.00D+00 WtEn= 0.00D+00
 Coeff-Com: -0.526D-02 0.143D+00 0.282D+00 0.581D+00
 Coeff:     -0.526D-02 0.143D+00 0.282D+00 0.581D+00
 Gap=     0.255 Goal=   None    Shift=    0.000
 RMSDP=3.08D-06 MaxDP=1.41D-04 DE=-2.40D-05 OVMax= 2.55D-04

 Initial convergence to 1.0D-05 achieved.  Increase integral accuracy.
 Cycle   5  Pass 1  IDiag  1:
 E= -323.424775628063     Delta-E=        0.000037306135 Rises=F Damp=F
 DIIS: error= 3.35D-04 at cycle   1 NSaved=   1.
 NSaved= 1 IEnMin= 1 EnMin= -323.424775628063     IErMin= 1 ErrMin= 3.35D-04
 ErrMax= 3.35D-04  0.00D+00 EMaxC= 1.00D-01 BMatC= 6.22D-05 BMatP= 6.22D-05
 IDIUse=3 WtCom= 9.97D-01 WtEn= 3.35D-03
 Coeff-Com:  0.100D+01
 Coeff-En:   0.100D+01
 Coeff:      0.100D+01
 Gap=     0.255 Goal=   None    Shift=    0.000
 RMSDP=3.08D-06 MaxDP=1.41D-04 DE= 3.73D-05 OVMax= 9.30D-04

 Cycle   6  Pass 1  IDiag  1:
 E= -323.424801654362     Delta-E=       -0.000026026299 Rises=F Damp=F
 DIIS: error= 9.92D-05 at cycle   2 NSaved=   2.
 NSaved= 2 IEnMin= 2 EnMin= -323.424801654362     IErMin= 2 ErrMin= 9.92D-05
 ErrMax= 9.92D-05  0.00D+00 EMaxC= 1.00D-01 BMatC= 3.12D-06 BMatP= 6.22D-05
 IDIUse=1 WtCom= 1.00D+00 WtEn= 0.00D+00
 Coeff-Com:  0.109D+00 0.891D+00
 Coeff:      0.109D+00 0.891D+00
 Gap=     0.255 Goal=   None    Shift=    0.000
 RMSDP=7.72D-06 MaxDP=3.32D-04 DE=-2.60D-05 OVMax= 4.88D-04

 Cycle   7  Pass 1  IDiag  1:
 E= -323.424802133157     Delta-E=       -0.000000478795 Rises=F Damp=F
 DIIS: error= 6.86D-05 at cycle   3 NSaved=   3.
 NSaved= 3 IEnMin= 3 EnMin= -323.424802133157     IErMin= 3 ErrMin= 6.86D-05
 ErrMax= 6.86D-05  0.00D+00 EMaxC= 1.00D-01 BMatC= 1.96D-06 BMatP= 3.12D-06
 IDIUse=1 WtCom= 1.00D+00 WtEn= 0.00D+00
 Coeff-Com:  0.202D-01 0.443D+00 0.537D+00
 Coeff:      0.202D-01 0.443D+00 0.537D+00
 Gap=     0.255 Goal=   None    Shift=    0.000
 RMSDP=4.34D-06 MaxDP=1.94D-04 DE=-4.79D-07 OVMax= 4.32D-04

 Cycle   8  Pass 1  IDiag  1:
 E= -323.424803565138     Delta-E=       -0.000001431980 Rises=F Damp=F
 DIIS: error= 2.83D-05 at cycle   4 NSaved=   4.
 NSaved= 4 IEnMin= 4 EnMin= -323.424803565138     IErMin= 4 ErrMin= 2.83D-05
 ErrMax= 2.83D-05  0.00D+00 EMaxC= 1.00D-01 BMatC= 2.03D-07 BMatP= 1.96D-06
 IDIUse=1 WtCom= 1.00D+00 WtEn= 0.00D+00
 Coeff-Com: -0.296D-02 0.116D+00 0.275D+00 0.612D+00
 Coeff:     -0.296D-02 0.116D+00 0.275D+00 0.612D+00
 Gap=     0.255 Goal=   None    Shift=    0.000
 RMSDP=1.91D-06 MaxDP=9.34D-05 DE=-1.43D-06 OVMax= 2.14D-04

 Cycle   9  Pass 1  IDiag  1:
 E= -323.424803694072     Delta-E=       -0.000000128934 Rises=F Damp=F
 DIIS: error= 1.50D-05 at cycle   5 NSaved=   5.
 NSaved= 5 IEnMin= 5 EnMin= -323.424803694072     IErMin= 5 ErrMin= 1.50D-05
 ErrMax= 1.50D-05  0.00D+00 EMaxC= 1.00D-01 BMatC= 3.96D-08 BMatP= 2.03D-07
 IDIUse=1 WtCom= 1.00D+00 WtEn= 0.00D+00
 Coeff-Com: -0.374D-02 0.232D-01 0.109D+00 0.376D+00 0.496D+00
 Coeff:     -0.374D-02 0.232D-01 0.109D+00 0.376D+00 0.496D+00
 Gap=     0.255 Goal=   None    Shift=    0.000
 RMSDP=6.87D-07 MaxDP=2.76D-05 DE=-1.29D-07 OVMax= 8.28D-05

 Cycle  10  Pass 1  IDiag  1:
 E= -323.424803732636     Delta-E=       -0.000000038564 Rises=F Damp=F
 DIIS: error= 4.25D-06 at cycle   6 NSaved=   6.
 NSaved= 6 IEnMin= 6 EnMin= -323.424803732636     IErMin= 6 ErrMin= 4.25D-06
 ErrMax= 4.25D-06  0.00D+00 EMaxC= 1.00D-01 BMatC= 1.36D-09 BMatP= 3.96D-08
 IDIUse=1 WtCom= 1.00D+00 WtEn= 0.00D+00
 Coeff-Com: -0.129D-02 0.357D-03 0.234D-01 0.108D+00 0.212D+00 0.657D+00
 Coeff:     -0.129D-02 0.357D-03 0.234D-01 0.108D+00 0.212D+00 0.657D+00
 Gap=     0.255 Goal=   None    Shift=    0.000
 RMSDP=1.48D-07 MaxDP=6.90D-06 DE=-3.86D-08 OVMax= 2.39D-05

 Cycle  11  Pass 1  IDiag  1:
 E= -323.424803733679     Delta-E=       -0.000000001044 Rises=F Damp=F
 DIIS: error= 1.83D-06 at cycle   7 NSaved=   7.
 NSaved= 7 IEnMin= 7 EnMin= -323.424803733679     IErMin= 7 ErrMin= 1.83D-06
 ErrMax= 1.83D-06  0.00D+00 EMaxC= 1.00D-01 BMatC= 3.70D-10 BMatP= 1.36D-09
 IDIUse=1 WtCom= 1.00D+00 WtEn= 0.00D+00
 Coeff-Com:  0.443D-04-0.516D-02-0.109D-01-0.195D-01 0.148D-01 0.377D+00
 Coeff-Com:  0.643D+00
 Coeff:      0.443D-04-0.516D-02-0.109D-01-0.195D-01 0.148D-01 0.377D+00
 Coeff:      0.643D+00
 Gap=     0.255 Goal=   None    Shift=    0.000
 RMSDP=5.74D-08 MaxDP=2.38D-06 DE=-1.04D-09 OVMax= 7.46D-06

 Cycle  12  Pass 1  IDiag  1:
 E= -323.424803734049     Delta-E=       -0.000000000369 Rises=F Damp=F
 DIIS: error= 1.59D-07 at cycle   8 NSaved=   8.
 NSaved= 8 IEnMin= 8 EnMin= -323.424803734049     IErMin= 8 ErrMin= 1.59D-07
 ErrMax= 1.59D-07  0.00D+00 EMaxC= 1.00D-01 BMatC= 5.57D-12 BMatP= 3.70D-10
 IDIUse=1 WtCom= 1.00D+00 WtEn= 0.00D+00
 Coeff-Com:  0.833D-04-0.134D-02-0.419D-02-0.107D-01-0.695D-02 0.576D-01
 Coeff-Com:  0.158D+00 0.808D+00
 Coeff:      0.833D-04-0.134D-02-0.419D-02-0.107D-01-0.695D-02 0.576D-01
 Coeff:      0.158D+00 0.808D+00
 Gap=     0.255 Goal=   None    Shift=    0.000
 RMSDP=1.13D-08 MaxDP=4.49D-07 DE=-3.69D-10 OVMax= 1.32D-06

 Cycle  13  Pass 1  IDiag  1:
 E= -323.424803734054     Delta-E=       -0.000000000006 Rises=F Damp=F
 DIIS: error= 1.15D-07 at cycle   9 NSaved=   9.
 NSaved= 9 IEnMin= 9 EnMin= -323.424803734054     IErMin= 9 ErrMin= 1.15D-07
 ErrMax= 1.15D-07  0.00D+00 EMaxC= 1.00D-01 BMatC= 3.09D-12 BMatP= 5.57D-12
 IDIUse=1 WtCom= 1.00D+00 WtEn= 0.00D+00
 Coeff-Com:  0.461D-04-0.320D-03-0.147D-02-0.452D-02-0.549D-02-0.918D-03
 Coeff-Com:  0.349D-01 0.473D+00 0.505D+00
 Coeff:      0.461D-04-0.320D-03-0.147D-02-0.452D-02-0.549D-02-0.918D-03
 Coeff:      0.349D-01 0.473D+00 0.505D+00
 Gap=     0.255 Goal=   None    Shift=    0.000
 RMSDP=5.80D-09 MaxDP=2.42D-07 DE=-5.57D-12 OVMax= 7.64D-07

 SCF Done:  E(RM06) =  -323.424803734     A.U. after   13 cycles
            NFock= 13  Conv=0.58D-08     -V/T= 2.0029
 KE= 3.224920507543D+02 PE=-1.307689973429D+03 EE= 3.855892072701D+02
 Leave Link  502 at Fri Aug 27 21:28:33 2021, MaxMem= 17179869184 cpu:       245.4
 (Enter /public3/home/sc51754/softwares/g09e01/l701.exe)
 Compute integral first derivatives.
 ... and contract with generalized density number  0.
 Leave Link  701 at Fri Aug 27 21:28:34 2021, MaxMem= 17179869184 cpu:        60.9
 (Enter /public3/home/sc51754/softwares/g09e01/l702.exe)
 L702 exits ... SP integral derivatives will be done elsewhere.
 Leave Link  702 at Fri Aug 27 21:28:34 2021, MaxMem= 17179869184 cpu:         0.3
 (Enter /public3/home/sc51754/softwares/g09e01/l703.exe)
 Compute integral first derivatives, UseDBF=F ICtDFT=           0.
 Integral derivatives from FoFJK, PRISM(SPDF).
 Calling FoFJK, ICntrl=      2127 FMM=F ISym2X=0 I1Cent= 0 IOpClX= 0 NMat=1 NMatS=1 NMatT=0.
 FoFJK:  IHMeth= 1 ICntrl=    2127 DoSepK=F KAlg= 0 I1Cent=   0 FoldK=F
 IRaf=         0 NMat=   1 IRICut=       1 DoRegI=T DoRafI=F ISym2E= 0.
 FoFCou: FMM=F IPFlag=           0 FMFlag=      100000 FMFlg1=         800
         NFxFlg=           0 DoJE=F BraDBF=F KetDBF=F FulRan=T
         wScrn=  0.000000 ICntrl=    2127 IOpCl=  0 I1Cent=           0 NGrid=           0
         NMat0=    1 NMatS0=      1 NMatT0=    0 NMatD0=    1 NMtDS0=    0 NMtDT0=    0
 Symmetry not used in FoFCou.
 Leave Link  703 at Fri Aug 27 21:28:36 2021, MaxMem= 17179869184 cpu:       146.8
 (Enter /public3/home/sc51754/softwares/g09e01/l716.exe)
 Dipole        = 9.43897896D-01 5.04054477D-01-1.50972244D-04
 ***** Axes restored to original set *****
 -------------------------------------------------------------------
 Center     Atomic                   Forces (Hartrees/Bohr)
 Number     Number              X              Y              Z
 -------------------------------------------------------------------
      1        6           0.001759821    0.000260646   -0.000021105
      2        6           0.000508440    0.000735979    0.000005642
      3        6          -0.002655405   -0.001131582   -0.000001150
      4        6           0.000361049   -0.000557654   -0.000013166
      5        6           0.001877948   -0.000165231    0.000050060
      6        7          -0.001882243   -0.000078271   -0.000010782
      7        1           0.000105021    0.000546965    0.000007770
      8        1          -0.000145311    0.000134308    0.000001702
      9        1          -0.000079299   -0.000113438   -0.000001737
     10        1           0.000064783   -0.000548083   -0.000017412
     11        8           0.000713484    0.001487460    0.000001329
     12        1          -0.000628288   -0.000571100   -0.000001151
 -------------------------------------------------------------------
 Cartesian Forces:  Max     0.002655405 RMS     0.000815821
 Leave Link  716 at Fri Aug 27 21:28:37 2021, MaxMem= 17179869184 cpu:         0.3
 (Enter /public3/home/sc51754/softwares/g09e01/l103.exe)

 GradGradGradGradGradGradGradGradGradGradGradGradGradGradGradGradGradGrad
 Berny optimization.
 Using GEDIIS/GDIIS optimizer.
 FormGI is forming the generalized inverse of G from B-inverse, IUseBI=4.
 Internal  Forces:  Max     0.001705710 RMS     0.000531827
 Search for a local minimum.
 Step number   2 out of a maximum of   61
 All quantities printed in internal units (Hartrees-Bohrs-Radians)
 RMS Force = .53183D-03 SwitMx=.10000D-02 MixMth= 2
 Mixed Optimization -- En-DIIS/RFO-DIIS
 Update second derivatives using D2CorX and points    1    2
 DE= -1.04D-03 DEPred=-1.10D-03 R= 9.47D-01
 TightC=F SS=  1.41D+00  RLast= 6.66D-02 DXNew= 5.0454D-01 1.9992D-01
 Trust test= 9.47D-01 RLast= 6.66D-02 DXMaxT set to 3.00D-01
 ITU=  1  0
 Use linear search instead of GDIIS.
[...]
    R2        2.50519   0.00002   0.00000   0.00011   0.00011   2.50530
    R3        2.05190  -0.00002   0.00000  -0.00007  -0.00007   2.05183
    R4        2.61944  -0.00000   0.00000   0.00010   0.00010   2.61954
    R5        2.04780   0.00001   0.00000   0.00003   0.00003   2.04783
    R6        2.61867  -0.00001   0.00000  -0.00005  -0.00005   2.61862
    R7        2.54416  -0.00008   0.00000  -0.00021  -0.00021   2.54395
    R8        2.60757  -0.00000   0.00000   0.00007   0.00007   2.60764
    R9        2.04235  -0.00001   0.00000  -0.00001  -0.00001   2.04234
   R10        2.51236  -0.00008   0.00000  -0.00022  -0.00022   2.51214
   R11        2.05132  -0.00001   0.00000  -0.00001  -0.00001   2.05130
   R12        1.81156   0.00007   0.00000   0.00012   0.00012   1.81168
    A1        2.16699   0.00002   0.00000   0.00005   0.00005   2.16704
    A2        2.08376  -0.00003   0.00000  -0.00011  -0.00011   2.08365
    A3        2.03244   0.00001   0.00000   0.00006   0.00006   2.03250
    A4        2.06382   0.00000   0.00000   0.00007   0.00007   2.06390
    A5        2.10747   0.00002   0.00000   0.00019   0.00019   2.10766
    A6        2.11190  -0.00002   0.00000  -0.00027  -0.00027   2.11163
    A7        2.06888  -0.00002   0.00000  -0.00012  -0.00012   2.06875
    A8        2.14862  -0.00001   0.00000  -0.00007  -0.00007   2.14855
    A9        2.06568   0.00003   0.00000   0.00019   0.00019   2.06588
   A10        2.06092   0.00000   0.00000   0.00001   0.00001   2.06093
   A11        2.09694   0.00000   0.00000   0.00010   0.00010   2.09704
   A12        2.12532  -0.00001   0.00000  -0.00010  -0.00010   2.12521
   A13        2.17078   0.00001   0.00000   0.00010   0.00010   2.17088
   A14        2.08402  -0.00003   0.00000  -0.00031  -0.00031   2.08371
   A15        2.02838   0.00002   0.00000   0.00021   0.00021   2.02859
   A16        2.03498  -0.00002   0.00000  -0.00010  -0.00010   2.03487
   A17        1.91601   0.00001   0.00000   0.00008   0.00008   1.91609
    D1        0.00007  -0.00000   0.00000  -0.00007  -0.00007  -0.00000
    D2       -3.14154  -0.00000   0.00000  -0.00005  -0.00005   3.14159
    D3        3.14156   0.00000   0.00000   0.00003   0.00003   3.14159
    D4       -0.00005   0.00000   0.00000   0.00005   0.00005  -0.00000
    D5       -0.00002   0.00000   0.00000   0.00002   0.00002   0.00000
    D6       -3.14152  -0.00000   0.00000  -0.00008  -0.00008  -3.14159
    D7       -0.00004   0.00000   0.00000   0.00004   0.00004   0.00000
    D8        3.14157   0.00000   0.00000   0.00002   0.00002  -3.14159
    D9        3.14157   0.00000   0.00000   0.00002   0.00002  -3.14159
   D10       -0.00000   0.00000   0.00000   0.00000   0.00000   0.00000
   D11       -0.00003   0.00000   0.00000   0.00003   0.00003   0.00000
   D12        3.14157   0.00000   0.00000   0.00003   0.00003  -3.14159
   D13        3.14154   0.00000   0.00000   0.00005   0.00005  -3.14159
   D14       -0.00004   0.00000   0.00000   0.00004   0.00004   0.00000
   D15       -0.00008   0.00000   0.00000   0.00007   0.00007  -0.00001
   D16        3.14154  -0.00000   0.00000   0.00005   0.00005   3.14158
   D17        0.00009  -0.00000   0.00000  -0.00009  -0.00009  -0.00000
   D18        3.14152   0.00000   0.00000   0.00007   0.00007   3.14159
   D19       -3.14151  -0.00000   0.00000  -0.00008  -0.00008   3.14159
   D20       -0.00008   0.00000   0.00000   0.00008   0.00008  -0.00000
   D21       -0.00006   0.00000   0.00000   0.00006   0.00006   0.00000
   D22       -3.14150  -0.00000   0.00000  -0.00009  -0.00009  -3.14159
         Item               Value     Threshold  Converged?
 Maximum Force            0.000076     0.000450     YES
 RMS     Force            0.000023     0.000300     YES
 Maximum Displacement     0.000393     0.001800     YES
 RMS     Displacement     0.000134     0.001200     YES
 Predicted change in Energy=-5.256593D-08
 Optimization completed.
    -- Stationary point found.
                           ----------------------------
                           !   Optimized Parameters   !
                           ! (Angstroms and Degrees)  !
 --------------------------                            --------------------------
 ! Name  Definition              Value          Derivative Info.                !
 --------------------------------------------------------------------------------
 ! R1    R(1,2)                  1.3825         -DE/DX =   -0.0001              !
 ! R2    R(1,6)                  1.3257         -DE/DX =    0.0                 !
 ! R3    R(1,7)                  1.0858         -DE/DX =    0.0                 !
 ! R4    R(2,3)                  1.3861         -DE/DX =    0.0                 !
 ! R5    R(2,8)                  1.0836         -DE/DX =    0.0                 !
 ! R6    R(3,4)                  1.3857         -DE/DX =    0.0                 !
 ! R7    R(3,11)                 1.3463         -DE/DX =   -0.0001              !
 ! R8    R(4,5)                  1.3799         -DE/DX =    0.0                 !
 ! R9    R(4,9)                  1.0808         -DE/DX =    0.0                 !
 ! R10   R(5,6)                  1.3295         -DE/DX =   -0.0001              !
 ! R11   R(5,10)                 1.0855         -DE/DX =    0.0                 !
 ! R12   R(11,12)                0.9586         -DE/DX =    0.0001              !
 ! A1    A(2,1,6)              124.1593         -DE/DX =    0.0                 !
 ! A2    A(2,1,7)              119.3906         -DE/DX =    0.0                 !
 ! A3    A(6,1,7)              116.4502         -DE/DX =    0.0                 !
 ! A4    A(1,2,3)              118.2484         -DE/DX =    0.0                 !
 ! A5    A(1,2,8)              120.7489         -DE/DX =    0.0                 !
 ! A6    A(3,2,8)              121.0027         -DE/DX =    0.0                 !
 ! A7    A(2,3,4)              118.5379         -DE/DX =    0.0                 !
 ! A8    A(2,3,11)             123.1071         -DE/DX =    0.0                 !
 ! A9    A(4,3,11)             118.355          -DE/DX =    0.0                 !
 ! A10   A(3,4,5)              118.0822         -DE/DX =    0.0                 !
 ! A11   A(3,4,9)              120.146          -DE/DX =    0.0                 !
 ! A12   A(5,4,9)              121.7718         -DE/DX =    0.0                 !
 ! A13   A(4,5,6)              124.3767         -DE/DX =    0.0                 !
 ! A14   A(4,5,10)             119.4055         -DE/DX =    0.0                 !
 ! A15   A(6,5,10)             116.2178         -DE/DX =    0.0                 !
 ! A16   A(1,6,5)              116.5955         -DE/DX =    0.0                 !
 ! A17   A(3,11,12)            109.7792         -DE/DX =    0.0                 !
 ! D1    D(6,1,2,3)              0.0038         -DE/DX =    0.0                 !
 ! D2    D(6,1,2,8)            180.0028         -DE/DX =    0.0                 !
 ! D3    D(7,1,2,3)            179.9983         -DE/DX =    0.0                 !
 ! D4    D(7,1,2,8)             -0.0027         -DE/DX =    0.0                 !
 ! D5    D(2,1,6,5)             -0.001          -DE/DX =    0.0                 !
 ! D6    D(7,1,6,5)           -179.9956         -DE/DX =    0.0                 !
 ! D7    D(1,2,3,4)             -0.0022         -DE/DX =    0.0                 !
 ! D8    D(1,2,3,11)          -180.0011         -DE/DX =    0.0                 !
 ! D9    D(8,2,3,4)           -180.0012         -DE/DX =    0.0                 !
 ! D10   D(8,2,3,11)            -0.0001         -DE/DX =    0.0                 !
 ! D11   D(2,3,4,5)             -0.0018         -DE/DX =    0.0                 !
 ! D12   D(2,3,4,9)           -180.0015         -DE/DX =    0.0                 !
 ! D13   D(11,3,4,5)          -180.0029         -DE/DX =    0.0                 !
 ! D14   D(11,3,4,9)            -0.0025         -DE/DX =    0.0                 !
 ! D15   D(2,3,11,12)           -0.0044         -DE/DX =    0.0                 !
 ! D16   D(4,3,11,12)          179.9967         -DE/DX =    0.0                 !
 ! D17   D(3,4,5,6)              0.005          -DE/DX =    0.0                 !
 ! D18   D(3,4,5,10)           179.9957         -DE/DX =    0.0                 !
 ! D19   D(9,4,5,6)            180.0046         -DE/DX =    0.0                 !
 ! D20   D(9,4,5,10)            -0.0047         -DE/DX =    0.0                 !
 ! D21   D(4,5,6,1)             -0.0036         -DE/DX =    0.0                 !
 ! D22   D(10,5,6,1)          -179.9946         -DE/DX =    0.0                 !
 --------------------------------------------------------------------------------
 GradGradGradGradGradGradGradGradGradGradGradGradGradGradGradGradGradGrad

 Leave Link  103 at Fri Aug 27 21:30:00 2021, MaxMem= 17179869184 cpu:        43.8
 (Enter /public3/home/sc51754/softwares/g09e01/l9999.exe)
 1\1\GINC-P1908\Freq\RM06\Gen\C5H5N1O1\SC51754\27-Aug-2021\0\\#P Geom=A
 llCheck Guess=TCheck SCRF=Check GenChk RM06/ChkBas Freq\\4HY_M06_PC2_O
 PT_FREQ\\0,1\C,1.1429555055,1.1448363964,0.0000180696\C,-0.2391114673,
 1.1788948019,0.0000198152\C,-0.9250523956,-0.0256354883,-0.0000144326\
 C,-0.1947882446,-1.2033384399,-0.0000960677\C,1.1821739462,-1.11381688
 14,-0.0001778489\N,1.8600718902,0.0298511053,-0.0000877111\H,1.6989770
 559,2.0774876833,0.0000170931\H,-0.770043621,2.1235664154,0.0000634629
 \H,-0.7030434691,-2.1571381547,-0.0001006378\H,1.7753739259,-2.0229075
 964,-0.0001715843\O,-2.2689272245,-0.1065825728,0.0000065072\H,-2.6469
 779015,0.7743617314,0.0001163344\\Version=EM64L-G09RevE.01\State=1-A\H
 F=-323.4248282\RMSD=3.730e-09\RMSF=4.271e-05\ZeroPoint=0.0930743\Therm
 al=0.0984179\Dipole=-0.9480446,0.5048102,0.0000913\DipoleDeriv=0.47495
 57,0.0088446,-0.0000029,-0.0296637,0.405487,0.0000196,-0.0000318,-0.00
 00069,0.0084546,-0.4566324,-0.126373,0.0000017,-0.3173078,-0.1294109,-
 0.0000008,-0.0000054,0.000012,-0.1647681,1.6666039,-0.0015381,-0.00004
 21,-0.0033477,0.35764,0.0000194,-0.0000259,0.0000199,0.1385511,-0.4590
 523,0.1310428,0.0000128,0.2884447,-0.1143775,-0.0000127,0.000018,-0.00
 00041,-0.153674,0.4933348,-0.0389729,-0.000024,0.0600235,0.4124571,0.0
 000105,0.0000219,-0.0000102,0.0058643,-0.6264641,0.0166675,0.0000134,-
 0.0192288,-0.6707388,-0.0000037,0.0000025,-0.0000302,-0.2799019,0.0380
 46,-0.0691491,-0.0000045,-0.054886,-0.0893128,-0.0000092,0.0000117,0.0
 000135,0.0929715,-0.0075625,0.0840439,0.0000064,0.0761089,-0.0382987,-
 0.0000097,0.0000006,-0.0000109,0.1452846,0.0484081,-0.0537486,0.000002
 6,-0.0489496,-0.017015,-0.0000054,0.0000083,-0.0000032,0.1443758,0.036
 0787,0.0761441,0.0000076,0.0564309,-0.0796265,-0.000012,-0.0000156,0.0
 00021,0.0947427,-1.593954,0.0302041,0.0000384,0.0280635,-0.2001278,0.0
 000192,0.0000121,0.0000153,-0.352684,0.3862381,-0.0571653,-0.0000094,-
 0.0356879,0.1633239,-0.0000152,0.0000036,-0.0000161,0.3207832\Polar=80
 .3417385,-1.3477369,75.8562369,-0.0013809,0.0022957,37.9246509\PG=C01 
 [X(C5H5N1O1)]\NImag=0\\0.68476496,0.03766841,0.73482087,-0.00001165,0.
 00002657,0.16137823,-0.33403303,-0.04147654,-0.00000132,0.70086037,0.0
 3120195,-0.13214884,-0.00000332,-0.03191380,0.72289087,0.00000124,-0.0
 0000141,-0.06404956,-0.00000717,0.00002489,0.11564841,-0.02961511,-0.0
 3356632,-0.00000045,-0.16107675,-0.11341851,-0.00000311,0.72287261,-0.
 09233576,0.05076098,0.00000486,-0.03425837,-0.29084630,-0.00000813,-0.
 01223546,0.71719742,-0.00000525,0.00000229,0.00183821,0.00000194,-0.00
 000642,-0.06777251,-0.00001652,0.00002811,0.16873285,-0.05421433,0.041
 99372,0.00000356,0.06117933,0.01987731,0.00000027,-0.16029929,0.044417
 39,0.00000424,0.71255750,0.02109627,-0.01745287,-0.00000122,-0.0168082
 2,-0.04821550,-0.00000206,0.11735047,-0.28954130,-0.00001365,0.0357657
 2,0.73367141,0.00000327,-0.00000292,-0.00681820,-0.00000367,-0.0000031
 1,0.00847275,0.00000957,-0.00001092,-0.07000599,-0.00002754,0.00002083
 ,0.12018729,0.05555172,-0.02560730,-0.00000236,-0.05193640,-0.02079053
 ,-0.00000008,-0.03583045,0.08568799,0.00000677,-0.34227937,-0.03919656
 ,0.00001476,0.69199772,0.03228666,-0.10069741,-0.00000819,-0.04344464,
 -0.01967679,-0.00000033,0.02916130,0.05654918,0.00000102,0.03141630,-0
 .13373470,-0.00000269,-0.04421746,0.72214272,0.00000109,-0.00000589,0.
 00407087,-0.00000189,-0.00000096,-0.00732789,0.00000224,0.00000120,0.0
 0196082,0.00001714,-0.00000120,-0.06438888,-0.00001081,0.00002263,0.16
 298840,-0.18450933,0.12065411,0.00001120,-0.03558527,0.03048413,0.0000
 0305,0.01217568,0.00335787,0.00000004,-0.02977746,-0.03441534,-0.00000
 097,-0.17376603,-0.11191611,-0.00000756,0.40467508,0.09041348,-0.28326
 806,-0.00001722,0.09874695,0.02978577,-0.00000259,0.00351468,-0.097123
 14,-0.00000442,-0.10011184,0.02636102,0.00000282,-0.08205549,-0.282860
 66,-0.00001442,-0.00927965,0.66041021,0.00001138,-0.00001957,-0.070283
 05,0.00000727,0.00000049,0.02280578,-0.00000034,-0.00000728,-0.0083433
 2,-0.00000409,0.00000193,0.02210926,-0.00000880,-0.00001668,-0.0703507
 0,-0.00000609,0.00004379,0.09660464,-0.13677871,-0.12470353,-0.0000006
 6,-0.01150094,-0.02653713,-0.00000022,-0.00475461,0.00181561,0.0000003
 1,-0.00060229,0.00102571,0.00000008,0.00091781,0.00478365,0.00000073,0
 .01330861,0.01808659,0.00000046,0.13948732,-0.12517726,-0.24085933,-0.
 00000036,0.00144029,0.00329561,-0.00000007,0.00133766,0.00125591,-0.00
 000017,-0.00003264,0.00022281,0.00000002,0.00247280,-0.00200342,-0.000
 00036,-0.00498593,-0.03412259,-0.00000189,0.12645454,0.27262971,0.0000
 0037,0.00000240,-0.04319290,-0.00000010,-0.00000015,0.00715780,-0.0000
 0007,-0.00000057,0.00793013,-0.00000071,0.00000043,-0.00106040,0.00000
 157,-0.00000048,0.01001913,-0.00000027,-0.00000439,-0.00294320,-0.0000
 0052,0.00000273,0.02719893,-0.00672291,0.03016967,0.00000175,-0.121103
 94,0.11644608,0.00000543,0.00719934,-0.01355021,-0.00000062,-0.0001832
 5,-0.00358519,-0.00000012,-0.00177736,-0.00206660,-0.00000015,-0.00646
 113,0.00043986,0.00000014,0.00077447,-0.00046657,0.00000003,0.12405481
 ,-0.00142041,0.00288671,0.,0.11636407,-0.26970558,-0.00001061,0.018915
 99,-0.01819027,-0.00000144,-0.00416926,-0.00322452,-0.00000019,-0.0013
 3826,0.00006710,0.00000013,-0.00035995,0.00245332,-0.00000012,0.000453
 36,0.00029443,0.00000016,-0.12781226,0.28429715,-0.00000040,0.00000027
 ,-0.00019015,0.00000574,-0.00001091,-0.03059104,0.00000116,-0.00000075
 ,0.00325283,-0.00000018,-0.00000025,0.00576844,-0.00000017,-0.00000010
 ,-0.00044387,0.00000051,-0.00000043,0.00813229,-0.00000012,0.00000008,
 -0.00337385,-0.00000636,0.00001178,0.02201021,-0.00171408,0.00191782,0
 .00000022,-0.00104207,0.00332973,0.00000056,0.01095305,0.01509237,0.00
 000030,-0.11770121,-0.11779193,0.00000123,-0.00565940,-0.02913316,-0.0
 0000133,-0.00606484,-0.00069865,0.00000071,0.00009278,-0.00025444,-0.0
 0000014,0.00044482,0.00093355,0.00000008,0.11822693,0.00130062,0.00016
 702,0.00000005,0.00383723,-0.00285591,-0.00000041,-0.01663832,-0.01864
 177,-0.00000025,-0.11600851,-0.28229239,-0.00000247,0.00139924,0.00303
 377,-0.00000014,0.00040534,0.00240486,-0.00000010,-0.00006026,-0.00001
 528,0.00000005,-0.00070882,-0.00085281,-0.00000006,0.12784930,0.296237
 61,0.00000015,-0.00000022,-0.00043315,0.00000058,-0.00000044,0.0058878
 2,-0.00000134,-0.00000207,0.00442182,0.00000042,-0.00000215,-0.0327932
 7,0.00000114,0.00000232,-0.00003446,0.00000019,-0.00000065,0.00842454,
 -0.00000009,0.00000009,-0.00142294,-0.00000008,-0.00000012,0.00016115,
 -0.00000090,0.00000289,0.02343343,0.00128315,-0.00473328,-0.00000055,-
 0.00066456,-0.00105925,-0.00000009,-0.00453128,-0.00179214,0.00000019,
 -0.01219386,0.02584621,0.00000046,-0.14672780,0.12811822,0.00000121,0.
 01346008,-0.01624523,-0.00000068,0.00029886,-0.00047582,-0.00000009,0.
 00008188,0.00006086,0.00000004,0.00084061,-0.00046670,0.00000001,0.149
 67876,-0.00233857,-0.00245017,-0.00000024,-0.00001314,0.00028076,0.,-0
 .00159910,0.00103670,0.00000010,-0.00213877,0.00431936,0.00000035,0.12
 856202,-0.23072768,-0.00000028,0.00700727,-0.03405442,-0.00000172,0.00
 051946,-0.00078939,-0.00000014,0.00026870,-0.00002527,0.00000004,0.000
 47606,0.00027724,-0.00000008,-0.13096780,0.26187004,-0.00000115,-0.000
 00061,0.00969431,0.00000042,0.00000060,-0.00099855,0.00000094,-0.00000
 027,0.00827179,0.00000183,-0.00000177,0.00735336,-0.00000132,0.0000041
 2,-0.04424291,0.,-0.00000390,-0.00263370,0.00000009,-0.00000013,0.0003
 9712,0.00000003,0.00000005,-0.00134747,-0.00000032,0.00000018,-0.00356
 533,-0.00000069,0.00000192,0.02783544,0.00728400,-0.00322764,0.0000004
 0,-0.04888164,-0.00840344,0.00000031,-0.33042886,-0.04334944,0.0000030
 4,-0.05014246,0.01407896,0.00000272,0.00916408,0.00234521,-0.00000058,
 -0.00828940,-0.00124530,0.00000014,-0.00154902,-0.00034854,-0.00000010
 ,0.00408192,0.00007452,-0.00000039,0.00152571,-0.00077217,-0.00000009,
 -0.00108085,0.00040256,0.00000008,0.52581692,0.00695312,-0.01040975,-0
 .00000101,-0.04631257,0.00332176,0.00000031,0.00823836,-0.11270921,-0.
 00000561,0.05071251,0.00717393,-0.00000168,-0.00543583,-0.01167114,-0.
 00000061,-0.00058188,0.00991692,0.00000109,-0.00164198,0.00015974,-0.0
 0000002,-0.00039233,0.00313334,0.00000046,-0.00149862,0.00223202,0.000
 00040,0.00167516,0.00018931,-0.00000018,-0.15134365,0.56981878,0.00000
 088,-0.00000068,0.00864840,-0.00000123,-0.00000089,0.01222776,0.000008
 90,-0.00000372,-0.04800226,0.00000465,-0.00000071,0.00789442,-0.000000
 27,-0.00000142,0.00598968,-0.00000015,0.00000106,-0.00341550,-0.000000
 04,0.00000005,-0.00081071,-0.00000021,0.00000029,-0.00371870,-0.000000
 36,0.00000022,-0.00355175,0.00000020,0.00000003,-0.00032821,-0.0000306
 4,0.00006427,0.03054608,-0.00129633,0.00091087,-0.00000014,0.00378489,
 0.00078346,-0.00000020,-0.02666432,0.04715015,0.00000556,-0.00634329,-
 0.00336611,0.00000021,0.00034548,0.00266662,-0.00000009,0.00083400,-0.
 00156540,-0.00000009,0.00030573,0.00003590,0.00000002,-0.00038864,-0.0
 0170220,0.00000009,0.00009770,-0.00013693,0.00000002,-0.00044500,-0.00
 017869,0.00000009,-0.10750040,0.13962772,0.00001827,0.13727018,0.00035
 150,-0.00134916,0.00000006,-0.00616126,0.00387415,0.00000038,-0.001060
 76,0.00025179,0.00000044,-0.00172192,0.00271275,-0.00000005,0.00051940
 ,-0.00042097,-0.00000012,-0.00036986,0.00009676,0.00000005,-0.00019601
 ,-0.00006819,-0.00000003,0.00125766,-0.00113358,-0.00000012,-0.0002220
 5,0.00030564,0.00000002,0.00003977,0.00007352,-0.00000002,0.19178893,-
 0.46115570,-0.00005850,-0.18422539,0.45681300,0.00000007,-0.00000025,-
 0.00066301,-0.00000056,0.00000022,-0.00146077,-0.00000097,-0.00000047,
 -0.00228436,0.00000039,-0.00000020,0.00328122,-0.00000043,-0.00000021,
 0.00175983,0.00000006,0.00000035,-0.00010705,-0.00000004,0.,0.00010088
 ,0.00000015,0.00000007,0.00034015,-0.00000002,0.00000005,-0.00052785,-
 0.00000001,0.00000002,-0.00043584,0.00002510,-0.00005745,-0.00547921,-
 0.00002374,0.00005788,0.00547602\\0.00005390,0.00000877,0.00001006,-0.
 00010959,-0.00002229,-0.00000329,0.00009549,0.00002195,0.00000240,0.00
 000448,-0.00000129,0.00000348,-0.00004802,-0.00007575,-0.00001655,0.00
 001233,0.00009893,0.00000238,0.00000675,0.00002838,-0.00000350,0.00000
 462,-0.00000224,-0.00000053,0.00001322,-0.00000870,0.00000118,0.000046
 29,0.00002192,0.00000545,-0.00010327,0.00001375,-0.00000135,0.00002380
 ,-0.00008343,0.00000026\\\@


 LET US LEARN TO DREAM, GENTLEMEN, THEN PERHAPS WE SHALL
 DISCOVER THE TRUTH;  BUT LET US BEWARE OF PUBLISHING
 OUR DREAMS ABROAD BEFORE THEY HAVE BEEN SCRUTINIZED
 BY OUR VIGILANT INTELLECT ... LET US ALWAYS ALLOW
 THE FRUIT TO HANG UNTIL IT IS RIPE.  UNRIPE FRUIT
 BRINGS EVEN THE GROWER BUT LITTLE PROFIT; IT DAMAGES
 THE HEALTH OF THOSE WHO CONSUME IT; IT ENDANGERS
 PARTICULARLY THE YOUTH WHO CANNOT YET DISTINGUISH
 BETWEEN RIPE AND UNRIPE FRUIT.

                                  -- KEKULE, 1890
 Job cpu time:       0 days  0 hours 48 minutes 48.8 seconds.
 File lengths (MBytes):  RWF=     79 Int=      0 D2E=      0 Chk=      7 Scr=      1
 Normal termination of Gaussian 09 at Fri Aug 27 21:30:00 2021.
