 Entering Gaussian System, Link 0=g09
 AtFile(1): pc-2.gbs
            -H     0
            S    4   1.00
                  0.754230D+02           0.240650D-02
                  0.113500D+02           0.184870D-01
                  0.259930D+01           0.897420D-01
                  0.735130D+00           0.281110D+00
            S    1   1.00
                  0.231670D+00           0.100000D+01
            S    1   1.00
                  0.741470D-01           0.100000D+01
            P    1   1.00
                  0.160000D+01           0.100000D+01
            P    1   1.00
                  0.450000D+00           0.100000D+01
            D    1   1.00
                  0.125000D+01           0.100000D+01
            ****
            -C     0
            S    7   1.00
                  0.785710D+04           0.568250D-03
                  0.117870D+04           0.439150D-02
                  0.268320D+03           0.225040D-01
                  0.759480D+02           0.866530D-01
                  0.245590D+02           0.244050D+00
                  0.862120D+01           0.441480D+00
                  0.312780D+01           0.353320D+00
            S    7   1.00
                  0.117870D+04          -0.594920D-06
                  0.268320D+03          -0.627480D-04
                  0.759480D+02          -0.757730D-03
                  0.245590D+02          -0.733080D-02
                  0.862120D+01          -0.389320D-01
                  0.312780D+01          -0.889080D-01
                  0.822020D+00           0.216890D+00
            S    1   1.00
                  0.330170D+00           0.100000D+01
            S    1   1.00
                  0.114630D+00           0.100000D+01
            P    4   1.00
                  0.337750D+02           0.602940D-02
                  0.767660D+01           0.432280D-01
                  0.223570D+01           0.163010D+00
                  0.764470D+00           0.365040D+00
            P    1   1.00
                  0.262320D+00           0.100000D+01
            P    1   1.00
                  0.846380D-01           0.100000D+01
            D    1   1.00
                  0.140000D+01           0.100000D+01
            D    1   1.00
                  0.450000D+00           0.100000D+01
            F    1   1.00
                  0.950000D+00           0.100000D+01
            ****
            -N     0
            S    7   1.00
                  0.111010D+05           0.545700D-03
                  0.166530D+04           0.421810D-02
                  0.379080D+03           0.216450D-01
                  0.107300D+03           0.837760D-01
                  0.347470D+02           0.238810D+00
                  0.122490D+02           0.439940D+00
                  0.447430D+01           0.363640D+00
            S    7   1.00
                  0.166530D+04          -0.150060D-05
                  0.379080D+03          -0.587530D-04
                  0.107300D+03          -0.774530D-03
                  0.347470D+02          -0.721610D-02
                  0.122490D+02          -0.393380D-01
                  0.447430D+01          -0.906110D-01
                  0.124040D+01           0.198820D+00
            S    1   1.00
                  0.487430D+00           0.100000D+01
            S    1   1.00
                  0.164840D+00           0.100000D+01
            P    4   1.00
                  0.479340D+02           0.617060D-02
                  0.109990D+02           0.442600D-01
                  0.324720D+01           0.168250D+00
                  0.111140D+01           0.368480D+00
            P    1   1.00
                  0.379880D+00           0.100000D+01
            P    1   1.00
                  0.120680D+00           0.100000D+01
            D    1   1.00
                  0.180000D+01           0.100000D+01
            D    1   1.00
                  0.550000D+00           0.100000D+01
            F    1   1.00
                  0.102000D+01           0.100000D+01
            ****
            -O     0
            S    7   1.00
                  0.147820D+05           0.535190D-03
                  0.221730D+04           0.413750D-02
                  0.504740D+03           0.212450D-01
                  0.142870D+03           0.824530D-01
                  0.463000D+02           0.236710D+00
                  0.163370D+02           0.440390D+00
                  0.598280D+01           0.364650D+00
            S    7   1.00
                  0.221730D+04          -0.192750D-05
                  0.504740D+03          -0.579640D-04
                  0.142870D+03          -0.794940D-03
                  0.463000D+02          -0.731250D-02
                  0.163370D+02          -0.405740D-01
                  0.598280D+01          -0.915940D-01
                  0.167180D+01           0.209400D+00
            S    1   1.00
                  0.646620D+00           0.100000D+01
            S    1   1.00
                  0.216690D+00           0.100000D+01
            P    4   1.00
                  0.604240D+02           0.689490D-02
                  0.139350D+02           0.490050D-01
                  0.415310D+01           0.182550D+00
                  0.141580D+01           0.376330D+00
            P    1   1.00
                  0.475490D+00           0.100000D+01
            P    1   1.00
                  0.145290D+00           0.100000D+01
            D    1   1.00
                  0.220000D+01           0.100000D+01
            D    1   1.00
                  0.650000D+00           0.100000D+01
            F    1   1.00
                  0.110000D+01           0.100000D+01
            ****
 Initial command:
 /gpfs/share/home/1801110325/software/g09e01/l1.exe "./Gau-17093.inp" -scrdir="./"
 Entering Link 1 = /gpfs/share/home/1801110325/software/g09e01/l1.exe PID=     17094.
  
 Copyright (c) 1988,1990,1992,1993,1995,1998,2003,2009,2015,
            Gaussian, Inc.  All Rights Reserved.
  
 This is part of the Gaussian(R) 09 program.  It is based on
 the Gaussian(R) 03 system (copyright 2003, Gaussian, Inc.),
 the Gaussian(R) 98 system (copyright 1998, Gaussian, Inc.),
 the Gaussian(R) 94 system (copyright 1995, Gaussian, Inc.),
 the Gaussian 92(TM) system (copyright 1992, Gaussian, Inc.),
 the Gaussian 90(TM) system (copyright 1990, Gaussian, Inc.),
 the Gaussian 88(TM) system (copyright 1988, Gaussian, Inc.),
 the Gaussian 86(TM) system (copyright 1986, Carnegie Mellon
 University), and the Gaussian 82(TM) system (copyright 1983,
 Carnegie Mellon University). Gaussian is a federally registered
 trademark of Gaussian, Inc.
  
 This software contains proprietary and confidential information,
 including trade secrets, belonging to Gaussian, Inc.
  
 This software is provided under written license and may be
 used, copied, transmitted, or stored only in accord with that
 written license.
  
 The following legend is applicable only to US Government
 contracts under FAR:
  
                    RESTRICTED RIGHTS LEGEND
  
 Use, reproduction and disclosure by the US Government is
 subject to restrictions as set forth in subparagraphs (a)
 and (c) of the Commercial Computer Software - Restricted
 Rights clause in FAR 52.227-19.
  
 Gaussian, Inc.
 340 Quinnipiac St., Bldg. 40, Wallingford CT 06492
  
  
 ---------------------------------------------------------------
 Warning -- This program may not be used in any manner that
 competes with the business of Gaussian, Inc. or will provide
 assistance to any competitor of Gaussian, Inc.  The licensee
 of this program is prohibited from giving any competitor of
 Gaussian, Inc. access to this program.  By using this program,
 the user acknowledges that Gaussian, Inc. is engaged in the
 business of creating and licensing software in the field of
 computational chemistry and represents and warrants to the
 licensee that it is not a competitor of Gaussian, Inc. and that
 it will not use this program in any manner prohibited above.
 ---------------------------------------------------------------
  

 Cite this work as:
 Gaussian 09, Revision E.01,
 M. J. Frisch, G. W. Trucks, H. B. Schlegel, G. E. Scuseria, 
 M. A. Robb, J. R. Cheeseman, G. Scalmani, V. Barone, B. Mennucci, 
 G. A. Petersson, H. Nakatsuji, M. Caricato, X. Li, H. P. Hratchian, 
 A. F. Izmaylov, J. Bloino, G. Zheng, J. L. Sonnenberg, M. Hada, 
 M. Ehara, K. Toyota, R. Fukuda, J. Hasegawa, M. Ishida, T. Nakajima, 
 Y. Honda, O. Kitao, H. Nakai, T. Vreven, J. A. Montgomery, Jr., 
 J. E. Peralta, F. Ogliaro, M. Bearpark, J. J. Heyd, E. Brothers, 
 K. N. Kudin, V. N. Staroverov, T. Keith, R. Kobayashi, J. Normand, 
 K. Raghavachari, A. Rendell, J. C. Burant, S. S. Iyengar, J. Tomasi, 
 M. Cossi, N. Rega, J. M. Millam, M. Klene, J. E. Knox, J. B. Cross, 
 V. Bakken, C. Adamo, J. Jaramillo, R. Gomperts, R. E. Stratmann, 
 O. Yazyev, A. J. Austin, R. Cammi, C. Pomelli, J. W. Ochterski, 
 R. L. Martin, K. Morokuma, V. G. Zakrzewski, G. A. Voth, 
 P. Salvador, J. J. Dannenberg, S. Dapprich, A. D. Daniels, 
 O. Farkas, J. B. Foresman, J. V. Ortiz, J. Cioslowski, 
 and D. J. Fox, Gaussian, Inc., Wallingford CT, 2013.
 
 ******************************************
 Gaussian 09:  EM64L-G09RevE.01 30-Nov-2015
                 3-Sep-2021 
 ******************************************
 %nprocshared=32
 Will use up to   32 processors via shared memory.
 %mem=110GB
 %oldchk=HY_TPSSh_PC2_OPT_FREQ.chk
 %chk=HY_CCSD_PC2_OPT_FREQ.chk
 Copying data from "HY_TPSSh_PC2_OPT_FREQ.chk" to current chk file "HY_CCSD_PC2_OPT_FREQ.chk".
 ----------------------------------------------------------------------
 #p opt freq CCSD/gen SCF(novaracc,noincfock) int=acc2e=12 geom=checkpo
 int
 ----------------------------------------------------------------------
 1/18=20,19=15,29=2,38=1/1,3;
 2/9=110,12=2,40=1/2;
 3/5=7,11=9,14=-4,16=1,25=1,30=1,71=1/1,2,3;
 4//1;
 5/5=100002,38=1,87=12/2;
 8/6=4,9=120000,10=1,87=12/1,4;
 9/5=7,15=1,87=12/13;
 11/28=-8,29=200,42=3,87=12/11;
 10/5=6,87=12/2;
 6/7=2,8=2,9=2,10=2/1;
 7/12=7,87=12/1,2,3,16;
 1/18=20,19=15/3(2);
 2/9=110/2;
 99//99;
 2/9=110/2;
 3/5=7,6=1,11=9,14=-2,16=1,25=1,30=1,71=1,82=7/1,2,3;
 4/5=5,16=3,69=1/1;
 5/5=100002,38=1,87=12/2;
 8/6=4,9=120000,10=1,87=12/1,4;
 9/5=7,15=1,87=12/13;
 11/28=-8,29=200,42=3,87=12/11;
 10/5=6,87=12/2;
 7/12=7,87=12/1,2,3,16;
 1/18=20,19=15/3(-9);
 2/9=110/2;
 6/7=2,8=2,9=2,10=2/1;
 99//99;
 Leave Link    1 at Fri Sep  3 10:23:31 2021, MaxMem= 14763950080 cpu:        90.1
 (Enter /gpfs/share/home/1801110325/software/g09e01/l101.exe)
 --------------------
 HY_CCSD_PC2_OPT_FREQ
 --------------------
 Structure from the checkpoint file:  "HY_CCSD_PC2_OPT_FREQ.chk"
 Charge =  0 Multiplicity = 1
 Redundant internal coordinates found in file.
 O,0,0.0050582573,2.2557666567,0.
 N,0,-1.178119033,0.3000545726,0.
 C,0,0.0032151446,0.901795404,0.
 C,0,1.2274861595,0.2273262928,0.
 C,0,-1.1904057903,-1.0393274121,0.
 C,0,1.1901579166,-1.1550730382,0.
 C,0,-0.0410835857,-1.8125205382,0.
 H,0,-0.9264697479,2.5229148635,0.
 H,0,2.1546862383,0.7829438462,0.
 H,0,-2.1721240456,-1.4999091889,0.
 H,0,2.1142338168,-1.7199757444,0.
 H,0,-0.1038543305,-2.8920957141,0.
 Recover connectivity data from disk.
 NAtoms=     12 NQM=       12 NQMF=       0 NMMI=      0 NMMIF=      0
                NMic=       0 NMicF=      0.
                    Isotopes and Nuclear Properties:
 (Nuclear quadrupole moments (NQMom) in fm**2, nuclear magnetic moments (NMagM)
  in nuclear magnetons)

  Atom         1           2           3           4           5           6           7           8           9          10
 IAtWgt=          16          14          12          12          12          12          12           1           1           1
 AtmWgt=  15.9949146  14.0030740  12.0000000  12.0000000  12.0000000  12.0000000  12.0000000   1.0078250   1.0078250   1.0078250
 NucSpn=           0           2           0           0           0           0           0           1           1           1
 AtZEff=  -5.6000000  -4.5500000  -3.6000000  -3.6000000  -3.6000000  -3.6000000  -3.6000000  -1.0000000  -1.0000000  -1.0000000
 NQMom=    0.0000000   2.0440000   0.0000000   0.0000000   0.0000000   0.0000000   0.0000000   0.0000000   0.0000000   0.0000000
 NMagM=    0.0000000   0.4037610   0.0000000   0.0000000   0.0000000   0.0000000   0.0000000   2.7928460   2.7928460   2.7928460
 AtZNuc=   8.0000000   7.0000000   6.0000000   6.0000000   6.0000000   6.0000000   6.0000000   1.0000000   1.0000000   1.0000000

  Atom        11          12
 IAtWgt=           1           1
 AtmWgt=   1.0078250   1.0078250
 NucSpn=           1           1
 AtZEff=  -1.0000000  -1.0000000
 NQMom=    0.0000000   0.0000000
 NMagM=    2.7928460   2.7928460
 AtZNuc=   1.0000000   1.0000000
 Leave Link  101 at Fri Sep  3 10:23:32 2021, MaxMem= 14763950080 cpu:        13.8
 (Enter /gpfs/share/home/1801110325/software/g09e01/l103.exe)

 GradGradGradGradGradGradGradGradGradGradGradGradGradGradGradGradGradGrad
 Berny optimization.
 Initialization pass.
                           ----------------------------
                           !    Initial Parameters    !
                           ! (Angstroms and Degrees)  !
 --------------------------                            --------------------------
 ! Name  Definition              Value          Derivative Info.                !
 --------------------------------------------------------------------------------
 ! R1    R(1,3)                  1.354          estimate D2E/DX2                !
 ! R2    R(1,8)                  0.9691         estimate D2E/DX2                !
 ! R3    R(2,3)                  1.3258         estimate D2E/DX2                !
 ! R4    R(2,5)                  1.3394         estimate D2E/DX2                !
 ! R5    R(3,4)                  1.3978         estimate D2E/DX2                !
 ! R6    R(4,6)                  1.3829         estimate D2E/DX2                !
 ! R7    R(4,9)                  1.0809         estimate D2E/DX2                !
 ! R8    R(5,7)                  1.3852         estimate D2E/DX2                !
 ! R9    R(5,10)                 1.0844         estimate D2E/DX2                !
 ! R10   R(6,7)                  1.3958         estimate D2E/DX2                !
 ! R11   R(6,11)                 1.0831         estimate D2E/DX2                !
 ! R12   R(7,12)                 1.0814         estimate D2E/DX2                !
 ! A1    A(3,1,8)              105.9241         estimate D2E/DX2                !
 ! A2    A(3,2,5)              117.5187         estimate D2E/DX2                !
 ! A3    A(1,3,2)              117.0711         estimate D2E/DX2                !
 ! A4    A(1,3,4)              118.773          estimate D2E/DX2                !
 ! A5    A(2,3,4)              124.1559         estimate D2E/DX2                !
 ! A6    A(3,4,6)              117.3043         estimate D2E/DX2                !
 ! A7    A(3,4,9)              120.2172         estimate D2E/DX2                !
 ! A8    A(6,4,9)              122.4786         estimate D2E/DX2                !
 ! A9    A(2,5,7)              123.4046         estimate D2E/DX2                !
 ! A10   A(2,5,10)             115.6596         estimate D2E/DX2                !
 ! A11   A(7,5,10)             120.9357         estimate D2E/DX2                !
 ! A12   A(4,6,7)              119.6477         estimate D2E/DX2                !
 ! A13   A(4,6,11)             119.8914         estimate D2E/DX2                !
 ! A14   A(7,6,11)             120.4609         estimate D2E/DX2                !
 ! A15   A(5,7,6)              117.9688         estimate D2E/DX2                !
 ! A16   A(5,7,12)             120.6026         estimate D2E/DX2                !
 ! A17   A(6,7,12)             121.4286         estimate D2E/DX2                !
 ! D1    D(8,1,3,2)              0.0            estimate D2E/DX2                !
 ! D2    D(8,1,3,4)            180.0            estimate D2E/DX2                !
 ! D3    D(5,2,3,1)            180.0            estimate D2E/DX2                !
 ! D4    D(5,2,3,4)              0.0            estimate D2E/DX2                !
 ! D5    D(3,2,5,7)              0.0            estimate D2E/DX2                !
 ! D6    D(3,2,5,10)           180.0            estimate D2E/DX2                !
 ! D7    D(1,3,4,6)            180.0            estimate D2E/DX2                !
 ! D8    D(1,3,4,9)              0.0            estimate D2E/DX2                !
 ! D9    D(2,3,4,6)              0.0            estimate D2E/DX2                !
 ! D10   D(2,3,4,9)            180.0            estimate D2E/DX2                !
 ! D11   D(3,4,6,7)              0.0            estimate D2E/DX2                !
 ! D12   D(3,4,6,11)           180.0            estimate D2E/DX2                !
 ! D13   D(9,4,6,7)            180.0            estimate D2E/DX2                !
 ! D14   D(9,4,6,11)             0.0            estimate D2E/DX2                !
 ! D15   D(2,5,7,6)              0.0            estimate D2E/DX2                !
 ! D16   D(2,5,7,12)           180.0            estimate D2E/DX2                !
 ! D17   D(10,5,7,6)           180.0            estimate D2E/DX2                !
 ! D18   D(10,5,7,12)            0.0            estimate D2E/DX2                !
 ! D19   D(4,6,7,5)              0.0            estimate D2E/DX2                !
 ! D20   D(4,6,7,12)           180.0            estimate D2E/DX2                !
 ! D21   D(11,6,7,5)           180.0            estimate D2E/DX2                !
 ! D22   D(11,6,7,12)            0.0            estimate D2E/DX2                !
 --------------------------------------------------------------------------------
 Trust Radius=3.00D-01 FncErr=1.00D-07 GrdErr=1.00D-07
 Number of steps in this run=     61 maximum allowed number of steps=    100.
 GradGradGradGradGradGradGradGradGradGradGradGradGradGradGradGradGradGrad

 Leave Link  103 at Fri Sep  3 10:23:32 2021, MaxMem= 14763950080 cpu:         5.1
 (Enter /gpfs/share/home/1801110325/software/g09e01/l202.exe)
                          Input orientation:                          
 ---------------------------------------------------------------------
 Center     Atomic      Atomic             Coordinates (Angstroms)
 Number     Number       Type             X           Y           Z
 ---------------------------------------------------------------------
      1          8           0        0.005058    2.255767   -0.000000
      2          7           0       -1.178119    0.300055   -0.000000
      3          6           0        0.003215    0.901795   -0.000000
      4          6           0        1.227486    0.227326    0.000000
      5          6           0       -1.190406   -1.039327   -0.000000
      6          6           0        1.190158   -1.155073    0.000000
      7          6           0       -0.041084   -1.812521    0.000000
      8          1           0       -0.926470    2.522915   -0.000000
      9          1           0        2.154686    0.782944    0.000000
     10          1           0       -2.172124   -1.499909   -0.000000
     11          1           0        2.114234   -1.719976    0.000000
     12          1           0       -0.103854   -2.892096    0.000000
 ---------------------------------------------------------------------
                    Distance matrix (angstroms):
                    1          2          3          4          5
     1  O    0.000000
     2  N    2.285764   0.000000
     3  C    1.353973   1.325761   0.000000
     4  C    2.368312   2.406704   1.397765   0.000000
     5  C    3.505250   1.339438   2.278747   2.729581   0.000000
     6  C    3.610857   2.779592   2.374772   1.382903   2.383376
     7  C    4.068549   2.399130   2.714677   2.402133   1.385196
     8  H    0.969078   2.237060   1.868781   3.147897   3.572007
     9  H    2.605783   3.367606   2.154751   1.080931   3.809241
    10  H    4.341109   2.056190   3.240414   3.813226   1.084392
    11  H    4.500572   3.862656   3.366019   2.139698   3.374007
    12  H    5.149014   3.368066   3.795402   3.391646   2.147870
                    6          7          8          9         10
     6  C    0.000000
     7  C    1.395777   0.000000
     8  H    4.243549   4.424919   0.000000
     9  H    2.164769   3.399682   3.538506   0.000000
    10  H    3.379919   2.153848   4.211267   4.892106   0.000000
    11  H    1.083066   2.157303   5.219962   2.503246   4.292003
    12  H    2.166037   1.081399   5.477138   4.313574   2.493175
                   11         12
    11  H    0.000000
    12  H    2.508741   0.000000
 Stoichiometry    C5H5NO
 Framework group  CS[SG(C5H5NO)]
 Deg. of freedom    21
 Full point group                 CS      NOp   2
 RotChk:  IX=0 Diff= 4.12D-32
 Largest Abelian subgroup         CS      NOp   2
 Largest concise Abelian subgroup C1      NOp   1
                         Standard orientation:                         
 ---------------------------------------------------------------------
 Center     Atomic      Atomic             Coordinates (Angstroms)
 Number     Number       Type             X           Y           Z
 ---------------------------------------------------------------------
      1          8           0       -0.003103    2.254298    0.000000
      2          7           0       -1.179128    0.294278    0.000000
      3          6           0       -0.000000    0.900329    0.000000
      4          6           0        1.226727    0.230337    0.000000
      5          6           0       -1.186523   -1.045140    0.000000
      6          6           0        1.194448   -1.152190    0.000000
      7          6           0       -0.034384   -1.814130    0.000000
      8          1           0       -0.935600    2.518042    0.000000
      9          1           0        2.151891    0.789337    0.000000
     10          1           0       -2.166552   -1.509305    0.000000
     11          1           0        2.120581   -1.713713    0.000000
     12          1           0       -0.093211   -2.893927    0.000000
 ---------------------------------------------------------------------
 Rotational constants (GHZ):      5.8589019      2.7748139      1.8830088
 Leave Link  202 at Fri Sep  3 10:23:32 2021, MaxMem= 14763950080 cpu:         6.0
 (Enter /gpfs/share/home/1801110325/software/g09e01/l301.exe)
 General basis read from cards:  (5D, 7F)
 Centers:       8      9     10     11     12
 S 4 1.00
     Exponent=  7.5423000000D+01 Coefficients=  2.4065000000D-03
     Exponent=  1.1350000000D+01 Coefficients=  1.8487000000D-02
     Exponent=  2.5993000000D+00 Coefficients=  8.9742000000D-02
     Exponent=  7.3513000000D-01 Coefficients=  2.8111000000D-01
 S 1 1.00
     Exponent=  2.3167000000D-01 Coefficients=  1.0000000000D+00
 S 1 1.00
     Exponent=  7.4147000000D-02 Coefficients=  1.0000000000D+00
 P 1 1.00
     Exponent=  1.6000000000D+00 Coefficients=  1.0000000000D+00
 P 1 1.00
     Exponent=  4.5000000000D-01 Coefficients=  1.0000000000D+00
 D 1 1.00
     Exponent=  1.2500000000D+00 Coefficients=  1.0000000000D+00
 ****
 Centers:       3      4      5      6      7
 S 7 1.00
     Exponent=  7.8571000000D+03 Coefficients=  5.6825000000D-04
     Exponent=  1.1787000000D+03 Coefficients=  4.3915000000D-03
     Exponent=  2.6832000000D+02 Coefficients=  2.2504000000D-02
     Exponent=  7.5948000000D+01 Coefficients=  8.6653000000D-02
     Exponent=  2.4559000000D+01 Coefficients=  2.4405000000D-01
     Exponent=  8.6212000000D+00 Coefficients=  4.4148000000D-01
     Exponent=  3.1278000000D+00 Coefficients=  3.5332000000D-01
 S 7 1.00
     Exponent=  1.1787000000D+03 Coefficients= -5.9492000000D-07
     Exponent=  2.6832000000D+02 Coefficients= -6.2748000000D-05
     Exponent=  7.5948000000D+01 Coefficients= -7.5773000000D-04
     Exponent=  2.4559000000D+01 Coefficients= -7.3308000000D-03
     Exponent=  8.6212000000D+00 Coefficients= -3.8932000000D-02
     Exponent=  3.1278000000D+00 Coefficients= -8.8908000000D-02
     Exponent=  8.2202000000D-01 Coefficients=  2.1689000000D-01
 S 1 1.00
     Exponent=  3.3017000000D-01 Coefficients=  1.0000000000D+00
 S 1 1.00
     Exponent=  1.1463000000D-01 Coefficients=  1.0000000000D+00
 P 4 1.00
     Exponent=  3.3775000000D+01 Coefficients=  6.0294000000D-03
     Exponent=  7.6766000000D+00 Coefficients=  4.3228000000D-02
     Exponent=  2.2357000000D+00 Coefficients=  1.6301000000D-01
     Exponent=  7.6447000000D-01 Coefficients=  3.6504000000D-01
 P 1 1.00
     Exponent=  2.6232000000D-01 Coefficients=  1.0000000000D+00
 P 1 1.00
     Exponent=  8.4638000000D-02 Coefficients=  1.0000000000D+00
 D 1 1.00
     Exponent=  1.4000000000D+00 Coefficients=  1.0000000000D+00
 D 1 1.00
     Exponent=  4.5000000000D-01 Coefficients=  1.0000000000D+00
 F 1 1.00
     Exponent=  9.5000000000D-01 Coefficients=  1.0000000000D+00
 ****
 Centers:       2
 S 7 1.00
     Exponent=  1.1101000000D+04 Coefficients=  5.4570000000D-04
     Exponent=  1.6653000000D+03 Coefficients=  4.2181000000D-03
     Exponent=  3.7908000000D+02 Coefficients=  2.1645000000D-02
     Exponent=  1.0730000000D+02 Coefficients=  8.3776000000D-02
     Exponent=  3.4747000000D+01 Coefficients=  2.3881000000D-01
     Exponent=  1.2249000000D+01 Coefficients=  4.3994000000D-01
     Exponent=  4.4743000000D+00 Coefficients=  3.6364000000D-01
 S 7 1.00
     Exponent=  1.6653000000D+03 Coefficients= -1.5006000000D-06
     Exponent=  3.7908000000D+02 Coefficients= -5.8753000000D-05
     Exponent=  1.0730000000D+02 Coefficients= -7.7453000000D-04
     Exponent=  3.4747000000D+01 Coefficients= -7.2161000000D-03
     Exponent=  1.2249000000D+01 Coefficients= -3.9338000000D-02
     Exponent=  4.4743000000D+00 Coefficients= -9.0611000000D-02
     Exponent=  1.2404000000D+00 Coefficients=  1.9882000000D-01
 S 1 1.00
     Exponent=  4.8743000000D-01 Coefficients=  1.0000000000D+00
 S 1 1.00
     Exponent=  1.6484000000D-01 Coefficients=  1.0000000000D+00
 P 4 1.00
     Exponent=  4.7934000000D+01 Coefficients=  6.1706000000D-03
     Exponent=  1.0999000000D+01 Coefficients=  4.4260000000D-02
     Exponent=  3.2472000000D+00 Coefficients=  1.6825000000D-01
     Exponent=  1.1114000000D+00 Coefficients=  3.6848000000D-01
 P 1 1.00
     Exponent=  3.7988000000D-01 Coefficients=  1.0000000000D+00
 P 1 1.00
     Exponent=  1.2068000000D-01 Coefficients=  1.0000000000D+00
 D 1 1.00
     Exponent=  1.8000000000D+00 Coefficients=  1.0000000000D+00
 D 1 1.00
     Exponent=  5.5000000000D-01 Coefficients=  1.0000000000D+00
 F 1 1.00
     Exponent=  1.0200000000D+00 Coefficients=  1.0000000000D+00
 ****
 Centers:       1
 S 7 1.00
     Exponent=  1.4782000000D+04 Coefficients=  5.3519000000D-04
     Exponent=  2.2173000000D+03 Coefficients=  4.1375000000D-03
     Exponent=  5.0474000000D+02 Coefficients=  2.1245000000D-02
     Exponent=  1.4287000000D+02 Coefficients=  8.2453000000D-02
     Exponent=  4.6300000000D+01 Coefficients=  2.3671000000D-01
     Exponent=  1.6337000000D+01 Coefficients=  4.4039000000D-01
     Exponent=  5.9828000000D+00 Coefficients=  3.6465000000D-01
 S 7 1.00
     Exponent=  2.2173000000D+03 Coefficients= -1.9275000000D-06
     Exponent=  5.0474000000D+02 Coefficients= -5.7964000000D-05
     Exponent=  1.4287000000D+02 Coefficients= -7.9494000000D-04
     Exponent=  4.6300000000D+01 Coefficients= -7.3125000000D-03
     Exponent=  1.6337000000D+01 Coefficients= -4.0574000000D-02
     Exponent=  5.9828000000D+00 Coefficients= -9.1594000000D-02
     Exponent=  1.6718000000D+00 Coefficients=  2.0940000000D-01
 S 1 1.00
     Exponent=  6.4662000000D-01 Coefficients=  1.0000000000D+00
 S 1 1.00
     Exponent=  2.1669000000D-01 Coefficients=  1.0000000000D+00
 P 4 1.00
     Exponent=  6.0424000000D+01 Coefficients=  6.8949000000D-03
     Exponent=  1.3935000000D+01 Coefficients=  4.9005000000D-02
     Exponent=  4.1531000000D+00 Coefficients=  1.8255000000D-01
     Exponent=  1.4158000000D+00 Coefficients=  3.7633000000D-01
 P 1 1.00
     Exponent=  4.7549000000D-01 Coefficients=  1.0000000000D+00
 P 1 1.00
     Exponent=  1.4529000000D-01 Coefficients=  1.0000000000D+00
 D 1 1.00
     Exponent=  2.2000000000D+00 Coefficients=  1.0000000000D+00
 D 1 1.00
     Exponent=  6.5000000000D-01 Coefficients=  1.0000000000D+00
 F 1 1.00
     Exponent=  1.1000000000D+00 Coefficients=  1.0000000000D+00
 ****
 Ernie: Thresh=  0.10000D-02 Tol=  0.10000D-05 Strict=F.
 Ernie:  7 primitive shells out of 220 were deleted.
 There are   223 symmetry adapted cartesian basis functions of A'  symmetry.
 There are    97 symmetry adapted cartesian basis functions of A"  symmetry.
 There are   190 symmetry adapted basis functions of A'  symmetry.
 There are    90 symmetry adapted basis functions of A"  symmetry.
   280 basis functions,   475 primitive gaussians,   320 cartesian basis functions
    25 alpha electrons       25 beta electrons
       nuclear repulsion energy       276.0292508318 Hartrees.
 IExCor=    0 DFT=F Ex=HF Corr=None ExCW=0 ScaHFX=  1.000000
 ScaDFX=  1.000000  1.000000  1.000000  1.000000 ScalE2=  1.000000  1.000000
 IRadAn=      0 IRanWt=     -1 IRanGd=            0 ICorTp=0 IEmpDi=  4
 NAtoms=   12 NActive=   12 NUniq=   12 SFac= 1.00D+00 NAtFMM=   60 NAOKFM=F Big=F
 Integral buffers will be    131072 words long.
 Raffenetti 1 integral format.
 Two-electron integral symmetry is turned on.
 Leave Link  301 at Fri Sep  3 10:23:33 2021, MaxMem= 14763950080 cpu:        16.1
 (Enter /gpfs/share/home/1801110325/software/g09e01/l302.exe)
 NPDir=0 NMtPBC=     1 NCelOv=     1 NCel=       1 NClECP=     1 NCelD=      1
         NCelK=      1 NCelE2=     1 NClLst=     1 CellRange=     0.0.
 One-electron integrals computed using PRISM.
 NBasis=   280 RedAO= T EigKep=  2.23D-04  NBF=   190    90
 NBsUse=   280 1.00D-06 EigRej= -1.00D+00 NBFU=   190    90
 Leave Link  302 at Fri Sep  3 10:23:34 2021, MaxMem= 14763950080 cpu:        15.6
 (Enter /gpfs/share/home/1801110325/software/g09e01/l303.exe)
 DipDrv:  MaxL=1.
 Leave Link  303 at Fri Sep  3 10:23:34 2021, MaxMem= 14763950080 cpu:         2.7
 (Enter /gpfs/share/home/1801110325/software/g09e01/l401.exe)
 ExpMin= 7.41D-02 ExpMax= 1.48D+04 ExpMxC= 5.05D+02 IAcc=2 IRadAn=         4 AccDes= 0.00D+00
 Harris functional with IExCor=  205 and IRadAn=       4 diagonalized for initial guess.
 HarFok:  IExCor=  205 AccDes= 0.00D+00 IRadAn=         4 IDoV= 1 UseB2=F ITyADJ=14
 ICtDFT=  3500011 ScaDFX=  1.000000  1.000000  1.000000  1.000000
 FoFCou: FMM=F IPFlag=           0 FMFlag=      100000 FMFlg1=           0
         NFxFlg=           0 DoJE=T BraDBF=F KetDBF=T FulRan=T
         wScrn=  0.000000 ICntrl=     500 IOpCl=  0 I1Cent=   200000004 NGrid=           0
         NMat0=    1 NMatS0=      1 NMatT0=    0 NMatD0=    1 NMtDS0=    0 NMtDT0=    0
 Petite list used in FoFCou.
 Harris En= -322.051645978213    
 JPrj=0 DoOrth=F DoCkMO=F.
 Initial guess orbital symmetries:
       Occupied  (A') (A') (A') (A') (A') (A') (A') (A') (A') (A')
                 (A') (A') (A') (A') (A') (A') (A') (A') (A") (A')
                 (A') (A") (A") (A') (A")
       Virtual   (A") (A") (A') (A') (A") (A') (A') (A') (A') (A')
                 (A') (A') (A") (A') (A") (A") (A') (A') (A') (A')
                 (A') (A') (A") (A") (A') (A') (A') (A') (A') (A')
                 (A') (A") (A') (A") (A') (A') (A') (A') (A') (A')
                 (A') (A') (A') (A") (A') (A') (A') (A") (A") (A')
                 (A") (A") (A') (A') (A") (A') (A') (A") (A') (A')
                 (A') (A") (A') (A") (A') (A") (A') (A') (A") (A')
                 (A') (A") (A") (A') (A") (A') (A') (A") (A') (A')
                 (A") (A') (A') (A") (A') (A') (A") (A') (A") (A")
                 (A') (A') (A') (A') (A') (A") (A') (A') (A") (A')
                 (A') (A') (A") (A') (A') (A') (A') (A") (A') (A')
                 (A') (A") (A') (A') (A') (A') (A") (A') (A') (A')
                 (A") (A') (A") (A') (A") (A') (A") (A") (A') (A")
                 (A") (A') (A') (A') (A") (A') (A') (A") (A') (A')
                 (A') (A') (A') (A") (A") (A') (A") (A') (A') (A')
                 (A") (A') (A') (A") (A") (A') (A") (A') (A") (A')
                 (A") (A') (A') (A') (A") (A") (A') (A') (A") (A')
                 (A") (A') (A') (A") (A') (A') (A") (A') (A") (A")
                 (A") (A") (A') (A') (A") (A') (A") (A") (A') (A")
                 (A") (A') (A') (A") (A') (A') (A") (A') (A") (A")
                 (A') (A') (A") (A') (A') (A") (A') (A') (A') (A')
                 (A") (A') (A') (A") (A") (A') (A') (A') (A") (A")
                 (A') (A') (A") (A') (A') (A") (A') (A') (A') (A')
                 (A") (A') (A') (A') (A') (A") (A") (A') (A') (A')
                 (A') (A') (A") (A') (A') (A') (A') (A') (A') (A')
                 (A') (A') (A') (A') (A')
 The electronic state of the initial guess is 1-A'.
 Leave Link  401 at Fri Sep  3 10:23:35 2021, MaxMem= 14763950080 cpu:        25.3
 (Enter /gpfs/share/home/1801110325/software/g09e01/l502.exe)
 Closed shell SCF:
 Using DIIS extrapolation, IDIIS=  1040.
 Integral symmetry usage will be decided dynamically.
 Keep R1 ints in memory in symmetry-blocked form, NReq=1167791958.
 IVT=      338418 IEndB=      338418 NGot= 14763950080 MDV= 14369995873
 LenX= 14369995873 LenY= 14369893032
 Requested convergence on RMS density matrix=1.00D-08 within 128 cycles.
 Requested convergence on MAX density matrix=1.00D-06.
 Requested convergence on             energy=1.00D-06.
 No special actions if energy rises.
 FoFCou: FMM=F IPFlag=           0 FMFlag=           0 FMFlg1=           0
         NFxFlg=           0 DoJE=F BraDBF=F KetDBF=F FulRan=T
         wScrn=  0.000000 ICntrl=     600 IOpCl=  0 I1Cent=           0 NGrid=           0
         NMat0=    1 NMatS0=  39340 NMatT0=    0 NMatD0=    1 NMtDS0=    0 NMtDT0=    0
 Petite list used in FoFCou.

 Cycle   1  Pass 1  IDiag  1:
 E= -321.408189334145    
 DIIS: error= 4.17D-02 at cycle   1 NSaved=   1.
 NSaved= 1 IEnMin= 1 EnMin= -321.408189334145     IErMin= 1 ErrMin= 4.17D-02
 ErrMax= 4.17D-02  0.00D+00 EMaxC= 1.00D-01 BMatC= 4.36D-01 BMatP= 4.36D-01
 IDIUse=3 WtCom= 5.83D-01 WtEn= 4.17D-01
 Coeff-Com:  0.100D+01
 Coeff-En:   0.100D+01
 Coeff:      0.100D+01
 Gap=     0.402 Goal=   None    Shift=    0.000
 GapD=    0.402 DampG=2.000 DampE=0.500 DampFc=1.0000 IDamp=-1.
 RMSDP=2.40D-03 MaxDP=1.09D-01              OVMax= 1.52D-01

 Cycle   2  Pass 1  IDiag  1:
 E= -321.642277369997     Delta-E=       -0.234088035852 Rises=F Damp=F
 DIIS: error= 1.10D-02 at cycle   2 NSaved=   2.
 NSaved= 2 IEnMin= 2 EnMin= -321.642277369997     IErMin= 2 ErrMin= 1.10D-02
 ErrMax= 1.10D-02  0.00D+00 EMaxC= 1.00D-01 BMatC= 4.64D-02 BMatP= 4.36D-01
 IDIUse=3 WtCom= 8.90D-01 WtEn= 1.10D-01
 Coeff-Com:  0.181D+00 0.819D+00
 Coeff-En:   0.000D+00 0.100D+01
 Coeff:      0.161D+00 0.839D+00
 Gap=     0.444 Goal=   None    Shift=    0.000
 RMSDP=7.08D-04 MaxDP=3.09D-02 DE=-2.34D-01 OVMax= 5.58D-02

 Cycle   3  Pass 1  IDiag  1:
 E= -321.679633440834     Delta-E=       -0.037356070837 Rises=F Damp=F
 DIIS: error= 3.24D-03 at cycle   3 NSaved=   3.
 NSaved= 3 IEnMin= 3 EnMin= -321.679633440834     IErMin= 3 ErrMin= 3.24D-03
 ErrMax= 3.24D-03  0.00D+00 EMaxC= 1.00D-01 BMatC= 3.89D-03 BMatP= 4.64D-02
 IDIUse=3 WtCom= 9.68D-01 WtEn= 3.24D-02
 Coeff-Com: -0.212D-01 0.181D+00 0.840D+00
 Coeff-En:   0.000D+00 0.000D+00 0.100D+01
 Coeff:     -0.205D-01 0.175D+00 0.846D+00
 Gap=     0.430 Goal=   None    Shift=    0.000
 RMSDP=1.65D-04 MaxDP=7.27D-03 DE=-3.74D-02 OVMax= 1.84D-02

 Cycle   4  Pass 1  IDiag  1:
 E= -321.683007026049     Delta-E=       -0.003373585215 Rises=F Damp=F
 DIIS: error= 8.53D-04 at cycle   4 NSaved=   4.
 NSaved= 4 IEnMin= 4 EnMin= -321.683007026049     IErMin= 4 ErrMin= 8.53D-04
 ErrMax= 8.53D-04  0.00D+00 EMaxC= 1.00D-01 BMatC= 1.89D-04 BMatP= 3.89D-03
 IDIUse=3 WtCom= 9.91D-01 WtEn= 8.53D-03
 Coeff-Com: -0.962D-02 0.252D-01 0.214D+00 0.770D+00
 Coeff-En:   0.000D+00 0.000D+00 0.000D+00 0.100D+01
 Coeff:     -0.954D-02 0.250D-01 0.212D+00 0.772D+00
 Gap=     0.430 Goal=   None    Shift=    0.000
 RMSDP=4.32D-05 MaxDP=1.85D-03 DE=-3.37D-03 OVMax= 4.56D-03

 Cycle   5  Pass 1  IDiag  1:
 E= -321.683206753586     Delta-E=       -0.000199727537 Rises=F Damp=F
 DIIS: error= 3.94D-04 at cycle   5 NSaved=   5.
 NSaved= 5 IEnMin= 5 EnMin= -321.683206753586     IErMin= 5 ErrMin= 3.94D-04
 ErrMax= 3.94D-04  0.00D+00 EMaxC= 1.00D-01 BMatC= 2.10D-05 BMatP= 1.89D-04
 IDIUse=3 WtCom= 9.96D-01 WtEn= 3.94D-03
 Coeff-Com:  0.619D-03-0.156D-01-0.596D-01 0.137D+00 0.938D+00
 Coeff-En:   0.000D+00 0.000D+00 0.000D+00 0.000D+00 0.100D+01
 Coeff:      0.616D-03-0.155D-01-0.593D-01 0.136D+00 0.938D+00
 Gap=     0.430 Goal=   None    Shift=    0.000
 RMSDP=2.04D-05 MaxDP=7.08D-04 DE=-2.00D-04 OVMax= 2.80D-03

 Cycle   6  Pass 1  IDiag  1:
 E= -321.683243867158     Delta-E=       -0.000037113571 Rises=F Damp=F
 DIIS: error= 1.02D-04 at cycle   6 NSaved=   6.
 NSaved= 6 IEnMin= 6 EnMin= -321.683243867158     IErMin= 6 ErrMin= 1.02D-04
 ErrMax= 1.02D-04  0.00D+00 EMaxC= 1.00D-01 BMatC= 2.10D-06 BMatP= 2.10D-05
 IDIUse=3 WtCom= 9.99D-01 WtEn= 1.02D-03
 Coeff-Com:  0.855D-03-0.278D-02-0.215D-01-0.937D-01 0.156D-02 0.112D+01
 Coeff-En:   0.000D+00 0.000D+00 0.000D+00 0.000D+00 0.000D+00 0.100D+01
 Coeff:      0.854D-03-0.278D-02-0.215D-01-0.936D-01 0.156D-02 0.112D+01
 Gap=     0.430 Goal=   None    Shift=    0.000
 RMSDP=8.90D-06 MaxDP=2.68D-04 DE=-3.71D-05 OVMax= 1.03D-03

 Cycle   7  Pass 1  IDiag  1:
 E= -321.683249752506     Delta-E=       -0.000005885348 Rises=F Damp=F
 DIIS: error= 4.77D-05 at cycle   7 NSaved=   7.
 NSaved= 7 IEnMin= 7 EnMin= -321.683249752506     IErMin= 7 ErrMin= 4.77D-05
 ErrMax= 4.77D-05  0.00D+00 EMaxC= 1.00D-01 BMatC= 2.99D-07 BMatP= 2.10D-06
 IDIUse=1 WtCom= 1.00D+00 WtEn= 0.00D+00
 Coeff-Com:  0.463D-04 0.119D-02 0.324D-02-0.226D-01-0.695D-01 0.862D-01
 Coeff-Com:  0.100D+01
 Coeff:      0.463D-04 0.119D-02 0.324D-02-0.226D-01-0.695D-01 0.862D-01
 Coeff:      0.100D+01
 Gap=     0.430 Goal=   None    Shift=    0.000
 RMSDP=3.05D-06 MaxDP=9.49D-05 DE=-5.89D-06 OVMax= 4.59D-04

 Cycle   8  Pass 1  IDiag  1:
 E= -321.683250664782     Delta-E=       -0.000000912276 Rises=F Damp=F
 DIIS: error= 3.75D-05 at cycle   8 NSaved=   8.
 NSaved= 8 IEnMin= 8 EnMin= -321.683250664782     IErMin= 8 ErrMin= 3.75D-05
 ErrMax= 3.75D-05  0.00D+00 EMaxC= 1.00D-01 BMatC= 7.95D-08 BMatP= 2.99D-07
 IDIUse=1 WtCom= 1.00D+00 WtEn= 0.00D+00
 Coeff-Com: -0.205D-03 0.101D-02 0.576D-02 0.179D-01-0.540D-02-0.277D+00
 Coeff-Com:  0.145D+00 0.111D+01
 Coeff:     -0.205D-03 0.101D-02 0.576D-02 0.179D-01-0.540D-02-0.277D+00
 Coeff:      0.145D+00 0.111D+01
 Gap=     0.430 Goal=   None    Shift=    0.000
 RMSDP=2.01D-06 MaxDP=7.05D-05 DE=-9.12D-07 OVMax= 3.78D-04

 Cycle   9  Pass 1  IDiag  1:
 E= -321.683250974758     Delta-E=       -0.000000309976 Rises=F Damp=F
 DIIS: error= 9.55D-06 at cycle   9 NSaved=   9.
 NSaved= 9 IEnMin= 9 EnMin= -321.683250974758     IErMin= 9 ErrMin= 9.55D-06
 ErrMax= 9.55D-06  0.00D+00 EMaxC= 1.00D-01 BMatC= 1.01D-08 BMatP= 7.95D-08
 IDIUse=1 WtCom= 1.00D+00 WtEn= 0.00D+00
 Coeff-Com:  0.241D-04-0.238D-03-0.142D-02-0.914D-03 0.132D-01 0.257D-01
 Coeff-Com: -0.136D+00-0.189D+00 0.129D+01
 Coeff:      0.241D-04-0.238D-03-0.142D-02-0.914D-03 0.132D-01 0.257D-01
 Coeff:     -0.136D+00-0.189D+00 0.129D+01
 Gap=     0.430 Goal=   None    Shift=    0.000
 RMSDP=8.79D-07 MaxDP=3.17D-05 DE=-3.10D-07 OVMax= 1.61D-04

 Cycle  10  Pass 1  IDiag  1:
 E= -321.683251028040     Delta-E=       -0.000000053282 Rises=F Damp=F
 DIIS: error= 5.83D-06 at cycle  10 NSaved=  10.
 NSaved=10 IEnMin=10 EnMin= -321.683251028040     IErMin=10 ErrMin= 5.83D-06
 ErrMax= 5.83D-06  0.00D+00 EMaxC= 1.00D-01 BMatC= 2.75D-09 BMatP= 1.01D-08
 IDIUse=1 WtCom= 1.00D+00 WtEn= 0.00D+00
 Coeff-Com:  0.494D-04-0.257D-03-0.156D-02-0.404D-02 0.481D-02 0.597D-01
 Coeff-Com: -0.450D-01-0.288D+00 0.248D+00 0.103D+01
 Coeff:      0.494D-04-0.257D-03-0.156D-02-0.404D-02 0.481D-02 0.597D-01
 Coeff:     -0.450D-01-0.288D+00 0.248D+00 0.103D+01
 Gap=     0.430 Goal=   None    Shift=    0.000
 RMSDP=4.19D-07 MaxDP=1.32D-05 DE=-5.33D-08 OVMax= 6.79D-05

 Cycle  11  Pass 1  IDiag  1:
 E= -321.683251038267     Delta-E=       -0.000000010227 Rises=F Damp=F
 DIIS: error= 1.55D-06 at cycle  11 NSaved=  11.
 NSaved=11 IEnMin=11 EnMin= -321.683251038267     IErMin=11 ErrMin= 1.55D-06
 ErrMax= 1.55D-06  0.00D+00 EMaxC= 1.00D-01 BMatC= 3.23D-10 BMatP= 2.75D-09
 IDIUse=1 WtCom= 1.00D+00 WtEn= 0.00D+00
 Coeff-Com:  0.151D-05 0.218D-04 0.110D-03-0.377D-03-0.238D-02 0.452D-03
 Coeff-Com:  0.323D-01 0.240D-02-0.257D+00 0.469D-01 0.118D+01
 Coeff:      0.151D-05 0.218D-04 0.110D-03-0.377D-03-0.238D-02 0.452D-03
 Coeff:      0.323D-01 0.240D-02-0.257D+00 0.469D-01 0.118D+01
 Gap=     0.430 Goal=   None    Shift=    0.000
 RMSDP=1.90D-07 MaxDP=6.32D-06 DE=-1.02D-08 OVMax= 3.19D-05

 Cycle  12  Pass 1  IDiag  1:
 E= -321.683251039627     Delta-E=       -0.000000001361 Rises=F Damp=F
 DIIS: error= 1.97D-07 at cycle  12 NSaved=  12.
 NSaved=12 IEnMin=12 EnMin= -321.683251039627     IErMin=12 ErrMin= 1.97D-07
 ErrMax= 1.97D-07  0.00D+00 EMaxC= 1.00D-01 BMatC= 1.36D-11 BMatP= 3.23D-10
 IDIUse=1 WtCom= 1.00D+00 WtEn= 0.00D+00
 Coeff-Com: -0.299D-05 0.156D-04 0.955D-04 0.298D-03-0.790D-04-0.423D-02
 Coeff-Com:  0.193D-02 0.182D-01 0.965D-02-0.814D-01-0.633D-01 0.112D+01
 Coeff:     -0.299D-05 0.156D-04 0.955D-04 0.298D-03-0.790D-04-0.423D-02
 Coeff:      0.193D-02 0.182D-01 0.965D-02-0.814D-01-0.633D-01 0.112D+01
 Gap=     0.430 Goal=   None    Shift=    0.000
 RMSDP=2.53D-08 MaxDP=6.36D-07 DE=-1.36D-09 OVMax= 2.39D-06

 Cycle  13  Pass 1  IDiag  1:
 E= -321.683251039656     Delta-E=       -0.000000000029 Rises=F Damp=F
 DIIS: error= 6.16D-08 at cycle  13 NSaved=  13.
 NSaved=13 IEnMin=13 EnMin= -321.683251039656     IErMin=13 ErrMin= 6.16D-08
 ErrMax= 6.16D-08  0.00D+00 EMaxC= 1.00D-01 BMatC= 1.65D-12 BMatP= 1.36D-11
 IDIUse=1 WtCom= 1.00D+00 WtEn= 0.00D+00
 Coeff-Com: -0.580D-06 0.124D-05 0.627D-05 0.580D-04 0.105D-03-0.610D-03
 Coeff-Com: -0.172D-02 0.114D-02 0.175D-01-0.162D-01-0.860D-01 0.147D+00
 Coeff-Com:  0.939D+00
 Coeff:     -0.580D-06 0.124D-05 0.627D-05 0.580D-04 0.105D-03-0.610D-03
 Coeff:     -0.172D-02 0.114D-02 0.175D-01-0.162D-01-0.860D-01 0.147D+00
 Coeff:      0.939D+00
 Gap=     0.430 Goal=   None    Shift=    0.000
 RMSDP=8.45D-09 MaxDP=2.79D-07 DE=-2.88D-11 OVMax= 1.16D-06

 SCF Done:  E(RHF) =  -321.683251040     A.U. after   13 cycles
            NFock= 13  Conv=0.84D-08     -V/T= 2.0012
 KE= 3.213042355282D+02 PE=-1.305174478929D+03 EE= 3.861577415291D+02
 Leave Link  502 at Fri Sep  3 10:23:46 2021, MaxMem= 14763950080 cpu:       184.6
 (Enter /gpfs/share/home/1801110325/software/g09e01/l801.exe)
 Windowed orbitals will be sorted by symmetry type.
 ExpMin= 7.41D-02 ExpMax= 1.48D+04 ExpMxC= 5.05D+02 IAcc=3 IRadAn=         5 AccDes= 0.00D+00
 HarFok:  IExCor=  205 AccDes= 0.00D+00 IRadAn=         5 IDoV=-2 UseB2=F ITyADJ=14
 ICtDFT= 12500011 ScaDFX=  1.000000  1.000000  1.000000  1.000000
 Largest valence mixing into a core orbital is  1.07D-04
 Largest core mixing into a valence orbital is  4.47D-05
 Range of M.O.s used for correlation:     8   280
 NBasis=   280 NAE=    25 NBE=    25 NFC=     7 NFV=     0
 NROrb=    273 NOA=    18 NOB=    18 NVA=   255 NVB=   255

 **** Warning!!: The largest alpha MO coefficient is  0.17247462D+02

 Leave Link  801 at Fri Sep  3 10:23:46 2021, MaxMem= 14763950080 cpu:         2.5
 (Enter /gpfs/share/home/1801110325/software/g09e01/l804.exe)
 Closed-shell transformation, MDV= 14763950080 ITran=4 ISComp=2.
 Semi-Direct transformation.
 ModeAB=           4 MOrb=            18 LenV=   14761744476
 LASXX=     89498580 LTotXX=    89498580 LenRXX=   180097645
 LTotAB=    90599065 MaxLAS=   248338818 LenRXY=           0
 NonZer=   269596225 LenScr=   405009905 LnRSAI=   248338818
 LnScr1=   372766398 LExtra=           0 Total=   1206212766
 MaxDsk=          -1 SrtSym=           T ITran=            4
 DoSDTr:  NPSUse= 32
 JobTyp=0 Pass  1:  I=   1 to  18.
 (rs|ai) integrals will be sorted in core.
 Complete sort for first half transformation.
 First half transformation complete.
 Begin second half transformation for I=  10.
 Complete sort for second half transformation.
 Second half transformation complete.
 Spin components of T(2) and E(2):
     alpha-alpha T2 =       0.5269545439D-01 E2=     -0.1554588624D+00
     alpha-beta  T2 =       0.2719849169D+00 E2=     -0.8874704770D+00
     beta-beta   T2 =       0.5269545439D-01 E2=     -0.1554588624D+00
 ANorm=    0.1173616558D+01
 E2 =    -0.1198388202D+01 EUMP2 =    -0.32288163924141D+03
 Leave Link  804 at Fri Sep  3 10:24:23 2021, MaxMem= 14763950080 cpu:      1165.1
 (Enter /gpfs/share/home/1801110325/software/g09e01/l913.exe)
 CIDS:  MDV= 14763950080.
 Frozen-core window:  NFC=   7 NFV=   0.
 IFCWin=0 IBDFC=1 NFBD=     0     0 NFCmp=     0     0 NFFFC=     0     0
 Using DD3R+UMP44R for 1st iteration, S=T.
 Using DD4RQ for 2nd and later iterations.
 Keep R2 and R3 ints in memory in symmetry-blocked form, NReq=1180684948.
 FoFCou: FMM=F IPFlag=           0 FMFlag=           0 FMFlg1=           0
         NFxFlg=           0 DoJE=F BraDBF=F KetDBF=F FulRan=T
         wScrn=  0.000000 ICntrl=     600 IOpCl=  0 I1Cent=           0 NGrid=           0
         NMat0=    1 NMatS0=  39340 NMatT0=    0 NMatD0=    1 NMtDS0=    0 NMtDT0=    0
 Petite list used in FoFCou.
 Coupled Cluster theory with single and double substitutions
 ===========================================================
 Iterations=  50 Convergence= 0.100D-07
 Iteration Nr.   1
 **********************
 DD1Dir will call FoFMem   1 times, MxPair=       342
 NAB=   171 NAA=     0 NBB=     0.
 MP4(R+Q)=  0.35696309D-01
 Maximum subspace dimension=  5
 Norm of the A-vectors is  2.1777392D+00 conv= 1.00D-06.
 RLE energy=       -1.1763596084
 E3=       -0.13651391D-01        EUMP3=      -0.32289529063D+03
 E4(DQ)=    0.89201192D-02        UMP4(DQ)=   -0.32288637051D+03
 E4(SDQ)=  -0.30392398D-02        UMP4(SDQ)=  -0.32289832987D+03
 VARIATIONAL ENERGIES WITH THE FIRST-ORDER WAVEFUNCTION:
 DE(Corr)=  -1.1759472     E(Corr)=     -322.85919827    
 NORM(A)=   0.11675045D+01
 Iteration Nr.   2
 **********************
 DD1Dir will call FoFMem   1 times, MxPair=       342
 NAB=   171 NAA=     0 NBB=     0.
 Norm of the A-vectors is  7.4017978D-01 conv= 1.00D-06.
 RLE energy=       -1.2122873097
 DE(Corr)=  -1.2115683     E(CORR)=     -322.89481938     Delta=-3.56D-02
 NORM(A)=   0.11814431D+01
 Iteration Nr.   3
 **********************
 DD1Dir will call FoFMem   1 times, MxPair=       342
 NAB=   171 NAA=     0 NBB=     0.
 Norm of the A-vectors is  2.1338059D-01 conv= 1.00D-06.
 RLE energy=       -1.2137742376
 DE(Corr)=  -1.2109829     E(CORR)=     -322.89423396     Delta= 5.85D-04
 NORM(A)=   0.11845151D+01
 Iteration Nr.   4
 **********************
 DD1Dir will call FoFMem   1 times, MxPair=       342
 NAB=   171 NAA=     0 NBB=     0.
 Norm of the A-vectors is  9.2112553D-02 conv= 1.00D-06.
 RLE energy=       -1.2140636873
 DE(Corr)=  -1.2138511     E(CORR)=     -322.89710210     Delta=-2.87D-03
 NORM(A)=   0.11856896D+01
 Iteration Nr.   5
 **********************
 DD1Dir will call FoFMem   1 times, MxPair=       342
 NAB=   171 NAA=     0 NBB=     0.
 Norm of the A-vectors is  2.7895642D-02 conv= 1.00D-06.
 RLE energy=       -1.2142910754
 DE(Corr)=  -1.2142144     E(CORR)=     -322.89746541     Delta=-3.63D-04
 NORM(A)=   0.11861749D+01
 Iteration Nr.   6
 **********************
 DD1Dir will call FoFMem   1 times, MxPair=       342
 NAB=   171 NAA=     0 NBB=     0.
 Norm of the A-vectors is  1.2520023D-02 conv= 1.00D-06.
 RLE energy=       -1.2142875671
 DE(Corr)=  -1.2142636     E(CORR)=     -322.89751462     Delta=-4.92D-05
 NORM(A)=   0.11862549D+01
 Iteration Nr.   7
 **********************
 DD1Dir will call FoFMem   1 times, MxPair=       342
 NAB=   171 NAA=     0 NBB=     0.
 Norm of the A-vectors is  4.5860182D-03 conv= 1.00D-06.
 RLE energy=       -1.2142466498
 DE(Corr)=  -1.2142698     E(CORR)=     -322.89752081     Delta=-6.19D-06
 NORM(A)=   0.11862563D+01
 Iteration Nr.   8
 **********************
 DD1Dir will call FoFMem   1 times, MxPair=       342
 NAB=   171 NAA=     0 NBB=     0.
 Norm of the A-vectors is  1.6042367D-03 conv= 1.00D-06.
 RLE energy=       -1.2142683152
 DE(Corr)=  -1.2142703     E(CORR)=     -322.89752137     Delta=-5.58D-07
 NORM(A)=   0.11862696D+01
 Iteration Nr.   9
 **********************
 DD1Dir will call FoFMem   1 times, MxPair=       342
 NAB=   171 NAA=     0 NBB=     0.
 Norm of the A-vectors is  8.2569696D-04 conv= 1.00D-06.
 RLE energy=       -1.2142661313
 DE(Corr)=  -1.2142670     E(CORR)=     -322.89751806     Delta= 3.31D-06
 NORM(A)=   0.11862690D+01
 Iteration Nr.  10
 **********************
 DD1Dir will call FoFMem   1 times, MxPair=       342
 NAB=   171 NAA=     0 NBB=     0.
 Norm of the A-vectors is  3.0568223D-04 conv= 1.00D-06.
 RLE energy=       -1.2142689432
 DE(Corr)=  -1.2142690     E(CORR)=     -322.89752005     Delta=-1.99D-06
 NORM(A)=   0.11862707D+01
 Iteration Nr.  11
 **********************
 DD1Dir will call FoFMem   1 times, MxPair=       342
 NAB=   171 NAA=     0 NBB=     0.
 Norm of the A-vectors is  1.3985826D-04 conv= 1.00D-06.
 RLE energy=       -1.2142691829
 DE(Corr)=  -1.2142690     E(CORR)=     -322.89752000     Delta= 4.74D-08
 NORM(A)=   0.11862714D+01
 Iteration Nr.  12
 **********************
 DD1Dir will call FoFMem   1 times, MxPair=       342
 NAB=   171 NAA=     0 NBB=     0.
 Norm of the A-vectors is  6.6145624D-05 conv= 1.00D-06.
 RLE energy=       -1.2142696947
 DE(Corr)=  -1.2142696     E(CORR)=     -322.89752062     Delta=-6.15D-07
 NORM(A)=   0.11862720D+01
 Iteration Nr.  13
 **********************
 DD1Dir will call FoFMem   1 times, MxPair=       342
 NAB=   171 NAA=     0 NBB=     0.
 Norm of the A-vectors is  3.2810612D-05 conv= 1.00D-06.
 RLE energy=       -1.2142697606
 DE(Corr)=  -1.2142697     E(CORR)=     -322.89752070     Delta=-8.24D-08
 NORM(A)=   0.11862723D+01
 Iteration Nr.  14
 **********************
 DD1Dir will call FoFMem   1 times, MxPair=       342
 NAB=   171 NAA=     0 NBB=     0.
 Norm of the A-vectors is  1.7831438D-05 conv= 1.00D-06.
 RLE energy=       -1.2142697943
 DE(Corr)=  -1.2142698     E(CORR)=     -322.89752082     Delta=-1.17D-07
 NORM(A)=   0.11862724D+01
 Iteration Nr.  15
 **********************
 DD1Dir will call FoFMem   1 times, MxPair=       342
 NAB=   171 NAA=     0 NBB=     0.
 Norm of the A-vectors is  7.2806243D-06 conv= 1.00D-06.
 RLE energy=       -1.2142698023
 DE(Corr)=  -1.2142698     E(CORR)=     -322.89752083     Delta=-1.57D-08
 NORM(A)=   0.11862724D+01
 Iteration Nr.  16
 **********************
 DD1Dir will call FoFMem   1 times, MxPair=       342
 NAB=   171 NAA=     0 NBB=     0.
 Norm of the A-vectors is  4.0271341D-06 conv= 1.00D-06.
 RLE energy=       -1.2142697925
 DE(Corr)=  -1.2142698     E(CORR)=     -322.89752083     Delta=-4.85D-10
 NORM(A)=   0.11862724D+01
 Iteration Nr.  17
 **********************
 DD1Dir will call FoFMem   1 times, MxPair=       342
 NAB=   171 NAA=     0 NBB=     0.
 Norm of the A-vectors is  1.7849273D-06 conv= 1.00D-06.
 RLE energy=       -1.2142697932
 DE(Corr)=  -1.2142698     E(CORR)=     -322.89752083     Delta= 8.75D-11
 NORM(A)=   0.11862724D+01
 Iteration Nr.  18
 **********************
 DD1Dir will call FoFMem   1 times, MxPair=       342
 NAB=   171 NAA=     0 NBB=     0.
 Norm of the A-vectors is  9.8518441D-07 conv= 1.00D-06.
 RLE energy=       -1.2142697929
 DE(Corr)=  -1.2142698     E(CORR)=     -322.89752083     Delta= 1.74D-09
 NORM(A)=   0.11862724D+01
 CI/CC converged in   18 iterations to DelEn= 1.74D-09 Conv= 1.00D-08 ErrA1= 9.85D-07 Conv= 1.00D-06
 Largest amplitude= 6.95D-02

 Z-AMPLITUDE ITERATIONS

 Iteration Nr.   1
 **********************
 DD1Dir will call FoFMem   1 times, MxPair=       342
 NAB=   171 NAA=     0 NBB=     0.
 Norm of the A-vectors is  5.3260873D-01 conv= 1.00D-06.
 RLE energy=       -1.2156714598
 DE(Z)  -0.11727882D+01          E(Z)=    -0.32285603929D+03
 NORM(A)=   0.11867806D+01
 Iteration Nr.   2
 **********************
 DD1Dir will call FoFMem   1 times, MxPair=       342
 NAB=   171 NAA=     0 NBB=     0.
 Norm of the A-vectors is  5.5013889D-01 conv= 1.00D-06.
 RLE energy=       -1.2180643826
 DE(Z)  -0.11728438D+01          E(Z)=    -0.32285609489D+03
 NORM(A)=   0.11876619D+01
 Iteration Nr.   3
 **********************
 DD1Dir will call FoFMem   1 times, MxPair=       342
 NAB=   171 NAA=     0 NBB=     0.
 Norm of the A-vectors is  5.7981640D-01 conv= 1.00D-06.
 RLE energy=       -1.2377083844
 DE(Z)  -0.11728919D+01          E(Z)=    -0.32285614298D+03
 NORM(A)=   0.11952404D+01
 Iteration Nr.   4
 **********************
 DD1Dir will call FoFMem   1 times, MxPair=       342
 NAB=   171 NAA=     0 NBB=     0.
 Norm of the A-vectors is  8.2600741D-01 conv= 1.00D-06.
 RLE energy=       -1.2212858577
 DE(Z)  -0.11735541D+01          E(Z)=    -0.32285680517D+03
 NORM(A)=   0.11889254D+01
 Iteration Nr.   5
 **********************
 DD1Dir will call FoFMem   1 times, MxPair=       342
 NAB=   171 NAA=     0 NBB=     0.
 Norm of the A-vectors is  6.2023351D-01 conv= 1.00D-06.
 RLE energy=       -1.1714000881
 DE(Z)  -0.11730150D+01          E(Z)=    -0.32285626603D+03
 NORM(A)=   0.11709490D+01
 Iteration Nr.   6
 **********************
 DD1Dir will call FoFMem   1 times, MxPair=       342
 NAB=   171 NAA=     0 NBB=     0.
 Norm of the A-vectors is  2.5592502D-03 conv= 1.00D-06.
 RLE energy=       -1.1714045692
 DE(Z)  -0.11714062D+01          E(Z)=    -0.32285465720D+03
 NORM(A)=   0.11709422D+01
 Iteration Nr.   7
 **********************
 DD1Dir will call FoFMem   1 times, MxPair=       342
 NAB=   171 NAA=     0 NBB=     0.
 Norm of the A-vectors is  7.7010750D-04 conv= 1.00D-06.
 RLE energy=       -1.1714033585
 DE(Z)  -0.11714031D+01          E(Z)=    -0.32285465413D+03
 NORM(A)=   0.11709429D+01
 Iteration Nr.   8
 **********************
 DD1Dir will call FoFMem   1 times, MxPair=       342
 NAB=   171 NAA=     0 NBB=     0.
 Norm of the A-vectors is  5.8984335D-04 conv= 1.00D-06.
 RLE energy=       -1.1714033432
 DE(Z)  -0.11714040D+01          E(Z)=    -0.32285465500D+03
 NORM(A)=   0.11709426D+01
 Iteration Nr.   9
 **********************
 DD1Dir will call FoFMem   1 times, MxPair=       342
 NAB=   171 NAA=     0 NBB=     0.
 Norm of the A-vectors is  1.4288434D-04 conv= 1.00D-06.
 RLE energy=       -1.1714042298
 DE(Z)  -0.11714041D+01          E(Z)=    -0.32285465519D+03
 NORM(A)=   0.11709435D+01
 Iteration Nr.  10
 **********************
 DD1Dir will call FoFMem   1 times, MxPair=       342
 NAB=   171 NAA=     0 NBB=     0.
 Norm of the A-vectors is  6.2251568D-05 conv= 1.00D-06.
 RLE energy=       -1.1714038428
 DE(Z)  -0.11714037D+01          E(Z)=    -0.32285465476D+03
 NORM(A)=   0.11709439D+01
 Iteration Nr.  11
 **********************
 DD1Dir will call FoFMem   1 times, MxPair=       342
 NAB=   171 NAA=     0 NBB=     0.
 Norm of the A-vectors is  2.2385533D-05 conv= 1.00D-06.
 RLE energy=       -1.1714039774
 DE(Z)  -0.11714040D+01          E(Z)=    -0.32285465504D+03
 NORM(A)=   0.11709440D+01
 Iteration Nr.  12
 **********************
 DD1Dir will call FoFMem   1 times, MxPair=       342
 NAB=   171 NAA=     0 NBB=     0.
 Norm of the A-vectors is  1.2058838D-05 conv= 1.00D-06.
 RLE energy=       -1.1714039847
 DE(Z)  -0.11714040D+01          E(Z)=    -0.32285465501D+03
 NORM(A)=   0.11709441D+01
 Iteration Nr.  13
 **********************
 DD1Dir will call FoFMem   1 times, MxPair=       342
 NAB=   171 NAA=     0 NBB=     0.
 Norm of the A-vectors is  5.6223496D-06 conv= 1.00D-06.
 RLE energy=       -1.1714039801
 DE(Z)  -0.11714040D+01          E(Z)=    -0.32285465502D+03
 NORM(A)=   0.11709441D+01
 Iteration Nr.  14
 **********************
 DD1Dir will call FoFMem   1 times, MxPair=       342
 NAB=   171 NAA=     0 NBB=     0.
 Norm of the A-vectors is  2.6916770D-06 conv= 1.00D-06.
 RLE energy=       -1.1714039836
 DE(Z)  -0.11714040D+01          E(Z)=    -0.32285465502D+03
 NORM(A)=   0.11709441D+01
 Iteration Nr.  15
 **********************
 DD1Dir will call FoFMem   1 times, MxPair=       342
 NAB=   171 NAA=     0 NBB=     0.
 Norm of the A-vectors is  1.2191684D-06 conv= 1.00D-06.
 RLE energy=       -1.1714039792
 DE(Z)  -0.11714040D+01          E(Z)=    -0.32285465502D+03
 NORM(A)=   0.11709441D+01
 Iteration Nr.  16
 **********************
 DD1Dir will call FoFMem   1 times, MxPair=       342
 NAB=   171 NAA=     0 NBB=     0.
 Norm of the A-vectors is  6.2547125D-07 conv= 1.00D-06.
 RLE energy=       -1.1714039799
 DE(Z)  -0.11714040D+01          E(Z)=    -0.32285465502D+03
 NORM(A)=   0.11709441D+01
 CI/CC converged in   16 iterations to DelEn=-5.73D-10 Conv= 1.00D-08 ErrA1= 6.25D-07 Conv= 1.00D-06
 Discarding MO integrals.
 Leave Link  913 at Fri Sep  3 10:57:19 2021, MaxMem= 14763950080 cpu:     62441.4
 (Enter /gpfs/share/home/1801110325/software/g09e01/l1111.exe)
 Selected functions:
 Compute CCSD 2PDM.
 Form Post-SCF non-separable gradient here.
 IO1PDM=    0 IOW=    0 IO2PDM=    0.
 MDV=**********.
 Frozen-core window:  NFC=   7 NFV=   0.
 Leave Link 1111 at Fri Sep  3 12:50:43 2021, MaxMem= 14763950080 cpu:    216744.1
 (Enter /gpfs/share/home/1801110325/software/g09e01/l1002.exe)
 Minotr:  Closed shell wavefunction.
          Computing CCSD/QCISD derivatives.
          Using Z-Vector for PSCF gradient.
          Skipping F1 and S1 gradient terms here.
          IDoAtm=111111111111
          Frozen-core window.
          Direct CPHF calculation.
          Differentiating once with respect to electric field.
                with respect to dipole field.
          Differentiating once with respect to nuclear coordinates.
          Using symmetry in CPHF.
          Requested convergence is 1.0D-10 RMS, and 1.0D-09 maximum.
          NewPWx=F KeepS1=T KeepF1=T KeepIn=T MapXYZ=F SortEE=F KeepMc=T.
          MDV=   14763949683 using IRadAn=       0.
 Keep R1 ints in memory in symmetry-blocked form, NReq=1167456184.
 FoFCou: FMM=F IPFlag=           0 FMFlag=           0 FMFlg1=           0
         NFxFlg=           0 DoJE=F BraDBF=F KetDBF=F FulRan=T
         wScrn=  0.000000 ICntrl=     600 IOpCl=  0 I1Cent=           0 NGrid=           0
         NMat0=    1 NMatS0=  39340 NMatT0=    0 NMatD0=    1 NMtDS0=    0 NMtDT0=    0
 Petite list used in FoFCou.
          Solving linear equations separately, MaxMat=       0.
          There are     1 degrees of freedom in the 1st order CPHF.  IDoFFX=0 NUNeed=     1.
 LinEq1:  Iter=  0 NonCon=     1 RMS=2.26D-03 Max=4.97D-02 NDo=     1
 AX will form     1 AO Fock derivatives at one time.
 LinEq1:  Iter=  1 NonCon=     1 RMS=7.08D-04 Max=1.45D-02 NDo=     1
 LinEq1:  Iter=  2 NonCon=     1 RMS=2.52D-04 Max=7.77D-03 NDo=     1
 LinEq1:  Iter=  3 NonCon=     1 RMS=9.40D-05 Max=2.42D-03 NDo=     1
 LinEq1:  Iter=  4 NonCon=     1 RMS=3.65D-05 Max=6.97D-04 NDo=     1
 LinEq1:  Iter=  5 NonCon=     1 RMS=1.18D-05 Max=2.44D-04 NDo=     1
 LinEq1:  Iter=  6 NonCon=     1 RMS=2.64D-06 Max=3.49D-05 NDo=     1
 LinEq1:  Iter=  7 NonCon=     1 RMS=1.13D-06 Max=2.71D-05 NDo=     1
 LinEq1:  Iter=  8 NonCon=     1 RMS=3.48D-07 Max=6.35D-06 NDo=     1
 LinEq1:  Iter=  9 NonCon=     1 RMS=1.12D-07 Max=3.01D-06 NDo=     1
 LinEq1:  Iter= 10 NonCon=     1 RMS=4.08D-08 Max=9.13D-07 NDo=     1
 LinEq1:  Iter= 11 NonCon=     1 RMS=8.79D-09 Max=1.05D-07 NDo=     1
 LinEq1:  Iter= 12 NonCon=     1 RMS=2.22D-09 Max=5.06D-08 NDo=     1
 LinEq1:  Iter= 13 NonCon=     1 RMS=8.16D-10 Max=1.51D-08 NDo=     1
 LinEq1:  Iter= 14 NonCon=     1 RMS=2.08D-10 Max=5.02D-09 NDo=     1
 LinEq1:  Iter= 15 NonCon=     1 RMS=8.97D-11 Max=2.84D-09 NDo=     1
 LinEq1:  Iter= 16 NonCon=     0 RMS=2.44D-11 Max=7.45D-10 NDo=     1
 Linear equations converged to 1.000D-10 1.000D-09 after    16 iterations.
 End of Minotr F.D. properties file   721 does not exist.
 End of Minotr F.D. properties file   722 does not exist.
 End of Minotr F.D. properties file   788 does not exist.
 Leave Link 1002 at Fri Sep  3 12:50:56 2021, MaxMem= 14763950080 cpu:       165.8
 (Enter /gpfs/share/home/1801110325/software/g09e01/l601.exe)
 Copying SCF densities to generalized density rwf, IOpCl= 0 IROHF=0.

 **********************************************************************

            Population analysis using the SCF density.

 **********************************************************************

 Orbital symmetries:
       Occupied  (A') (A') (A') (A') (A') (A') (A') (A') (A') (A')
                 (A') (A') (A') (A') (A') (A') (A') (A") (A') (A')
                 (A') (A") (A') (A") (A")
       Virtual   (A") (A') (A') (A') (A") (A') (A') (A') (A") (A')
                 (A') (A") (A') (A') (A") (A') (A") (A') (A") (A')
                 (A') (A') (A') (A") (A') (A') (A') (A') (A') (A')
                 (A') (A") (A') (A") (A') (A') (A') (A') (A') (A')
                 (A') (A') (A') (A") (A') (A') (A') (A") (A") (A")
                 (A') (A") (A') (A') (A") (A') (A") (A') (A') (A')
                 (A') (A') (A') (A") (A') (A') (A") (A') (A') (A")
                 (A") (A") (A') (A') (A") (A") (A') (A') (A") (A')
                 (A') (A') (A") (A') (A') (A") (A") (A') (A") (A')
                 (A") (A') (A') (A') (A') (A") (A') (A') (A') (A")
                 (A') (A') (A") (A') (A') (A') (A") (A') (A') (A')
                 (A') (A') (A") (A') (A') (A') (A") (A') (A') (A')
                 (A") (A") (A') (A') (A") (A') (A") (A") (A") (A')
                 (A") (A') (A') (A') (A") (A') (A") (A') (A') (A')
                 (A') (A') (A") (A') (A") (A') (A") (A') (A') (A')
                 (A") (A') (A') (A") (A") (A') (A") (A') (A") (A")
                 (A') (A') (A') (A') (A") (A") (A') (A') (A") (A')
                 (A') (A") (A') (A') (A") (A') (A") (A') (A") (A")
                 (A") (A') (A") (A') (A") (A") (A') (A") (A') (A")
                 (A") (A') (A') (A") (A') (A') (A") (A') (A") (A")
                 (A') (A') (A") (A') (A') (A') (A") (A') (A') (A')
                 (A") (A') (A") (A') (A') (A') (A") (A") (A') (A')
                 (A') (A") (A") (A') (A') (A') (A") (A') (A') (A")
                 (A') (A') (A') (A") (A') (A') (A') (A') (A') (A")
                 (A') (A') (A") (A') (A') (A') (A') (A') (A') (A')
                 (A') (A') (A') (A') (A')
 The electronic state is 1-A'.
 Alpha  occ. eigenvalues --  -20.58750 -15.56056 -11.34069 -11.28117 -11.26241
 Alpha  occ. eigenvalues --  -11.23592 -11.23204  -1.42384  -1.25608  -1.09533
 Alpha  occ. eigenvalues --   -1.02840  -0.87948  -0.85483  -0.74806  -0.70915
 Alpha  occ. eigenvalues --   -0.66767  -0.62329  -0.61300  -0.59709  -0.57308
 Alpha  occ. eigenvalues --   -0.53550  -0.51215  -0.43507  -0.39238  -0.33268
 Alpha virt. eigenvalues --    0.09779   0.10445   0.11785   0.12011   0.13209
 Alpha virt. eigenvalues --    0.14039   0.15312   0.24878   0.26265   0.26454
 Alpha virt. eigenvalues --    0.28115   0.28771   0.28962   0.30039   0.31699
 Alpha virt. eigenvalues --    0.33474   0.33488   0.37534   0.39879   0.40673
 Alpha virt. eigenvalues --    0.41624   0.43036   0.43892   0.44943   0.47245
 Alpha virt. eigenvalues --    0.47316   0.51653   0.53201   0.53709   0.55077
 Alpha virt. eigenvalues --    0.56365   0.56821   0.58753   0.60658   0.61350
 Alpha virt. eigenvalues --    0.64301   0.66596   0.67585   0.70699   0.73662
 Alpha virt. eigenvalues --    0.80208   0.81997   0.82811   0.83519   0.85472
 Alpha virt. eigenvalues --    0.88837   0.92639   0.96192   0.97257   1.01217
 Alpha virt. eigenvalues --    1.04073   1.07044   1.07735   1.11655   1.13700
 Alpha virt. eigenvalues --    1.17057   1.18893   1.19623   1.20313   1.22775
 Alpha virt. eigenvalues --    1.26147   1.30175   1.32862   1.34392   1.37005
 Alpha virt. eigenvalues --    1.37819   1.38529   1.41458   1.43410   1.43652
 Alpha virt. eigenvalues --    1.47462   1.53493   1.54514   1.56551   1.57985
 Alpha virt. eigenvalues --    1.58369   1.62046   1.66593   1.67343   1.68173
 Alpha virt. eigenvalues --    1.73081   1.76225   1.77400   1.78554   1.79874
 Alpha virt. eigenvalues --    1.81731   1.84580   1.86792   1.88998   1.91951
 Alpha virt. eigenvalues --    1.93101   1.94201   1.96768   1.98619   2.00765
 Alpha virt. eigenvalues --    2.06981   2.08057   2.11037   2.13788   2.13835
 Alpha virt. eigenvalues --    2.16879   2.24645   2.27063   2.27279   2.31574
 Alpha virt. eigenvalues --    2.37254   2.40331   2.43236   2.45894   2.49680
 Alpha virt. eigenvalues --    2.53406   2.56402   2.56658   2.58748   2.61998
 Alpha virt. eigenvalues --    2.67687   2.77815   2.91463   3.01592   3.07564
 Alpha virt. eigenvalues --    3.20256   3.29601   3.30803   3.38622   3.48944
 Alpha virt. eigenvalues --    3.51473   3.54452   3.57588   3.60655   3.60989
 Alpha virt. eigenvalues --    3.65450   3.69727   3.70924   3.74294   3.74558
 Alpha virt. eigenvalues --    3.79207   3.81981   3.82945   3.85576   3.92225
 Alpha virt. eigenvalues --    3.93097   3.95392   3.96635   3.96820   4.03294
 Alpha virt. eigenvalues --    4.06847   4.08530   4.13346   4.17322   4.18712
 Alpha virt. eigenvalues --    4.19146   4.23055   4.26861   4.29198   4.31811
 Alpha virt. eigenvalues --    4.34111   4.35026   4.39980   4.40645   4.41755
 Alpha virt. eigenvalues --    4.43444   4.45386   4.48035   4.51699   4.52025
 Alpha virt. eigenvalues --    4.54196   4.55279   4.57445   4.57620   4.59140
 Alpha virt. eigenvalues --    4.62796   4.63540   4.64771   4.68227   4.68769
 Alpha virt. eigenvalues --    4.68858   4.69043   4.73707   4.75028   4.76187
 Alpha virt. eigenvalues --    4.79602   4.79785   4.81163   4.81544   4.83798
 Alpha virt. eigenvalues --    4.85289   4.85632   4.86007   4.90249   4.92935
 Alpha virt. eigenvalues --    4.94657   4.95113   5.00936   5.01122   5.03875
 Alpha virt. eigenvalues --    5.09255   5.12140   5.15555   5.20100   5.24725
 Alpha virt. eigenvalues --    5.26092   5.27940   5.34411   5.36709   5.40289
 Alpha virt. eigenvalues --    5.45261   5.46538   5.49326   5.56184   5.58577
 Alpha virt. eigenvalues --    5.60307   5.60944   5.64964   5.70943   5.71323
 Alpha virt. eigenvalues --    5.74754   5.75189   5.77488   5.77768   5.81495
 Alpha virt. eigenvalues --    5.84580   5.85395   5.91357   5.94680   5.99091
 Alpha virt. eigenvalues --    6.04183   6.05616   6.08402   6.17779   6.18758
 Alpha virt. eigenvalues --    6.20904   6.38826   6.44505   6.47471   6.47844
 Alpha virt. eigenvalues --    6.50446   6.65187   6.66892   6.71455   6.76532
 Alpha virt. eigenvalues --    6.86330   6.90744   6.98957   7.03466   7.16645
 Alpha virt. eigenvalues --    7.41713   7.53590   7.80666   9.59290  12.51481
 Alpha virt. eigenvalues --   13.15357  16.04008  18.06622  19.28252  22.99442
          Condensed to atoms (all electrons):
               1          2          3          4          5          6
     1  O    8.001325  -0.082669   0.267860  -0.037798   0.002743   0.004705
     2  N   -0.082669   6.684965   0.530732   0.004315   0.526285  -0.042617
     3  C    0.267860   0.530732   4.163670   0.569338  -0.090473  -0.053667
     4  C   -0.037798   0.004315   0.569338   4.701769  -0.050263   0.572764
     5  C    0.002743   0.526285  -0.090473  -0.050263   4.350398  -0.078621
     6  C    0.004705  -0.042617  -0.053667   0.572764  -0.078621   4.503501
     7  C    0.000085  -0.011593  -0.052598  -0.035468   0.582002   0.542976
     8  H    0.368879   0.003707  -0.029530   0.008577   0.000825  -0.001382
     9  H    0.004818   0.006067  -0.016908   0.428233  -0.001744  -0.021473
    10  H   -0.000406  -0.042503   0.000306  -0.004201   0.444561   0.005361
    11  H   -0.000363  -0.002289   0.003396  -0.024665   0.003251   0.428959
    12  H    0.000027   0.006213  -0.001005   0.004181  -0.019456  -0.019084
               7          8          9         10         11         12
     1  O    0.000085   0.368879   0.004818  -0.000406  -0.000363   0.000027
     2  N   -0.011593   0.003707   0.006067  -0.042503  -0.002289   0.006213
     3  C   -0.052598  -0.029530  -0.016908   0.000306   0.003396  -0.001005
     4  C   -0.035468   0.008577   0.428233  -0.004201  -0.024665   0.004181
     5  C    0.582002   0.000825  -0.001744   0.444561   0.003251  -0.019456
     6  C    0.542976  -0.001382  -0.021473   0.005361   0.428959  -0.019084
     7  C    4.806037   0.000428   0.003248  -0.047648  -0.026348   0.432013
     8  H    0.000428   0.399343  -0.000096  -0.000234   0.000029  -0.000023
     9  H    0.003248  -0.000096   0.602673   0.000089  -0.003207  -0.000354
    10  H   -0.047648  -0.000234   0.000089   0.641809  -0.000295  -0.002132
    11  H   -0.026348   0.000029  -0.003207  -0.000295   0.618334  -0.002711
    12  H    0.432013  -0.000023  -0.000354  -0.002132  -0.002711   0.619880
 Mulliken charges:
               1
     1  O   -0.529206
     2  N   -0.580612
     3  C    0.708880
     4  C   -0.136784
     5  C    0.330491
     6  C    0.158579
     7  C   -0.193133
     8  H    0.249478
     9  H   -0.001347
    10  H    0.005294
    11  H    0.005909
    12  H   -0.017549
 Sum of Mulliken charges =  -0.00000
 Mulliken charges with hydrogens summed into heavy atoms:
               1
     1  O   -0.279728
     2  N   -0.580612
     3  C    0.708880
     4  C   -0.138130
     5  C    0.335785
     6  C    0.164488
     7  C   -0.210682
 Electronic spatial extent (au):  <R**2>=            630.1622
 Charge=             -0.0000 electrons
 Dipole moment (field-independent basis, Debye):
    X=              0.4944    Y=             -1.5165    Z=              0.0000  Tot=              1.5950
 Quadrupole moment (field-independent basis, Debye-Ang):
   XX=            -37.5006   YY=            -37.3048   ZZ=            -43.9307
   XY=             -2.2054   XZ=              0.0000   YZ=             -0.0000
 Traceless Quadrupole moment (field-independent basis, Debye-Ang):
   XX=              2.0781   YY=              2.2739   ZZ=             -4.3520
   XY=             -2.2054   XZ=              0.0000   YZ=             -0.0000
 Octapole moment (field-independent basis, Debye-Ang**2):
  XXX=              6.1535  YYY=              3.2675  ZZZ=              0.0000  XYY=            -11.3637
  XXY=             -0.1841  XXZ=              0.0000  XZZ=             -1.6229  YZZ=              6.0563
  YYZ=             -0.0000  XYZ=              0.0000
 Hexadecapole moment (field-independent basis, Debye-Ang**3):
 XXXX=           -264.3725 YYYY=           -463.7031 ZZZZ=            -48.9542 XXXY=              9.2247
 XXXZ=              0.0000 YYYX=            -31.2573 YYYZ=             -0.0000 ZZZX=              0.0000
 ZZZY=              0.0000 XXYY=           -106.8027 XXZZ=            -60.6312 YYZZ=            -99.0090
 XXYZ=             -0.0000 YYXZ=              0.0000 ZZXY=              0.8028
 N-N= 2.760292508318D+02 E-N=-1.305174480459D+03  KE= 3.213042355282D+02
 Symmetry A'   KE= 3.101454120675D+02
 Symmetry A"   KE= 1.115882346077D+01
 No NMR shielding tensors so no spin-rotation constants.
 Leave Link  601 at Fri Sep  3 12:50:57 2021, MaxMem= 14763950080 cpu:        22.4
 (Enter /gpfs/share/home/1801110325/software/g09e01/l701.exe)
 Compute integral first derivatives.
 ... and contract with generalized density number  7.
 Leave Link  701 at Fri Sep  3 12:50:59 2021, MaxMem= 14763950080 cpu:        50.8
 (Enter /gpfs/share/home/1801110325/software/g09e01/l702.exe)
 L702 exits ... SP integral derivatives will be done elsewhere.
 Leave Link  702 at Fri Sep  3 12:50:59 2021, MaxMem= 14763950080 cpu:         0.5
 (Enter /gpfs/share/home/1801110325/software/g09e01/l703.exe)
 Compute integral first derivatives, UseDBF=F ICtDFT=           0.
 Integral derivatives from FoFJK, PRISM(SPDF).
 Calling FoFJK, ICntrl=  10002127 FMM=F ISym2X=1 I1Cent= 0 IOpClX= 0 NMat=1 NMatS=1 NMatT=0.
 FoFJK:  IHMeth= 1 ICntrl=10002127 DoSepK=F KAlg= 0 I1Cent=   0 FoldK=F
 IRaf=         0 NMat=   1 IRICut=       1 DoRegI=T DoRafI=F ISym2E= 1.
 FoFCou: FMM=F IPFlag=           0 FMFlag=      100000 FMFlg1=         800
         NFxFlg=           0 DoJE=F BraDBF=F KetDBF=F FulRan=T
         wScrn=  0.000000 ICntrl=10002127 IOpCl=  0 I1Cent=           0 NGrid=           0
         NMat0=    1 NMatS0=      1 NMatT0=    0 NMatD0=    1 NMtDS0=    0 NMtDT0=    0
 Petite list used in FoFCou.
 Leave Link  703 at Fri Sep  3 12:51:04 2021, MaxMem= 14763950080 cpu:       155.0
 (Enter /gpfs/share/home/1801110325/software/g09e01/l716.exe)
 Dipole        = 2.05537913D-01-5.54085419D-01 5.77528223D-33
 ***** Axes restored to original set *****
 -------------------------------------------------------------------
 Center     Atomic                   Forces (Hartrees/Bohr)
 Number     Number              X              Y              Z
 -------------------------------------------------------------------
      1        8          -0.006656001   -0.001775167   -0.000000000
      2        7           0.004506138    0.002238073    0.000000000
      3        6          -0.005193709   -0.000886657   -0.000000000
      4        6           0.000456370    0.000009097    0.000000000
      5        6           0.001558626   -0.000858169    0.000000000
      6        6           0.001003021    0.001004143    0.000000000
      7        6          -0.001821976   -0.001014312   -0.000000000
      8        1           0.007992995   -0.002732401    0.000000000
      9        1          -0.002500329   -0.001167408   -0.000000000
     10        1           0.002898919    0.001038804    0.000000000
     11        1          -0.002265561    0.001364166   -0.000000000
     12        1           0.000021506    0.002779832   -0.000000000
 -------------------------------------------------------------------
 Cartesian Forces:  Max     0.007992995 RMS     0.002434922
 Leave Link  716 at Fri Sep  3 12:51:04 2021, MaxMem= 14763950080 cpu:         3.0
 (Enter /gpfs/share/home/1801110325/software/g09e01/l103.exe)

 GradGradGradGradGradGradGradGradGradGradGradGradGradGradGradGradGradGrad
 Berny optimization.
 FormGI is forming the generalized inverse of G from B-inverse, IUseBI=4.
 Internal  Forces:  Max     0.008436527 RMS     0.002017272
 Search for a local minimum.
 Step number   1 out of a maximum of   61
 All quantities printed in internal units (Hartrees-Bohrs-Radians)
 RMS Force = .20173D-02 SwitMx=.10000D-02 MixMth= 1
 Mixed Optimization -- RFO/linear search
 Second derivative matrix not updated -- first step.
 ITU=  0
     Eigenvalues ---    0.02182   0.02204   0.02220   0.02248   0.02271
     Eigenvalues ---    0.02301   0.02306   0.02352   0.02508   0.16000
     Eigenvalues ---    0.16000   0.16000   0.16000   0.16000   0.22000
     Eigenvalues ---    0.22422   0.24441   0.25000   0.35469   0.35626
     Eigenvalues ---    0.35826   0.35882   0.42797   0.44768   0.46985
     Eigenvalues ---    0.47988   0.53566   0.54185   0.55734   0.58960
 RFO step:  Lambda=-4.39665292D-04 EMin= 2.18209969D-02
 Linear search not attempted -- first point.
 Iteration  1 RMS(Cart)=  0.00724034 RMS(Int)=  0.00000874
 Iteration  2 RMS(Cart)=  0.00001344 RMS(Int)=  0.00000116
 Iteration  3 RMS(Cart)=  0.00000000 RMS(Int)=  0.00000116
 ITry= 1 IFail=0 DXMaxC= 2.19D-02 DCOld= 1.00D+10 DXMaxT= 3.00D-01 DXLimC= 3.00D+00 Rises=F
 ClnCor:  largest displacement from symmetrization is 3.12D-11 for atom    11.
 Variable       Old X    -DE/DX   Delta X   Delta X   Delta X     New X
                                 (Linear)    (Quad)   (Total)
    R1        2.55864  -0.00451   0.00000  -0.00831  -0.00831   2.55033
    R2        1.83129  -0.00844   0.00000  -0.01574  -0.01574   1.81556
    R3        2.50533  -0.00643   0.00000  -0.01087  -0.01087   2.49446
    R4        2.53117  -0.00121   0.00000  -0.00222  -0.00222   2.52895
    R5        2.64139  -0.00235   0.00000  -0.00531  -0.00530   2.63609
    R6        2.61331  -0.00313   0.00000  -0.00629  -0.00629   2.60702
    R7        2.04266  -0.00274   0.00000  -0.00764  -0.00764   2.03502
    R8        2.61764  -0.00347   0.00000  -0.00704  -0.00704   2.61060
    R9        2.04920  -0.00307   0.00000  -0.00863  -0.00863   2.04057
   R10        2.63764  -0.00185   0.00000  -0.00366  -0.00366   2.63397
   R11        2.04670  -0.00264   0.00000  -0.00741  -0.00741   2.03928
   R12        2.04355  -0.00278   0.00000  -0.00774  -0.00774   2.03581
    A1        1.84872  -0.00077   0.00000  -0.00483  -0.00483   1.84390
    A2        2.05109  -0.00107   0.00000  -0.00556  -0.00556   2.04553
    A3        2.04328   0.00076   0.00000   0.00347   0.00347   2.04675
    A4        2.07298  -0.00191   0.00000  -0.00716  -0.00716   2.06582
    A5        2.16693   0.00115   0.00000   0.00369   0.00369   2.17062
    A6        2.04735   0.00019   0.00000   0.00083   0.00084   2.04818
    A7        2.09819  -0.00038   0.00000  -0.00222  -0.00222   2.09596
    A8        2.13765   0.00020   0.00000   0.00139   0.00139   2.13904
    A9        2.15382   0.00108   0.00000   0.00500   0.00499   2.15881
   A10        2.01864  -0.00024   0.00000  -0.00064  -0.00064   2.01800
   A11        2.11073  -0.00084   0.00000  -0.00436  -0.00435   2.10637
   A12        2.08825  -0.00061   0.00000  -0.00169  -0.00169   2.08656
   A13        2.09250   0.00032   0.00000   0.00096   0.00096   2.09346
   A14        2.10244   0.00029   0.00000   0.00073   0.00073   2.10317
   A15        2.05894  -0.00075   0.00000  -0.00226  -0.00227   2.05668
   A16        2.10491   0.00023   0.00000   0.00024   0.00024   2.10516
   A17        2.11933   0.00052   0.00000   0.00202   0.00203   2.12135
    D1        0.00000   0.00000   0.00000   0.00000   0.00000   0.00000
    D2        3.14159  -0.00000   0.00000  -0.00000   0.00000   3.14159
    D3        3.14159  -0.00000   0.00000  -0.00000   0.00000   3.14159
    D4        0.00000  -0.00000   0.00000  -0.00000   0.00000   0.00000
    D5        0.00000  -0.00000   0.00000   0.00000   0.00000   0.00000
    D6        3.14159  -0.00000   0.00000   0.00000   0.00000   3.14159
    D7        3.14159   0.00000   0.00000   0.00000   0.00000   3.14159
    D8        0.00000   0.00000   0.00000   0.00000  -0.00000   0.00000
    D9       -0.00000  -0.00000   0.00000  -0.00000   0.00000   0.00000
   D10        3.14159  -0.00000   0.00000  -0.00000   0.00000   3.14159
   D11        0.00000  -0.00000   0.00000   0.00000   0.00000   0.00000
   D12        3.14159  -0.00000   0.00000  -0.00000   0.00000   3.14159
   D13        3.14159   0.00000   0.00000   0.00000   0.00000   3.14159
   D14       -0.00000  -0.00000   0.00000   0.00000   0.00000   0.00000
   D15        0.00000  -0.00000   0.00000  -0.00000  -0.00000   0.00000
   D16        3.14159   0.00000   0.00000   0.00000   0.00000   3.14159
   D17        3.14159   0.00000   0.00000  -0.00000   0.00000   3.14159
   D18       -0.00000   0.00000   0.00000   0.00000   0.00000   0.00000
   D19       -0.00000   0.00000   0.00000   0.00000   0.00000   0.00000
   D20        3.14159  -0.00000   0.00000  -0.00000   0.00000   3.14159
   D21        3.14159   0.00000   0.00000   0.00000   0.00000   3.14159
   D22        0.00000  -0.00000   0.00000  -0.00000   0.00000   0.00000
         Item               Value     Threshold  Converged?
 Maximum Force            0.008437     0.000450     NO 
 RMS     Force            0.002017     0.000300     NO 
 Maximum Displacement     0.021872     0.001800     NO 
 RMS     Displacement     0.007241     0.001200     NO 
 Predicted change in Energy=-2.200609D-04
 Lowest energy point so far.  Saving SCF results.
 GradGradGradGradGradGradGradGradGradGradGradGradGradGradGradGradGradGrad

 Leave Link  103 at Fri Sep  3 12:51:04 2021, MaxMem= 14763950080 cpu:         9.8
[...]
    11  H   -0.000439  -0.002321   0.004270  -0.030384   0.003907   0.396468
    12  H    0.000038   0.008412  -0.001392   0.005134  -0.022696  -0.024306
               7          8          9         10         11         12
     1  O   -0.000012   0.342909   0.006747  -0.000446  -0.000439   0.000038
     2  N   -0.006597   0.009344   0.008356  -0.039586  -0.002321   0.008412
     3  C   -0.063580  -0.034416  -0.020336  -0.000797   0.004270  -0.001392
     4  C   -0.000588   0.012375   0.385725  -0.005412  -0.030384   0.005134
     5  C    0.421668   0.001042  -0.002802   0.404342   0.003907  -0.022696
     6  C    0.383471  -0.002001  -0.026570   0.006385   0.396468  -0.024306
     7  C    5.110978   0.000866   0.004365  -0.054241  -0.030078   0.390853
     8  H    0.000866   0.450312  -0.000239  -0.000421   0.000031  -0.000043
     9  H    0.004365  -0.000239   0.648828   0.000095  -0.005926  -0.000598
    10  H   -0.054241  -0.000421   0.000095   0.684850  -0.000572  -0.003865
    11  H   -0.030078   0.000031  -0.005926  -0.000572   0.660320  -0.004569
    12  H    0.390853  -0.000043  -0.000598  -0.003865  -0.004569   0.664952
 Mulliken charges:
               1
     1  O   -0.459494
     2  N   -0.495715
     3  C    0.612932
     4  C   -0.111699
     5  C    0.259241
     6  C    0.122198
     7  C   -0.157103
     8  H    0.220241
     9  H    0.002356
    10  H    0.009669
    11  H    0.009292
    12  H   -0.011919
 Sum of Mulliken charges =  -0.00000
 Mulliken charges with hydrogens summed into heavy atoms:
               1
     1  O   -0.239253
     2  N   -0.495715
     3  C    0.612932
     4  C   -0.109343
     5  C    0.268911
     6  C    0.131490
     7  C   -0.169022
 Electronic spatial extent (au):  <R**2>=            627.4999
 Charge=             -0.0000 electrons
 Dipole moment (field-independent basis, Debye):
    X=              0.5277    Y=             -1.3800    Z=             -0.0000  Tot=              1.4774
 Quadrupole moment (field-independent basis, Debye-Ang):
   XX=            -38.0786   YY=            -37.2333   ZZ=            -43.4117
   XY=             -1.9994   XZ=              0.0000   YZ=              0.0000
 Traceless Quadrupole moment (field-independent basis, Debye-Ang):
   XX=              1.4959   YY=              2.3412   ZZ=             -3.8372
   XY=             -1.9994   XZ=              0.0000   YZ=              0.0000
 Octapole moment (field-independent basis, Debye-Ang**2):
  XXX=              6.5381  YYY=              3.4557  ZZZ=             -0.0000  XYY=            -10.8235
  XXY=              0.1456  XXZ=              0.0000  XZZ=             -1.3714  YZZ=              5.4475
  YYZ=             -0.0000  XYZ=             -0.0000
 Hexadecapole moment (field-independent basis, Debye-Ang**3):
 XXXX=           -268.1487 YYYY=           -462.1174 ZZZZ=            -47.5530 XXXY=              9.1011
 XXXZ=              0.0000 YYYX=            -30.1711 YYYZ=              0.0000 ZZZX=              0.0000
 ZZZY=              0.0000 XXYY=           -110.4819 XXZZ=            -59.9654 YYZZ=            -98.0881
 XXYZ=              0.0000 YYXZ=             -0.0000 ZZXY=              0.6764
 N-N= 2.767228930949D+02 E-N=-1.307644574620D+03  KE= 3.228344072761D+02
 No NMR shielding tensors so no spin-rotation constants.
 Leave Link  601 at Tue Sep  7 14:02:40 2021, MaxMem= 14763950080 cpu:        18.0
 (Enter /gpfs/share/home/1801110325/software/g09e01/l701.exe)
 Compute integral first derivatives.
 ... and contract with generalized density number  7.
 Leave Link  701 at Tue Sep  7 14:02:41 2021, MaxMem= 14763950080 cpu:        42.0
 (Enter /gpfs/share/home/1801110325/software/g09e01/l702.exe)
 L702 exits ... SP integral derivatives will be done elsewhere.
 Leave Link  702 at Tue Sep  7 14:02:41 2021, MaxMem= 14763950080 cpu:         0.0
 (Enter /gpfs/share/home/1801110325/software/g09e01/l703.exe)
 Compute integral first derivatives, UseDBF=F ICtDFT=           0.
 Integral derivatives from FoFJK, PRISM(SPDF).
 Calling FoFJK, ICntrl=  10002127 FMM=F ISym2X=0 I1Cent= 0 IOpClX= 0 NMat=1 NMatS=1 NMatT=0.
 FoFJK:  IHMeth= 1 ICntrl=10002127 DoSepK=F KAlg= 0 I1Cent=   0 FoldK=F
 IRaf=         0 NMat=   1 IRICut=       1 DoRegI=T DoRafI=F ISym2E= 0.
 FoFCou: FMM=F IPFlag=           0 FMFlag=      100000 FMFlg1=         800
         NFxFlg=           0 DoJE=F BraDBF=F KetDBF=F FulRan=T
         wScrn=  0.000000 ICntrl=10002127 IOpCl=  0 I1Cent=           0 NGrid=           0
         NMat0=    1 NMatS0=      1 NMatT0=    0 NMatD0=    1 NMtDS0=    0 NMtDT0=    0
 Symmetry not used in FoFCou.
 Leave Link  703 at Tue Sep  7 14:02:46 2021, MaxMem= 14763950080 cpu:       145.0
 (Enter /gpfs/share/home/1801110325/software/g09e01/l716.exe)
 Dipole        = 2.07604582D-01-5.42925947D-01-2.24648018D-15
 -------------------------------------------------------------------
 Center     Atomic                   Forces (Hartrees/Bohr)
 Number     Number              X              Y              Z
 -------------------------------------------------------------------
      1        8           0.000228062    0.000044568   -0.000000000
      2        7          -0.000006693    0.000177862   -0.000000000
      3        6          -0.000090765   -0.000181481   -0.000000000
      4        6           0.000042127   -0.000921284   -0.000000000
      5        6           0.000143115   -0.000151917    0.000000000
      6        6          -0.000044796    0.001559457    0.000000000
      7        6          -0.000278952   -0.000239879   -0.000000000
      8        1          -0.000209976    0.000008881    0.000000000
      9        1           0.000007028    0.000010040    0.000000000
     10        1          -0.000004173    0.000047344    0.000000000
     11        1           0.000235852   -0.000303879    0.000000000
     12        1          -0.000020827   -0.000049713    0.000000000
 -------------------------------------------------------------------
 Cartesian Forces:  Max     0.001559457 RMS     0.000324366
 Leave Link  716 at Tue Sep  7 14:02:46 2021, MaxMem= 14763950080 cpu:         2.0
 (Enter /gpfs/share/home/1801110325/software/g09e01/l106.exe)
 NDeriv=  36 NFrqRd=  0 NDerD0=   0 MskFDP=       0 MskDFD=       0 MskDF0=       0
 Re-enter D2Numr: IAtom=  6 IXYZ=2 IStep= 2.
 Leave Link  106 at Tue Sep  7 14:02:47 2021, MaxMem= 14763950080 cpu:        24.0
 (Enter /gpfs/share/home/1801110325/software/g09e01/l301.exe)
 Basis read from rwf:  (5D, 7F)
 No pseudopotential information found on rwf file.
   280 basis functions,   475 primitive gaussians,   320 cartesian basis functions
    25 alpha electrons       25 beta electrons
       nuclear repulsion energy       276.7335494846 Hartrees.
 IExCor=    0 DFT=F Ex=HF Corr=None ExCW=0 ScaHFX=  1.000000
 ScaDFX=  1.000000  1.000000  1.000000  1.000000 ScalE2=  1.000000  1.000000
 IRadAn=      0 IRanWt=     -1 IRanGd=            0 ICorTp=0 IEmpDi=  4
 NAtoms=   12 NActive=   12 NUniq=   12 SFac= 1.00D+00 NAtFMM=   60 NAOKFM=F Big=F
 Integral buffers will be    131072 words long.
 Raffenetti 1 integral format.
 Two-electron integral symmetry is turned off.
 No density basis found on file   724.
 Leave Link  301 at Tue Sep  7 14:02:47 2021, MaxMem= 14763950080 cpu:         2.0
 (Enter /gpfs/share/home/1801110325/software/g09e01/l302.exe)
 NPDir=0 NMtPBC=     1 NCelOv=     1 NCel=       1 NClECP=     1 NCelD=      1
         NCelK=      1 NCelE2=     1 NClLst=     1 CellRange=     0.0.
 One-electron integrals computed using PRISM.
 NBasis=   280 RedAO= T EigKep=  1.56D-04  NBF=   280
 NBsUse=   280 1.00D-06 EigRej= -1.00D+00 NBFU=   280
 Leave Link  302 at Tue Sep  7 14:02:48 2021, MaxMem= 14763950080 cpu:        18.0
 (Enter /gpfs/share/home/1801110325/software/g09e01/l303.exe)
 DipDrv:  MaxL=1.
 Leave Link  303 at Tue Sep  7 14:02:48 2021, MaxMem= 14763950080 cpu:         3.0
 (Enter /gpfs/share/home/1801110325/software/g09e01/l401.exe)
 Initial guess from the checkpoint file:  "HY_CCSD_PC2_OPT_FREQ.chk"
 B after Tr=    -0.000000    0.000000    0.000227
         Rot=    1.000000    0.000033    0.000070   -0.000000 Ang=   0.01 deg.
 Guess basis will be translated and rotated to current coordinates.
 JPrj=2 DoOrth=T DoCkMO=T.
 Leave Link  401 at Tue Sep  7 14:02:49 2021, MaxMem= 14763950080 cpu:         6.0
 (Enter /gpfs/share/home/1801110325/software/g09e01/l502.exe)
 Closed shell SCF:
 Using DIIS extrapolation, IDIIS=  1040.
 Two-electron integral symmetry not used.
 Keep R1 ints in memory in canonical form, NReq=790713324.
 IVT=      337934 IEndB=      337934 NGot= 14763950080 MDV= 13989774677
 LenX= 13989774677 LenY= 13989671836
 Requested convergence on RMS density matrix=1.00D-08 within 128 cycles.
 Requested convergence on MAX density matrix=1.00D-06.
 Requested convergence on             energy=1.00D-06.
 No special actions if energy rises.
 FoFCou: FMM=F IPFlag=           0 FMFlag=           0 FMFlg1=           0
         NFxFlg=           0 DoJE=F BraDBF=F KetDBF=F FulRan=T
         wScrn=  0.000000 ICntrl=     600 IOpCl=  0 I1Cent=           0 NGrid=           0
         NMat0=    1 NMatS0=  39340 NMatT0=    0 NMatD0=    1 NMtDS0=    0 NMtDT0=    0
 Symmetry not used in FoFCou.

 Cycle   1  Pass 1  IDiag  1:
 E= -321.684528717514    
 DIIS: error= 3.25D-05 at cycle   1 NSaved=   1.
 NSaved= 1 IEnMin= 1 EnMin= -321.684528717514     IErMin= 1 ErrMin= 3.25D-05
 ErrMax= 3.25D-05  0.00D+00 EMaxC= 1.00D-01 BMatC= 2.93D-07 BMatP= 2.93D-07
 IDIUse=1 WtCom= 1.00D+00 WtEn= 0.00D+00
 Coeff-Com:  0.100D+01
 Coeff:      0.100D+01
 Gap=     0.866 Goal=   None    Shift=    0.000
 RMSDP=7.24D-06 MaxDP=2.09D-04              OVMax= 1.55D-04

 Cycle   2  Pass 1  IDiag  1:
 E= -321.684529036825     Delta-E=       -0.000000319311 Rises=F Damp=F
 DIIS: error= 7.77D-06 at cycle   2 NSaved=   2.
 NSaved= 2 IEnMin= 2 EnMin= -321.684529036825     IErMin= 2 ErrMin= 7.77D-06
 ErrMax= 7.77D-06  0.00D+00 EMaxC= 1.00D-01 BMatC= 1.27D-08 BMatP= 2.93D-07
 IDIUse=1 WtCom= 1.00D+00 WtEn= 0.00D+00
 Coeff-Com: -0.197D+00 0.120D+01
 Coeff:     -0.197D+00 0.120D+01
 Gap=     0.431 Goal=   None    Shift=    0.000
 RMSDP=1.20D-06 MaxDP=4.45D-05 DE=-3.19D-07 OVMax= 5.50D-05

 Cycle   3  Pass 1  IDiag  1:
 E= -321.684529063131     Delta-E=       -0.000000026306 Rises=F Damp=F
 DIIS: error= 2.01D-06 at cycle   3 NSaved=   3.
 NSaved= 3 IEnMin= 3 EnMin= -321.684529063131     IErMin= 3 ErrMin= 2.01D-06
 ErrMax= 2.01D-06  0.00D+00 EMaxC= 1.00D-01 BMatC= 4.75D-10 BMatP= 1.27D-08
 IDIUse=1 WtCom= 1.00D+00 WtEn= 0.00D+00
 Coeff-Com:  0.313D-01-0.317D+00 0.129D+01
 Coeff:      0.313D-01-0.317D+00 0.129D+01
 Gap=     0.431 Goal=   None    Shift=    0.000
 RMSDP=1.87D-07 MaxDP=7.85D-06 DE=-2.63D-08 OVMax= 1.36D-05

 Cycle   4  Pass 1  IDiag  1:
 E= -321.684529064579     Delta-E=       -0.000000001449 Rises=F Damp=F
 DIIS: error= 2.71D-07 at cycle   4 NSaved=   4.
 NSaved= 4 IEnMin= 4 EnMin= -321.684529064579     IErMin= 4 ErrMin= 2.71D-07
 ErrMax= 2.71D-07  0.00D+00 EMaxC= 1.00D-01 BMatC= 2.18D-11 BMatP= 4.75D-10
 IDIUse=1 WtCom= 1.00D+00 WtEn= 0.00D+00
 Coeff-Com: -0.369D-02 0.597D-01-0.376D+00 0.132D+01
 Coeff:     -0.369D-02 0.597D-01-0.376D+00 0.132D+01
 Gap=     0.431 Goal=   None    Shift=    0.000
 RMSDP=4.42D-08 MaxDP=1.79D-06 DE=-1.45D-09 OVMax= 4.23D-06

 Cycle   5  Pass 1  IDiag  1:
 E= -321.684529064676     Delta-E=       -0.000000000097 Rises=F Damp=F
 DIIS: error= 9.82D-08 at cycle   5 NSaved=   5.
 NSaved= 5 IEnMin= 5 EnMin= -321.684529064676     IErMin= 5 ErrMin= 9.82D-08
 ErrMax= 9.82D-08  0.00D+00 EMaxC= 1.00D-01 BMatC= 2.01D-12 BMatP= 2.18D-11
 IDIUse=1 WtCom= 1.00D+00 WtEn= 0.00D+00
 Coeff-Com: -0.774D-03 0.336D-02 0.160D-01-0.353D+00 0.133D+01
 Coeff:     -0.774D-03 0.336D-02 0.160D-01-0.353D+00 0.133D+01
 Gap=     0.431 Goal=   None    Shift=    0.000
 RMSDP=1.31D-08 MaxDP=4.05D-07 DE=-9.66D-11 OVMax= 1.80D-06

 Cycle   6  Pass 1  IDiag  1:
 E= -321.684529064681     Delta-E=       -0.000000000005 Rises=F Damp=F
 DIIS: error= 2.99D-08 at cycle   6 NSaved=   6.
 NSaved= 6 IEnMin= 6 EnMin= -321.684529064681     IErMin= 6 ErrMin= 2.99D-08
 ErrMax= 2.99D-08  0.00D+00 EMaxC= 1.00D-01 BMatC= 2.64D-13 BMatP= 2.01D-12
 IDIUse=1 WtCom= 1.00D+00 WtEn= 0.00D+00
 Coeff-Com:  0.162D-03-0.416D-02 0.331D-01-0.160D+00 0.189D+00 0.942D+00
 Coeff:      0.162D-03-0.416D-02 0.331D-01-0.160D+00 0.189D+00 0.942D+00
 Gap=     0.431 Goal=   None    Shift=    0.000
 RMSDP=3.51D-09 MaxDP=1.14D-07 DE=-5.34D-12 OVMax= 5.14D-07

 SCF Done:  E(RHF) =  -321.684529065     A.U. after    6 cycles
            NFock=  6  Conv=0.35D-08     -V/T= 2.0009
 KE= 3.214093113101D+02 PE=-1.306663894363D+03 EE= 3.868365045038D+02
 Leave Link  502 at Tue Sep  7 14:03:00 2021, MaxMem= 14763950080 cpu:       105.0
 (Enter /gpfs/share/home/1801110325/software/g09e01/l801.exe)
 Windowed orbitals will be sorted by symmetry type.
 ExpMin= 7.41D-02 ExpMax= 1.48D+04 ExpMxC= 5.05D+02 IAcc=3 IRadAn=         5 AccDes= 0.00D+00
 HarFok:  IExCor=  205 AccDes= 0.00D+00 IRadAn=         5 IDoV=-2 UseB2=F ITyADJ=14
 ICtDFT= 12500011 ScaDFX=  1.000000  1.000000  1.000000  1.000000
 Largest valence mixing into a core orbital is  1.06D-04
 Largest core mixing into a valence orbital is  4.44D-05
 Range of M.O.s used for correlation:     8   280
 NBasis=   280 NAE=    25 NBE=    25 NFC=     7 NFV=     0
 NROrb=    273 NOA=    18 NOB=    18 NVA=   255 NVB=   255

 **** Warning!!: The largest alpha MO coefficient is  0.17377912D+02

 Leave Link  801 at Tue Sep  7 14:03:00 2021, MaxMem= 14763950080 cpu:         4.0
 (Enter /gpfs/share/home/1801110325/software/g09e01/l804.exe)
 Closed-shell transformation, MDV= 14763950080 ITran=4 ISComp=1.
 Semi-Direct transformation.
 ModeAB=           4 MOrb=            18 LenV=   14761750089
 LASXX=    175384206 LTotXX=   175384206 LenRXX=   352665477
 LTotAB=   177281271 MaxLAS=   248338818 LenRXY=           0
 NonZer=   528049683 LenScr=   792718416 LnRSAI=   248338818
 LnScr1=   372766398 LExtra=           0 Total=   1766489109
 MaxDsk=          -1 SrtSym=           T ITran=            4
 DoSDTr:  NPSUse= 32
 JobTyp=0 Pass  1:  I=   1 to  18.
 (rs|ai) integrals will be sorted in core.
 Complete sort for first half transformation.
 First half transformation complete.
 Begin second half transformation for I=  10.
 Complete sort for second half transformation.
 Second half transformation complete.
 Spin components of T(2) and E(2):
     alpha-alpha T2 =       0.5245388009D-01 E2=     -0.1553085434D+00
     alpha-beta  T2 =       0.2706635730D+00 E2=     -0.8864807445D+00
     beta-beta   T2 =       0.5245388009D-01 E2=     -0.1553085434D+00
 ANorm=    0.1172847532D+01
 E2 =    -0.1197097831D+01 EUMP2 =    -0.32288162689602D+03
 Leave Link  804 at Tue Sep  7 14:04:03 2021, MaxMem= 14763950080 cpu:      2013.0
 (Enter /gpfs/share/home/1801110325/software/g09e01/l913.exe)
 CIDS:  MDV= 14763950080.
 Frozen-core window:  NFC=   7 NFV=   0.
 IFCWin=0 IBDFC=1 NFBD=     0     0 NFCmp=     0     0 NFFFC=     0     0
 Using DD3R+UMP44R for 1st iteration, S=T.
 Using DD4RQ for 2nd and later iterations.
 Keep R2 and R3 ints in memory in canonical form, NReq=1564214698.
 FoFCou: FMM=F IPFlag=           0 FMFlag=           0 FMFlg1=           0
         NFxFlg=           0 DoJE=F BraDBF=F KetDBF=F FulRan=T
         wScrn=  0.000000 ICntrl=     600 IOpCl=  0 I1Cent=           0 NGrid=           0
         NMat0=    1 NMatS0=  39340 NMatT0=    0 NMatD0=    1 NMtDS0=    0 NMtDT0=    0
 Symmetry not used in FoFCou.
 Coupled Cluster theory with single and double substitutions
 ===========================================================
 Iterations=  50 Convergence= 0.100D-07
 Iteration Nr.   1
 **********************
 DD1Dir will call FoFMem   1 times, MxPair=       342
 NAB=   171 NAA=     0 NBB=     0.
 MP4(R+Q)=  0.35497353D-01
 Maximum subspace dimension=  5
 Norm of the A-vectors is  2.1635353D+00 conv= 1.00D-06.
 RLE energy=       -1.1756377636
 E3=       -0.14034398D-01        EUMP3=      -0.32289566129D+03
 E4(DQ)=    0.89312704D-02        UMP4(DQ)=   -0.32288673002D+03
 E4(SDQ)=  -0.29007072D-02        UMP4(SDQ)=  -0.32289856200D+03
 VARIATIONAL ENERGIES WITH THE FIRST-ORDER WAVEFUNCTION:
 DE(Corr)=  -1.1752462     E(Corr)=     -322.85977522    
 NORM(A)=   0.11668855D+01
 Iteration Nr.   2
 **********************
 DD1Dir will call FoFMem   1 times, MxPair=       342
 NAB=   171 NAA=     0 NBB=     0.
 Norm of the A-vectors is  7.3332822D-01 conv= 1.00D-06.
 RLE energy=       -1.2112705026
 DE(Corr)=  -1.2105342     E(CORR)=     -322.89506328     Delta=-3.53D-02
 NORM(A)=   0.11806731D+01
 Iteration Nr.   3
 **********************
 DD1Dir will call FoFMem   1 times, MxPair=       342
 NAB=   171 NAA=     0 NBB=     0.
 Norm of the A-vectors is  2.1078107D-01 conv= 1.00D-06.
 RLE energy=       -1.2127331561
 DE(Corr)=  -1.2099824     E(CORR)=     -322.89451149     Delta= 5.52D-04
 NORM(A)=   0.11836938D+01
 Iteration Nr.   4
 **********************
 DD1Dir will call FoFMem   1 times, MxPair=       342
 NAB=   171 NAA=     0 NBB=     0.
 Norm of the A-vectors is  9.0752654D-02 conv= 1.00D-06.
 RLE energy=       -1.2130182034
 DE(Corr)=  -1.2128095     E(CORR)=     -322.89733859     Delta=-2.83D-03
 NORM(A)=   0.11848481D+01
 Iteration Nr.   5
 **********************
 DD1Dir will call FoFMem   1 times, MxPair=       342
 NAB=   171 NAA=     0 NBB=     0.
 Norm of the A-vectors is  2.7448495D-02 conv= 1.00D-06.
 RLE energy=       -1.2132410570
 DE(Corr)=  -1.2131658     E(CORR)=     -322.89769484     Delta=-3.56D-04
 NORM(A)=   0.11853224D+01
 Iteration Nr.   6
 **********************
 DD1Dir will call FoFMem   1 times, MxPair=       342
 NAB=   171 NAA=     0 NBB=     0.
 Norm of the A-vectors is  1.2257909D-02 conv= 1.00D-06.
 RLE energy=       -1.2132364600
 DE(Corr)=  -1.2132138     E(CORR)=     -322.89774287     Delta=-4.80D-05
 NORM(A)=   0.11853998D+01
 Iteration Nr.   7
 **********************
 DD1Dir will call FoFMem   1 times, MxPair=       342
 NAB=   171 NAA=     0 NBB=     0.
 Norm of the A-vectors is  4.4968732D-03 conv= 1.00D-06.
 RLE energy=       -1.2131972668
 DE(Corr)=  -1.2132199     E(CORR)=     -322.89774893     Delta=-6.06D-06
 NORM(A)=   0.11854013D+01
 Iteration Nr.   8
 **********************
 DD1Dir will call FoFMem   1 times, MxPair=       342
 NAB=   171 NAA=     0 NBB=     0.
 Norm of the A-vectors is  1.5658259D-03 conv= 1.00D-06.
 RLE energy=       -1.2132183110
 DE(Corr)=  -1.2132203     E(CORR)=     -322.89774934     Delta=-4.05D-07
 NORM(A)=   0.11854141D+01
 Iteration Nr.   9
 **********************
 DD1Dir will call FoFMem   1 times, MxPair=       342
 NAB=   171 NAA=     0 NBB=     0.
 Norm of the A-vectors is  8.0973987D-04 conv= 1.00D-06.
 RLE energy=       -1.2132163084
 DE(Corr)=  -1.2132172     E(CORR)=     -322.89774623     Delta= 3.11D-06
 NORM(A)=   0.11854136D+01
 Iteration Nr.  10
 **********************
 DD1Dir will call FoFMem   1 times, MxPair=       342
 NAB=   171 NAA=     0 NBB=     0.
 Norm of the A-vectors is  2.9619879D-04 conv= 1.00D-06.
 RLE energy=       -1.2132190296
 DE(Corr)=  -1.2132191     E(CORR)=     -322.89774815     Delta=-1.92D-06
 NORM(A)=   0.11854152D+01
 Iteration Nr.  11
 **********************
 DD1Dir will call FoFMem   1 times, MxPair=       342
 NAB=   171 NAA=     0 NBB=     0.
 Norm of the A-vectors is  1.3488107D-04 conv= 1.00D-06.
 RLE energy=       -1.2132192808
 DE(Corr)=  -1.2132191     E(CORR)=     -322.89774813     Delta= 1.75D-08
 NORM(A)=   0.11854159D+01
 Iteration Nr.  12
 **********************
 DD1Dir will call FoFMem   1 times, MxPair=       342
 NAB=   171 NAA=     0 NBB=     0.
 Norm of the A-vectors is  6.2511095D-05 conv= 1.00D-06.
 RLE energy=       -1.2132197681
 DE(Corr)=  -1.2132197     E(CORR)=     -322.89774872     Delta=-5.89D-07
 NORM(A)=   0.11854165D+01
 Iteration Nr.  13
 **********************
 DD1Dir will call FoFMem   1 times, MxPair=       342
 NAB=   171 NAA=     0 NBB=     0.
