 Entering Gaussian System, Link 0=g09
 AtFile(1): pc-2.gbs
            -H     0
            S    4   1.00
                  0.754230D+02           0.240650D-02
                  0.113500D+02           0.184870D-01
                  0.259930D+01           0.897420D-01
                  0.735130D+00           0.281110D+00
            S    1   1.00
                  0.231670D+00           0.100000D+01
            S    1   1.00
                  0.741470D-01           0.100000D+01
            P    1   1.00
                  0.160000D+01           0.100000D+01
            P    1   1.00
                  0.450000D+00           0.100000D+01
            D    1   1.00
                  0.125000D+01           0.100000D+01
            ****
            -C     0
            S    7   1.00
                  0.785710D+04           0.568250D-03
                  0.117870D+04           0.439150D-02
                  0.268320D+03           0.225040D-01
                  0.759480D+02           0.866530D-01
                  0.245590D+02           0.244050D+00
                  0.862120D+01           0.441480D+00
                  0.312780D+01           0.353320D+00
            S    7   1.00
                  0.117870D+04          -0.594920D-06
                  0.268320D+03          -0.627480D-04
                  0.759480D+02          -0.757730D-03
                  0.245590D+02          -0.733080D-02
                  0.862120D+01          -0.389320D-01
                  0.312780D+01          -0.889080D-01
                  0.822020D+00           0.216890D+00
            S    1   1.00
                  0.330170D+00           0.100000D+01
            S    1   1.00
                  0.114630D+00           0.100000D+01
            P    4   1.00
                  0.337750D+02           0.602940D-02
                  0.767660D+01           0.432280D-01
                  0.223570D+01           0.163010D+00
                  0.764470D+00           0.365040D+00
            P    1   1.00
                  0.262320D+00           0.100000D+01
            P    1   1.00
                  0.846380D-01           0.100000D+01
            D    1   1.00
                  0.140000D+01           0.100000D+01
            D    1   1.00
                  0.450000D+00           0.100000D+01
            F    1   1.00
                  0.950000D+00           0.100000D+01
            ****
            -N     0
            S    7   1.00
                  0.111010D+05           0.545700D-03
                  0.166530D+04           0.421810D-02
                  0.379080D+03           0.216450D-01
                  0.107300D+03           0.837760D-01
                  0.347470D+02           0.238810D+00
                  0.122490D+02           0.439940D+00
                  0.447430D+01           0.363640D+00
            S    7   1.00
                  0.166530D+04          -0.150060D-05
                  0.379080D+03          -0.587530D-04
                  0.107300D+03          -0.774530D-03
                  0.347470D+02          -0.721610D-02
                  0.122490D+02          -0.393380D-01
                  0.447430D+01          -0.906110D-01
                  0.124040D+01           0.198820D+00
            S    1   1.00
                  0.487430D+00           0.100000D+01
            S    1   1.00
                  0.164840D+00           0.100000D+01
            P    4   1.00
                  0.479340D+02           0.617060D-02
                  0.109990D+02           0.442600D-01
                  0.324720D+01           0.168250D+00
                  0.111140D+01           0.368480D+00
            P    1   1.00
                  0.379880D+00           0.100000D+01
            P    1   1.00
                  0.120680D+00           0.100000D+01
            D    1   1.00
                  0.180000D+01           0.100000D+01
            D    1   1.00
                  0.550000D+00           0.100000D+01
            F    1   1.00
                  0.102000D+01           0.100000D+01
            ****
            -O     0
            S    7   1.00
                  0.147820D+05           0.535190D-03
                  0.221730D+04           0.413750D-02
                  0.504740D+03           0.212450D-01
                  0.142870D+03           0.824530D-01
                  0.463000D+02           0.236710D+00
                  0.163370D+02           0.440390D+00
                  0.598280D+01           0.364650D+00
            S    7   1.00
                  0.221730D+04          -0.192750D-05
                  0.504740D+03          -0.579640D-04
                  0.142870D+03          -0.794940D-03
                  0.463000D+02          -0.731250D-02
                  0.163370D+02          -0.405740D-01
                  0.598280D+01          -0.915940D-01
                  0.167180D+01           0.209400D+00
            S    1   1.00
                  0.646620D+00           0.100000D+01
            S    1   1.00
                  0.216690D+00           0.100000D+01
            P    4   1.00
                  0.604240D+02           0.689490D-02
                  0.139350D+02           0.490050D-01
                  0.415310D+01           0.182550D+00
                  0.141580D+01           0.376330D+00
            P    1   1.00
                  0.475490D+00           0.100000D+01
            P    1   1.00
                  0.145290D+00           0.100000D+01
            D    1   1.00
                  0.220000D+01           0.100000D+01
            D    1   1.00
                  0.650000D+00           0.100000D+01
            F    1   1.00
                  0.110000D+01           0.100000D+01
            ****
 Initial command:
 /public3/home/sc51754/softwares/g09e01/l1.exe "./Gau-36187.inp" -scrdir="./"
 Entering Link 1 = /public3/home/sc51754/softwares/g09e01/l1.exe PID=     36188.
  
 Copyright (c) 1988,1990,1992,1993,1995,1998,2003,2009,2015,
            Gaussian, Inc.  All Rights Reserved.
  
 This is part of the Gaussian(R) 09 program.  It is based on
 the Gaussian(R) 03 system (copyright 2003, Gaussian, Inc.),
 the Gaussian(R) 98 system (copyright 1998, Gaussian, Inc.),
 the Gaussian(R) 94 system (copyright 1995, Gaussian, Inc.),
 the Gaussian 92(TM) system (copyright 1992, Gaussian, Inc.),
 the Gaussian 90(TM) system (copyright 1990, Gaussian, Inc.),
 the Gaussian 88(TM) system (copyright 1988, Gaussian, Inc.),
 the Gaussian 86(TM) system (copyright 1986, Carnegie Mellon
 University), and the Gaussian 82(TM) system (copyright 1983,
 Carnegie Mellon University). Gaussian is a federally registered
 trademark of Gaussian, Inc.
  
 This software contains proprietary and confidential information,
 including trade secrets, belonging to Gaussian, Inc.
  
 This software is provided under written license and may be
 used, copied, transmitted, or stored only in accord with that
 written license.
  
 The following legend is applicable only to US Government
 contracts under FAR:
  
                    RESTRICTED RIGHTS LEGEND
  
 Use, reproduction and disclosure by the US Government is
 subject to restrictions as set forth in subparagraphs (a)
 and (c) of the Commercial Computer Software - Restricted
 Rights clause in FAR 52.227-19.
  
 Gaussian, Inc.
 340 Quinnipiac St., Bldg. 40, Wallingford CT 06492
  
  
 ---------------------------------------------------------------
 Warning -- This program may not be used in any manner that
 competes with the business of Gaussian, Inc. or will provide
 assistance to any competitor of Gaussian, Inc.  The licensee
 of this program is prohibited from giving any competitor of
 Gaussian, Inc. access to this program.  By using this program,
 the user acknowledges that Gaussian, Inc. is engaged in the
 business of creating and licensing software in the field of
 computational chemistry and represents and warrants to the
 licensee that it is not a competitor of Gaussian, Inc. and that
 it will not use this program in any manner prohibited above.
 ---------------------------------------------------------------
  

 Cite this work as:
 Gaussian 09, Revision E.01,
 M. J. Frisch, G. W. Trucks, H. B. Schlegel, G. E. Scuseria, 
 M. A. Robb, J. R. Cheeseman, G. Scalmani, V. Barone, B. Mennucci, 
 G. A. Petersson, H. Nakatsuji, M. Caricato, X. Li, H. P. Hratchian, 
 A. F. Izmaylov, J. Bloino, G. Zheng, J. L. Sonnenberg, M. Hada, 
 M. Ehara, K. Toyota, R. Fukuda, J. Hasegawa, M. Ishida, T. Nakajima, 
 Y. Honda, O. Kitao, H. Nakai, T. Vreven, J. A. Montgomery, Jr., 
 J. E. Peralta, F. Ogliaro, M. Bearpark, J. J. Heyd, E. Brothers, 
 K. N. Kudin, V. N. Staroverov, T. Keith, R. Kobayashi, J. Normand, 
 K. Raghavachari, A. Rendell, J. C. Burant, S. S. Iyengar, J. Tomasi, 
 M. Cossi, N. Rega, J. M. Millam, M. Klene, J. E. Knox, J. B. Cross, 
 V. Bakken, C. Adamo, J. Jaramillo, R. Gomperts, R. E. Stratmann, 
 O. Yazyev, A. J. Austin, R. Cammi, C. Pomelli, J. W. Ochterski, 
 R. L. Martin, K. Morokuma, V. G. Zakrzewski, G. A. Voth, 
 P. Salvador, J. J. Dannenberg, S. Dapprich, A. D. Daniels, 
 O. Farkas, J. B. Foresman, J. V. Ortiz, J. Cioslowski, 
 and D. J. Fox, Gaussian, Inc., Wallingford CT, 2013.
 
 ******************************************
 Gaussian 09:  EM64L-G09RevE.01 30-Nov-2015
                27-Aug-2021 
 ******************************************
 %nprocshared=64
 Will use up to   64 processors via shared memory.
 %mem=128GB
 %chk=4HY_B3LYP_PC2_OPT_FREQ.chk
 ---------------------
 #p opt freq B3LYP/gen
 ---------------------
 1/14=-1,18=20,19=15,26=3,38=1/1,3;
 2/9=110,12=2,17=6,18=5,40=1/2;
 3/5=7,11=2,16=1,25=1,30=1,71=1,74=-5/1,2,3;
 4//1;
 5/5=2,38=5/2;
 6/7=2,8=2,9=2,10=2,28=1/1;
 7//1,2,3,16;
 1/14=-1,18=20,19=15,26=3/3(2);
 2/9=110/2;
 99//99;
 2/9=110/2;
 3/5=7,6=1,11=2,16=1,25=1,30=1,71=1,74=-5,82=7/1,2,3;
 4/5=5,16=3,69=1/1;
 5/5=2,38=5/2;
 7//1,2,3,16;
 1/14=-1,18=20,19=15,26=3/3(-5);
 2/9=110/2;
 6/7=2,8=2,9=2,10=2,19=2,28=1/1;
 99/9=1/99;
 Leave Link    1 at Fri Aug 27 21:18:48 2021, MaxMem= 17179869184 cpu:         5.5
 (Enter /public3/home/sc51754/softwares/g09e01/l101.exe)
 ----------------------
 4HY_B3LYP_PC2_OPT_FREQ
 ----------------------
 Symbolic Z-matrix:
 Charge =  0 Multiplicity = 1
 C                     1.15223   1.15341  -0.00011 
 C                    -0.24145   1.18944   0.00003 
 C                    -0.93443  -0.02499   0.00004 
 C                    -0.19715  -1.21307  -0.00009 
 C                     1.19102  -1.12281   0.00022 
 N                     1.87822   0.02956   0.00002 
 H                     1.71189   2.08718  -0.0001 
 H                    -0.77027   2.13945  -0.00002 
 H                    -0.70664  -2.17013  -0.00044 
 H                     1.78719  -2.03343  -0.00024 
 O                    -2.29029  -0.1124   -0.00001 
 H                    -2.6687    0.77737   0.00031 
 
 NAtoms=     12 NQM=       12 NQMF=       0 NMMI=      0 NMMIF=      0
                NMic=       0 NMicF=      0.
                    Isotopes and Nuclear Properties:
 (Nuclear quadrupole moments (NQMom) in fm**2, nuclear magnetic moments (NMagM)
  in nuclear magnetons)

  Atom         1           2           3           4           5           6           7           8           9          10
 IAtWgt=          12          12          12          12          12          14           1           1           1           1
 AtmWgt=  12.0000000  12.0000000  12.0000000  12.0000000  12.0000000  14.0030740   1.0078250   1.0078250   1.0078250   1.0078250
 NucSpn=           0           0           0           0           0           2           1           1           1           1
 AtZEff=   0.0000000   0.0000000   0.0000000   0.0000000   0.0000000   0.0000000   0.0000000   0.0000000   0.0000000   0.0000000
 NQMom=    0.0000000   0.0000000   0.0000000   0.0000000   0.0000000   2.0440000   0.0000000   0.0000000   0.0000000   0.0000000
 NMagM=    0.0000000   0.0000000   0.0000000   0.0000000   0.0000000   0.4037610   2.7928460   2.7928460   2.7928460   2.7928460
 AtZNuc=   6.0000000   6.0000000   6.0000000   6.0000000   6.0000000   7.0000000   1.0000000   1.0000000   1.0000000   1.0000000

  Atom        11          12
 IAtWgt=          16           1
 AtmWgt=  15.9949146   1.0078250
 NucSpn=           0           1
 AtZEff=   0.0000000   0.0000000
 NQMom=    0.0000000   0.0000000
 NMagM=    0.0000000   2.7928460
 AtZNuc=   8.0000000   1.0000000
 Leave Link  101 at Fri Aug 27 21:18:49 2021, MaxMem= 17179869184 cpu:         5.4
 (Enter /public3/home/sc51754/softwares/g09e01/l103.exe)

 GradGradGradGradGradGradGradGradGradGradGradGradGradGradGradGradGradGrad
 Berny optimization.
 Initialization pass.
                           ----------------------------
                           !    Initial Parameters    !
                           ! (Angstroms and Degrees)  !
 --------------------------                            --------------------------
 ! Name  Definition              Value          Derivative Info.                !
 --------------------------------------------------------------------------------
 ! R1    R(1,2)                  1.3941         estimate D2E/DX2                !
 ! R2    R(1,6)                  1.3379         estimate D2E/DX2                !
 ! R3    R(1,7)                  1.0886         estimate D2E/DX2                !
 ! R4    R(2,3)                  1.3982         estimate D2E/DX2                !
 ! R5    R(2,8)                  1.0873         estimate D2E/DX2                !
 ! R6    R(3,4)                  1.3983         estimate D2E/DX2                !
 ! R7    R(3,11)                 1.3587         estimate D2E/DX2                !
 ! R8    R(4,5)                  1.3911         estimate D2E/DX2                !
 ! R9    R(4,9)                  1.0842         estimate D2E/DX2                !
 ! R10   R(5,6)                  1.3417         estimate D2E/DX2                !
 ! R11   R(5,10)                 1.0884         estimate D2E/DX2                !
 ! R12   R(11,12)                0.9669         estimate D2E/DX2                !
 ! A1    A(2,1,6)              124.3426         estimate D2E/DX2                !
 ! A2    A(2,1,7)              119.4556         estimate D2E/DX2                !
 ! A3    A(6,1,7)              116.2018         estimate D2E/DX2                !
 ! A4    A(1,2,3)              118.2292         estimate D2E/DX2                !
 ! A5    A(1,2,8)              120.5831         estimate D2E/DX2                !
 ! A6    A(3,2,8)              121.1877         estimate D2E/DX2                !
 ! A7    A(2,3,4)              118.4682         estimate D2E/DX2                !
 ! A8    A(2,3,11)             123.3985         estimate D2E/DX2                !
 ! A9    A(4,3,11)             118.1333         estimate D2E/DX2                !
 ! A10   A(3,4,5)              118.1015         estimate D2E/DX2                !
 ! A11   A(3,4,9)              120.1493         estimate D2E/DX2                !
 ! A12   A(5,4,9)              121.7493         estimate D2E/DX2                !
 ! A13   A(4,5,6)              124.5296         estimate D2E/DX2                !
 ! A14   A(4,5,10)             119.4914         estimate D2E/DX2                !
 ! A15   A(6,5,10)             115.9789         estimate D2E/DX2                !
 ! A16   A(1,6,5)              116.3289         estimate D2E/DX2                !
 ! A17   A(3,11,12)            109.3507         estimate D2E/DX2                !
 ! D1    D(6,1,2,3)             -0.0135         estimate D2E/DX2                !
 ! D2    D(6,1,2,8)            179.9955         estimate D2E/DX2                !
 ! D3    D(7,1,2,3)           -179.9987         estimate D2E/DX2                !
 ! D4    D(7,1,2,8)              0.0102         estimate D2E/DX2                !
 ! D5    D(2,1,6,5)              0.0039         estimate D2E/DX2                !
 ! D6    D(7,1,6,5)            179.9896         estimate D2E/DX2                !
 ! D7    D(1,2,3,4)              0.0007         estimate D2E/DX2                !
 ! D8    D(1,2,3,11)          -179.9909         estimate D2E/DX2                !
 ! D9    D(8,2,3,4)            179.9917         estimate D2E/DX2                !
 ! D10   D(8,2,3,11)             0.0001         estimate D2E/DX2                !
 ! D11   D(2,3,4,5)              0.0198         estimate D2E/DX2                !
 ! D12   D(2,3,4,9)           -179.978          estimate D2E/DX2                !
 ! D13   D(11,3,4,5)          -179.9882         estimate D2E/DX2                !
 ! D14   D(11,3,4,9)             0.014          estimate D2E/DX2                !
 ! D15   D(2,3,11,12)           -0.0225         estimate D2E/DX2                !
 ! D16   D(4,3,11,12)          179.9859         estimate D2E/DX2                !
 ! D17   D(3,4,5,6)             -0.0313         estimate D2E/DX2                !
 ! D18   D(3,4,5,10)          -179.9777         estimate D2E/DX2                !
 ! D19   D(9,4,5,6)            179.9664         estimate D2E/DX2                !
 ! D20   D(9,4,5,10)             0.0201         estimate D2E/DX2                !
 ! D21   D(4,5,6,1)              0.0192         estimate D2E/DX2                !
 ! D22   D(10,5,6,1)           179.9673         estimate D2E/DX2                !
 --------------------------------------------------------------------------------
 Trust Radius=3.00D-01 FncErr=1.00D-07 GrdErr=1.00D-06
 Number of steps in this run=     61 maximum allowed number of steps=    100.
 GradGradGradGradGradGradGradGradGradGradGradGradGradGradGradGradGradGrad

 Leave Link  103 at Fri Aug 27 21:18:49 2021, MaxMem= 17179869184 cpu:         0.2
 (Enter /public3/home/sc51754/softwares/g09e01/l202.exe)
                          Input orientation:                          
 ---------------------------------------------------------------------
 Center     Atomic      Atomic             Coordinates (Angstroms)
 Number     Number       Type             X           Y           Z
 ---------------------------------------------------------------------
      1          6           0        1.152230    1.153409   -0.000114
      2          6           0       -0.241450    1.189435    0.000028
      3          6           0       -0.934425   -0.024989    0.000035
      4          6           0       -0.197153   -1.213074   -0.000085
      5          6           0        1.191022   -1.122808    0.000218
      6          7           0        1.878221    0.029557    0.000015
      7          1           0        1.711886    2.087182   -0.000101
      8          1           0       -0.770273    2.139452   -0.000016
      9          1           0       -0.706644   -2.170125   -0.000442
     10          1           0        1.787188   -2.033434   -0.000236
     11          8           0       -2.290294   -0.112398   -0.000014
     12          1           0       -2.668700    0.777372    0.000305
 ---------------------------------------------------------------------
                    Distance matrix (angstroms):
                    1          2          3          4          5
     1  C    0.000000
     2  C    1.394146   0.000000
     3  C    2.396404   1.398227   0.000000
     4  C    2.724165   2.402917   1.398255   0.000000
     5  C    2.276548   2.720008   2.392223   1.391107   0.000000
     6  N    1.337949   2.416262   2.813175   2.418948   1.341711
     7  H    1.088645   2.149761   3.385887   3.812626   3.251974
     8  H    2.160625   1.087284   2.170657   3.401161   3.806444
     9  H    3.808056   3.391615   2.157196   1.084218   2.167489
    10  H    3.249483   3.808183   3.382459   2.147231   1.088418
    11  O    3.667866   2.427454   1.358684   2.364895   3.624981
    12  H    3.839389   2.461979   1.910888   3.173393   4.302109
                    6          7          8          9         10
     6  N    0.000000
     7  H    2.064337   0.000000
     8  H    3.386174   2.482709   0.000000
     9  H    3.394131   4.896320   4.310047   0.000000
    10  H    2.064999   4.121304   4.894240   2.497575   0.000000
    11  O    4.170931   4.566793   2.716853   2.596572   4.507354
    12  H    4.608006   4.572213   2.336512   3.540820   5.268355
                   11         12
    11  O    0.000000
    12  H    0.966893   0.000000
 Stoichiometry    C5H5NO
 Framework group  C1[X(C5H5NO)]
 Deg. of freedom    30
 Full point group                 C1      NOp   1
 Largest Abelian subgroup         C1      NOp   1
 Largest concise Abelian subgroup C1      NOp   1
                         Standard orientation:                         
 ---------------------------------------------------------------------
 Center     Atomic      Atomic             Coordinates (Angstroms)
 Number     Number       Type             X           Y           Z
 ---------------------------------------------------------------------
      1          6           0       -1.152230    1.153409    0.000114
      2          6           0        0.241450    1.189435   -0.000028
      3          6           0        0.934425   -0.024989   -0.000035
      4          6           0        0.197153   -1.213074    0.000085
      5          6           0       -1.191022   -1.122808   -0.000218
      6          7           0       -1.878221    0.029557   -0.000015
      7          1           0       -1.711887    2.087182    0.000101
      8          1           0        0.770272    2.139452    0.000016
      9          1           0        0.706644   -2.170125    0.000442
     10          1           0       -1.787188   -2.033434    0.000236
     11          8           0        2.290294   -0.112397    0.000014
     12          1           0        2.668700    0.777373   -0.000305
 ---------------------------------------------------------------------
 Rotational constants (GHZ):      5.9862655      2.6268417      1.8257026
 Leave Link  202 at Fri Aug 27 21:18:49 2021, MaxMem= 17179869184 cpu:         4.9
 (Enter /public3/home/sc51754/softwares/g09e01/l301.exe)
 General basis read from cards:  (5D, 7F)
 Centers:       7      8      9     10     12
 S 4 1.00
     Exponent=  7.5423000000D+01 Coefficients=  2.4065000000D-03
     Exponent=  1.1350000000D+01 Coefficients=  1.8487000000D-02
     Exponent=  2.5993000000D+00 Coefficients=  8.9742000000D-02
     Exponent=  7.3513000000D-01 Coefficients=  2.8111000000D-01
 S 1 1.00
     Exponent=  2.3167000000D-01 Coefficients=  1.0000000000D+00
 S 1 1.00
     Exponent=  7.4147000000D-02 Coefficients=  1.0000000000D+00
 P 1 1.00
     Exponent=  1.6000000000D+00 Coefficients=  1.0000000000D+00
 P 1 1.00
     Exponent=  4.5000000000D-01 Coefficients=  1.0000000000D+00
 D 1 1.00
     Exponent=  1.2500000000D+00 Coefficients=  1.0000000000D+00
 ****
 Centers:       1      2      3      4      5
 S 7 1.00
     Exponent=  7.8571000000D+03 Coefficients=  5.6825000000D-04
     Exponent=  1.1787000000D+03 Coefficients=  4.3915000000D-03
     Exponent=  2.6832000000D+02 Coefficients=  2.2504000000D-02
     Exponent=  7.5948000000D+01 Coefficients=  8.6653000000D-02
     Exponent=  2.4559000000D+01 Coefficients=  2.4405000000D-01
     Exponent=  8.6212000000D+00 Coefficients=  4.4148000000D-01
     Exponent=  3.1278000000D+00 Coefficients=  3.5332000000D-01
 S 7 1.00
     Exponent=  1.1787000000D+03 Coefficients= -5.9492000000D-07
     Exponent=  2.6832000000D+02 Coefficients= -6.2748000000D-05
     Exponent=  7.5948000000D+01 Coefficients= -7.5773000000D-04
     Exponent=  2.4559000000D+01 Coefficients= -7.3308000000D-03
     Exponent=  8.6212000000D+00 Coefficients= -3.8932000000D-02
     Exponent=  3.1278000000D+00 Coefficients= -8.8908000000D-02
     Exponent=  8.2202000000D-01 Coefficients=  2.1689000000D-01
 S 1 1.00
     Exponent=  3.3017000000D-01 Coefficients=  1.0000000000D+00
 S 1 1.00
     Exponent=  1.1463000000D-01 Coefficients=  1.0000000000D+00
 P 4 1.00
     Exponent=  3.3775000000D+01 Coefficients=  6.0294000000D-03
     Exponent=  7.6766000000D+00 Coefficients=  4.3228000000D-02
     Exponent=  2.2357000000D+00 Coefficients=  1.6301000000D-01
     Exponent=  7.6447000000D-01 Coefficients=  3.6504000000D-01
 P 1 1.00
     Exponent=  2.6232000000D-01 Coefficients=  1.0000000000D+00
 P 1 1.00
     Exponent=  8.4638000000D-02 Coefficients=  1.0000000000D+00
 D 1 1.00
     Exponent=  1.4000000000D+00 Coefficients=  1.0000000000D+00
 D 1 1.00
     Exponent=  4.5000000000D-01 Coefficients=  1.0000000000D+00
 F 1 1.00
     Exponent=  9.5000000000D-01 Coefficients=  1.0000000000D+00
 ****
 Centers:       6
 S 7 1.00
     Exponent=  1.1101000000D+04 Coefficients=  5.4570000000D-04
     Exponent=  1.6653000000D+03 Coefficients=  4.2181000000D-03
     Exponent=  3.7908000000D+02 Coefficients=  2.1645000000D-02
     Exponent=  1.0730000000D+02 Coefficients=  8.3776000000D-02
     Exponent=  3.4747000000D+01 Coefficients=  2.3881000000D-01
     Exponent=  1.2249000000D+01 Coefficients=  4.3994000000D-01
     Exponent=  4.4743000000D+00 Coefficients=  3.6364000000D-01
 S 7 1.00
     Exponent=  1.6653000000D+03 Coefficients= -1.5006000000D-06
     Exponent=  3.7908000000D+02 Coefficients= -5.8753000000D-05
     Exponent=  1.0730000000D+02 Coefficients= -7.7453000000D-04
     Exponent=  3.4747000000D+01 Coefficients= -7.2161000000D-03
     Exponent=  1.2249000000D+01 Coefficients= -3.9338000000D-02
     Exponent=  4.4743000000D+00 Coefficients= -9.0611000000D-02
     Exponent=  1.2404000000D+00 Coefficients=  1.9882000000D-01
 S 1 1.00
     Exponent=  4.8743000000D-01 Coefficients=  1.0000000000D+00
 S 1 1.00
     Exponent=  1.6484000000D-01 Coefficients=  1.0000000000D+00
 P 4 1.00
     Exponent=  4.7934000000D+01 Coefficients=  6.1706000000D-03
     Exponent=  1.0999000000D+01 Coefficients=  4.4260000000D-02
     Exponent=  3.2472000000D+00 Coefficients=  1.6825000000D-01
     Exponent=  1.1114000000D+00 Coefficients=  3.6848000000D-01
 P 1 1.00
     Exponent=  3.7988000000D-01 Coefficients=  1.0000000000D+00
 P 1 1.00
     Exponent=  1.2068000000D-01 Coefficients=  1.0000000000D+00
 D 1 1.00
     Exponent=  1.8000000000D+00 Coefficients=  1.0000000000D+00
 D 1 1.00
     Exponent=  5.5000000000D-01 Coefficients=  1.0000000000D+00
 F 1 1.00
     Exponent=  1.0200000000D+00 Coefficients=  1.0000000000D+00
 ****
 Centers:      11
 S 7 1.00
     Exponent=  1.4782000000D+04 Coefficients=  5.3519000000D-04
     Exponent=  2.2173000000D+03 Coefficients=  4.1375000000D-03
     Exponent=  5.0474000000D+02 Coefficients=  2.1245000000D-02
     Exponent=  1.4287000000D+02 Coefficients=  8.2453000000D-02
     Exponent=  4.6300000000D+01 Coefficients=  2.3671000000D-01
     Exponent=  1.6337000000D+01 Coefficients=  4.4039000000D-01
     Exponent=  5.9828000000D+00 Coefficients=  3.6465000000D-01
 S 7 1.00
     Exponent=  2.2173000000D+03 Coefficients= -1.9275000000D-06
     Exponent=  5.0474000000D+02 Coefficients= -5.7964000000D-05
     Exponent=  1.4287000000D+02 Coefficients= -7.9494000000D-04
     Exponent=  4.6300000000D+01 Coefficients= -7.3125000000D-03
     Exponent=  1.6337000000D+01 Coefficients= -4.0574000000D-02
     Exponent=  5.9828000000D+00 Coefficients= -9.1594000000D-02
     Exponent=  1.6718000000D+00 Coefficients=  2.0940000000D-01
 S 1 1.00
     Exponent=  6.4662000000D-01 Coefficients=  1.0000000000D+00
 S 1 1.00
     Exponent=  2.1669000000D-01 Coefficients=  1.0000000000D+00
 P 4 1.00
     Exponent=  6.0424000000D+01 Coefficients=  6.8949000000D-03
     Exponent=  1.3935000000D+01 Coefficients=  4.9005000000D-02
     Exponent=  4.1531000000D+00 Coefficients=  1.8255000000D-01
     Exponent=  1.4158000000D+00 Coefficients=  3.7633000000D-01
 P 1 1.00
     Exponent=  4.7549000000D-01 Coefficients=  1.0000000000D+00
 P 1 1.00
     Exponent=  1.4529000000D-01 Coefficients=  1.0000000000D+00
 D 1 1.00
     Exponent=  2.2000000000D+00 Coefficients=  1.0000000000D+00
 D 1 1.00
     Exponent=  6.5000000000D-01 Coefficients=  1.0000000000D+00
 F 1 1.00
     Exponent=  1.1000000000D+00 Coefficients=  1.0000000000D+00
 ****
 Ernie: Thresh=  0.10000D-02 Tol=  0.10000D-05 Strict=F.
 Ernie:  7 primitive shells out of 220 were deleted.
 There are   320 symmetry adapted cartesian basis functions of A   symmetry.
 There are   280 symmetry adapted basis functions of A   symmetry.
   280 basis functions,   475 primitive gaussians,   320 cartesian basis functions
    25 alpha electrons       25 beta electrons
       nuclear repulsion energy       273.7666329457 Hartrees.
 IExCor=  402 DFT=T Ex+Corr=B3LYP ExCW=0 ScaHFX=  0.200000
 ScaDFX=  0.800000  0.720000  1.000000  0.810000 ScalE2=  1.000000  1.000000
 IRadAn=      0 IRanWt=     -1 IRanGd=            0 ICorTp=0 IEmpDi=  4
 NAtoms=   12 NActive=   12 NUniq=   12 SFac= 1.00D+00 NAtFMM=   60 NAOKFM=F Big=F
 Integral buffers will be    131072 words long.
 Raffenetti 2 integral format.
 Two-electron integral symmetry is turned on.
 Leave Link  301 at Fri Aug 27 21:18:49 2021, MaxMem= 17179869184 cpu:         1.2
 (Enter /public3/home/sc51754/softwares/g09e01/l302.exe)
 NPDir=0 NMtPBC=     1 NCelOv=     1 NCel=       1 NClECP=     1 NCelD=      1
         NCelK=      1 NCelE2=     1 NClLst=     1 CellRange=     0.0.
 One-electron integrals computed using PRISM.
 NBasis=   280 RedAO= T EigKep=  2.00D-04  NBF=   280
 NBsUse=   280 1.00D-06 EigRej= -1.00D+00 NBFU=   280
 Precomputing XC quadrature grid using
 IXCGrd= 4 IRadAn=           0 IRanWt=          -1 IRanGd=           0 AccXCQ= 0.00D+00.
 Generated NRdTot=       0 NPtTot=           0 NUsed=           0 NTot=          32
 NSgBfM=   320   320   320   320   320 MxSgAt=    12 MxSgA2=    12.
 Leave Link  302 at Fri Aug 27 21:18:50 2021, MaxMem= 17179869184 cpu:        40.5
 (Enter /public3/home/sc51754/softwares/g09e01/l303.exe)
 DipDrv:  MaxL=1.
 Leave Link  303 at Fri Aug 27 21:18:50 2021, MaxMem= 17179869184 cpu:        14.3
 (Enter /public3/home/sc51754/softwares/g09e01/l401.exe)
 ExpMin= 7.41D-02 ExpMax= 1.48D+04 ExpMxC= 5.05D+02 IAcc=2 IRadAn=         4 AccDes= 0.00D+00
 Harris functional with IExCor=  402 and IRadAn=       4 diagonalized for initial guess.
 HarFok:  IExCor=  402 AccDes= 0.00D+00 IRadAn=         4 IDoV= 1 UseB2=F ITyADJ=14
 ICtDFT=  3500011 ScaDFX=  1.000000  1.000000  1.000000  1.000000
 FoFCou: FMM=F IPFlag=           0 FMFlag=      100000 FMFlg1=           0
         NFxFlg=           0 DoJE=T BraDBF=F KetDBF=T FulRan=T
         wScrn=  0.000000 ICntrl=     500 IOpCl=  0 I1Cent=   200000004 NGrid=           0
         NMat0=    1 NMatS0=      1 NMatT0=    0 NMatD0=    1 NMtDS0=    0 NMtDT0=    0
 Petite list used in FoFCou.
 Harris En= -323.664577025252    
 JPrj=0 DoOrth=F DoCkMO=F.
 Leave Link  401 at Fri Aug 27 21:18:51 2021, MaxMem= 17179869184 cpu:        48.1
 (Enter /public3/home/sc51754/softwares/g09e01/l502.exe)
 Closed shell SCF:
 Using DIIS extrapolation, IDIIS=  1040.
 Integral symmetry usage will be decided dynamically.
 Keep R1 ints in memory in canonical form, NReq=790723944.
 IVT=      348554 IEndB=      348554 NGot= 17179869184 MDV= 16405683161
 LenX= 16405683161 LenY= 16405580320
 Requested convergence on RMS density matrix=1.00D-08 within 128 cycles.
 Requested convergence on MAX density matrix=1.00D-06.
 Requested convergence on             energy=1.00D-06.
 No special actions if energy rises.
 FoFCou: FMM=F IPFlag=           0 FMFlag=           0 FMFlg1=           0
         NFxFlg=           0 DoJE=F BraDBF=F KetDBF=F FulRan=T
         wScrn=  0.000000 ICntrl=     600 IOpCl=  0 I1Cent=           0 NGrid=           0
         NMat0=    1 NMatS0=  39340 NMatT0=    0 NMatD0=    1 NMtDS0=    0 NMtDT0=    0
 Symmetry not used in FoFCou.
 Integral accuracy reduced to 1.0D-05 until final iterations.

 Cycle   1  Pass 0  IDiag  1:
 E= -323.488717735651    
 DIIS: error= 3.40D-02 at cycle   1 NSaved=   1.
 NSaved= 1 IEnMin= 1 EnMin= -323.488717735651     IErMin= 1 ErrMin= 3.40D-02
 ErrMax= 3.40D-02  0.00D+00 EMaxC= 1.00D-01 BMatC= 1.77D-01 BMatP= 1.77D-01
 IDIUse=3 WtCom= 6.60D-01 WtEn= 3.40D-01
 Coeff-Com:  0.100D+01
 Coeff-En:   0.100D+01
 Coeff:      0.100D+01
 Gap=     0.234 Goal=   None    Shift=    0.000
 GapD=    0.234 DampG=1.000 DampE=0.500 DampFc=0.5000 IDamp=-1.
 Damping current iteration by 5.00D-01
 RMSDP=2.94D-03 MaxDP=1.28D-01              OVMax= 1.80D-01

 Cycle   2  Pass 0  IDiag  1:
 E= -323.557632704940     Delta-E=       -0.068914969290 Rises=F Damp=T
 DIIS: error= 4.98D-03 at cycle   2 NSaved=   2.
 NSaved= 2 IEnMin= 2 EnMin= -323.557632704940     IErMin= 2 ErrMin= 4.98D-03
 ErrMax= 4.98D-03  0.00D+00 EMaxC= 1.00D-01 BMatC= 1.00D-02 BMatP= 1.77D-01
 IDIUse=3 WtCom= 9.50D-01 WtEn= 4.98D-02
 Coeff-Com:  0.576D-01 0.942D+00
 Coeff-En:   0.118D+00 0.882D+00
 Coeff:      0.606D-01 0.939D+00
 Gap=     0.271 Goal=   None    Shift=    0.000
 RMSDP=6.32D-04 MaxDP=3.01D-02 DE=-6.89D-02 OVMax= 1.19D-01

 Cycle   3  Pass 0  IDiag  1:
 E= -323.640742218506     Delta-E=       -0.083109513566 Rises=F Damp=F
 DIIS: error= 6.12D-03 at cycle   3 NSaved=   3.
 NSaved= 3 IEnMin= 3 EnMin= -323.640742218506     IErMin= 2 ErrMin= 4.98D-03
 ErrMax= 6.12D-03  0.00D+00 EMaxC= 1.00D-01 BMatC= 7.41D-03 BMatP= 1.00D-02
 IDIUse=3 WtCom= 9.39D-01 WtEn= 6.12D-02
 Coeff-Com: -0.268D-01 0.455D+00 0.572D+00
 Coeff-En:   0.000D+00 0.000D+00 0.100D+01
 Coeff:     -0.251D-01 0.427D+00 0.598D+00
 Gap=     0.236 Goal=   None    Shift=    0.000
 RMSDP=3.29D-04 MaxDP=1.57D-02 DE=-8.31D-02 OVMax= 4.84D-02

 Cycle   4  Pass 0  IDiag  1:
 E= -323.644271199577     Delta-E=       -0.003528981071 Rises=F Damp=F
 DIIS: error= 4.50D-03 at cycle   4 NSaved=   4.
 NSaved= 4 IEnMin= 4 EnMin= -323.644271199577     IErMin= 4 ErrMin= 4.50D-03
 ErrMax= 4.50D-03  0.00D+00 EMaxC= 1.00D-01 BMatC= 3.05D-03 BMatP= 7.41D-03
 IDIUse=3 WtCom= 9.55D-01 WtEn= 4.50D-02
 Coeff-Com: -0.263D-01 0.155D+00 0.408D+00 0.464D+00
 Coeff-En:   0.000D+00 0.000D+00 0.340D+00 0.660D+00
 Coeff:     -0.252D-01 0.148D+00 0.405D+00 0.473D+00
 Gap=     0.239 Goal=   None    Shift=    0.000
 RMSDP=1.76D-04 MaxDP=6.83D-03 DE=-3.53D-03 OVMax= 2.16D-02

 Cycle   5  Pass 0  IDiag  1:
 E= -323.647148386420     Delta-E=       -0.002877186843 Rises=F Damp=F
 DIIS: error= 1.02D-03 at cycle   5 NSaved=   5.
 NSaved= 5 IEnMin= 5 EnMin= -323.647148386420     IErMin= 5 ErrMin= 1.02D-03
 ErrMax= 1.02D-03  0.00D+00 EMaxC= 1.00D-01 BMatC= 1.05D-04 BMatP= 3.05D-03
 IDIUse=3 WtCom= 9.90D-01 WtEn= 1.02D-02
 Coeff-Com: -0.878D-02 0.270D-01 0.132D+00 0.229D+00 0.622D+00
 Coeff-En:   0.000D+00 0.000D+00 0.000D+00 0.000D+00 0.100D+01
 Coeff:     -0.869D-02 0.267D-01 0.130D+00 0.226D+00 0.625D+00
 Gap=     0.237 Goal=   None    Shift=    0.000
 RMSDP=4.11D-05 MaxDP=1.45D-03 DE=-2.88D-03 OVMax= 5.37D-03

 Cycle   6  Pass 0  IDiag  1:
 E= -323.647229094450     Delta-E=       -0.000080708031 Rises=F Damp=F
 DIIS: error= 3.02D-04 at cycle   6 NSaved=   6.
 NSaved= 6 IEnMin= 6 EnMin= -323.647229094450     IErMin= 6 ErrMin= 3.02D-04
 ErrMax= 3.02D-04  0.00D+00 EMaxC= 1.00D-01 BMatC= 2.64D-05 BMatP= 1.05D-04
 IDIUse=3 WtCom= 9.97D-01 WtEn= 3.02D-03
 Coeff-Com: -0.356D-02 0.432D-02 0.493D-01 0.105D+00 0.405D+00 0.440D+00
 Coeff-En:   0.000D+00 0.000D+00 0.000D+00 0.000D+00 0.184D+00 0.816D+00
 Coeff:     -0.355D-02 0.431D-02 0.491D-01 0.105D+00 0.405D+00 0.441D+00
 Gap=     0.236 Goal=   None    Shift=    0.000
 RMSDP=1.38D-05 MaxDP=5.39D-04 DE=-8.07D-05 OVMax= 1.82D-03

 Cycle   7  Pass 0  IDiag  1:
 E= -323.647253011691     Delta-E=       -0.000023917241 Rises=F Damp=F
 DIIS: error= 3.26D-05 at cycle   7 NSaved=   7.
 NSaved= 7 IEnMin= 7 EnMin= -323.647253011691     IErMin= 7 ErrMin= 3.26D-05
 ErrMax= 3.26D-05  0.00D+00 EMaxC= 1.00D-01 BMatC= 3.86D-07 BMatP= 2.64D-05
 IDIUse=1 WtCom= 1.00D+00 WtEn= 0.00D+00
 Coeff-Com: -0.939D-03 0.292D-03 0.149D-01 0.340D-01 0.141D+00 0.178D+00
 Coeff-Com:  0.633D+00
 Coeff:     -0.939D-03 0.292D-03 0.149D-01 0.340D-01 0.141D+00 0.178D+00
 Coeff:      0.633D+00
 Gap=     0.236 Goal=   None    Shift=    0.000
 RMSDP=2.48D-06 MaxDP=1.11D-04 DE=-2.39D-05 OVMax= 3.19D-04

 Initial convergence to 1.0D-05 achieved.  Increase integral accuracy.
 Cycle   8  Pass 1  IDiag  1:
 E= -323.647246960378     Delta-E=        0.000006051313 Rises=F Damp=F
 DIIS: error= 4.46D-05 at cycle   1 NSaved=   1.
 NSaved= 1 IEnMin= 1 EnMin= -323.647246960378     IErMin= 1 ErrMin= 4.46D-05
 ErrMax= 4.46D-05  0.00D+00 EMaxC= 1.00D-01 BMatC= 3.02D-07 BMatP= 3.02D-07
 IDIUse=1 WtCom= 1.00D+00 WtEn= 0.00D+00
 Coeff-Com:  0.100D+01
 Coeff:      0.100D+01
 Gap=     0.236 Goal=   None    Shift=    0.000
 RMSDP=2.48D-06 MaxDP=1.11D-04 DE= 6.05D-06 OVMax= 3.95D-04

 Cycle   9  Pass 1  IDiag  1:
 E= -323.647246965751     Delta-E=       -0.000000005373 Rises=F Damp=F
 DIIS: error= 3.72D-05 at cycle   2 NSaved=   2.
 NSaved= 2 IEnMin= 2 EnMin= -323.647246965751     IErMin= 2 ErrMin= 3.72D-05
 ErrMax= 3.72D-05  0.00D+00 EMaxC= 1.00D-01 BMatC= 3.32D-07 BMatP= 3.02D-07
 IDIUse=1 WtCom= 1.00D+00 WtEn= 0.00D+00
 Coeff-Com:  0.515D+00 0.485D+00
 Coeff:      0.515D+00 0.485D+00
 Gap=     0.236 Goal=   None    Shift=    0.000
 RMSDP=2.04D-06 MaxDP=9.92D-05 DE=-5.37D-09 OVMax= 2.98D-04

 Cycle  10  Pass 1  IDiag  1:
 E= -323.647247250465     Delta-E=       -0.000000284714 Rises=F Damp=F
 DIIS: error= 1.56D-05 at cycle   3 NSaved=   3.
 NSaved= 3 IEnMin= 3 EnMin= -323.647247250465     IErMin= 3 ErrMin= 1.56D-05
 ErrMax= 1.56D-05  0.00D+00 EMaxC= 1.00D-01 BMatC= 4.58D-08 BMatP= 3.02D-07
 IDIUse=1 WtCom= 1.00D+00 WtEn= 0.00D+00
 Coeff-Com:  0.154D-01 0.266D+00 0.719D+00
 Coeff:      0.154D-01 0.266D+00 0.719D+00
 Gap=     0.236 Goal=   None    Shift=    0.000
 RMSDP=7.47D-07 MaxDP=2.22D-05 DE=-2.85D-07 OVMax= 1.04D-04

 Cycle  11  Pass 1  IDiag  1:
 E= -323.647247289354     Delta-E=       -0.000000038889 Rises=F Damp=F
 DIIS: error= 7.72D-06 at cycle   4 NSaved=   4.
 NSaved= 4 IEnMin= 4 EnMin= -323.647247289354     IErMin= 4 ErrMin= 7.72D-06
 ErrMax= 7.72D-06  0.00D+00 EMaxC= 1.00D-01 BMatC= 8.15D-09 BMatP= 4.58D-08
 IDIUse=1 WtCom= 1.00D+00 WtEn= 0.00D+00
 Coeff-Com: -0.190D-01 0.143D+00 0.459D+00 0.417D+00
 Coeff:     -0.190D-01 0.143D+00 0.459D+00 0.417D+00
 Gap=     0.236 Goal=   None    Shift=    0.000
 RMSDP=2.55D-07 MaxDP=1.27D-05 DE=-3.89D-08 OVMax= 4.01D-05

 Cycle  12  Pass 1  IDiag  1:
 E= -323.647247297382     Delta-E=       -0.000000008029 Rises=F Damp=F
 DIIS: error= 1.19D-06 at cycle   5 NSaved=   5.
 NSaved= 5 IEnMin= 5 EnMin= -323.647247297382     IErMin= 5 ErrMin= 1.19D-06
 ErrMax= 1.19D-06  0.00D+00 EMaxC= 1.00D-01 BMatC= 1.16D-10 BMatP= 8.15D-09
 IDIUse=1 WtCom= 1.00D+00 WtEn= 0.00D+00
 Coeff-Com: -0.995D-02 0.692D-01 0.222D+00 0.218D+00 0.501D+00
 Coeff:     -0.995D-02 0.692D-01 0.222D+00 0.218D+00 0.501D+00
 Gap=     0.236 Goal=   None    Shift=    0.000
 RMSDP=4.52D-08 MaxDP=1.42D-06 DE=-8.03D-09 OVMax= 6.12D-06

 Cycle  13  Pass 1  IDiag  1:
 E= -323.647247297473     Delta-E=       -0.000000000091 Rises=F Damp=F
 DIIS: error= 3.90D-07 at cycle   6 NSaved=   6.
 NSaved= 6 IEnMin= 6 EnMin= -323.647247297473     IErMin= 6 ErrMin= 3.90D-07
 ErrMax= 3.90D-07  0.00D+00 EMaxC= 1.00D-01 BMatC= 2.76D-11 BMatP= 1.16D-10
 IDIUse=1 WtCom= 1.00D+00 WtEn= 0.00D+00
 Coeff-Com: -0.241D-02 0.146D-01 0.459D-01 0.521D-01 0.330D+00 0.560D+00
 Coeff:     -0.241D-02 0.146D-01 0.459D-01 0.521D-01 0.330D+00 0.560D+00
 Gap=     0.236 Goal=   None    Shift=    0.000
 RMSDP=1.57D-08 MaxDP=6.58D-07 DE=-9.13D-11 OVMax= 2.56D-06

 Cycle  14  Pass 1  IDiag  1:
 E= -323.647247297508     Delta-E=       -0.000000000035 Rises=F Damp=F
 DIIS: error= 6.75D-08 at cycle   7 NSaved=   7.
 NSaved= 7 IEnMin= 7 EnMin= -323.647247297508     IErMin= 7 ErrMin= 6.75D-08
 ErrMax= 6.75D-08  0.00D+00 EMaxC= 1.00D-01 BMatC= 1.46D-12 BMatP= 2.76D-11
 IDIUse=1 WtCom= 1.00D+00 WtEn= 0.00D+00
 Coeff-Com: -0.262D-03 0.718D-03 0.163D-02 0.404D-02 0.114D+00 0.270D+00
 Coeff-Com:  0.609D+00
 Coeff:     -0.262D-03 0.718D-03 0.163D-02 0.404D-02 0.114D+00 0.270D+00
 Coeff:      0.609D+00
 Gap=     0.236 Goal=   None    Shift=    0.000
 RMSDP=4.01D-09 MaxDP=1.91D-07 DE=-3.49D-11 OVMax= 4.46D-07

 SCF Done:  E(RB3LYP) =  -323.647247298     A.U. after   14 cycles
            NFock= 14  Conv=0.40D-08     -V/T= 2.0043
 KE= 3.222736004251D+02 PE=-1.302476508262D+03 EE= 3.827890275942D+02
 Leave Link  502 at Fri Aug 27 21:19:03 2021, MaxMem= 17179869184 cpu:       197.8
 (Enter /public3/home/sc51754/softwares/g09e01/l601.exe)
 Copying SCF densities to generalized density rwf, IOpCl= 0 IROHF=0.

 **********************************************************************

            Population analysis using the SCF density.

 **********************************************************************

 Orbital symmetries:
       Occupied  (A) (A) (A) (A) (A) (A) (A) (A) (A) (A) (A) (A)
                 (A) (A) (A) (A) (A) (A) (A) (A) (A) (A) (A) (A)
                 (A)
       Virtual   (A) (A) (A) (A) (A) (A) (A) (A) (A) (A) (A) (A)
                 (A) (A) (A) (A) (A) (A) (A) (A) (A) (A) (A) (A)
                 (A) (A) (A) (A) (A) (A) (A) (A) (A) (A) (A) (A)
                 (A) (A) (A) (A) (A) (A) (A) (A) (A) (A) (A) (A)
                 (A) (A) (A) (A) (A) (A) (A) (A) (A) (A) (A) (A)
                 (A) (A) (A) (A) (A) (A) (A) (A) (A) (A) (A) (A)
                 (A) (A) (A) (A) (A) (A) (A) (A) (A) (A) (A) (A)
                 (A) (A) (A) (A) (A) (A) (A) (A) (A) (A) (A) (A)
                 (A) (A) (A) (A) (A) (A) (A) (A) (A) (A) (A) (A)
                 (A) (A) (A) (A) (A) (A) (A) (A) (A) (A) (A) (A)
                 (A) (A) (A) (A) (A) (A) (A) (A) (A) (A) (A) (A)
                 (A) (A) (A) (A) (A) (A) (A) (A) (A) (A) (A) (A)
                 (A) (A) (A) (A) (A) (A) (A) (A) (A) (A) (A) (A)
                 (A) (A) (A) (A) (A) (A) (A) (A) (A) (A) (A) (A)
                 (A) (A) (A) (A) (A) (A) (A) (A) (A) (A) (A) (A)
                 (A) (A) (A) (A) (A) (A) (A) (A) (A) (A) (A) (A)
                 (A) (A) (A) (A) (A) (A) (A) (A) (A) (A) (A) (A)
                 (A) (A) (A) (A) (A) (A) (A) (A) (A) (A) (A) (A)
                 (A) (A) (A) (A) (A) (A) (A) (A) (A) (A) (A) (A)
                 (A) (A) (A) (A) (A) (A) (A) (A) (A) (A) (A) (A)
                 (A) (A) (A) (A) (A) (A) (A) (A) (A) (A) (A) (A)
                 (A) (A) (A)
 The electronic state is 1-A.
 Alpha  occ. eigenvalues --  -19.17947 -14.31049 -10.26418 -10.21796 -10.21572
 Alpha  occ. eigenvalues --  -10.19276 -10.18679  -1.08935  -0.94498  -0.80530
 Alpha  occ. eigenvalues --   -0.77184  -0.65751  -0.63660  -0.57195  -0.51517
 Alpha  occ. eigenvalues --   -0.48975  -0.46009  -0.43967  -0.43949  -0.41774
 Alpha  occ. eigenvalues --   -0.38220  -0.36619  -0.27606  -0.26673  -0.26595
 Alpha virt. eigenvalues --   -0.02988  -0.02565  -0.00532   0.02923   0.03982
 Alpha virt. eigenvalues --    0.07471   0.07684   0.11907   0.12137   0.13244
 Alpha virt. eigenvalues --    0.15636   0.17162   0.18093   0.19001   0.19882
 Alpha virt. eigenvalues --    0.21786   0.22093   0.23024   0.25292   0.26793
 Alpha virt. eigenvalues --    0.27697   0.28223   0.29101   0.30801   0.32246
 Alpha virt. eigenvalues --    0.33296   0.33555   0.34203   0.35184   0.37180
 Alpha virt. eigenvalues --    0.37862   0.40834   0.42738   0.44978   0.46070
 Alpha virt. eigenvalues --    0.48682   0.50348   0.53960   0.54856   0.57955
 Alpha virt. eigenvalues --    0.59114   0.61001   0.63651   0.64685   0.65151
 Alpha virt. eigenvalues --    0.68363   0.70005   0.73857   0.75677   0.80625
 Alpha virt. eigenvalues --    0.82622   0.84313   0.86354   0.88099   0.89668
 Alpha virt. eigenvalues --    0.94099   0.95526   0.96402   0.97322   1.01335
 Alpha virt. eigenvalues --    1.03235   1.07338   1.10420   1.11030   1.12835
 Alpha virt. eigenvalues --    1.13423   1.15190   1.15575   1.16692   1.18669
 Alpha virt. eigenvalues --    1.23333   1.24050   1.29002   1.29313   1.30172
 Alpha virt. eigenvalues --    1.32031   1.34042   1.41159   1.42166   1.44001
 Alpha virt. eigenvalues --    1.44951   1.46127   1.48800   1.54095   1.56777
 Alpha virt. eigenvalues --    1.57858   1.59127   1.59214   1.63275   1.66032
 Alpha virt. eigenvalues --    1.66506   1.68064   1.70803   1.72365   1.74998
 Alpha virt. eigenvalues --    1.77520   1.77784   1.81183   1.83298   1.84714
 Alpha virt. eigenvalues --    1.84914   1.92067   1.94683   1.96672   1.97540
 Alpha virt. eigenvalues --    2.03518   2.07872   2.09045   2.15645   2.17909
 Alpha virt. eigenvalues --    2.20591   2.22057   2.22916   2.27180   2.30007
 Alpha virt. eigenvalues --    2.36333   2.39016   2.54024   2.56786   2.76264
 Alpha virt. eigenvalues --    2.86214   2.90552   2.95540   2.98365   3.10808
 Alpha virt. eigenvalues --    3.14592   3.20365   3.21708   3.24302   3.25224
 Alpha virt. eigenvalues --    3.31869   3.32095   3.33588   3.35978   3.39241
 Alpha virt. eigenvalues --    3.40201   3.43121   3.48158   3.51077   3.53346
 Alpha virt. eigenvalues --    3.56553   3.59360   3.59620   3.63084   3.65232
 Alpha virt. eigenvalues --    3.70374   3.72834   3.74878   3.77501   3.79172
 Alpha virt. eigenvalues --    3.81646   3.85415   3.87706   3.93183   3.98648
 Alpha virt. eigenvalues --    3.99500   4.01709   4.02025   4.05787   4.05904
 Alpha virt. eigenvalues --    4.06908   4.10871   4.11853   4.13244   4.14425
 Alpha virt. eigenvalues --    4.16121   4.17631   4.19270   4.21379   4.24979
 Alpha virt. eigenvalues --    4.25096   4.27036   4.27943   4.28764   4.30375
 Alpha virt. eigenvalues --    4.32849   4.33362   4.36490   4.37838   4.38856
 Alpha virt. eigenvalues --    4.42027   4.42099   4.43532   4.44265   4.46523
 Alpha virt. eigenvalues --    4.48344   4.49598   4.50662   4.51793   4.54164
 Alpha virt. eigenvalues --    4.54733   4.56635   4.63504   4.64917   4.70271
 Alpha virt. eigenvalues --    4.74511   4.75640   4.77845   4.81001   4.84722
 Alpha virt. eigenvalues --    4.88777   4.91335   4.93356   4.95727   4.99511
 Alpha virt. eigenvalues --    5.05163   5.07854   5.08083   5.14053   5.14682
 Alpha virt. eigenvalues --    5.16327   5.21065   5.30619   5.30897   5.31141
 Alpha virt. eigenvalues --    5.31602   5.32637   5.35464   5.38996   5.44161
 Alpha virt. eigenvalues --    5.46046   5.51660   5.53217   5.55276   5.57058
 Alpha virt. eigenvalues --    5.64103   5.66248   5.68243   5.74956   5.75131
 Alpha virt. eigenvalues --    5.78348   5.91018   5.99079   6.04659   6.06456
 Alpha virt. eigenvalues --    6.09812   6.13471   6.21878   6.25355   6.28269
 Alpha virt. eigenvalues --    6.37242   6.45310   6.46124   6.54818   6.58613
 Alpha virt. eigenvalues --    6.82239   7.02636   7.30895   9.06534  12.21221
 Alpha virt. eigenvalues --   12.34427  15.43702  17.25966  18.48755  22.02959
          Condensed to atoms (all electrons):
               1          2          3          4          5          6
     1  C    4.672659   0.420097  -0.037652  -0.053730  -0.109319   0.510243
     2  C    0.420097   5.082610   0.508940  -0.012532  -0.055709  -0.041372
     3  C   -0.037652   0.508940   4.524013   0.517856  -0.048491  -0.021761
     4  C   -0.053730  -0.012532   0.517856   4.978937   0.448696  -0.038421
     5  C   -0.109319  -0.055709  -0.048491   0.448696   4.682061   0.495143
     6  N    0.510243  -0.041372  -0.021761  -0.038421   0.495143   6.544652
     7  H    0.457218  -0.076675   0.005139  -0.005036   0.008688  -0.047325
     8  H   -0.018473   0.416352  -0.044437   0.005533   0.000059   0.006139
     9  H   -0.001685   0.009748  -0.038929   0.423096  -0.029108   0.005992
    10  H    0.008940  -0.007085   0.009675  -0.081374   0.461954  -0.048089
    11  O    0.006883  -0.067932   0.304909  -0.063862   0.004430  -0.000531
    12  H    0.001744  -0.003291  -0.033346   0.006785  -0.000800   0.000394
               7          8          9         10         11         12
     1  C    0.457218  -0.018473  -0.001685   0.008940   0.006883   0.001744
     2  C   -0.076675   0.416352   0.009748  -0.007085  -0.067932  -0.003291
     3  C    0.005139  -0.044437  -0.038929   0.009675   0.304909  -0.033346
     4  C   -0.005036   0.005533   0.423096  -0.081374  -0.063862   0.006785
     5  C    0.008688   0.000059  -0.029108   0.461954   0.004430  -0.000800
     6  N   -0.047325   0.006139   0.005992  -0.048089  -0.000531   0.000394
     7  H    0.604972  -0.004652   0.000187   0.000227  -0.000395  -0.000070
     8  H   -0.004652   0.614817  -0.000286   0.000154  -0.006772   0.004202
     9  H    0.000187  -0.000286   0.584243  -0.006157   0.003939  -0.000672
    10  H    0.000227   0.000154  -0.006157   0.601216  -0.000238   0.000109
    11  O   -0.000395  -0.006772   0.003939  -0.000238   7.851528   0.341966
    12  H   -0.000070   0.004202  -0.000672   0.000109   0.341966   0.479837
 Mulliken charges:
               1
     1  C    0.143075
     2  C   -0.173150
     3  C    0.354085
     4  C   -0.125949
     5  C    0.142395
     6  N   -0.365063
     7  H    0.057724
     8  H    0.027365
     9  H    0.049631
    10  H    0.060670
    11  O   -0.373925
    12  H    0.203142
 Sum of Mulliken charges =  -0.00000
 Mulliken charges with hydrogens summed into heavy atoms:
               1
     1  C    0.200799
     2  C   -0.145785
     3  C    0.354085
     4  C   -0.076318
     5  C    0.203065
     6  N   -0.365063
    11  O   -0.170783
 Electronic spatial extent (au):  <R**2>=            642.5220
 Charge=             -0.0000 electrons
 Dipole moment (field-independent basis, Debye):
    X=              2.3940    Y=              1.2970    Z=             -0.0000  Tot=              2.7228
 Quadrupole moment (field-independent basis, Debye-Ang):
   XX=            -44.2951   YY=            -33.7592   ZZ=            -43.3300
   XY=              4.5133   XZ=             -0.0017   YZ=             -0.0017
 Traceless Quadrupole moment (field-independent basis, Debye-Ang):
   XX=             -3.8337   YY=              6.7022   ZZ=             -2.8685
   XY=              4.5133   XZ=             -0.0017   YZ=             -0.0017
 Octapole moment (field-independent basis, Debye-Ang**2):
  XXX=             33.2349  YYY=              0.4122  ZZZ=              0.0005  XYY=              2.0106
  XXY=             12.1159  XXZ=             -0.0033  XZZ=              3.4735  YZZ=              0.0039
  YYZ=              0.0035  XYZ=             -0.0015
 Hexadecapole moment (field-independent basis, Debye-Ang**3):
 XXXX=           -532.5906 YYYY=           -260.6926 ZZZZ=            -48.1335 XXXY=             38.3014
 XXXZ=             -0.0156 YYYX=              2.7863 YYYZ=             -0.0092 ZZZX=             -0.0012
 ZZZY=             -0.0018 XXYY=           -108.9477 XXZZ=            -96.9794 YYZZ=            -62.2148
 XXYZ=             -0.0067 YYXZ=             -0.0022 ZZXY=              0.5046
 N-N= 2.737666329457D+02 E-N=-1.302476523322D+03  KE= 3.222736004251D+02
 No NMR shielding tensors so no spin-rotation constants.
 Leave Link  601 at Fri Aug 27 21:19:04 2021, MaxMem= 17179869184 cpu:        52.7
 (Enter /public3/home/sc51754/softwares/g09e01/l701.exe)
 Compute integral first derivatives.
 ... and contract with generalized density number  0.
 Leave Link  701 at Fri Aug 27 21:19:05 2021, MaxMem= 17179869184 cpu:        58.8
 (Enter /public3/home/sc51754/softwares/g09e01/l702.exe)
 L702 exits ... SP integral derivatives will be done elsewhere.
 Leave Link  702 at Fri Aug 27 21:19:05 2021, MaxMem= 17179869184 cpu:         0.2
 (Enter /public3/home/sc51754/softwares/g09e01/l703.exe)
 Compute integral first derivatives, UseDBF=F ICtDFT=           0.
 Integral derivatives from FoFJK, PRISM(SPDF).
 Calling FoFJK, ICntrl=      2127 FMM=F ISym2X=0 I1Cent= 0 IOpClX= 0 NMat=1 NMatS=1 NMatT=0.
 FoFJK:  IHMeth= 1 ICntrl=    2127 DoSepK=F KAlg= 0 I1Cent=   0 FoldK=F
 IRaf=         0 NMat=   1 IRICut=       1 DoRegI=T DoRafI=F ISym2E= 0.
 FoFCou: FMM=F IPFlag=           0 FMFlag=      100000 FMFlg1=         800
         NFxFlg=           0 DoJE=F BraDBF=F KetDBF=F FulRan=T
         wScrn=  0.000000 ICntrl=    2127 IOpCl=  0 I1Cent=           0 NGrid=           0
         NMat0=    1 NMatS0=      1 NMatT0=    0 NMatD0=    1 NMtDS0=    0 NMtDT0=    0
 Symmetry not used in FoFCou.
 Leave Link  703 at Fri Aug 27 21:19:07 2021, MaxMem= 17179869184 cpu:       118.0
 (Enter /public3/home/sc51754/softwares/g09e01/l716.exe)
 Dipole        = 9.41872607D-01 5.10293141D-01-7.75861141D-06
 ***** Axes restored to original set *****
 -------------------------------------------------------------------
 Center     Atomic                   Forces (Hartrees/Bohr)
 Number     Number              X              Y              Z
 -------------------------------------------------------------------
      1        6          -0.000099733   -0.001406781    0.000034021
      2        6           0.000751274   -0.003364880   -0.000006808
      3        6           0.005548522   -0.001330531   -0.000010168
      4        6           0.000787551    0.003938370    0.000022352
      5        6          -0.000175466    0.001249765   -0.000093755
      6        7          -0.007720425   -0.000076193    0.000019242
      7        1          -0.001567925   -0.002727023   -0.000010038
      8        1           0.001560078   -0.002511437    0.000001592
      9        1           0.001611584    0.002301811    0.000012692
     10        1          -0.001689887    0.002645882    0.000030782
     11        8           0.000286913    0.005768659    0.000005745
     12        1           0.000707515   -0.004487641   -0.000005656
 -------------------------------------------------------------------
 Cartesian Forces:  Max     0.007720425 RMS     0.002439070
 Leave Link  716 at Fri Aug 27 21:19:08 2021, MaxMem= 17179869184 cpu:         0.3
 (Enter /public3/home/sc51754/softwares/g09e01/l103.exe)

 GradGradGradGradGradGradGradGradGradGradGradGradGradGradGradGradGradGrad
 Berny optimization.
 FormGI is forming the generalized inverse of G from B-inverse, IUseBI=4.
 Internal  Forces:  Max     0.006198706 RMS     0.002342312
 Search for a local minimum.
 Step number   1 out of a maximum of   61
 All quantities printed in internal units (Hartrees-Bohrs-Radians)
 RMS Force = .23423D-02 SwitMx=.10000D-02 MixMth= 1
 Mixed Optimization -- RFO/linear search
 Second derivative matrix not updated -- first step.
 ITU=  0
     Eigenvalues ---    0.02120   0.02139   0.02144   0.02163   0.02209
     Eigenvalues ---    0.02238   0.02269   0.02294   0.02415   0.16000
     Eigenvalues ---    0.16000   0.16000   0.16000   0.16000   0.22000
     Eigenvalues ---    0.22826   0.23882   0.25000   0.34970   0.34996
     Eigenvalues ---    0.35128   0.35490   0.42425   0.43849   0.46118
     Eigenvalues ---    0.46897   0.53214   0.54017   0.55021   0.56489
 RFO step:  Lambda=-6.14512157D-04 EMin= 2.11976327D-02
 Linear search not attempted -- first point.
 Iteration  1 RMS(Cart)=  0.00729362 RMS(Int)=  0.00001581
 Iteration  2 RMS(Cart)=  0.00001857 RMS(Int)=  0.00000051
 Iteration  3 RMS(Cart)=  0.00000000 RMS(Int)=  0.00000051
 ITry= 1 IFail=0 DXMaxC= 1.73D-02 DCOld= 1.00D+10 DXMaxT= 3.00D-01 DXLimC= 3.00D+00 Rises=F
 Variable       Old X    -DE/DX   Delta X   Delta X   Delta X     New X
                                 (Linear)    (Quad)   (Total)
    R1        2.63455  -0.00564   0.00000  -0.01210  -0.01210   2.62246
    R2        2.52836  -0.00615   0.00000  -0.01074  -0.01074   2.51762
    R3        2.05724  -0.00314   0.00000  -0.00898  -0.00898   2.04826
    R4        2.64227  -0.00620   0.00000  -0.01338  -0.01338   2.62889
    R5        2.05467  -0.00295   0.00000  -0.00839  -0.00839   2.04628
    R6        2.64232  -0.00620   0.00000  -0.01338  -0.01338   2.62894
    R7        2.56754  -0.00107   0.00000  -0.00202  -0.00202   2.56552
    R8        2.62881  -0.00567   0.00000  -0.01203  -0.01203   2.61678
    R9        2.04887  -0.00279   0.00000  -0.00785  -0.00785   2.04103
   R10        2.53547  -0.00609   0.00000  -0.01078  -0.01078   2.52468
   R11        2.05681  -0.00314   0.00000  -0.00896  -0.00896   2.04786
   R12        1.82716  -0.00441   0.00000  -0.00815  -0.00815   1.81901
    A1        2.17019  -0.00064   0.00000  -0.00298  -0.00298   2.16720
    A2        2.08489   0.00038   0.00000   0.00184   0.00184   2.08674
    A3        2.02810   0.00026   0.00000   0.00114   0.00114   2.02924
    A4        2.06349   0.00009   0.00000   0.00075   0.00075   2.06424
    A5        2.10457  -0.00019   0.00000  -0.00127  -0.00127   2.10330
    A6        2.11512   0.00010   0.00000   0.00052   0.00052   2.11564
    A7        2.06766   0.00013   0.00000   0.00104   0.00104   2.06870
    A8        2.15371  -0.00061   0.00000  -0.00269  -0.00269   2.15102
    A9        2.06181   0.00048   0.00000   0.00165   0.00165   2.06346
   A10        2.06126   0.00010   0.00000   0.00080   0.00080   2.06206
   A11        2.09700   0.00030   0.00000   0.00179   0.00179   2.09879
   A12        2.12493  -0.00040   0.00000  -0.00258  -0.00259   2.12234
   A13        2.17345  -0.00065   0.00000  -0.00305  -0.00305   2.17041
   A14        2.08552   0.00036   0.00000   0.00176   0.00176   2.08728
   A15        2.02421   0.00029   0.00000   0.00128   0.00128   2.02550
   A16        2.03032   0.00097   0.00000   0.00344   0.00344   2.03376
   A17        1.90853   0.00202   0.00000   0.01259   0.01259   1.92112
    D1       -0.00024   0.00001   0.00000   0.00042   0.00042   0.00019
    D2        3.14151   0.00000   0.00000   0.00020   0.00020  -3.14147
    D3       -3.14157  -0.00000   0.00000  -0.00006  -0.00006   3.14155
    D4        0.00018  -0.00001   0.00000  -0.00029  -0.00029  -0.00011
    D5        0.00007  -0.00000   0.00000  -0.00007  -0.00007  -0.00000
    D6        3.14141   0.00001   0.00000   0.00040   0.00040  -3.14137
    D7        0.00001  -0.00000   0.00000  -0.00013  -0.00013  -0.00012
    D8       -3.14143  -0.00001   0.00000  -0.00029  -0.00029   3.14146
    D9        3.14145   0.00000   0.00000   0.00010   0.00010   3.14154
   D10        0.00000  -0.00000   0.00000  -0.00007  -0.00007  -0.00006
   D11        0.00034  -0.00001   0.00000  -0.00046  -0.00046  -0.00012
   D12       -3.14121  -0.00001   0.00000  -0.00046  -0.00046   3.14152
   D13       -3.14139  -0.00001   0.00000  -0.00031  -0.00031   3.14149
   D14        0.00024  -0.00001   0.00000  -0.00030  -0.00030  -0.00006
   D15       -0.00039   0.00001   0.00000   0.00023   0.00023  -0.00016
   D16        3.14135   0.00000   0.00000   0.00007   0.00007   3.14142
   D17       -0.00055   0.00002   0.00000   0.00088   0.00088   0.00033
   D18       -3.14120  -0.00002   0.00000  -0.00067  -0.00067   3.14131
   D19        3.14101   0.00002   0.00000   0.00087   0.00087  -3.14131
   D20        0.00035  -0.00002   0.00000  -0.00068  -0.00068  -0.00033
   D21        0.00034  -0.00001   0.00000  -0.00060  -0.00060  -0.00026
   D22        3.14102   0.00002   0.00000   0.00090   0.00090  -3.14127
         Item               Value     Threshold  Converged?
 Maximum Force            0.006199     0.000450     NO 
 RMS     Force            0.002342     0.000300     NO 
 Maximum Displacement     0.017312     0.001800     NO 
 RMS     Displacement     0.007297     0.001200     NO 
 Predicted change in Energy=-3.077078D-04
 Lowest energy point so far.  Saving SCF results.
 GradGradGradGradGradGradGradGradGradGradGradGradGradGradGradGradGradGrad

 Leave Link  103 at Fri Aug 27 21:19:08 2021, MaxMem= 17179869184 cpu:        19.5
 (Enter /public3/home/sc51754/softwares/g09e01/l202.exe)
                          Input orientation:                          
 ---------------------------------------------------------------------
 Center     Atomic      Atomic             Coordinates (Angstroms)
 Number     Number       Type             X           Y           Z
 ---------------------------------------------------------------------
      1          6           0        1.148528    1.149721    0.000075
      2          6           0       -0.238791    1.184061   -0.000023
      3          6           0       -0.927843   -0.024452   -0.000051
      4          6           0       -0.195128   -1.207030   -0.000123
      5          6           0        1.186827   -1.119244   -0.000309
      6          7           0        1.869323    0.029281   -0.000063
      7          1           0        1.706437    2.079003    0.000059
      8          1           0       -0.765288    2.130291   -0.000013
      9          1           0       -0.701628   -2.160969   -0.000077
     10          1           0        1.780640   -2.025746   -0.000101
     11          8           0       -2.282849   -0.108616    0.000007
     12          1           0       -2.668620    0.773279    0.000212
 ---------------------------------------------------------------------
                    Distance matrix (angstroms):
                    1          2          3          4          5
     1  C    0.000000
     2  C    1.387744   0.000000
     3  C    2.385372   1.391149   0.000000
     4  C    2.712875   2.391490   1.391174   0.000000
     5  C    2.269289   2.708801   2.381260   1.384740   0.000000
     6  N    1.332266   2.403677   2.797683   2.406330   1.336006
     7  H    1.083894   2.141222   3.371046   3.796573   3.240182
     8  H    2.150398   1.082843   2.160865   3.385675   3.790809
     9  H    3.792591   3.376899   2.148460   1.080065   2.156723
    10  H    3.237771   3.792224   3.367649   2.138681   1.083679
    11  O    3.654827   2.418509   1.357617   2.359045   3.613865
    12  H    3.835666   2.464308   1.914858   3.168563   4.294895
                    6          7          8          9         10
     6  N    0.000000
     7  H    2.056184   0.000000
     8  H    3.369780   2.472257   0.000000
     9  H    3.377423   4.876078   4.291732   0.000000
    10  H    2.056940   4.105420   4.873848   2.485949   0.000000
    11  O    4.154461   4.549734   2.704754   2.590832   4.493031
    12  H    4.598529   4.565747   2.337553   3.532544   5.256469
                   11         12
    11  O    0.000000
    12  H    0.962579   0.000000
 Stoichiometry    C5H5NO
 Framework group  C1[X(C5H5NO)]
 Deg. of freedom    30
 Full point group                 C1      NOp   1
 RotChk:  IX=2 Diff= 1.77D-03
 Largest Abelian subgroup         C1      NOp   1
 Largest concise Abelian subgroup C1      NOp   1
                         Standard orientation:                         
 ---------------------------------------------------------------------
 Center     Atomic      Atomic             Coordinates (Angstroms)
 Number     Number       Type             X           Y           Z
 ---------------------------------------------------------------------
      1          6           0       -1.146775    1.150555   -0.000133
      2          6           0        0.240586    1.183156   -0.000035
      3          6           0        0.928123   -0.026220   -0.000007
      4          6           0        0.193925   -1.207879    0.000065
      5          6           0       -1.187919   -1.118360    0.000251
      6          7           0       -1.868974    0.031020    0.000005
      7          1           0       -1.703518    2.080536   -0.000117
      8          1           0        0.768269    2.128724   -0.000045
      9          1           0        0.699229   -2.162452    0.000019
     10          1           0       -1.782868   -2.024117    0.000043
     11          8           0        2.283021   -0.112083   -0.000065
     12          1           0        2.669899    0.769327   -0.000270
 ---------------------------------------------------------------------
 Rotational constants (GHZ):      6.0352640      2.6470511      1.8400222
 Leave Link  202 at Fri Aug 27 21:19:08 2021, MaxMem= 17179869184 cpu:         4.8
 (Enter /public3/home/sc51754/softwares/g09e01/l301.exe)
 Basis read from rwf:  (5D, 7F)
 No pseudopotential information found on rwf file.
 There are   320 symmetry adapted cartesian basis functions of A   symmetry.
 There are   280 symmetry adapted basis functions of A   symmetry.
   280 basis functions,   475 primitive gaussians,   320 cartesian basis functions
    25 alpha electrons       25 beta electrons
       nuclear repulsion energy       274.8551860647 Hartrees.
 IExCor=  402 DFT=T Ex+Corr=B3LYP ExCW=0 ScaHFX=  0.200000
 ScaDFX=  0.800000  0.720000  1.000000  0.810000 ScalE2=  1.000000  1.000000
 IRadAn=      0 IRanWt=     -1 IRanGd=            0 ICorTp=0 IEmpDi=  4
 NAtoms=   12 NActive=   12 NUniq=   12 SFac= 1.00D+00 NAtFMM=   60 NAOKFM=F Big=F
 Integral buffers will be    131072 words long.
 Raffenetti 2 integral format.
 Two-electron integral symmetry is turned on.
 No density basis found on file   724.
 Leave Link  301 at Fri Aug 27 21:19:08 2021, MaxMem= 17179869184 cpu:         1.1
 (Enter /public3/home/sc51754/softwares/g09e01/l302.exe)
 NPDir=0 NMtPBC=     1 NCelOv=     1 NCel=       1 NClECP=     1 NCelD=      1
         NCelK=      1 NCelE2=     1 NClLst=     1 CellRange=     0.0.
 One-electron integrals computed using PRISM.
 NBasis=   280 RedAO= T EigKep=  1.94D-04  NBF=   280
 NBsUse=   280 1.00D-06 EigRej= -1.00D+00 NBFU=   280
 Precomputing XC quadrature grid using
 IXCGrd= 4 IRadAn=           0 IRanWt=          -1 IRanGd=           0 AccXCQ= 0.00D+00.
 Generated NRdTot=       0 NPtTot=           0 NUsed=           0 NTot=          32
 NSgBfM=   320   320   320   320   320 MxSgAt=    12 MxSgA2=    12.
 Leave Link  302 at Fri Aug 27 21:19:10 2021, MaxMem= 17179869184 cpu:        76.8
 (Enter /public3/home/sc51754/softwares/g09e01/l303.exe)
 DipDrv:  MaxL=1.
 Leave Link  303 at Fri Aug 27 21:19:10 2021, MaxMem= 17179869184 cpu:        11.5
 (Enter /public3/home/sc51754/softwares/g09e01/l401.exe)
 Initial guess from the checkpoint file:  "4HY_B3LYP_PC2_OPT_FREQ.chk"
 B after Tr=    -0.000000   -0.000000    0.000000
         Rot=    1.000000    0.000039   -0.000013    0.000422 Ang=   0.05 deg.
 Guess basis will be translated and rotated to current coordinates.
 JPrj=2 DoOrth=T DoCkMO=T.
 Leave Link  401 at Fri Aug 27 21:19:11 2021, MaxMem= 17179869184 cpu:        45.6
 (Enter /public3/home/sc51754/softwares/g09e01/l502.exe)
 Closed shell SCF:
 Using DIIS extrapolation, IDIIS=  1040.
 Integral symmetry usage will be decided dynamically.
 Keep R1 ints in memory in canonical form, NReq=790723944.
 IVT=      348554 IEndB=      348554 NGot= 17179869184 MDV= 16405683161
 LenX= 16405683161 LenY= 16405580320
 Requested convergence on RMS density matrix=1.00D-08 within 128 cycles.
 Requested convergence on MAX density matrix=1.00D-06.
 Requested convergence on             energy=1.00D-06.
 No special actions if energy rises.
 FoFCou: FMM=F IPFlag=           0 FMFlag=           0 FMFlg1=           0
         NFxFlg=           0 DoJE=F BraDBF=F KetDBF=F FulRan=T
         wScrn=  0.000000 ICntrl=     600 IOpCl=  0 I1Cent=           0 NGrid=           0
         NMat0=    1 NMatS0=  39340 NMatT0=    0 NMatD0=    1 NMtDS0=    0 NMtDT0=    0
 Symmetry not used in FoFCou.

 Cycle   1  Pass 1  IDiag  1:
 E= -323.647455141134    
 DIIS: error= 5.67D-04 at cycle   1 NSaved=   1.
 NSaved= 1 IEnMin= 1 EnMin= -323.647455141134     IErMin= 1 ErrMin= 5.67D-04
 ErrMax= 5.67D-04  0.00D+00 EMaxC= 1.00D-01 BMatC= 1.01D-04 BMatP= 1.01D-04
 IDIUse=3 WtCom= 9.94D-01 WtEn= 5.67D-03
 Coeff-Com:  0.100D+01
 Coeff-En:   0.100D+01
 Coeff:      0.100D+01
 Gap=     0.637 Goal=   None    Shift=    0.000
 RMSDP=3.87D-05 MaxDP=1.38D-03              OVMax= 2.15D-03

 Cycle   2  Pass 1  IDiag  1:
 E= -323.647534888049     Delta-E=       -0.000079746916 Rises=F Damp=F
 DIIS: error= 3.00D-04 at cycle   2 NSaved=   2.
 NSaved= 2 IEnMin= 2 EnMin= -323.647534888049     IErMin= 2 ErrMin= 3.00D-04
 ErrMax= 3.00D-04  0.00D+00 EMaxC= 1.00D-01 BMatC= 1.39D-05 BMatP= 1.01D-04
 IDIUse=3 WtCom= 9.97D-01 WtEn= 3.00D-03
 Coeff-Com:  0.196D+00 0.804D+00
 Coeff-En:   0.000D+00 0.100D+01
 Coeff:      0.195D+00 0.805D+00
 Gap=     0.237 Goal=   None    Shift=    0.000
 RMSDP=2.05D-05 MaxDP=8.78D-04 DE=-7.97D-05 OVMax= 1.34D-03

 Cycle   3  Pass 1  IDiag  1:
 E= -323.647540418260     Delta-E=       -0.000005530210 Rises=F Damp=F
 DIIS: error= 1.90D-04 at cycle   3 NSaved=   3.
 NSaved= 3 IEnMin= 3 EnMin= -323.647540418260     IErMin= 3 ErrMin= 1.90D-04
 ErrMax= 1.90D-04  0.00D+00 EMaxC= 1.00D-01 BMatC= 8.13D-06 BMatP= 1.39D-05
 IDIUse=3 WtCom= 9.98D-01 WtEn= 1.90D-03
 Coeff-Com:  0.132D-01 0.432D+00 0.555D+00
 Coeff-En:   0.000D+00 0.374D+00 0.626D+00
 Coeff:      0.131D-01 0.432D+00 0.555D+00
 Gap=     0.237 Goal=   None    Shift=    0.000
 RMSDP=8.69D-06 MaxDP=3.08D-04 DE=-5.53D-06 OVMax= 6.45D-04

 Cycle   4  Pass 1  IDiag  1:
 E= -323.647548028349     Delta-E=       -0.000007610089 Rises=F Damp=F
 DIIS: error= 5.58D-05 at cycle   4 NSaved=   4.
 NSaved= 4 IEnMin= 4 EnMin= -323.647548028349     IErMin= 4 ErrMin= 5.58D-05
 ErrMax= 5.58D-05  0.00D+00 EMaxC= 1.00D-01 BMatC= 5.80D-07 BMatP= 8.13D-06
 IDIUse=1 WtCom= 1.00D+00 WtEn= 0.00D+00
 Coeff-Com: -0.222D-02 0.193D+00 0.307D+00 0.502D+00
 Coeff:     -0.222D-02 0.193D+00 0.307D+00 0.502D+00
 Gap=     0.237 Goal=   None    Shift=    0.000
 RMSDP=1.88D-06 MaxDP=1.25D-04 DE=-7.61D-06 OVMax= 2.02D-04

 Cycle   5  Pass 1  IDiag  1:
 E= -323.647548408096     Delta-E=       -0.000000379747 Rises=F Damp=F
 DIIS: error= 1.60D-05 at cycle   5 NSaved=   5.
 NSaved= 5 IEnMin= 5 EnMin= -323.647548408096     IErMin= 5 ErrMin= 1.60D-05
 ErrMax= 1.60D-05  0.00D+00 EMaxC= 1.00D-01 BMatC= 4.28D-08 BMatP= 5.80D-07
 IDIUse=1 WtCom= 1.00D+00 WtEn= 0.00D+00
 Coeff-Com: -0.308D-02 0.323D-01 0.806D-01 0.249D+00 0.641D+00
 Coeff:     -0.308D-02 0.323D-01 0.806D-01 0.249D+00 0.641D+00
 Gap=     0.237 Goal=   None    Shift=    0.000
 RMSDP=5.63D-07 MaxDP=2.59D-05 DE=-3.80D-07 OVMax= 4.65D-05

 Cycle   6  Pass 1  IDiag  1:
 E= -323.647548440089     Delta-E=       -0.000000031994 Rises=F Damp=F
 DIIS: error= 3.00D-06 at cycle   6 NSaved=   6.
 NSaved= 6 IEnMin= 6 EnMin= -323.647548440089     IErMin= 6 ErrMin= 3.00D-06
 ErrMax= 3.00D-06  0.00D+00 EMaxC= 1.00D-01 BMatC= 1.57D-09 BMatP= 4.28D-08
 IDIUse=1 WtCom= 1.00D+00 WtEn= 0.00D+00
 Coeff-Com: -0.103D-02 0.529D-02 0.216D-01 0.823D-01 0.260D+00 0.632D+00
 Coeff:     -0.103D-02 0.529D-02 0.216D-01 0.823D-01 0.260D+00 0.632D+00
 Gap=     0.237 Goal=   None    Shift=    0.000
 RMSDP=1.93D-07 MaxDP=6.44D-06 DE=-3.20D-08 OVMax= 3.04D-05

 Cycle   7  Pass 1  IDiag  1:
 E= -323.647548440766     Delta-E=       -0.000000000676 Rises=F Damp=F
 DIIS: error= 3.04D-06 at cycle   7 NSaved=   7.
 NSaved= 7 IEnMin= 7 EnMin= -323.647548440766     IErMin= 6 ErrMin= 3.00D-06
 ErrMax= 3.04D-06  0.00D+00 EMaxC= 1.00D-01 BMatC= 8.64D-10 BMatP= 1.57D-09
 IDIUse=1 WtCom= 1.00D+00 WtEn= 0.00D+00
 Coeff-Com: -0.331D-03-0.315D-03 0.475D-02 0.249D-01 0.919D-01 0.441D+00
 Coeff-Com:  0.438D+00
 Coeff:     -0.331D-03-0.315D-03 0.475D-02 0.249D-01 0.919D-01 0.441D+00
 Coeff:      0.438D+00
 Gap=     0.237 Goal=   None    Shift=    0.000
 RMSDP=8.99D-08 MaxDP=3.60D-06 DE=-6.76D-10 OVMax= 1.31D-05

 Cycle   8  Pass 1  IDiag  1:
 E= -323.647548441698     Delta-E=       -0.000000000933 Rises=F Damp=F
 DIIS: error= 2.97D-07 at cycle   8 NSaved=   8.
 NSaved= 8 IEnMin= 8 EnMin= -323.647548441698     IErMin= 8 ErrMin= 2.97D-07
 ErrMax= 2.97D-07  0.00D+00 EMaxC= 1.00D-01 BMatC= 2.19D-11 BMatP= 8.64D-10
 IDIUse=1 WtCom= 1.00D+00 WtEn= 0.00D+00
 Coeff-Com: -0.905D-04-0.666D-03 0.586D-03 0.690D-02 0.277D-01 0.175D+00
 Coeff-Com:  0.203D+00 0.587D+00
 Coeff:     -0.905D-04-0.666D-03 0.586D-03 0.690D-02 0.277D-01 0.175D+00
 Coeff:      0.203D+00 0.587D+00
 Gap=     0.237 Goal=   None    Shift=    0.000
 RMSDP=1.76D-08 MaxDP=9.16D-07 DE=-9.33D-10 OVMax= 1.91D-06

 Cycle   9  Pass 1  IDiag  1:
 E= -323.647548441714     Delta-E=       -0.000000000016 Rises=F Damp=F
 DIIS: error= 1.37D-07 at cycle   9 NSaved=   9.
 NSaved= 9 IEnMin= 9 EnMin= -323.647548441714     IErMin= 9 ErrMin= 1.37D-07
 ErrMax= 1.37D-07  0.00D+00 EMaxC= 1.00D-01 BMatC= 6.56D-12 BMatP= 2.19D-11
 IDIUse=1 WtCom= 1.00D+00 WtEn= 0.00D+00
 Coeff-Com:  0.112D-04-0.392D-03-0.711D-03-0.772D-03-0.162D-02 0.232D-01
 Coeff-Com:  0.395D-01 0.369D+00 0.571D+00
 Coeff:      0.112D-04-0.392D-03-0.711D-03-0.772D-03-0.162D-02 0.232D-01
 Coeff:      0.395D-01 0.369D+00 0.571D+00
 Gap=     0.237 Goal=   None    Shift=    0.000
 RMSDP=7.64D-09 MaxDP=3.37D-07 DE=-1.61D-11 OVMax= 7.01D-07

 SCF Done:  E(RB3LYP) =  -323.647548442     A.U. after    9 cycles
            NFock=  9  Conv=0.76D-08     -V/T= 2.0038
 KE= 3.224080692316D+02 PE=-1.304765323123D+03 EE= 3.838545193845D+02
 Leave Link  502 at Fri Aug 27 21:19:19 2021, MaxMem= 17179869184 cpu:       171.3
 (Enter /public3/home/sc51754/softwares/g09e01/l701.exe)
 Compute integral first derivatives.
 ... and contract with generalized density number  0.
 Leave Link  701 at Fri Aug 27 21:19:20 2021, MaxMem= 17179869184 cpu:        67.1
 (Enter /public3/home/sc51754/softwares/g09e01/l702.exe)
 L702 exits ... SP integral derivatives will be done elsewhere.
 Leave Link  702 at Fri Aug 27 21:19:20 2021, MaxMem= 17179869184 cpu:         0.2
 (Enter /public3/home/sc51754/softwares/g09e01/l703.exe)
 Compute integral first derivatives, UseDBF=F ICtDFT=           0.
 Integral derivatives from FoFJK, PRISM(SPDF).
 Calling FoFJK, ICntrl=      2127 FMM=F ISym2X=0 I1Cent= 0 IOpClX= 0 NMat=1 NMatS=1 NMatT=0.
 FoFJK:  IHMeth= 1 ICntrl=    2127 DoSepK=F KAlg= 0 I1Cent=   0 FoldK=F
 IRaf=         0 NMat=   1 IRICut=       1 DoRegI=T DoRafI=F ISym2E= 0.
 FoFCou: FMM=F IPFlag=           0 FMFlag=      100000 FMFlg1=         800
         NFxFlg=           0 DoJE=F BraDBF=F KetDBF=F FulRan=T
         wScrn=  0.000000 ICntrl=    2127 IOpCl=  0 I1Cent=           0 NGrid=           0
         NMat0=    1 NMatS0=      1 NMatT0=    0 NMatD0=    1 NMtDS0=    0 NMtDT0=    0
 Symmetry not used in FoFCou.
 Leave Link  703 at Fri Aug 27 21:19:23 2021, MaxMem= 17179869184 cpu:       136.0
 (Enter /public3/home/sc51754/softwares/g09e01/l716.exe)
 Dipole        = 9.38625128D-01 5.08086881D-01-1.57524170D-04
 ***** Axes restored to original set *****
 -------------------------------------------------------------------
 Center     Atomic                   Forces (Hartrees/Bohr)
 Number     Number              X              Y              Z
 -------------------------------------------------------------------
      1        6           0.001071444    0.000197017   -0.000025946
      2        6          -0.000392279    0.000075203    0.000007938
      3        6          -0.000106063   -0.000154887   -0.000000189
      4        6          -0.000770507    0.000123148   -0.000017054
      5        6           0.001228766   -0.000004892    0.000060149
      6        7          -0.001019260   -0.000109298   -0.000013040
      7        1           0.000066485    0.000161268    0.000009042
      8        1          -0.000030931    0.000090570    0.000001574
      9        1           0.000020947   -0.000177904   -0.000002748
     10        1           0.000035089   -0.000165632   -0.000019797
     11        8          -0.000319278    0.000451144    0.000000935
     12        1           0.000215587   -0.000485736   -0.000000863
 -------------------------------------------------------------------
 Cartesian Forces:  Max     0.001228766 RMS     0.000381688
 Leave Link  716 at Fri Aug 27 21:19:23 2021, MaxMem= 17179869184 cpu:         0.3
 (Enter /public3/home/sc51754/softwares/g09e01/l103.exe)

 GradGradGradGradGradGradGradGradGradGradGradGradGradGradGradGradGradGrad
 Berny optimization.
 Using GEDIIS/GDIIS optimizer.
 FormGI is forming the generalized inverse of G from B-inverse, IUseBI=4.
 Internal  Forces:  Max     0.000739474 RMS     0.000218774
 Search for a local minimum.
 Step number   2 out of a maximum of   61
 All quantities printed in internal units (Hartrees-Bohrs-Radians)
 RMS Force = .21877D-03 SwitMx=.10000D-02 MixMth= 2
 Mixed Optimization -- En-DIIS/RFO-DIIS
 Update second derivatives using D2CorX and points    1    2
 DE= -3.01D-04 DEPred=-3.08D-04 R= 9.79D-01
 TightC=F SS=  1.41D+00  RLast= 3.83D-02 DXNew= 5.0454D-01 1.1505D-01
 Trust test= 9.79D-01 RLast= 3.83D-02 DXMaxT set to 3.00D-01
 ITU=  1  0
 Use linear search instead of GDIIS.
     Eigenvalues ---    0.02120   0.02139   0.02144   0.02163   0.02209
     Eigenvalues ---    0.02238   0.02269   0.02294   0.02416   0.15909
     Eigenvalues ---    0.16000   0.16000   0.16000   0.16038   0.21999
     Eigenvalues ---    0.22476   0.23731   0.25013   0.34982   0.35076
     Eigenvalues ---    0.35229   0.35629   0.42400   0.44238   0.46084
     Eigenvalues ---    0.49768   0.52516   0.53266   0.55010   0.56515
 RFO step:  Lambda=-6.31389133D-06 EMin= 2.11975098D-02
 Quartic linear search produced a step of -0.02421.
 Iteration  1 RMS(Cart)=  0.00069421 RMS(Int)=  0.00000049
 Iteration  2 RMS(Cart)=  0.00000063 RMS(Int)=  0.00000019
 ITry= 1 IFail=0 DXMaxC= 2.10D-03 DCOld= 1.00D+10 DXMaxT= 3.00D-01 DXLimC= 3.00D+00 Rises=F
 Variable       Old X    -DE/DX   Delta X   Delta X   Delta X     New X
                                 (Linear)    (Quad)   (Total)
    R1        2.62246   0.00063   0.00029   0.00090   0.00119   2.62365
    R2        2.51762  -0.00015   0.00026  -0.00064  -0.00038   2.51724
    R3        2.04826   0.00017   0.00022   0.00017   0.00039   2.04865
    R4        2.62889   0.00043   0.00032   0.00048   0.00080   2.62969
    R5        2.04628   0.00009   0.00020  -0.00003   0.00017   2.04645
    R6        2.62894   0.00016   0.00032  -0.00011   0.00021   2.62915
    R7        2.56552   0.00011   0.00005   0.00012   0.00017   2.56570
    R8        2.61678   0.00074   0.00029   0.00111   0.00140   2.61818
    R9        2.04103   0.00015   0.00019   0.00013   0.00032   2.04135
   R10        2.52468  -0.00023   0.00026  -0.00079  -0.00053   2.52416
   R11        2.04786   0.00016   0.00022   0.00013   0.00034   2.04820
   R12        1.81901  -0.00053   0.00020  -0.00125  -0.00105   1.81796
    A1        2.16720  -0.00039   0.00007  -0.00179  -0.00172   2.16549
    A2        2.08674   0.00016  -0.00004   0.00073   0.00069   2.08743
    A3        2.02924   0.00022  -0.00003   0.00105   0.00103   2.03027
    A4        2.06424   0.00002  -0.00002   0.00024   0.00023   2.06447
    A5        2.10330  -0.00002   0.00003  -0.00025  -0.00022   2.10308
    A6        2.11564   0.00001  -0.00001   0.00001  -0.00001   2.11564
    A7        2.06870   0.00004  -0.00003   0.00035   0.00033   2.06903
    A8        2.15102   0.00002   0.00007  -0.00010  -0.00004   2.15099
    A9        2.06346  -0.00006  -0.00004  -0.00025  -0.00029   2.06317
   A10        2.06206  -0.00003  -0.00002   0.00001  -0.00001   2.06205
   A11        2.09879   0.00012  -0.00004   0.00072   0.00067   2.09946
   A12        2.12234  -0.00009   0.00006  -0.00072  -0.00066   2.12168
   A13        2.17041  -0.00030   0.00007  -0.00146  -0.00138   2.16902
   A14        2.08728   0.00009  -0.00004   0.00036   0.00032   2.08760
   A15        2.02550   0.00021  -0.00003   0.00109   0.00106   2.02656
   A16        2.03376   0.00066  -0.00008   0.00264   0.00256   2.03632
   A17        1.92112  -0.00000  -0.00030   0.00043   0.00012   1.92124
    D1        0.00019  -0.00001  -0.00001  -0.00031  -0.00032  -0.00013
    D2       -3.14147  -0.00000  -0.00000  -0.00019  -0.00020   3.14152
    D3        3.14155   0.00000   0.00000   0.00008   0.00008  -3.14155
    D4       -0.00011   0.00001   0.00001   0.00020   0.00021   0.00010
    D5       -0.00000   0.00000   0.00000   0.00002   0.00002   0.00002
    D6       -3.14137  -0.00001  -0.00001  -0.00036  -0.00037   3.14144
    D7       -0.00012   0.00000   0.00000   0.00019   0.00019   0.00007
    D8        3.14146   0.00000   0.00001   0.00020   0.00021  -3.14152
    D9        3.14154   0.00000  -0.00000   0.00007   0.00006  -3.14158
   D10       -0.00006   0.00000   0.00000   0.00008   0.00008   0.00002
   D11       -0.00012   0.00000   0.00001   0.00019   0.00020   0.00008
   D12        3.14152   0.00000   0.00001   0.00012   0.00014  -3.14153
   D13        3.14149   0.00000   0.00001   0.00018   0.00018  -3.14151
[...]
 Iteration  1 RMS(Cart)=  0.00016451 RMS(Int)=  0.00000003
 Iteration  2 RMS(Cart)=  0.00000003 RMS(Int)=  0.00000001
 ITry= 1 IFail=0 DXMaxC= 5.12D-04 DCOld= 1.00D+10 DXMaxT= 3.00D-01 DXLimC= 3.00D+00 Rises=F
 Variable       Old X    -DE/DX   Delta X   Delta X   Delta X     New X
                                 (Linear)    (Quad)   (Total)
    R1        2.62365   0.00013   0.00000   0.00026   0.00026   2.62391
    R2        2.51724  -0.00014   0.00000  -0.00026  -0.00026   2.51698
    R3        2.04865  -0.00000   0.00000  -0.00000  -0.00000   2.04865
    R4        2.62969  -0.00001   0.00000   0.00007   0.00007   2.62976
    R5        2.04645   0.00004   0.00000   0.00010   0.00010   2.04655
    R6        2.62915  -0.00006   0.00000  -0.00023  -0.00023   2.62892
    R7        2.56570   0.00005   0.00000   0.00019   0.00019   2.56589
    R8        2.61818   0.00021   0.00000   0.00060   0.00060   2.61877
    R9        2.04135   0.00003   0.00000   0.00007   0.00007   2.04142
   R10        2.52416  -0.00024   0.00000  -0.00064  -0.00064   2.52352
   R11        2.04820   0.00001   0.00000   0.00004   0.00004   2.04824
   R12        1.81796   0.00001   0.00000   0.00003   0.00003   1.81799
    A1        2.16549   0.00001   0.00000  -0.00009  -0.00009   2.16540
    A2        2.08743  -0.00001   0.00000  -0.00004  -0.00004   2.08739
    A3        2.03027  -0.00000   0.00000   0.00013   0.00013   2.03040
    A4        2.06447  -0.00003   0.00000  -0.00011  -0.00011   2.06436
    A5        2.10308   0.00004   0.00000   0.00025   0.00025   2.10333
    A6        2.11564  -0.00001   0.00000  -0.00014  -0.00014   2.11550
    A7        2.06903  -0.00001   0.00000   0.00012   0.00012   2.06915
    A8        2.15099  -0.00002   0.00000  -0.00022  -0.00022   2.15077
    A9        2.06317   0.00002   0.00000   0.00009   0.00009   2.06326
   A10        2.06205  -0.00003   0.00000  -0.00016  -0.00016   2.06188
   A11        2.09946   0.00003   0.00000   0.00031   0.00031   2.09977
   A12        2.12168  -0.00000   0.00000  -0.00014  -0.00014   2.12153
   A13        2.16902   0.00001   0.00000  -0.00003  -0.00003   2.16900
   A14        2.08760  -0.00002   0.00000  -0.00025  -0.00025   2.08736
   A15        2.02656   0.00001   0.00000   0.00027   0.00027   2.02683
   A16        2.03632   0.00005   0.00000   0.00027   0.00027   2.03659
   A17        1.92124  -0.00001   0.00000  -0.00013  -0.00013   1.92111
    D1       -0.00013   0.00001   0.00000   0.00013   0.00013  -0.00000
    D2        3.14152   0.00000   0.00000   0.00007   0.00007   3.14159
    D3       -3.14155  -0.00000   0.00000  -0.00004  -0.00004  -3.14159
    D4        0.00010  -0.00000   0.00000  -0.00010  -0.00010  -0.00000
    D5        0.00002  -0.00000   0.00000  -0.00002  -0.00002   0.00000
    D6        3.14144   0.00001   0.00000   0.00015   0.00015   3.14159
    D7        0.00007  -0.00000   0.00000  -0.00007  -0.00007  -0.00000
    D8       -3.14152  -0.00000   0.00000  -0.00008  -0.00008   3.14159
    D9       -3.14158  -0.00000   0.00000  -0.00001  -0.00001  -3.14159
   D10        0.00002  -0.00000   0.00000  -0.00002  -0.00002   0.00000
   D11        0.00008  -0.00000   0.00000  -0.00008  -0.00008   0.00000
   D12       -3.14153  -0.00000   0.00000  -0.00006  -0.00006  -3.14159
   D13       -3.14151  -0.00000   0.00000  -0.00008  -0.00008  -3.14159
   D14        0.00006  -0.00000   0.00000  -0.00006  -0.00006   0.00000
   D15       -0.00014   0.00000   0.00000   0.00014   0.00014  -0.00000
   D16        3.14146   0.00000   0.00000   0.00013   0.00013   3.14159
   D17       -0.00021   0.00001   0.00000   0.00021   0.00021  -0.00000
   D18       -3.14144  -0.00001   0.00000  -0.00016  -0.00016   3.14159
   D19        3.14141   0.00001   0.00000   0.00018   0.00018   3.14159
   D20        0.00018  -0.00001   0.00000  -0.00018  -0.00018  -0.00000
   D21        0.00015  -0.00001   0.00000  -0.00015  -0.00015   0.00000
   D22        3.14139   0.00001   0.00000   0.00020   0.00020  -3.14159
         Item               Value     Threshold  Converged?
 Maximum Force            0.000236     0.000450     YES
 RMS     Force            0.000055     0.000300     YES
 Maximum Displacement     0.000512     0.001800     YES
 RMS     Displacement     0.000165     0.001200     YES
 Predicted change in Energy=-2.197941D-07
 Optimization completed.
    -- Stationary point found.
                           ----------------------------
                           !   Optimized Parameters   !
                           ! (Angstroms and Degrees)  !
 --------------------------                            --------------------------
 ! Name  Definition              Value          Derivative Info.                !
 --------------------------------------------------------------------------------
 ! R1    R(1,2)                  1.3884         -DE/DX =    0.0001              !
 ! R2    R(1,6)                  1.3321         -DE/DX =   -0.0001              !
 ! R3    R(1,7)                  1.0841         -DE/DX =    0.0                 !
 ! R4    R(2,3)                  1.3916         -DE/DX =    0.0                 !
 ! R5    R(2,8)                  1.0829         -DE/DX =    0.0                 !
 ! R6    R(3,4)                  1.3913         -DE/DX =   -0.0001              !
 ! R7    R(3,11)                 1.3577         -DE/DX =    0.0001              !
 ! R8    R(4,5)                  1.3855         -DE/DX =    0.0002              !
 ! R9    R(4,9)                  1.0802         -DE/DX =    0.0                 !
 ! R10   R(5,6)                  1.3357         -DE/DX =   -0.0002              !
 ! R11   R(5,10)                 1.0839         -DE/DX =    0.0                 !
 ! R12   R(11,12)                0.962          -DE/DX =    0.0                 !
 ! A1    A(2,1,6)              124.0733         -DE/DX =    0.0                 !
 ! A2    A(2,1,7)              119.6007         -DE/DX =    0.0                 !
 ! A3    A(6,1,7)              116.3259         -DE/DX =    0.0                 !
 ! A4    A(1,2,3)              118.2853         -DE/DX =    0.0                 !
 ! A5    A(1,2,8)              120.4976         -DE/DX =    0.0                 !
 ! A6    A(3,2,8)              121.2171         -DE/DX =    0.0                 !
 ! A7    A(2,3,4)              118.5466         -DE/DX =    0.0                 !
 ! A8    A(2,3,11)             123.2424         -DE/DX =    0.0                 !
 ! A9    A(4,3,11)             118.211          -DE/DX =    0.0                 !
 ! A10   A(3,4,5)              118.1465         -DE/DX =    0.0                 !
 ! A11   A(3,4,9)              120.2903         -DE/DX =    0.0                 !
 ! A12   A(5,4,9)              121.5632         -DE/DX =    0.0                 !
 ! A13   A(4,5,6)              124.2759         -DE/DX =    0.0                 !
 ! A14   A(4,5,10)             119.6109         -DE/DX =    0.0                 !
 ! A15   A(6,5,10)             116.1132         -DE/DX =    0.0                 !
 ! A16   A(1,6,5)              116.6724         -DE/DX =    0.0                 !
 ! A17   A(3,11,12)            110.079          -DE/DX =    0.0                 !
 ! D1    D(6,1,2,3)             -0.0076         -DE/DX =    0.0                 !
 ! D2    D(6,1,2,8)            179.9957         -DE/DX =    0.0                 !
 ! D3    D(7,1,2,3)           -179.9975         -DE/DX =    0.0                 !
 ! D4    D(7,1,2,8)              0.0058         -DE/DX =    0.0                 !
 ! D5    D(2,1,6,5)              0.0013         -DE/DX =    0.0                 !
 ! D6    D(7,1,6,5)            179.9915         -DE/DX =    0.0                 !
 ! D7    D(1,2,3,4)              0.0042         -DE/DX =    0.0                 !
 ! D8    D(1,2,3,11)           180.0044         -DE/DX =    0.0                 !
 ! D9    D(8,2,3,4)           -179.9992         -DE/DX =    0.0                 !
 ! D10   D(8,2,3,11)             0.001          -DE/DX =    0.0                 !
 ! D11   D(2,3,4,5)              0.0048         -DE/DX =    0.0                 !
 ! D12   D(2,3,4,9)           -179.9965         -DE/DX =    0.0                 !
 ! D13   D(11,3,4,5)          -179.9955         -DE/DX =    0.0                 !
 ! D14   D(11,3,4,9)             0.0033         -DE/DX =    0.0                 !
 ! D15   D(2,3,11,12)           -0.0079         -DE/DX =    0.0                 !
 ! D16   D(4,3,11,12)          179.9923         -DE/DX =    0.0                 !
 ! D17   D(3,4,5,6)             -0.0118         -DE/DX =    0.0                 !
 ! D18   D(3,4,5,10)           180.009          -DE/DX =    0.0                 !
 ! D19   D(9,4,5,6)            179.9894         -DE/DX =    0.0                 !
 ! D20   D(9,4,5,10)             0.0102         -DE/DX =    0.0                 !
 ! D21   D(4,5,6,1)              0.0087         -DE/DX =    0.0                 !
 ! D22   D(10,5,6,1)          -180.0114         -DE/DX =    0.0                 !
 --------------------------------------------------------------------------------
 GradGradGradGradGradGradGradGradGradGradGradGradGradGradGradGradGradGrad

 Leave Link  103 at Fri Aug 27 21:20:22 2021, MaxMem= 17179869184 cpu:        72.1
 (Enter /public3/home/sc51754/softwares/g09e01/l9999.exe)
 1\1\GINC-P1908\Freq\RB3LYP\Gen\C5H5N1O1\SC51754\27-Aug-2021\0\\#P Geom
 =AllCheck Guess=TCheck SCRF=Check GenChk RB3LYP/ChkBas Freq\\4HY_B3LYP
 _PC2_OPT_FREQ\\0,1\C,1.1491249349,1.1505605846,-0.00008087\C,-0.238834
 1706,1.1845168759,0.0000279858\C,-0.9280206229,-0.0244062566,-0.000022
 5451\C,-0.1955617493,-1.207276029,-0.0000905418\C,1.1871527728,-1.1197
 933428,-0.0000030884\N,1.8682104053,0.029259951,-0.0000847615\H,1.7075
 119814,2.0797927759,-0.0000033718\H,-0.7654394519,2.1307904583,0.00009
 4631\H,-0.7017522898,-2.1615706886,-0.0001880629\H,1.7811265567,-2.026
 4071963,-0.0002009321\O,-2.2831154904,-0.1086089389,-0.0000131807\H,-2
 .6687948763,0.7727208063,0.0001577376\\Version=EM64L-G09RevE.01\State=
 1-A\HF=-323.6475521\RMSD=4.546e-09\RMSF=1.061e-04\ZeroPoint=0.0930116\
 Thermal=0.0983415\Dipole=-0.9357469,0.5090408,0.0000953\DipoleDeriv=0.
 4650632,0.027809,-0.0000312,-0.0159494,0.3773128,0.000015,0.0000232,0.
 0000663,-0.0043104,-0.4382848,-0.1239487,0.0000033,-0.3146677,-0.11512
 51,0.0000234,-0.0000174,-0.0000189,-0.1588977,1.5991054,-0.0011072,-0.
 0000207,-0.0022622,0.3330729,-0.0000248,-0.0000239,-0.0000258,0.113560
 2,-0.4368847,0.1328121,0.0000202,0.28403,-0.0993301,0.0000217,0.000050
 4,0.0000076,-0.1482309,0.4805941,-0.058493,0.0000049,0.0428241,0.38519
 44,0.0000252,-0.0000793,0.0000968,-0.0062818,-0.6193038,0.0168511,0.00
 00006,-0.0176059,-0.6278207,-0.0000423,0.000017,0.000009,-0.2818826,0.
 0354671,-0.0731152,0.0000048,-0.0575464,-0.0842662,-0.0000013,-0.00002
 5,-0.0000495,0.1044575,-0.0057492,0.0859965,0.0000128,0.0797261,-0.039
 1323,-0.0000109,0.0000191,-0.0000021,0.1522848,0.0497802,-0.0555787,-0
 .0000078,-0.0520365,-0.0175513,-0.0000087,-0.000019,-0.0000118,0.15161
 23,0.0321875,0.0795254,0.0000007,0.0595937,-0.0753341,-0.0000045,0.000
 0519,-0.0000881,0.1055248,-1.5374682,0.0170529,0.0000248,0.0095716,-0.
 1834001,0.0000336,-0.0000106,0.0000413,-0.3501667,0.375493,-0.0478043,
 -0.0000124,-0.0156775,0.1463797,-0.0000264,0.0000136,-0.0000249,0.3223
 305\Polar=81.5836648,-1.3757261,76.937609,-0.0009057,0.0011595,38.5385
 764\PG=C01 [X(C5H5N1O1)]\NImag=0\\0.67681247,0.04784615,0.73228385,-0.
 00001295,0.00002087,0.16060516,-0.32443533,-0.03884291,0.00001779,0.68
 842526,0.02904841,-0.13383873,-0.00000446,-0.03740165,0.71934675,0.000
 02146,-0.00000175,-0.06471551,-0.00002980,0.00003266,0.11773137,-0.029
 79024,-0.03446186,-0.00000094,-0.16066878,-0.10584815,-0.00000177,0.69
 068937,-0.08822712,0.04754577,0.00000420,-0.03251584,-0.28541591,-0.00
 001283,-0.01246644,0.70727238,0.00000008,0.00000396,0.00191782,-0.0000
 0297,-0.00001201,-0.06794784,-0.00000969,0.00003556,0.16643517,-0.0507
 2896,0.03828949,0.00000219,0.05910390,0.01796413,-0.00000252,-0.159186
 25,0.04092519,0.00000561,0.70116647,0.01969325,-0.01678160,-0.00000048
 ,-0.01441742,-0.04824137,-0.00000175,0.10933462,-0.28301937,-0.0000148
 7,0.04110649,0.72988840,0.00000035,0.00000049,-0.00625017,0.00000130,-
 0.00000239,0.00832631,0.00000386,-0.00001472,-0.07017404,0.00002108,0.
 00004498,0.12231685,0.05534188,-0.02266721,-0.00000328,-0.04867240,-0.
 01940445,0.00000137,-0.03627347,0.08219116,0.00000006,-0.33324843,-0.0
 3720290,-0.00001983,0.68764293,0.02811754,-0.09976407,0.,-0.03975007,-
 0.01885536,0.00000190,0.03002473,0.05286334,0.00000375,0.02974827,-0.1
 3688108,-0.00000692,-0.05274741,0.72289592,-0.00000224,-0.00000096,0.0
 0434339,0.00000095,0.00000150,-0.00673523,0.00000277,-0.00000107,0.001
 98394,-0.00001225,-0.00000529,-0.06499532,-0.00002323,0.00004096,0.162
 02321,-0.18499700,0.10958572,0.00000385,-0.03497441,0.03230129,0.00000
 254,0.01083601,0.00302253,-0.00000055,-0.02932074,-0.03559535,0.000001
 51,-0.17676233,-0.10260732,0.00000727,0.40701768,0.08420039,-0.2748991
 4,-0.00000272,0.09367993,0.02815299,-0.00000212,0.00311226,-0.09061344
 ,-0.00000326,-0.09486267,0.02489615,0.00000353,-0.07717792,-0.27520968
 ,0.00000511,-0.00784522,0.64052830,-0.00000029,0.00000029,-0.07054683,
 0.00000322,-0.00000265,0.02251030,-0.00000049,0.00000218,-0.00762178,-
 0.00000197,-0.00000100,0.02180310,0.00001495,0.00001213,-0.07066862,-0
 .00001336,-0.00000775,0.09739635,-0.13965542,-0.12549746,-0.00000730,-
 0.01210205,-0.02731643,-0.00000150,-0.00501925,0.00210131,0.00000065,-
 0.00046467,0.00088423,-0.00000005,0.00054677,0.00465779,0.00000005,0.0
 1391659,0.01928831,0.00000012,0.14267803,-0.12488877,-0.24362940,-0.00
 001498,0.00149740,0.00367385,-0.00000050,0.00124166,0.00127173,-0.0000
 0063,0.00003167,0.00024279,0.00000011,0.00288302,-0.00213556,-0.000001
 22,-0.00617264,-0.03341814,-0.00000002,0.12684104,0.27419865,-0.000009
 33,-0.00002049,-0.04246092,0.00000181,0.00000220,0.00684482,0.00000123
 ,-0.00000007,0.00786626,0.00000147,-0.00000080,-0.00098602,-0.00000217
 ,-0.00000123,0.00993666,-0.00000148,0.00000299,-0.00310421,0.00000829,
 0.00001662,0.02685968,-0.00746907,0.03120762,0.00000091,-0.12196093,0.
 11460829,0.00001060,0.00799913,-0.01425561,-0.00000089,-0.00040473,-0.
 00357913,0.00000003,-0.00153398,-0.00192308,0.00000013,-0.00677753,0.0
 0008382,0.00000090,0.00081314,-0.00048305,-0.00000038,0.12504510,-0.00
 138814,0.00282962,0.00000028,0.11475713,-0.26981196,-0.00001589,0.0185
 9844,-0.01895780,-0.00000138,-0.00427969,-0.00299881,-0.00000058,-0.00
 116974,0.00010068,-0.00000006,-0.00020171,0.00224059,-0.00000034,0.000
 42469,0.00051889,0.00000013,-0.12594005,0.28500146,0.00000126,-0.00000
 258,-0.00002135,0.00000893,-0.00001488,-0.03102523,0.00000060,-0.00000
 070,0.00333845,-0.00000005,-0.00000057,0.00568175,0.00000024,0.0000004
 7,-0.00043886,0.00000031,0.00000014,0.00817081,-0.00000002,0.00000038,
 -0.00339158,-0.00001102,0.00001733,0.02204075,-0.00146551,0.00179642,-
 0.00000008,-0.00124157,0.00332304,-0.00000019,0.01124734,0.01572000,0.
 00000122,-0.11907209,-0.11640303,-0.00001404,-0.00629060,-0.03005219,-
 0.00000130,-0.00633516,-0.00037258,-0.00000048,0.00011886,-0.00023151,
 0.00000014,0.00048251,0.00093031,-0.00000007,0.11991313,0.00114339,0.0
 0016808,-0.00000009,0.00397241,-0.00269067,-0.00000080,-0.01643981,-0.
 01940251,-0.00000174,-0.11465936,-0.28156688,-0.00002360,0.00139403,0.
 00316482,0.00000041,0.00031549,0.00219031,-0.00000078,-0.00007597,-0.0
 0000574,0.00000013,-0.00071201,-0.00082159,0.00000001,0.12614158,0.296
 07182,-0.00000006,0.00000053,-0.00042905,0.00000022,-0.00000060,0.0057
 9373,-0.00000094,-0.00000064,0.00443893,-0.00001191,-0.00002418,-0.033
 51351,-0.00000159,-0.00000241,0.00012438,0.00000064,0.00000049,0.00844
 085,0.00000004,0.00000002,-0.00137541,0.00000002,0.,0.00020567,0.00001
 423,0.00002561,0.02380708,0.00086661,-0.00462766,0.00000116,-0.0005062
 8,-0.00090075,0.,-0.00468648,-0.00214775,0.00000021,-0.01297829,0.0267
 9471,0.00000454,-0.14952743,0.12945637,0.00002555,0.01413337,-0.017594
 31,-0.00000252,0.00030613,-0.00052735,0.00000015,0.00010966,0.00007588
 ,-0.00000019,0.00082677,-0.00045601,-0.00000042,0.15291765,-0.00276589
 ,-0.00255221,-0.00000109,-0.00006241,0.00027463,0.00000015,-0.00150400
 ,0.00109527,-0.00000127,-0.00216995,0.00465683,-0.00000102,0.12882528,
 -0.23451917,-0.00003831,0.00808480,-0.03347613,-0.00000181,0.00056888,
 -0.00083416,0.00000012,0.00024589,-0.00001654,0.00000009,0.00049008,0.
 00049079,0.00000078,-0.13183765,0.26461036,0.00000277,-0.00000008,0.00
 965918,-0.00000088,-0.00000101,-0.00094813,-0.00000118,-0.00000053,0.0
 0820767,-0.00000294,0.00000163,0.00707436,0.00003161,-0.00004848,-0.04
 319838,-0.00000052,0.00000512,-0.00282917,-0.00000012,0.00000020,0.000
 41568,-0.00000012,0.00000009,-0.00130712,0.00000043,0.00000036,-0.0035
 7918,-0.00002854,0.00004224,0.02715666,0.00676344,-0.00342197,-0.00000
 110,-0.04688822,-0.00719312,0.00000029,-0.29856652,-0.04196631,-0.0000
 0169,-0.04830464,0.01284874,0.00000133,0.00839549,0.00236640,0.0000021
 4,-0.00755154,-0.00102719,-0.00000029,-0.00146055,-0.00022468,0.000000
 27,0.00399671,0.00003298,-0.00000016,0.00164096,-0.00055141,-0.0000002
 8,-0.00098554,0.00030845,-0.00000030,0.49107841,0.00695980,-0.01005053
 ,-0.00000177,-0.04518286,0.00358724,0.00000042,0.00976957,-0.11346892,
 -0.00000927,0.04935889,0.00732125,0.00000026,-0.00511031,-0.01123127,-
 0.00000082,-0.00069900,0.00937138,-0.00000013,-0.00169961,0.00016430,0
 .00000042,-0.00026616,0.00273325,0.00000058,-0.00111834,0.00204997,0.0
 0000034,0.00170686,0.00020075,0.00000039,-0.14804759,0.55548107,-0.000
 00101,-0.00000004,0.00856781,0.00000023,0.00000093,0.01145625,0.000008
 91,-0.00001082,-0.04573423,0.00000205,0.00000231,0.00757495,0.00000203
 ,-0.00000020,0.00580198,-0.00000030,-0.00000164,-0.00341922,-0.0000000
 9,0.00000003,-0.00069964,-0.00000035,0.00000026,-0.00368905,0.00000012
 ,0.00000044,-0.00334905,0.00000014,0.00000004,-0.00024660,-0.00003926,
 0.00009313,0.02898210,-0.00124287,0.00079367,-0.00000025,0.00392082,0.
 00081940,-0.00000049,-0.02658086,0.04761888,0.00000796,-0.00656156,-0.
 00346420,-0.00000009,0.00038159,0.00270897,0.00000016,0.00081505,-0.00
 148481,0.00000021,0.00032242,0.00003321,0.,-0.00029999,-0.00184010,0.0
 0000018,0.00017536,-0.00007233,0.00000005,-0.00047616,-0.00018346,-0.0
 0000021,-0.10811800,0.13432875,0.00002754,0.13766422,0.00026100,-0.001
 31163,0.00000024,-0.00573371,0.00381855,0.00000052,-0.00136101,0.00082
 945,0.00000115,-0.00145244,0.00248370,-0.00000015,0.00018646,-0.000428
 57,-0.00000027,-0.00018859,0.00023681,-0.00000013,-0.00017678,-0.00004
 720,-0.00000001,0.00101348,-0.00081780,-0.00000026,-0.00022378,0.00035
 162,0.00000007,0.00005766,0.00006959,0.00000007,0.18687571,-0.44615849
 ,-0.00008443,-0.17925799,0.44097398,-0.00000004,-0.00000025,-0.0006695
 3,-0.00000078,0.00000070,-0.00129084,-0.00000236,-0.00000054,-0.002710
 35,-0.00000077,0.00000001,0.00314172,-0.00000016,0.00000004,0.00182285
 ,0.00000009,0.00000011,-0.00013158,-0.00000007,0.,0.00009467,0.0000001
 7,0.00000017,0.00043575,0.00000002,0.00000006,-0.00056445,-0.00000009,
 0.00000006,-0.00040498,0.00003905,-0.00008355,-0.00524530,-0.00003505,
 0.00008320,0.00552205\\-0.00022295,0.00014419,-0.00001937,0.00011015,-
 0.00001131,0.00000606,-0.00010824,0.00005331,-0.00000158,0.00024874,-0
 .00004977,-0.00000866,-0.00034910,-0.00023663,0.00003701,0.00022186,0.
 00008720,-0.00000702,0.00000159,0.00000094,0.00000672,0.00003780,-0.00
 002364,0.00000055,0.00000168,0.00003416,-0.00000258,0.00000802,0.00001
 314,-0.00001177,0.00005175,0.00000639,-0.00000119,-0.00000131,-0.00001
 798,0.00000183\\\@


 We find comfort among those who agree with us -- growth among those who don't.
 -- Frank A. Clark
 Job cpu time:       0 days  0 hours 40 minutes 31.8 seconds.
 File lengths (MBytes):  RWF=     79 Int=      0 D2E=      0 Chk=      7 Scr=      1
 Normal termination of Gaussian 09 at Fri Aug 27 21:20:22 2021.
