 Entering Gaussian System, Link 0=g09
 AtFile(1): pc-2.gbs
            -H     0
            S    4   1.00
                  0.754230D+02           0.240650D-02
                  0.113500D+02           0.184870D-01
                  0.259930D+01           0.897420D-01
                  0.735130D+00           0.281110D+00
            S    1   1.00
                  0.231670D+00           0.100000D+01
            S    1   1.00
                  0.741470D-01           0.100000D+01
            P    1   1.00
                  0.160000D+01           0.100000D+01
            P    1   1.00
                  0.450000D+00           0.100000D+01
            D    1   1.00
                  0.125000D+01           0.100000D+01
            ****
            -C     0
            S    7   1.00
                  0.785710D+04           0.568250D-03
                  0.117870D+04           0.439150D-02
                  0.268320D+03           0.225040D-01
                  0.759480D+02           0.866530D-01
                  0.245590D+02           0.244050D+00
                  0.862120D+01           0.441480D+00
                  0.312780D+01           0.353320D+00
            S    7   1.00
                  0.117870D+04          -0.594920D-06
                  0.268320D+03          -0.627480D-04
                  0.759480D+02          -0.757730D-03
                  0.245590D+02          -0.733080D-02
                  0.862120D+01          -0.389320D-01
                  0.312780D+01          -0.889080D-01
                  0.822020D+00           0.216890D+00
            S    1   1.00
                  0.330170D+00           0.100000D+01
            S    1   1.00
                  0.114630D+00           0.100000D+01
            P    4   1.00
                  0.337750D+02           0.602940D-02
                  0.767660D+01           0.432280D-01
                  0.223570D+01           0.163010D+00
                  0.764470D+00           0.365040D+00
            P    1   1.00
                  0.262320D+00           0.100000D+01
            P    1   1.00
                  0.846380D-01           0.100000D+01
            D    1   1.00
                  0.140000D+01           0.100000D+01
            D    1   1.00
                  0.450000D+00           0.100000D+01
            F    1   1.00
                  0.950000D+00           0.100000D+01
            ****
            -N     0
            S    7   1.00
                  0.111010D+05           0.545700D-03
                  0.166530D+04           0.421810D-02
                  0.379080D+03           0.216450D-01
                  0.107300D+03           0.837760D-01
                  0.347470D+02           0.238810D+00
                  0.122490D+02           0.439940D+00
                  0.447430D+01           0.363640D+00
            S    7   1.00
                  0.166530D+04          -0.150060D-05
                  0.379080D+03          -0.587530D-04
                  0.107300D+03          -0.774530D-03
                  0.347470D+02          -0.721610D-02
                  0.122490D+02          -0.393380D-01
                  0.447430D+01          -0.906110D-01
                  0.124040D+01           0.198820D+00
            S    1   1.00
                  0.487430D+00           0.100000D+01
            S    1   1.00
                  0.164840D+00           0.100000D+01
            P    4   1.00
                  0.479340D+02           0.617060D-02
                  0.109990D+02           0.442600D-01
                  0.324720D+01           0.168250D+00
                  0.111140D+01           0.368480D+00
            P    1   1.00
                  0.379880D+00           0.100000D+01
            P    1   1.00
                  0.120680D+00           0.100000D+01
            D    1   1.00
                  0.180000D+01           0.100000D+01
            D    1   1.00
                  0.550000D+00           0.100000D+01
            F    1   1.00
                  0.102000D+01           0.100000D+01
            ****
            -O     0
            S    7   1.00
                  0.147820D+05           0.535190D-03
                  0.221730D+04           0.413750D-02
                  0.504740D+03           0.212450D-01
                  0.142870D+03           0.824530D-01
                  0.463000D+02           0.236710D+00
                  0.163370D+02           0.440390D+00
                  0.598280D+01           0.364650D+00
            S    7   1.00
                  0.221730D+04          -0.192750D-05
                  0.504740D+03          -0.579640D-04
                  0.142870D+03          -0.794940D-03
                  0.463000D+02          -0.731250D-02
                  0.163370D+02          -0.405740D-01
                  0.598280D+01          -0.915940D-01
                  0.167180D+01           0.209400D+00
            S    1   1.00
                  0.646620D+00           0.100000D+01
            S    1   1.00
                  0.216690D+00           0.100000D+01
            P    4   1.00
                  0.604240D+02           0.689490D-02
                  0.139350D+02           0.490050D-01
                  0.415310D+01           0.182550D+00
                  0.141580D+01           0.376330D+00
            P    1   1.00
                  0.475490D+00           0.100000D+01
            P    1   1.00
                  0.145290D+00           0.100000D+01
            D    1   1.00
                  0.220000D+01           0.100000D+01
            D    1   1.00
                  0.650000D+00           0.100000D+01
            F    1   1.00
                  0.110000D+01           0.100000D+01
            ****
 Initial command:
 /public3/home/sc51754/softwares/g09e01/l1.exe "./Gau-46285.inp" -scrdir="./"
 Entering Link 1 = /public3/home/sc51754/softwares/g09e01/l1.exe PID=     46286.
  
 Copyright (c) 1988,1990,1992,1993,1995,1998,2003,2009,2015,
            Gaussian, Inc.  All Rights Reserved.
  
 This is part of the Gaussian(R) 09 program.  It is based on
 the Gaussian(R) 03 system (copyright 2003, Gaussian, Inc.),
 the Gaussian(R) 98 system (copyright 1998, Gaussian, Inc.),
 the Gaussian(R) 94 system (copyright 1995, Gaussian, Inc.),
 the Gaussian 92(TM) system (copyright 1992, Gaussian, Inc.),
 the Gaussian 90(TM) system (copyright 1990, Gaussian, Inc.),
 the Gaussian 88(TM) system (copyright 1988, Gaussian, Inc.),
 the Gaussian 86(TM) system (copyright 1986, Carnegie Mellon
 University), and the Gaussian 82(TM) system (copyright 1983,
 Carnegie Mellon University). Gaussian is a federally registered
 trademark of Gaussian, Inc.
  
 This software contains proprietary and confidential information,
 including trade secrets, belonging to Gaussian, Inc.
  
 This software is provided under written license and may be
 used, copied, transmitted, or stored only in accord with that
 written license.
  
 The following legend is applicable only to US Government
 contracts under FAR:
  
                    RESTRICTED RIGHTS LEGEND
  
 Use, reproduction and disclosure by the US Government is
 subject to restrictions as set forth in subparagraphs (a)
 and (c) of the Commercial Computer Software - Restricted
 Rights clause in FAR 52.227-19.
  
 Gaussian, Inc.
 340 Quinnipiac St., Bldg. 40, Wallingford CT 06492
  
  
 ---------------------------------------------------------------
 Warning -- This program may not be used in any manner that
 competes with the business of Gaussian, Inc. or will provide
 assistance to any competitor of Gaussian, Inc.  The licensee
 of this program is prohibited from giving any competitor of
 Gaussian, Inc. access to this program.  By using this program,
 the user acknowledges that Gaussian, Inc. is engaged in the
 business of creating and licensing software in the field of
 computational chemistry and represents and warrants to the
 licensee that it is not a competitor of Gaussian, Inc. and that
 it will not use this program in any manner prohibited above.
 ---------------------------------------------------------------
  

 Cite this work as:
 Gaussian 09, Revision E.01,
 M. J. Frisch, G. W. Trucks, H. B. Schlegel, G. E. Scuseria, 
 M. A. Robb, J. R. Cheeseman, G. Scalmani, V. Barone, B. Mennucci, 
 G. A. Petersson, H. Nakatsuji, M. Caricato, X. Li, H. P. Hratchian, 
 A. F. Izmaylov, J. Bloino, G. Zheng, J. L. Sonnenberg, M. Hada, 
 M. Ehara, K. Toyota, R. Fukuda, J. Hasegawa, M. Ishida, T. Nakajima, 
 Y. Honda, O. Kitao, H. Nakai, T. Vreven, J. A. Montgomery, Jr., 
 J. E. Peralta, F. Ogliaro, M. Bearpark, J. J. Heyd, E. Brothers, 
 K. N. Kudin, V. N. Staroverov, T. Keith, R. Kobayashi, J. Normand, 
 K. Raghavachari, A. Rendell, J. C. Burant, S. S. Iyengar, J. Tomasi, 
 M. Cossi, N. Rega, J. M. Millam, M. Klene, J. E. Knox, J. B. Cross, 
 V. Bakken, C. Adamo, J. Jaramillo, R. Gomperts, R. E. Stratmann, 
 O. Yazyev, A. J. Austin, R. Cammi, C. Pomelli, J. W. Ochterski, 
 R. L. Martin, K. Morokuma, V. G. Zakrzewski, G. A. Voth, 
 P. Salvador, J. J. Dannenberg, S. Dapprich, A. D. Daniels, 
 O. Farkas, J. B. Foresman, J. V. Ortiz, J. Cioslowski, 
 and D. J. Fox, Gaussian, Inc., Wallingford CT, 2013.
 
 ******************************************
 Gaussian 09:  EM64L-G09RevE.01 30-Nov-2015
                28-Aug-2021 
 ******************************************
 %nprocshared=64
 Will use up to   64 processors via shared memory.
 %mem=128GB
 %chk=TST_GAS_B3LYP.chk
 ------------------------------------------------
 #p opt=(calcfc,qst3,MaxCycle=200) freq B3LYP/gen
 ------------------------------------------------
 1/5=1,6=200,10=4,14=-1,18=20,26=3,27=203,38=1/1,3;
 2/9=110,12=2,17=6,18=5,40=1/2;
 3/5=7,11=2,16=1,25=1,30=1,71=2,74=-5,140=1/1,2,3;
 4//1;
 5/5=2,38=5/2;
 8/6=4,10=90,11=11/1;
 11/6=1,8=1,9=11,15=111,16=1/1,2,10;
 10/6=1,13=1/2;
 6/7=2,8=2,9=2,10=2,28=1/1;
 7/10=1,18=20,25=1/1,2,3,16;
 1/5=1,6=200,10=4,14=-1,18=20,26=3,27=203/3(2);
 2/9=110/2;
 99//99;
 2/9=110/2;
 3/5=7,6=1,11=2,16=1,25=1,30=1,71=1,74=-5,82=7/1,2,3;
 4/5=5,16=3,69=1/1;
 5/5=2,38=5/2;
 7//1,2,3,16;
 1/5=1,6=200,14=-1,18=20,26=3,27=203/3(-5);
 2/9=110/2;
 6/7=2,8=2,9=2,10=2,19=2,28=1/1;
 99/9=1/99;
 Leave Link    1 at Sat Aug 28 00:50:32 2021, MaxMem= 17179869184 cpu:         5.1
 (Enter /public3/home/sc51754/softwares/g09e01/l101.exe)
 ---------------------
 HY_B3LYP_PC2_OPT_FREQ
 ---------------------
 Symbolic Z-matrix:
 Charge =  0 Multiplicity = 1
 O                     0.00482   2.25304   0. 
 N                    -1.17553   0.29477   0. 
 C                     0.        0.901     0. 
 C                     1.22395   0.2266    0. 
 C                    -1.18866  -1.0424    0. 
 C                     1.18994  -1.1541    0. 
 C                    -0.03928  -1.81302   0. 
 H                    -0.91939   2.53408   0. 
 H                     2.14883   0.78355   0. 
 H                    -2.16787  -1.50574   0. 
 H                     2.1137   -1.7169    0. 
 H                    -0.10078  -2.89124   0. 
 
 ---------------------
 PY_B3LYP_PC2_OPT_FREQ
 ---------------------
 Symbolic Z-matrix:
 Charge =  0 Multiplicity = 1
 O                    -0.13087   2.27825   0. 
 N                    -1.13692   0.23391   0. 
 C                     0.        1.06353   0. 
 C                     1.24305   0.32164   0. 
 C                    -1.11916  -1.12533   0. 
 C                     1.26143  -1.03772   0. 
 C                     0.05951  -1.79758   0. 
 H                    -2.01536   0.73054   0. 
 H                     2.1499    0.90744   0. 
 H                    -2.08192  -1.61511   0. 
 H                     2.21088  -1.55793   0. 
 H                     0.07291  -2.87554   0. 
 
 -------------
 TST_GAS_B3LYP
 -------------
 Symbolic Z-matrix:
 Charge =  0 Multiplicity = 1
 O                     0.19536   2.62028   0. 
 N                    -0.98499   0.66201   0. 
 C                     0.19054   1.26824   0. 
 C                     1.41449   0.59385   0. 
 C                    -0.99813  -0.67515   0. 
 C                     1.38047  -0.78685   0. 
 C                     0.15125  -1.44578   0. 
 H                    -1.10992   2.16684   0. 
 H                     2.33936   1.15079   0. 
 H                    -1.97733  -1.1385    0. 
 H                     2.30423  -1.34966   0. 
 H                     0.08976  -2.524     0. 
 
 NAtoms=     12 NQM=       12 NQMF=       0 NMMI=      0 NMMIF=      0
                NMic=       0 NMicF=      0.
                    Isotopes and Nuclear Properties:
 (Nuclear quadrupole moments (NQMom) in fm**2, nuclear magnetic moments (NMagM)
  in nuclear magnetons)

  Atom         1           2           3           4           5           6           7           8           9          10
 IAtWgt=          16          14          12          12          12          12          12           1           1           1
 AtmWgt=  15.9949146  14.0030740  12.0000000  12.0000000  12.0000000  12.0000000  12.0000000   1.0078250   1.0078250   1.0078250
 NucSpn=           0           2           0           0           0           0           0           1           1           1
 AtZEff=   0.0000000   0.0000000   0.0000000   0.0000000   0.0000000   0.0000000   0.0000000   0.0000000   0.0000000   0.0000000
 NQMom=    0.0000000   2.0440000   0.0000000   0.0000000   0.0000000   0.0000000   0.0000000   0.0000000   0.0000000   0.0000000
 NMagM=    0.0000000   0.4037610   0.0000000   0.0000000   0.0000000   0.0000000   0.0000000   2.7928460   2.7928460   2.7928460
 AtZNuc=   8.0000000   7.0000000   6.0000000   6.0000000   6.0000000   6.0000000   6.0000000   1.0000000   1.0000000   1.0000000

  Atom        11          12
 IAtWgt=           1           1
 AtmWgt=   1.0078250   1.0078250
 NucSpn=           1           1
 AtZEff=   0.0000000   0.0000000
 NQMom=    0.0000000   0.0000000
 NMagM=    2.7928460   2.7928460
 AtZNuc=   1.0000000   1.0000000
 Leave Link  101 at Sat Aug 28 00:50:32 2021, MaxMem= 17179869184 cpu:        11.7
 (Enter /public3/home/sc51754/softwares/g09e01/l103.exe)

 GradGradGradGradGradGradGradGradGradGradGradGradGradGradGradGradGradGrad
 Berny optimization.
 Initialization pass.
                           ----------------------------
                           !    Initial Parameters    !
                           ! (Angstroms and Degrees)  !
 --------------------------                            --------------------------
 ! Name  Definition        TS        Reactant  Product Derivative Info.         !
 --------------------------------------------------------------------------------
 ! R1    R(1,3)             1.352     1.352     1.2218 calculate D2E/DX2 analyti!
 ! R2    R(1,8)             1.3818    0.966     2.4386 calculate D2E/DX2 analyti!
 ! R3    R(2,3)             1.3226    1.3226    1.4074 calculate D2E/DX2 analyti!
 ! R4    R(2,5)             1.3372    1.3372    1.3594 calculate D2E/DX2 analyti!
 ! R5    R(2,8)             1.51      2.2539    1.0091 calculate D2E/DX2 analyti!
 ! R6    R(3,4)             1.3974    1.3974    1.4476 calculate D2E/DX2 analyti!
 ! R7    R(4,6)             1.3811    1.3811    1.3595 calculate D2E/DX2 analyti!
 ! R8    R(4,9)             1.0796    1.0796    1.0796 calculate D2E/DX2 analyti!
 ! R9    R(5,7)             1.3838    1.3838    1.3569 calculate D2E/DX2 analyti!
 ! R10   R(5,10)            1.0833    1.0833    1.0802 calculate D2E/DX2 analyti!
 ! R11   R(6,7)             1.3947    1.3947    1.422  calculate D2E/DX2 analyti!
 ! R12   R(6,11)            1.0817    1.0817    1.0826 calculate D2E/DX2 analyti!
 ! R13   R(7,12)            1.08      1.08      1.078  calculate D2E/DX2 analyti!
 ! A1    A(3,1,8)          70.6387  106.7094   56.7532 calculate D2E/DX2 analyti!
 ! A2    A(3,2,5)         117.8436  117.8436  125.3698 calculate D2E/DX2 analyti!
 ! A3    A(3,2,8)          67.4654   56.1941  114.4    calculate D2E/DX2 analyti!
 ! A4    A(5,2,8)         174.6911  174.0376  120.2302 calculate D2E/DX2 analyti!
 ! A5    A(1,3,2)         117.485   117.485   119.9692 calculate D2E/DX2 analyti!
 ! A6    A(1,3,4)         118.6504  118.6504  126.9794 calculate D2E/DX2 analyti!
 ! A7    A(2,3,4)         123.8646  123.8646  113.0514 calculate D2E/DX2 analyti!
 ! A8    A(3,4,6)         117.4435  117.4435  121.6048 calculate D2E/DX2 analyti!
 ! A9    A(3,4,9)         120.0895  120.0895  116.3082 calculate D2E/DX2 analyti!
 ! A10   A(6,4,9)         122.467   122.467   122.087  calculate D2E/DX2 analyti!
 ! A11   A(2,5,7)         123.2776  123.2776  120.4465 calculate D2E/DX2 analyti!
 ! A12   A(2,5,10)        115.8857  115.8857  116.2148 calculate D2E/DX2 analyti!
 ! A13   A(7,5,10)        120.8367  120.8367  123.3386 calculate D2E/DX2 analyti!
 ! A14   A(4,6,7)         119.6048  119.6048  121.5267 calculate D2E/DX2 analyti!
 ! A15   A(4,6,11)        119.9409  119.9409  119.4935 calculate D2E/DX2 analyti!
 ! A16   A(7,6,11)        120.4544  120.4544  118.9798 calculate D2E/DX2 analyti!
 ! A17   A(5,7,6)         117.966   117.966   118.0007 calculate D2E/DX2 analyti!
 ! A18   A(5,7,12)        120.5762  120.5762  120.4097 calculate D2E/DX2 analyti!
 ! A19   A(6,7,12)        121.4579  121.4579  121.5896 calculate D2E/DX2 analyti!
 ! D1    D(8,1,3,2)         0.0       0.0       0.0    calculate D2E/DX2 analyti!
 ! D2    D(8,1,3,4)       180.0     180.0     180.0    calculate D2E/DX2 analyti!
 ! D3    D(5,2,3,1)       180.0     180.0     180.0    calculate D2E/DX2 analyti!
 ! D4    D(5,2,3,4)         0.0       0.0       0.0    calculate D2E/DX2 analyti!
 ! D5    D(8,2,3,1)         0.0       0.0       0.0    calculate D2E/DX2 analyti!
 ! D6    D(8,2,3,4)       180.0     180.0     180.0    calculate D2E/DX2 analyti!
 ! D7    D(3,2,5,7)         0.0       0.0       0.0    calculate D2E/DX2 analyti!
 ! D8    D(3,2,5,10)      180.0     180.0     180.0    calculate D2E/DX2 analyti!
 ! D9    D(8,2,5,7)       180.0       0.0     180.0    calculate D2E/DX2 analyti!
 ! D10   D(8,2,5,10)        0.0     180.0       0.0    calculate D2E/DX2 analyti!
 ! D11   D(1,3,4,6)       180.0     180.0     180.0    calculate D2E/DX2 analyti!
 ! D12   D(1,3,4,9)         0.0       0.0       0.0    calculate D2E/DX2 analyti!
 ! D13   D(2,3,4,6)         0.0       0.0       0.0    calculate D2E/DX2 analyti!
 ! D14   D(2,3,4,9)       180.0     180.0     180.0    calculate D2E/DX2 analyti!
 ! D15   D(3,4,6,7)         0.0       0.0       0.0    calculate D2E/DX2 analyti!
 ! D16   D(3,4,6,11)      180.0     180.0     180.0    calculate D2E/DX2 analyti!
 ! D17   D(9,4,6,7)       180.0     180.0     180.0    calculate D2E/DX2 analyti!
 ! D18   D(9,4,6,11)        0.0       0.0       0.0    calculate D2E/DX2 analyti!
 ! D19   D(2,5,7,6)         0.0       0.0       0.0    calculate D2E/DX2 analyti!
 ! D20   D(2,5,7,12)      180.0     180.0     180.0    calculate D2E/DX2 analyti!
 ! D21   D(10,5,7,6)      180.0     180.0     180.0    calculate D2E/DX2 analyti!
 ! D22   D(10,5,7,12)       0.0       0.0       0.0    calculate D2E/DX2 analyti!
 ! D23   D(4,6,7,5)         0.0       0.0       0.0    calculate D2E/DX2 analyti!
 ! D24   D(4,6,7,12)      180.0     180.0     180.0    calculate D2E/DX2 analyti!
 ! D25   D(11,6,7,5)      180.0     180.0     180.0    calculate D2E/DX2 analyti!
 ! D26   D(11,6,7,12)       0.0       0.0       0.0    calculate D2E/DX2 analyti!
 --------------------------------------------------------------------------------
 Trust Radius=3.00D-01 FncErr=1.00D-07 GrdErr=1.00D-06
 Number of steps in this run=    100 maximum allowed number of steps=    100.
 Search for a saddle point of order  1.
 GradGradGradGradGradGradGradGradGradGradGradGradGradGradGradGradGradGrad

 Leave Link  103 at Sat Aug 28 00:50:32 2021, MaxMem= 17179869184 cpu:         0.7
 (Enter /public3/home/sc51754/softwares/g09e01/l202.exe)
                          Input orientation:                          
 ---------------------------------------------------------------------
 Center     Atomic      Atomic             Coordinates (Angstroms)
 Number     Number       Type             X           Y           Z
 ---------------------------------------------------------------------
      1          8           0        0.195359    2.620283    0.000000
      2          7           0       -0.984989    0.662013    0.000000
      3          6           0        0.190537    1.268244    0.000000
      4          6           0        1.414487    0.593847    0.000000
      5          6           0       -0.998127   -0.675154    0.000000
      6          6           0        1.380472   -0.786853    0.000000
      7          6           0        0.151253   -1.445775    0.000000
      8          1           0       -1.109925    2.166835    0.000000
      9          1           0        2.339363    1.150793    0.000000
     10          1           0       -1.977332   -1.138498    0.000000
     11          1           0        2.304234   -1.349661    0.000000
     12          1           0        0.089756   -2.524001    0.000000
 ---------------------------------------------------------------------
                    Distance matrix (angstroms):
                    1          2          3          4          5
     1  O    0.000000
     2  N    2.286491   0.000000
     3  C    1.352048   1.322640   0.000000
     4  C    2.364892   2.400444   1.397449   0.000000
     5  C    3.504899   1.337232   2.278095   2.725999   0.000000
     6  C    3.607363   2.773918   2.374736   1.381119   2.381220
     7  C    4.066297   2.394539   2.714303   2.399129   1.383810
     8  H    1.381803   1.510000   1.580717   2.974381   2.844188
     9  H    2.599260   3.360093   2.152033   1.079622   3.804329
    10  H    4.341546   2.055866   3.239145   3.808603   1.083296
    11  H    4.495310   3.855622   3.364690   2.137492   3.370541
    12  H    5.145368   3.362404   3.793584   3.387608   2.145163
                    6          7          8          9         10
     6  C    0.000000
     7  C    1.394689   0.000000
     8  H    3.863463   3.826424   0.000000
     9  H    2.161931   3.395584   3.595820   0.000000
    10  H    3.376167   2.150649   3.417254   4.886175   0.000000
    11  H    1.081707   2.155125   4.901247   2.500701   4.286770
    12  H    2.164170   1.079978   4.841816   4.308694   2.488468
                   11         12
    11  H    0.000000
    12  H    2.506589   0.000000
 Stoichiometry    C5H5NO
 Framework group  CS[SG(C5H5NO)]
 Deg. of freedom    21
 Full point group                 CS      NOp   2
 Largest Abelian subgroup         CS      NOp   2
 Largest concise Abelian subgroup C1      NOp   1
                         Standard orientation:                         
 ---------------------------------------------------------------------
 Center     Atomic      Atomic             Coordinates (Angstroms)
 Number     Number       Type             X           Y           Z
 ---------------------------------------------------------------------
      1          8           0       -0.006431    2.267754    0.000000
      2          7           0       -1.170440    0.299728    0.000000
      3          6           0       -0.000000    0.915722    0.000000
      4          6           0        1.229521    0.251535   -0.000000
      5          6           0       -1.172448   -1.037502    0.000000
      6          6           0        1.206998   -1.129400   -0.000000
      7          6           0       -0.016694   -1.798530   -0.000000
      8          1           0       -1.307895    1.803459    0.000000
      9          1           0        2.149729    0.816160   -0.000000
     10          1           0       -2.147763   -1.508979    0.000000
     11          1           0        2.135412   -1.684500   -0.000000
     12          1           0       -0.069215   -2.877230   -0.000000
 ---------------------------------------------------------------------
 Rotational constants (GHZ):      5.8229130      2.8258641      1.9025535
 Leave Link  202 at Sat Aug 28 00:50:32 2021, MaxMem= 17179869184 cpu:         3.8
 (Enter /public3/home/sc51754/softwares/g09e01/l301.exe)
 General basis read from cards:  (5D, 7F)
 Centers:       8      9     10     11     12
 S 4 1.00
     Exponent=  7.5423000000D+01 Coefficients=  2.4065000000D-03
     Exponent=  1.1350000000D+01 Coefficients=  1.8487000000D-02
     Exponent=  2.5993000000D+00 Coefficients=  8.9742000000D-02
     Exponent=  7.3513000000D-01 Coefficients=  2.8111000000D-01
 S 1 1.00
     Exponent=  2.3167000000D-01 Coefficients=  1.0000000000D+00
 S 1 1.00
     Exponent=  7.4147000000D-02 Coefficients=  1.0000000000D+00
 P 1 1.00
     Exponent=  1.6000000000D+00 Coefficients=  1.0000000000D+00
 P 1 1.00
     Exponent=  4.5000000000D-01 Coefficients=  1.0000000000D+00
 D 1 1.00
     Exponent=  1.2500000000D+00 Coefficients=  1.0000000000D+00
 ****
 Centers:       3      4      5      6      7
 S 7 1.00
     Exponent=  7.8571000000D+03 Coefficients=  5.6825000000D-04
     Exponent=  1.1787000000D+03 Coefficients=  4.3915000000D-03
     Exponent=  2.6832000000D+02 Coefficients=  2.2504000000D-02
     Exponent=  7.5948000000D+01 Coefficients=  8.6653000000D-02
     Exponent=  2.4559000000D+01 Coefficients=  2.4405000000D-01
     Exponent=  8.6212000000D+00 Coefficients=  4.4148000000D-01
     Exponent=  3.1278000000D+00 Coefficients=  3.5332000000D-01
 S 7 1.00
     Exponent=  1.1787000000D+03 Coefficients= -5.9492000000D-07
     Exponent=  2.6832000000D+02 Coefficients= -6.2748000000D-05
     Exponent=  7.5948000000D+01 Coefficients= -7.5773000000D-04
     Exponent=  2.4559000000D+01 Coefficients= -7.3308000000D-03
     Exponent=  8.6212000000D+00 Coefficients= -3.8932000000D-02
     Exponent=  3.1278000000D+00 Coefficients= -8.8908000000D-02
     Exponent=  8.2202000000D-01 Coefficients=  2.1689000000D-01
 S 1 1.00
     Exponent=  3.3017000000D-01 Coefficients=  1.0000000000D+00
 S 1 1.00
     Exponent=  1.1463000000D-01 Coefficients=  1.0000000000D+00
 P 4 1.00
     Exponent=  3.3775000000D+01 Coefficients=  6.0294000000D-03
     Exponent=  7.6766000000D+00 Coefficients=  4.3228000000D-02
     Exponent=  2.2357000000D+00 Coefficients=  1.6301000000D-01
     Exponent=  7.6447000000D-01 Coefficients=  3.6504000000D-01
 P 1 1.00
     Exponent=  2.6232000000D-01 Coefficients=  1.0000000000D+00
 P 1 1.00
     Exponent=  8.4638000000D-02 Coefficients=  1.0000000000D+00
 D 1 1.00
     Exponent=  1.4000000000D+00 Coefficients=  1.0000000000D+00
 D 1 1.00
     Exponent=  4.5000000000D-01 Coefficients=  1.0000000000D+00
 F 1 1.00
     Exponent=  9.5000000000D-01 Coefficients=  1.0000000000D+00
 ****
 Centers:       2
 S 7 1.00
     Exponent=  1.1101000000D+04 Coefficients=  5.4570000000D-04
     Exponent=  1.6653000000D+03 Coefficients=  4.2181000000D-03
     Exponent=  3.7908000000D+02 Coefficients=  2.1645000000D-02
     Exponent=  1.0730000000D+02 Coefficients=  8.3776000000D-02
     Exponent=  3.4747000000D+01 Coefficients=  2.3881000000D-01
     Exponent=  1.2249000000D+01 Coefficients=  4.3994000000D-01
     Exponent=  4.4743000000D+00 Coefficients=  3.6364000000D-01
 S 7 1.00
     Exponent=  1.6653000000D+03 Coefficients= -1.5006000000D-06
     Exponent=  3.7908000000D+02 Coefficients= -5.8753000000D-05
     Exponent=  1.0730000000D+02 Coefficients= -7.7453000000D-04
     Exponent=  3.4747000000D+01 Coefficients= -7.2161000000D-03
     Exponent=  1.2249000000D+01 Coefficients= -3.9338000000D-02
     Exponent=  4.4743000000D+00 Coefficients= -9.0611000000D-02
     Exponent=  1.2404000000D+00 Coefficients=  1.9882000000D-01
 S 1 1.00
     Exponent=  4.8743000000D-01 Coefficients=  1.0000000000D+00
 S 1 1.00
     Exponent=  1.6484000000D-01 Coefficients=  1.0000000000D+00
 P 4 1.00
     Exponent=  4.7934000000D+01 Coefficients=  6.1706000000D-03
     Exponent=  1.0999000000D+01 Coefficients=  4.4260000000D-02
     Exponent=  3.2472000000D+00 Coefficients=  1.6825000000D-01
     Exponent=  1.1114000000D+00 Coefficients=  3.6848000000D-01
 P 1 1.00
     Exponent=  3.7988000000D-01 Coefficients=  1.0000000000D+00
 P 1 1.00
     Exponent=  1.2068000000D-01 Coefficients=  1.0000000000D+00
 D 1 1.00
     Exponent=  1.8000000000D+00 Coefficients=  1.0000000000D+00
 D 1 1.00
     Exponent=  5.5000000000D-01 Coefficients=  1.0000000000D+00
 F 1 1.00
     Exponent=  1.0200000000D+00 Coefficients=  1.0000000000D+00
 ****
 Centers:       1
 S 7 1.00
     Exponent=  1.4782000000D+04 Coefficients=  5.3519000000D-04
     Exponent=  2.2173000000D+03 Coefficients=  4.1375000000D-03
     Exponent=  5.0474000000D+02 Coefficients=  2.1245000000D-02
     Exponent=  1.4287000000D+02 Coefficients=  8.2453000000D-02
     Exponent=  4.6300000000D+01 Coefficients=  2.3671000000D-01
     Exponent=  1.6337000000D+01 Coefficients=  4.4039000000D-01
     Exponent=  5.9828000000D+00 Coefficients=  3.6465000000D-01
 S 7 1.00
     Exponent=  2.2173000000D+03 Coefficients= -1.9275000000D-06
     Exponent=  5.0474000000D+02 Coefficients= -5.7964000000D-05
     Exponent=  1.4287000000D+02 Coefficients= -7.9494000000D-04
     Exponent=  4.6300000000D+01 Coefficients= -7.3125000000D-03
     Exponent=  1.6337000000D+01 Coefficients= -4.0574000000D-02
     Exponent=  5.9828000000D+00 Coefficients= -9.1594000000D-02
     Exponent=  1.6718000000D+00 Coefficients=  2.0940000000D-01
 S 1 1.00
     Exponent=  6.4662000000D-01 Coefficients=  1.0000000000D+00
 S 1 1.00
     Exponent=  2.1669000000D-01 Coefficients=  1.0000000000D+00
 P 4 1.00
     Exponent=  6.0424000000D+01 Coefficients=  6.8949000000D-03
     Exponent=  1.3935000000D+01 Coefficients=  4.9005000000D-02
     Exponent=  4.1531000000D+00 Coefficients=  1.8255000000D-01
     Exponent=  1.4158000000D+00 Coefficients=  3.7633000000D-01
 P 1 1.00
     Exponent=  4.7549000000D-01 Coefficients=  1.0000000000D+00
 P 1 1.00
     Exponent=  1.4529000000D-01 Coefficients=  1.0000000000D+00
 D 1 1.00
     Exponent=  2.2000000000D+00 Coefficients=  1.0000000000D+00
 D 1 1.00
     Exponent=  6.5000000000D-01 Coefficients=  1.0000000000D+00
 F 1 1.00
     Exponent=  1.1000000000D+00 Coefficients=  1.0000000000D+00
 ****
 Ernie: Thresh=  0.10000D-02 Tol=  0.10000D-05 Strict=F.
 Ernie:  7 primitive shells out of 220 were deleted.
 There are   223 symmetry adapted cartesian basis functions of A'  symmetry.
 There are    97 symmetry adapted cartesian basis functions of A"  symmetry.
 There are   190 symmetry adapted basis functions of A'  symmetry.
 There are    90 symmetry adapted basis functions of A"  symmetry.
   280 basis functions,   475 primitive gaussians,   320 cartesian basis functions
    25 alpha electrons       25 beta electrons
       nuclear repulsion energy       276.6458429564 Hartrees.
 IExCor=  402 DFT=T Ex+Corr=B3LYP ExCW=0 ScaHFX=  0.200000
 ScaDFX=  0.800000  0.720000  1.000000  0.810000 ScalE2=  1.000000  1.000000
 IRadAn=      0 IRanWt=     -1 IRanGd=            0 ICorTp=0 IEmpDi=  4
 NAtoms=   12 NActive=   12 NUniq=   12 SFac= 1.00D+00 NAtFMM=   60 NAOKFM=F Big=F
 Integral buffers will be    131072 words long.
 Raffenetti 2 integral format.
 Two-electron integral symmetry is turned on.
 Leave Link  301 at Sat Aug 28 00:50:33 2021, MaxMem= 17179869184 cpu:         2.7
 (Enter /public3/home/sc51754/softwares/g09e01/l302.exe)
 NPDir=0 NMtPBC=     1 NCelOv=     1 NCel=       1 NClECP=     1 NCelD=      1
         NCelK=      1 NCelE2=     1 NClLst=     1 CellRange=     0.0.
 One-electron integrals computed using PRISM.
 NBasis=   280 RedAO= T EigKep=  2.22D-04  NBF=   190    90
 NBsUse=   280 1.00D-06 EigRej= -1.00D+00 NBFU=   190    90
 Precomputing XC quadrature grid using
 IXCGrd= 4 IRadAn=           0 IRanWt=          -1 IRanGd=           0 AccXCQ= 0.00D+00.
 Generated NRdTot=       0 NPtTot=           0 NUsed=           0 NTot=          32
 NSgBfM=   320   320   320   320   320 MxSgAt=    12 MxSgA2=    12.
 Leave Link  302 at Sat Aug 28 00:50:34 2021, MaxMem= 17179869184 cpu:        62.4
 (Enter /public3/home/sc51754/softwares/g09e01/l303.exe)
 DipDrv:  MaxL=1.
 Leave Link  303 at Sat Aug 28 00:50:35 2021, MaxMem= 17179869184 cpu:        40.1
 (Enter /public3/home/sc51754/softwares/g09e01/l401.exe)
 ExpMin= 7.41D-02 ExpMax= 1.48D+04 ExpMxC= 5.05D+02 IAcc=2 IRadAn=         4 AccDes= 0.00D+00
 Harris functional with IExCor=  402 and IRadAn=       4 diagonalized for initial guess.
 HarFok:  IExCor=  402 AccDes= 0.00D+00 IRadAn=         4 IDoV= 1 UseB2=F ITyADJ=14
 ICtDFT=  3500011 ScaDFX=  1.000000  1.000000  1.000000  1.000000
 FoFCou: FMM=F IPFlag=           0 FMFlag=      100000 FMFlg1=           0
         NFxFlg=           0 DoJE=T BraDBF=F KetDBF=T FulRan=T
         wScrn=  0.000000 ICntrl=     500 IOpCl=  0 I1Cent=   200000004 NGrid=           0
         NMat0=    1 NMatS0=      1 NMatT0=    0 NMatD0=    1 NMtDS0=    0 NMtDT0=    0
 Petite list used in FoFCou.
 Harris En= -323.606553256944    
 JPrj=0 DoOrth=F DoCkMO=F.
 Initial guess orbital symmetries:
       Occupied  (A') (A') (A') (A') (A') (A') (A') (A') (A') (A')
                 (A') (A') (A') (A') (A') (A') (A') (A') (A") (A')
                 (A") (A') (A') (A") (A")
       Virtual   (A") (A") (A') (A') (A') (A") (A') (A') (A') (A')
                 (A') (A') (A") (A') (A') (A") (A") (A') (A') (A')
                 (A') (A') (A") (A') (A") (A') (A') (A') (A') (A')
                 (A') (A') (A") (A") (A') (A') (A') (A') (A') (A')
                 (A') (A') (A') (A") (A') (A') (A") (A') (A") (A')
                 (A") (A') (A') (A") (A') (A") (A") (A') (A') (A')
                 (A') (A") (A') (A') (A") (A') (A') (A") (A') (A")
                 (A') (A") (A") (A') (A") (A') (A') (A") (A') (A")
                 (A') (A") (A') (A') (A") (A') (A") (A') (A') (A")
                 (A') (A") (A') (A') (A') (A') (A') (A") (A') (A')
                 (A') (A') (A") (A') (A') (A') (A") (A') (A') (A')
                 (A") (A') (A') (A') (A') (A') (A") (A') (A') (A')
                 (A') (A") (A') (A") (A') (A") (A') (A") (A") (A')
                 (A") (A") (A') (A') (A") (A') (A') (A') (A") (A')
                 (A') (A') (A') (A") (A') (A") (A") (A') (A') (A')
                 (A') (A') (A") (A') (A") (A") (A") (A') (A') (A")
                 (A") (A') (A") (A') (A') (A") (A') (A") (A') (A')
                 (A') (A") (A") (A') (A') (A") (A') (A") (A") (A")
                 (A') (A") (A') (A") (A') (A") (A') (A") (A') (A")
                 (A") (A') (A") (A') (A') (A') (A") (A") (A') (A")
                 (A') (A') (A") (A") (A') (A') (A') (A") (A') (A')
                 (A') (A') (A") (A") (A') (A') (A") (A') (A') (A")
                 (A") (A') (A') (A') (A") (A') (A') (A") (A') (A')
                 (A') (A") (A') (A') (A') (A') (A') (A') (A") (A')
                 (A') (A') (A") (A') (A') (A') (A') (A') (A') (A')
                 (A') (A') (A') (A') (A')
 The electronic state of the initial guess is 1-A'.
 Leave Link  401 at Sat Aug 28 00:50:38 2021, MaxMem= 17179869184 cpu:        66.3
 (Enter /public3/home/sc51754/softwares/g09e01/l502.exe)
 Closed shell SCF:
 Using DIIS extrapolation, IDIIS=  1040.
 Integral symmetry usage will be decided dynamically.
 Keep R1 ints in memory in symmetry-blocked form, NReq=1167802198.
 IVT=      348658 IEndB=      348658 NGot= 17179869184 MDV= 16785904737
 LenX= 16785904737 LenY= 16785801896
 Requested convergence on RMS density matrix=1.00D-08 within 128 cycles.
 Requested convergence on MAX density matrix=1.00D-06.
 Requested convergence on             energy=1.00D-06.
 No special actions if energy rises.
 FoFCou: FMM=F IPFlag=           0 FMFlag=           0 FMFlg1=           0
         NFxFlg=           0 DoJE=F BraDBF=F KetDBF=F FulRan=T
         wScrn=  0.000000 ICntrl=     600 IOpCl=  0 I1Cent=           0 NGrid=           0
         NMat0=    1 NMatS0=  39340 NMatT0=    0 NMatD0=    1 NMtDS0=    0 NMtDT0=    0
 Petite list used in FoFCou.
 Integral accuracy reduced to 1.0D-05 until final iterations.

 Cycle   1  Pass 0  IDiag  1:
 E= -323.405869235021    
 DIIS: error= 2.77D-02 at cycle   1 NSaved=   1.
 NSaved= 1 IEnMin= 1 EnMin= -323.405869235021     IErMin= 1 ErrMin= 2.77D-02
 ErrMax= 2.77D-02  0.00D+00 EMaxC= 1.00D-01 BMatC= 1.97D-01 BMatP= 1.97D-01
 IDIUse=3 WtCom= 7.23D-01 WtEn= 2.77D-01
 Coeff-Com:  0.100D+01
 Coeff-En:   0.100D+01
 Coeff:      0.100D+01
 Gap=     0.137 Goal=   None    Shift=    0.000
 GapD=    0.137 DampG=1.000 DampE=0.500 DampFc=0.5000 IDamp=-1.
 Damping current iteration by 5.00D-01
 RMSDP=3.00D-03 MaxDP=1.30D-01              OVMax= 2.06D-01

 Cycle   2  Pass 0  IDiag  1:
 E= -323.457893159890     Delta-E=       -0.052023924868 Rises=F Damp=T
 DIIS: error= 8.48D-03 at cycle   2 NSaved=   2.
 NSaved= 2 IEnMin= 2 EnMin= -323.457893159890     IErMin= 2 ErrMin= 8.48D-03
 ErrMax= 8.48D-03  0.00D+00 EMaxC= 1.00D-01 BMatC= 2.95D-02 BMatP= 1.97D-01
 IDIUse=3 WtCom= 9.15D-01 WtEn= 8.48D-02
 Coeff-Com:  0.196D+00 0.804D+00
 Coeff-En:   0.323D+00 0.677D+00
 Coeff:      0.207D+00 0.793D+00
 Gap=     0.214 Goal=   None    Shift=    0.000
 RMSDP=9.58D-04 MaxDP=3.31D-02 DE=-5.20D-02 OVMax= 1.99D-01

 Cycle   3  Pass 0  IDiag  1:
 E= -323.545605205305     Delta-E=       -0.087712045415 Rises=F Damp=F
 DIIS: error= 1.23D-02 at cycle   3 NSaved=   3.
 NSaved= 3 IEnMin= 3 EnMin= -323.545605205305     IErMin= 2 ErrMin= 8.48D-03
 ErrMax= 1.23D-02  0.00D+00 EMaxC= 1.00D-01 BMatC= 4.53D-02 BMatP= 2.95D-02
 IDIUse=2 WtCom= 0.00D+00 WtEn= 1.00D+00
 Coeff-En:   0.000D+00 0.000D+00 0.100D+01
 Coeff:      0.000D+00 0.000D+00 0.100D+01
 Gap=     0.163 Goal=   None    Shift=    0.000
 RMSDP=1.79D-03 MaxDP=8.02D-02 DE=-8.77D-02 OVMax= 2.62D-01

 Cycle   4  Pass 0  IDiag  1:
 E= -323.272581369446     Delta-E=        0.273023835858 Rises=F Damp=F
 DIIS: error= 3.52D-02 at cycle   4 NSaved=   4.
 NSaved= 4 IEnMin= 3 EnMin= -323.545605205305     IErMin= 2 ErrMin= 8.48D-03
 ErrMax= 3.52D-02  0.00D+00 EMaxC= 1.00D-01 BMatC= 3.77D-01 BMatP= 2.95D-02
 IDIUse=2 WtCom= 0.00D+00 WtEn= 1.00D+00
 Coeff-En:   0.000D+00 0.000D+00 0.830D+00 0.170D+00
 Coeff:      0.000D+00 0.000D+00 0.830D+00 0.170D+00
 Gap=     0.178 Goal=   None    Shift=    0.000
 RMSDP=9.51D-04 MaxDP=4.54D-02 DE= 2.73D-01 OVMax= 1.50D-01

 Cycle   5  Pass 0  IDiag  1:
 E= -323.554213732924     Delta-E=       -0.281632363477 Rises=F Damp=F
 DIIS: error= 1.01D-02 at cycle   5 NSaved=   5.
 NSaved= 5 IEnMin= 5 EnMin= -323.554213732924     IErMin= 2 ErrMin= 8.48D-03
 ErrMax= 1.01D-02  0.00D+00 EMaxC= 1.00D-01 BMatC= 3.56D-02 BMatP= 2.95D-02
 IDIUse=2 WtCom= 0.00D+00 WtEn= 1.00D+00
 Coeff-En:   0.000D+00 0.000D+00 0.455D+00 0.000D+00 0.545D+00
 Coeff:      0.000D+00 0.000D+00 0.455D+00 0.000D+00 0.545D+00
 Gap=     0.194 Goal=   None    Shift=    0.000
 RMSDP=4.49D-04 MaxDP=2.21D-02 DE=-2.82D-01 OVMax= 5.91D-02

 Cycle   6  Pass 0  IDiag  1:
 E= -323.583347558252     Delta-E=       -0.029133825328 Rises=F Damp=F
 DIIS: error= 1.24D-03 at cycle   6 NSaved=   6.
 NSaved= 6 IEnMin= 6 EnMin= -323.583347558252     IErMin= 6 ErrMin= 1.24D-03
 ErrMax= 1.24D-03  0.00D+00 EMaxC= 1.00D-01 BMatC= 4.44D-04 BMatP= 2.95D-02
 IDIUse=3 WtCom= 9.88D-01 WtEn= 1.24D-02
 Coeff-Com: -0.653D-02 0.114D-01 0.152D+00-0.470D-01 0.358D+00 0.532D+00
 Coeff-En:   0.000D+00 0.000D+00 0.000D+00 0.000D+00 0.000D+00 0.100D+01
 Coeff:     -0.645D-02 0.113D-01 0.150D+00-0.464D-01 0.353D+00 0.538D+00
 Gap=     0.190 Goal=   None    Shift=    0.000
 RMSDP=5.69D-05 MaxDP=2.67D-03 DE=-2.91D-02 OVMax= 6.95D-03

 Cycle   7  Pass 0  IDiag  1:
 E= -323.583722919258     Delta-E=       -0.000375361006 Rises=F Damp=F
 DIIS: error= 3.45D-04 at cycle   7 NSaved=   7.
 NSaved= 7 IEnMin= 7 EnMin= -323.583722919258     IErMin= 7 ErrMin= 3.45D-04
 ErrMax= 3.45D-04  0.00D+00 EMaxC= 1.00D-01 BMatC= 2.31D-05 BMatP= 4.44D-04
 IDIUse=3 WtCom= 9.97D-01 WtEn= 3.45D-03
 Coeff-Com: -0.348D-02 0.647D-02 0.745D-01-0.268D-01 0.182D+00 0.300D+00
 Coeff-Com:  0.467D+00
 Coeff-En:   0.000D+00 0.000D+00 0.000D+00 0.000D+00 0.000D+00 0.432D-02
 Coeff-En:   0.996D+00
 Coeff:     -0.347D-02 0.645D-02 0.743D-01-0.267D-01 0.182D+00 0.299D+00
 Coeff:      0.469D+00
 Gap=     0.191 Goal=   None    Shift=    0.000
 RMSDP=1.30D-05 MaxDP=4.97D-04 DE=-3.75D-04 OVMax= 2.16D-03

 Cycle   8  Pass 0  IDiag  1:
 E= -323.583743314788     Delta-E=       -0.000020395531 Rises=F Damp=F
 DIIS: error= 9.62D-05 at cycle   8 NSaved=   8.
 NSaved= 8 IEnMin= 8 EnMin= -323.583743314788     IErMin= 8 ErrMin= 9.62D-05
 ErrMax= 9.62D-05  0.00D+00 EMaxC= 1.00D-01 BMatC= 2.40D-06 BMatP= 2.31D-05
 IDIUse=1 WtCom= 1.00D+00 WtEn= 0.00D+00
 Coeff-Com: -0.355D-04-0.705D-03 0.847D-02-0.322D-02 0.170D-01 0.526D-01
 Coeff-Com:  0.235D+00 0.691D+00
 Coeff:     -0.355D-04-0.705D-03 0.847D-02-0.322D-02 0.170D-01 0.526D-01
 Coeff:      0.235D+00 0.691D+00
 Gap=     0.191 Goal=   None    Shift=    0.000
 RMSDP=3.81D-06 MaxDP=1.48D-04 DE=-2.04D-05 OVMax= 5.74D-04

 Initial convergence to 1.0D-05 achieved.  Increase integral accuracy.
 Cycle   9  Pass 1  IDiag  1:
 E= -323.583712173718     Delta-E=        0.000031141070 Rises=F Damp=F
 DIIS: error= 4.34D-05 at cycle   1 NSaved=   1.
 NSaved= 1 IEnMin= 1 EnMin= -323.583712173718     IErMin= 1 ErrMin= 4.34D-05
 ErrMax= 4.34D-05  0.00D+00 EMaxC= 1.00D-01 BMatC= 3.20D-07 BMatP= 3.20D-07
 IDIUse=1 WtCom= 1.00D+00 WtEn= 0.00D+00
 Coeff-Com:  0.100D+01
 Coeff:      0.100D+01
 Gap=     0.191 Goal=   None    Shift=    0.000
 RMSDP=3.81D-06 MaxDP=1.48D-04 DE= 3.11D-05 OVMax= 4.90D-04

 Cycle  10  Pass 1  IDiag  1:
 E= -323.583712050638     Delta-E=        0.000000123080 Rises=F Damp=F
 DIIS: error= 5.75D-05 at cycle   2 NSaved=   2.
 NSaved= 2 IEnMin= 1 EnMin= -323.583712173718     IErMin= 1 ErrMin= 4.34D-05
 ErrMax= 5.75D-05  0.00D+00 EMaxC= 1.00D-01 BMatC= 4.42D-07 BMatP= 3.20D-07
 IDIUse=1 WtCom= 1.00D+00 WtEn= 0.00D+00
 Coeff-Com:  0.549D+00 0.451D+00
 Coeff:      0.549D+00 0.451D+00
 Gap=     0.191 Goal=   None    Shift=    0.000
 RMSDP=2.39D-06 MaxDP=1.12D-04 DE= 1.23D-07 OVMax= 4.14D-04

 Cycle  11  Pass 1  IDiag  1:
 E= -323.583712485965     Delta-E=       -0.000000435326 Rises=F Damp=F
 DIIS: error= 2.05D-05 at cycle   3 NSaved=   3.
 NSaved= 3 IEnMin= 3 EnMin= -323.583712485965     IErMin= 3 ErrMin= 2.05D-05
 ErrMax= 2.05D-05  0.00D+00 EMaxC= 1.00D-01 BMatC= 5.36D-08 BMatP= 3.20D-07
 IDIUse=1 WtCom= 1.00D+00 WtEn= 0.00D+00
 Coeff-Com:  0.653D-01 0.255D+00 0.679D+00
 Coeff:      0.653D-01 0.255D+00 0.679D+00
 Gap=     0.191 Goal=   None    Shift=    0.000
 RMSDP=8.86D-07 MaxDP=2.85D-05 DE=-4.35D-07 OVMax= 1.52D-04

 Cycle  12  Pass 1  IDiag  1:
 E= -323.583712521060     Delta-E=       -0.000000035096 Rises=F Damp=F
 DIIS: error= 8.33D-06 at cycle   4 NSaved=   4.
 NSaved= 4 IEnMin= 4 EnMin= -323.583712521060     IErMin= 4 ErrMin= 8.33D-06
 ErrMax= 8.33D-06  0.00D+00 EMaxC= 1.00D-01 BMatC= 2.84D-08 BMatP= 5.36D-08
 IDIUse=1 WtCom= 1.00D+00 WtEn= 0.00D+00
 Coeff-Com: -0.158D-01 0.145D+00 0.512D+00 0.359D+00
 Coeff:     -0.158D-01 0.145D+00 0.512D+00 0.359D+00
 Gap=     0.191 Goal=   None    Shift=    0.000
 RMSDP=3.87D-07 MaxDP=1.87D-05 DE=-3.51D-08 OVMax= 4.73D-05

 Cycle  13  Pass 1  IDiag  1:
 E= -323.583712543862     Delta-E=       -0.000000022801 Rises=F Damp=F
 DIIS: error= 1.68D-06 at cycle   5 NSaved=   5.
 NSaved= 5 IEnMin= 5 EnMin= -323.583712543862     IErMin= 5 ErrMin= 1.68D-06
 ErrMax= 1.68D-06  0.00D+00 EMaxC= 1.00D-01 BMatC= 7.78D-10 BMatP= 2.84D-08
 IDIUse=1 WtCom= 1.00D+00 WtEn= 0.00D+00
 Coeff-Com: -0.126D-01 0.844D-01 0.305D+00 0.229D+00 0.395D+00
 Coeff:     -0.126D-01 0.844D-01 0.305D+00 0.229D+00 0.395D+00
 Gap=     0.191 Goal=   None    Shift=    0.000
 RMSDP=6.64D-08 MaxDP=3.50D-06 DE=-2.28D-08 OVMax= 5.87D-06

 Cycle  14  Pass 1  IDiag  1:
 E= -323.583712544470     Delta-E=       -0.000000000608 Rises=F Damp=F
 DIIS: error= 2.14D-07 at cycle   6 NSaved=   6.
 NSaved= 6 IEnMin= 6 EnMin= -323.583712544470     IErMin= 6 ErrMin= 2.14D-07
 ErrMax= 2.14D-07  0.00D+00 EMaxC= 1.00D-01 BMatC= 2.01D-11 BMatP= 7.78D-10
 IDIUse=1 WtCom= 1.00D+00 WtEn= 0.00D+00
 Coeff-Com: -0.308D-02 0.186D-01 0.655D-01 0.486D-01 0.163D+00 0.707D+00
 Coeff:     -0.308D-02 0.186D-01 0.655D-01 0.486D-01 0.163D+00 0.707D+00
 Gap=     0.191 Goal=   None    Shift=    0.000
 RMSDP=1.45D-08 MaxDP=6.00D-07 DE=-6.08D-10 OVMax= 1.28D-06

 Cycle  15  Pass 1  IDiag  1:
 E= -323.583712544480     Delta-E=       -0.000000000010 Rises=F Damp=F
 DIIS: error= 1.11D-07 at cycle   7 NSaved=   7.
 NSaved= 7 IEnMin= 7 EnMin= -323.583712544480     IErMin= 7 ErrMin= 1.11D-07
 ErrMax= 1.11D-07  0.00D+00 EMaxC= 1.00D-01 BMatC= 3.95D-12 BMatP= 2.01D-11
 IDIUse=1 WtCom= 1.00D+00 WtEn= 0.00D+00
 Coeff-Com: -0.642D-03 0.262D-02 0.866D-02 0.493D-02 0.531D-01 0.380D+00
 Coeff-Com:  0.552D+00
 Coeff:     -0.642D-03 0.262D-02 0.866D-02 0.493D-02 0.531D-01 0.380D+00
 Coeff:      0.552D+00
 Gap=     0.191 Goal=   None    Shift=    0.000
 RMSDP=5.75D-09 MaxDP=3.31D-07 DE=-1.02D-11 OVMax= 4.54D-07

 SCF Done:  E(RB3LYP) =  -323.583712544     A.U. after   15 cycles
            NFock= 15  Conv=0.57D-08     -V/T= 2.0043
 KE= 3.222107438012D+02 PE=-1.308029803149D+03 EE= 3.855895038464D+02
 Leave Link  502 at Sat Aug 28 00:50:48 2021, MaxMem= 17179869184 cpu:       366.6
 (Enter /public3/home/sc51754/softwares/g09e01/l801.exe)
 DoSCS=F DFT=T ScalE2(SS,OS)=  1.000000  1.000000
 Range of M.O.s used for correlation:     1   280
 NBasis=   280 NAE=    25 NBE=    25 NFC=     0 NFV=     0
 NROrb=    280 NOA=    25 NOB=    25 NVA=   255 NVB=   255

 **** Warning!!: The largest alpha MO coefficient is  0.20407237D+02

 Leave Link  801 at Sat Aug 28 00:50:49 2021, MaxMem= 17179869184 cpu:         0.8
 (Enter /public3/home/sc51754/softwares/g09e01/l1101.exe)
 Using compressed storage, NAtomX=    12.
 Will process     13 centers per pass.
 Leave Link 1101 at Sat Aug 28 00:50:51 2021, MaxMem= 17179869184 cpu:        52.8
 (Enter /public3/home/sc51754/softwares/g09e01/l1102.exe)
 Symmetrizing basis deriv contribution to polar:
 IMax=3 JMax=2 DiffMx= 0.00D+00
 Leave Link 1102 at Sat Aug 28 00:50:52 2021, MaxMem= 17179869184 cpu:        12.9
 (Enter /public3/home/sc51754/softwares/g09e01/l1110.exe)
 Forming Gx(P) for the SCF density, NAtomX=    12.
 Integral derivatives from FoFJK, PRISM(SPDF).
 Do as many integral derivatives as possible in FoFJK.
 G2DrvN: MDV=   17179868984.
 G2DrvN: will do    13 centers at a time, making    1 passes.
 Calling FoFCou, ICntrl=  3107 FMM=F I1Cent=   0 AccDes= 0.00D+00.
 FoFJK:  IHMeth= 1 ICntrl=    3107 DoSepK=F KAlg= 0 I1Cent=   0 FoldK=F
 IRaf=         0 NMat=   1 IRICut=       1 DoRegI=T DoRafI=F ISym2E= 1.
 FoFCou: FMM=F IPFlag=           0 FMFlag=      100000 FMFlg1=           0
         NFxFlg=           0 DoJE=F BraDBF=F KetDBF=F FulRan=T
         wScrn=  0.000000 ICntrl=    3107 IOpCl=  0 I1Cent=           0 NGrid=           0
         NMat0=    1 NMatS0=      1 NMatT0=    0 NMatD0=    1 NMtDS0=    0 NMtDT0=    0
 Petite list used in FoFCou.
 End of G2Drv F.D. properties file   721 does not exist.
 End of G2Drv F.D. properties file   722 does not exist.
 End of G2Drv F.D. properties file   788 does not exist.
 Leave Link 1110 at Sat Aug 28 00:50:58 2021, MaxMem= 17179869184 cpu:       325.5
 (Enter /public3/home/sc51754/softwares/g09e01/l1002.exe)
 Minotr:  Closed shell wavefunction.
          IDoAtm=111111111111
          Direct CPHF calculation.
          Differentiating once with respect to nuclear coordinates.
          Using symmetry in CPHF.
          Requested convergence is 1.0D-08 RMS, and 1.0D-07 maximum.
          Secondary convergence is 1.0D-12 RMS, and 1.0D-12 maximum.
          NewPWx=T KeepS1=F KeepF1=F KeepIn=T MapXYZ=F SortEE=F KeepMc=T.
          MDV=   17179868780 using IRadAn=       2.
 Generate precomputed XC quadrature information.
 Keep R1 ints in memory in symmetry-blocked form, NReq=1167458725.
 FoFCou: FMM=F IPFlag=           0 FMFlag=           0 FMFlg1=           0
         NFxFlg=           0 DoJE=F BraDBF=F KetDBF=F FulRan=T
         wScrn=  0.000000 ICntrl=     600 IOpCl=  0 I1Cent=           0 NGrid=           0
         NMat0=    1 NMatS0=  39340 NMatT0=    0 NMatD0=    1 NMtDS0=    0 NMtDT0=    0
 Petite list used in FoFCou.
          Solving linear equations simultaneously, MaxMat=       0.
          There are    39 degrees of freedom in the 1st order CPHF.  IDoFFX=6 NUNeed=     0.
     33 vectors produced by pass  0 Test12= 1.63D-14 2.56D-09 XBig12= 1.41D-01 1.17D-01.
 AX will form    33 AO Fock derivatives at one time.
     33 vectors produced by pass  1 Test12= 1.63D-14 2.56D-09 XBig12= 2.86D-02 6.05D-02.
     33 vectors produced by pass  2 Test12= 1.63D-14 2.56D-09 XBig12= 3.72D-04 3.46D-03.
     33 vectors produced by pass  3 Test12= 1.63D-14 2.56D-09 XBig12= 2.46D-06 2.25D-04.
     33 vectors produced by pass  4 Test12= 1.63D-14 2.56D-09 XBig12= 8.81D-09 1.11D-05.
     33 vectors produced by pass  5 Test12= 1.63D-14 2.56D-09 XBig12= 1.33D-11 6.01D-07.
     16 vectors produced by pass  6 Test12= 1.63D-14 2.56D-09 XBig12= 1.61D-14 1.94D-08.
      1 vectors produced by pass  7 Test12= 1.63D-14 2.56D-09 XBig12= 6.89D-17 3.71D-09.
 InvSVY:  IOpt=1 It=  1 EMax= 1.22D-15
 Solved reduced A of dimension   215 with    33 vectors.
 End of Minotr F.D. properties file   721 does not exist.
 End of Minotr F.D. properties file   722 does not exist.
 End of Minotr F.D. properties file   788 does not exist.
 Leave Link 1002 at Sat Aug 28 00:51:10 2021, MaxMem= 17179869184 cpu:       733.1
 (Enter /public3/home/sc51754/softwares/g09e01/l601.exe)
 Copying SCF densities to generalized density rwf, IOpCl= 0 IROHF=0.

 **********************************************************************

            Population analysis using the SCF density.

 **********************************************************************

 Orbital symmetries:
       Occupied  (A') (A') (A') (A') (A') (A') (A') (A') (A') (A')
                 (A') (A') (A') (A') (A') (A') (A") (A') (A') (A')
                 (A") (A') (A') (A") (A")
       Virtual   (A") (A") (A') (A') (A') (A') (A') (A') (A") (A')
                 (A") (A') (A') (A') (A") (A') (A") (A') (A') (A")
                 (A') (A") (A') (A') (A') (A') (A') (A') (A') (A')
                 (A") (A') (A') (A") (A') (A') (A') (A') (A') (A')
                 (A') (A') (A") (A') (A') (A') (A") (A') (A") (A")
                 (A') (A') (A') (A") (A") (A') (A") (A') (A') (A')
                 (A') (A') (A") (A') (A") (A') (A') (A') (A") (A')
                 (A") (A") (A") (A') (A") (A') (A") (A') (A') (A')
                 (A") (A') (A") (A') (A") (A') (A") (A') (A') (A')
                 (A") (A") (A') (A') (A') (A') (A') (A") (A') (A')
                 (A') (A') (A") (A') (A') (A') (A") (A') (A') (A')
                 (A") (A') (A') (A') (A') (A') (A") (A') (A') (A')
                 (A') (A") (A') (A") (A') (A") (A') (A") (A") (A")
                 (A') (A") (A') (A") (A') (A') (A') (A") (A') (A')
                 (A') (A') (A') (A") (A') (A") (A") (A') (A') (A')
                 (A') (A') (A') (A") (A") (A") (A") (A') (A') (A")
                 (A") (A') (A") (A') (A') (A") (A') (A") (A') (A')
                 (A') (A") (A") (A') (A") (A') (A') (A") (A") (A")
                 (A') (A') (A") (A') (A") (A") (A') (A") (A') (A")
                 (A") (A") (A') (A') (A') (A') (A") (A") (A') (A")
                 (A') (A") (A') (A") (A') (A') (A') (A") (A') (A')
                 (A') (A") (A') (A") (A') (A') (A") (A') (A") (A')
                 (A") (A') (A') (A') (A") (A') (A') (A") (A') (A')
                 (A') (A") (A') (A') (A') (A') (A') (A') (A") (A')
                 (A') (A') (A") (A') (A') (A') (A') (A') (A') (A')
                 (A') (A') (A') (A') (A')
 The electronic state is 1-A'.
 Alpha  occ. eigenvalues --  -19.13810 -14.35336 -10.27817 -10.23857 -10.20922
 Alpha  occ. eigenvalues --  -10.19421 -10.19074  -1.04969  -0.95558  -0.82992
 Alpha  occ. eigenvalues --   -0.76701  -0.67486  -0.63247  -0.54969  -0.52206
 Alpha  occ. eigenvalues --   -0.48077  -0.45256  -0.44535  -0.44072  -0.39528
 Alpha  occ. eigenvalues --   -0.35316  -0.34852  -0.32423  -0.31573  -0.24537
 Alpha virt. eigenvalues --   -0.05457  -0.01877  -0.00439   0.01765   0.03622
 Alpha virt. eigenvalues --    0.05340   0.07485   0.11527   0.11677   0.13997
 Alpha virt. eigenvalues --    0.14793   0.14997   0.16784   0.17705   0.18920
 Alpha virt. eigenvalues --    0.19346   0.19882   0.23781   0.24183   0.26272
 Alpha virt. eigenvalues --    0.27090   0.28444   0.28610   0.29489   0.30704
 Alpha virt. eigenvalues --    0.32620   0.33669   0.35618   0.35961   0.38669
 Alpha virt. eigenvalues --    0.41886   0.42212   0.43100   0.43640   0.43956
 Alpha virt. eigenvalues --    0.48624   0.50607   0.51369   0.54479   0.58598
 Alpha virt. eigenvalues --    0.59709   0.61542   0.63706   0.64367   0.65633
 Alpha virt. eigenvalues --    0.66854   0.69635   0.72366   0.76053   0.79399
 Alpha virt. eigenvalues --    0.80937   0.88197   0.89230   0.90279   0.93386
 Alpha virt. eigenvalues --    0.94748   0.94800   0.96210   0.97642   0.99958
 Alpha virt. eigenvalues --    1.01584   1.07882   1.08555   1.09723   1.13473
 Alpha virt. eigenvalues --    1.13989   1.15079   1.16679   1.19925   1.21171
 Alpha virt. eigenvalues --    1.21881   1.24683   1.26413   1.26725   1.28783
 Alpha virt. eigenvalues --    1.34964   1.39934   1.39969   1.41256   1.47516
 Alpha virt. eigenvalues --    1.48484   1.50845   1.51101   1.53415   1.55980
 Alpha virt. eigenvalues --    1.56096   1.59827   1.61447   1.64392   1.65480
 Alpha virt. eigenvalues --    1.66349   1.68828   1.69933   1.74693   1.75830
 Alpha virt. eigenvalues --    1.76799   1.80143   1.84206   1.84988   1.85596
 Alpha virt. eigenvalues --    1.89146   1.91443   1.96445   1.98233   1.99841
 Alpha virt. eigenvalues --    2.08347   2.09415   2.12442   2.16168   2.17625
 Alpha virt. eigenvalues --    2.20448   2.21425   2.23956   2.25607   2.28573
 Alpha virt. eigenvalues --    2.32164   2.38784   2.42666   2.62009   2.66149
 Alpha virt. eigenvalues --    2.83997   2.84385   2.91545   2.93861   3.01760
 Alpha virt. eigenvalues --    3.11902   3.15816   3.17608   3.22237   3.25513
 Alpha virt. eigenvalues --    3.26381   3.28654   3.34323   3.35409   3.38383
 Alpha virt. eigenvalues --    3.39627   3.41773   3.47292   3.47392   3.55185
 Alpha virt. eigenvalues --    3.56652   3.57659   3.59533   3.60387   3.62988
 Alpha virt. eigenvalues --    3.66336   3.72207   3.72305   3.76165   3.83374
 Alpha virt. eigenvalues --    3.87647   3.89694   3.90454   3.91319   3.92091
 Alpha virt. eigenvalues --    3.95645   4.00714   4.03135   4.04575   4.05579
 Alpha virt. eigenvalues --    4.08858   4.09626   4.11966   4.13883   4.16085
 Alpha virt. eigenvalues --    4.16887   4.18431   4.18840   4.20215   4.21963
 Alpha virt. eigenvalues --    4.26020   4.26638   4.28119   4.28968   4.29254
 Alpha virt. eigenvalues --    4.31982   4.32089   4.32857   4.36769   4.39258
 Alpha virt. eigenvalues --    4.40966   4.41918   4.42228   4.44405   4.45049
 Alpha virt. eigenvalues --    4.48606   4.48731   4.49171   4.54120   4.55635
 Alpha virt. eigenvalues --    4.57390   4.61195   4.62309   4.66693   4.69093
 Alpha virt. eigenvalues --    4.71262   4.74932   4.79828   4.80692   4.83407
 Alpha virt. eigenvalues --    4.86408   4.92146   4.92551   4.95338   5.00626
 Alpha virt. eigenvalues --    5.03520   5.07265   5.10099   5.15994   5.18476
 Alpha virt. eigenvalues --    5.22439   5.23998   5.25214   5.27251   5.30340
 Alpha virt. eigenvalues --    5.33176   5.35353   5.36565   5.39984   5.41033
 Alpha virt. eigenvalues --    5.41289   5.41499   5.49386   5.51892   5.53256
 Alpha virt. eigenvalues --    5.56316   5.62467   5.62877   5.65763   5.73129
 Alpha virt. eigenvalues --    5.77119   5.81668   5.85964   5.89681   5.99676
 Alpha virt. eigenvalues --    6.06106   6.10354   6.12757   6.24049   6.31374
 Alpha virt. eigenvalues --    6.39597   6.45684   6.51020   6.52206   6.62488
 Alpha virt. eigenvalues --    6.82937   7.05642   7.19071   9.41136  11.91525
 Alpha virt. eigenvalues --   12.57401  14.72129  17.46122  18.46571  22.21868
          Condensed to atoms (all electrons):
               1          2          3          4          5          6
     1  O    8.130322  -0.130756   0.365514  -0.069070   0.002116   0.006834
     2  N   -0.130756   6.710999   0.374149  -0.011176   0.500497  -0.031329
     3  C    0.365514   0.374149   4.509693   0.489063  -0.083340  -0.053718
     4  C   -0.069070  -0.011176   0.489063   4.853723  -0.041929   0.521438
     5  C    0.002116   0.500497  -0.083340  -0.041929   4.614515  -0.073481
     6  C    0.006834  -0.031329  -0.053718   0.521438  -0.073481   4.742247
     7  C   -0.000291  -0.037148  -0.046500  -0.060423   0.532833   0.476748
     8  H    0.204883   0.084171  -0.056925   0.024732  -0.000966  -0.006929
     9  H    0.003866   0.006806  -0.039576   0.443039  -0.002118  -0.036334
    10  H   -0.000715  -0.037190   0.005291  -0.002514   0.440060   0.008138
    11  H   -0.000392  -0.001459   0.009101  -0.035476   0.008361   0.432855
    12  H    0.000053   0.006110  -0.000958   0.007777  -0.032306  -0.036807
               7          8          9         10         11         12
     1  O   -0.000291   0.204883   0.003866  -0.000715  -0.000392   0.000053
     2  N   -0.037148   0.084171   0.006806  -0.037190  -0.001459   0.006110
     3  C   -0.046500  -0.056925  -0.039576   0.005291   0.009101  -0.000958
     4  C   -0.060423   0.024732   0.443039  -0.002514  -0.035476   0.007777
     5  C    0.532833  -0.000966  -0.002118   0.440060   0.008361  -0.032306
     6  C    0.476748  -0.006929  -0.036334   0.008138   0.432855  -0.036807
     7  C    4.927252   0.004620   0.008378  -0.059875  -0.045589   0.435642
     8  H    0.004620   0.483073  -0.001043  -0.003504   0.000235  -0.000149
     9  H    0.008378  -0.001043   0.569812   0.000232  -0.006855  -0.000006
    10  H   -0.059875  -0.003504   0.000232   0.591861  -0.000102  -0.004444
    11  H   -0.045589   0.000235  -0.006855  -0.000102   0.592372  -0.006916
    12  H    0.435642  -0.000149  -0.000006  -0.004444  -0.006916   0.583661
 Mulliken charges:
               1
     1  O   -0.512364
     2  N   -0.433674
     3  C    0.528205
     4  C   -0.119185
     5  C    0.135758
     6  C    0.050339
     7  C   -0.135646
     8  H    0.267801
     9  H    0.053798
    10  H    0.062762
    11  H    0.053864
    12  H    0.048340
 Sum of Mulliken charges =  -0.00000
 Mulliken charges with hydrogens summed into heavy atoms:
               1
     1  O   -0.244563
     2  N   -0.433674
     3  C    0.528205
     4  C   -0.065386
     5  C    0.198521
     6  C    0.104203
     7  C   -0.087305
 APT charges:
               1
     1  O   -0.282730
     2  N   -0.416331
     3  C    0.212798
     4  C   -0.518508
     5  C   -0.372338
     6  C   -0.351389
     7  C   -0.485138
     8  H    0.284840
     9  H    0.426843
    10  H    0.482018
    11  H    0.489076
    12  H    0.530859
 Sum of APT charges =  -0.00000
 APT charges with hydrogens summed into heavy atoms:
               1
     1  O    0.002110
     2  N   -0.416331
     3  C    0.212798
     4  C   -0.091666
     5  C    0.109680
     6  C    0.137688
     7  C    0.045721
 Electronic spatial extent (au):  <R**2>=            624.3136
 Charge=             -0.0000 electrons
 Dipole moment (field-independent basis, Debye):
    X=              0.1368    Y=             -3.2637    Z=             -0.0000  Tot=              3.2666
 Quadrupole moment (field-independent basis, Debye-Ang):
   XX=            -36.0656   YY=            -43.8468   ZZ=            -43.3008
   XY=             -0.7162   XZ=              0.0000   YZ=             -0.0000
 Traceless Quadrupole moment (field-independent basis, Debye-Ang):
   XX=              5.0055   YY=             -2.7757   ZZ=             -2.2297
   XY=             -0.7162   XZ=              0.0000   YZ=             -0.0000
 Octapole moment (field-independent basis, Debye-Ang**2):
  XXX=              3.1663  YYY=            -21.4405  ZZZ=             -0.0000  XYY=             -4.0739
  XXY=              0.1544  XXZ=             -0.0000  XZZ=             -1.3059  YZZ=              4.4504
  YYZ=             -0.0000  XYZ=             -0.0000
 Hexadecapole moment (field-independent basis, Debye-Ang**3):
 XXXX=           -264.0827 YYYY=           -523.3722 ZZZZ=            -47.6803 XXXY=              9.4394
 XXXZ=              0.0000 YYYX=             -3.8442 YYYZ=             -0.0000 ZZZX=              0.0000
 ZZZY=             -0.0000 XXYY=           -113.0795 XXZZ=            -60.5336 YYZZ=            -98.2841
 XXYZ=             -0.0000 YYXZ=              0.0000 ZZXY=              1.7115
 N-N= 2.766458429564D+02 E-N=-1.308029832646D+03  KE= 3.222107438012D+02
 Symmetry A'   KE= 3.105149814939D+02
 Symmetry A"   KE= 1.169576230730D+01
  Exact polarizability:   0.000   0.000   0.000   0.000   0.000   0.000
 Approx polarizability: 129.225   6.319 154.692  -0.000   0.000  57.781
 No NMR shielding tensors so no spin-rotation constants.
 Leave Link  601 at Sat Aug 28 00:51:11 2021, MaxMem= 17179869184 cpu:        42.1
 (Enter /public3/home/sc51754/softwares/g09e01/l701.exe)
 Compute integral second derivatives.
 ... and contract with generalized density number  0.
 Leave Link  701 at Sat Aug 28 00:51:13 2021, MaxMem= 17179869184 cpu:        85.5
 (Enter /public3/home/sc51754/softwares/g09e01/l702.exe)
 L702 exits ... SP integral derivatives will be done elsewhere.
 Leave Link  702 at Sat Aug 28 00:51:13 2021, MaxMem= 17179869184 cpu:         0.8
 (Enter /public3/home/sc51754/softwares/g09e01/l703.exe)
 Compute integral second derivatives, UseDBF=F ICtDFT=           0.
 Integral derivatives from FoFJK, PRISM(SPDF).
 Calling FoFJK, ICntrl=    100147 FMM=F ISym2X=1 I1Cent= 0 IOpClX= 0 NMat=1 NMatS=1 NMatT=0.
 FoFJK:  IHMeth= 1 ICntrl=  100147 DoSepK=F KAlg= 0 I1Cent=   0 FoldK=F
 IRaf=         0 NMat=   1 IRICut=       1 DoRegI=T DoRafI=F ISym2E= 1.
 FoFCou: FMM=F IPFlag=           0 FMFlag=      100000 FMFlg1=         800
         NFxFlg=           0 DoJE=F BraDBF=F KetDBF=F FulRan=T
         wScrn=  0.000000 ICntrl=  100147 IOpCl=  0 I1Cent=           0 NGrid=           0
         NMat0=    1 NMatS0=      1 NMatT0=    0 NMatD0=    1 NMtDS0=    0 NMtDT0=    0
 Petite list used in FoFCou.
 Leave Link  703 at Sat Aug 28 00:51:21 2021, MaxMem= 17179869184 cpu:       486.4
 (Enter /public3/home/sc51754/softwares/g09e01/l716.exe)
 Dipole        = 5.38034010D-02-1.28404931D+00-8.12398413D-32
 Polarizability= 0.00000000D+00 0.00000000D+00 0.00000000D+00
                 0.00000000D+00 0.00000000D+00 0.00000000D+00
 ***** Axes restored to original set *****
 -------------------------------------------------------------------
 Center     Atomic                   Forces (Hartrees/Bohr)
 Number     Number              X              Y              Z
 -------------------------------------------------------------------
      1        8          -0.088037143   -0.061153951   -0.000000000
      2        7           0.008658283    0.016605718   -0.000000000
      3        6           0.061014560    0.030439442    0.000000000
      4        6           0.003932515   -0.017664029    0.000000000
      5        6          -0.013028441   -0.014780597    0.000000000
      6        6           0.005951178    0.006648001   -0.000000000
      7        6          -0.007036843    0.003805511   -0.000000000
      8        1           0.030583574    0.035429707   -0.000000000
      9        1          -0.001266743    0.000313452   -0.000000000
     10        1           0.000730102    0.000133182    0.000000000
     11        1          -0.000029106   -0.000679599    0.000000000
     12        1          -0.001471935    0.000903162   -0.000000000
 -------------------------------------------------------------------
 Cartesian Forces:  Max     0.088037143 RMS     0.023301177
 Force constants in Cartesian coordinates: 
                1             2             3             4             5 
      1  0.663104D-01
      2  0.218954D-02  0.398350D+00
      3  0.000000D+00  0.000000D+00  0.792134D-01
      4 -0.160736D-01 -0.258933D-01  0.000000D+00  0.504410D+00
      5 -0.102760D+00 -0.447598D-01  0.000000D+00  0.124965D+00  0.617939D+00
      6  0.000000D+00  0.000000D+00  0.163594D-01  0.000000D+00  0.000000D+00
      7 -0.885476D-01  0.116547D-01  0.000000D+00 -0.325401D+00 -0.650605D-01
      8 -0.196605D-01 -0.270576D+00  0.000000D+00 -0.102771D+00 -0.201870D+00
      9  0.000000D+00  0.000000D+00 -0.725996D-01  0.000000D+00  0.000000D+00
     10 -0.330068D-02  0.192178D-01  0.000000D+00 -0.585031D-01 -0.301837D-01
     11  0.551531D-01 -0.501935D-01  0.000000D+00  0.125951D-01  0.668408D-01
     12  0.000000D+00  0.000000D+00  0.145146D-01  0.000000D+00  0.000000D+00
     13  0.613420D-02 -0.417219D-03  0.000000D+00 -0.120804D+00 -0.507442D-02
     14  0.217285D-01 -0.200107D-02  0.000000D+00  0.806063D-02 -0.332529D+00
     15  0.000000D+00  0.000000D+00  0.718693D-02  0.000000D+00  0.000000D+00
     16 -0.147764D-01  0.696269D-02  0.000000D+00 -0.171746D-01 -0.431200D-01
     17 -0.104685D-01  0.114878D-01  0.000000D+00 -0.266002D-01 -0.547284D-01
     18  0.000000D+00  0.000000D+00  0.540861D-02  0.000000D+00  0.000000D+00
     19  0.133130D-01 -0.832975D-02  0.000000D+00  0.366814D-01  0.833162D-01
     20 -0.643179D-02 -0.614924D-02  0.000000D+00  0.226864D-01 -0.552453D-01
     21  0.000000D+00  0.000000D+00 -0.215553D-02  0.000000D+00  0.000000D+00
     22  0.330660D-01 -0.505549D-02  0.000000D+00 -0.215673D-03  0.340513D-01
     23  0.605353D-01 -0.351424D-01  0.000000D+00  0.130217D-01  0.287909D-01
     24  0.000000D+00  0.000000D+00 -0.446614D-01  0.000000D+00  0.000000D+00
     25  0.263102D-02 -0.110561D-03  0.000000D+00 -0.425178D-02  0.396041D-02
     26 -0.693650D-03  0.729812D-03  0.000000D+00  0.540481D-02 -0.777995D-03
     27  0.000000D+00  0.000000D+00 -0.213793D-02  0.000000D+00  0.000000D+00
     28 -0.597730D-03 -0.310603D-04  0.000000D+00  0.472793D-02 -0.455854D-02
     29 -0.715164D-03 -0.128567D-02  0.000000D+00 -0.339646D-01 -0.227003D-01
     30  0.000000D+00  0.000000D+00  0.756548D-03  0.000000D+00  0.000000D+00
     31 -0.761005D-05  0.115285D-03  0.000000D+00  0.605347D-03 -0.622907D-03
     32  0.174527D-02 -0.752347D-03  0.000000D+00 -0.381128D-03 -0.431807D-03
     33  0.000000D+00  0.000000D+00 -0.104274D-02  0.000000D+00  0.000000D+00
     34  0.184901D-02 -0.302688D-03  0.000000D+00 -0.400041D-02  0.508711D-02
     35 -0.621767D-03  0.292693D-03  0.000000D+00  0.287619D-02 -0.527576D-03
     36  0.000000D+00  0.000000D+00 -0.842332D-03  0.000000D+00  0.000000D+00
                6             7             8             9            10 
      6  0.901078D-01
      7  0.000000D+00  0.748004D+00
      8  0.000000D+00 -0.382453D-01  0.638448D+00
      9 -0.734077D-01  0.000000D+00  0.000000D+00  0.182975D+00
     10  0.000000D+00 -0.269939D+00  0.878076D-01  0.000000D+00  0.720257D+00
     11  0.000000D+00  0.400460D-01 -0.138964D+00  0.000000D+00  0.514238D-01
     12  0.138258D-01  0.000000D+00  0.000000D+00 -0.780290D-01  0.000000D+00
     13  0.000000D+00  0.227066D-01 -0.379584D-01  0.000000D+00 -0.152811D-01
     14  0.000000D+00 -0.105793D+00 -0.347840D-01  0.000000D+00  0.341391D-01
     15 -0.538474D-01  0.000000D+00  0.000000D+00  0.220287D-02  0.000000D+00
     16  0.000000D+00  0.479469D-01  0.280217D-01  0.000000D+00 -0.137484D+00
     17  0.000000D+00  0.745714D-01 -0.397259D-01  0.000000D+00 -0.326574D-01
     18 -0.585031D-02  0.000000D+00  0.000000D+00  0.234714D-02  0.000000D+00
     19  0.000000D+00 -0.742222D-01  0.656956D-02  0.000000D+00  0.313860D-01
     20  0.000000D+00  0.152080D-01  0.161470D-02  0.000000D+00 -0.354972D-01
     21  0.182160D-01  0.000000D+00  0.000000D+00 -0.876653D-02  0.000000D+00
     22  0.000000D+00 -0.463253D-01  0.929238D-01  0.000000D+00  0.317921D-02
     23  0.000000D+00  0.546359D-01  0.432400D-01  0.000000D+00  0.607600D-02
     24 -0.147347D-01  0.000000D+00  0.000000D+00  0.232534D-01  0.000000D+00
     25  0.000000D+00 -0.169716D-01 -0.176738D-01  0.000000D+00 -0.270761D+00
     26  0.000000D+00  0.134583D-01  0.111880D-01  0.000000D+00 -0.126678D+00
     27  0.515587D-02  0.000000D+00  0.000000D+00  0.199380D-02  0.000000D+00
     28  0.000000D+00  0.318395D-02  0.126686D-02  0.000000D+00  0.295051D-03
     29  0.000000D+00  0.125401D-02 -0.367718D-02  0.000000D+00 -0.147172D-04
     30 -0.141434D-02  0.000000D+00  0.000000D+00  0.932150D-02  0.000000D+00
     31  0.000000D+00  0.175519D-02 -0.122753D-02  0.000000D+00  0.478616D-02
     32  0.000000D+00 -0.169079D-02 -0.515718D-02  0.000000D+00  0.288404D-01
     33 -0.216213D-02  0.000000D+00  0.000000D+00  0.108950D-01  0.000000D+00
     34  0.000000D+00 -0.218994D-02  0.946981D-03  0.000000D+00 -0.463471D-02
     35  0.000000D+00 -0.384562D-04  0.264267D-03  0.000000D+00 -0.247388D-02
     36  0.775184D-02  0.000000D+00  0.000000D+00 -0.185787D-03  0.000000D+00
               11            12            13            14            15 
     11  0.717573D+00
     12  0.000000D+00  0.121302D+00
     13  0.225757D-01  0.000000D+00  0.746860D+00
     14 -0.506751D-01  0.000000D+00  0.382099D-01  0.671631D+00
     15  0.000000D+00 -0.234129D-02  0.000000D+00  0.000000D+00  0.147009D+00
     16  0.230451D-01  0.000000D+00 -0.625169D-01  0.323947D-01  0.000000D+00
     17 -0.359332D+00  0.000000D+00 -0.171194D-01  0.673103D-01  0.000000D+00
     18  0.000000D+00 -0.597259D-01  0.000000D+00  0.000000D+00  0.722496D-02
     19 -0.709071D-01  0.000000D+00 -0.278354D+00  0.556310D-01  0.000000D+00
     20 -0.242008D-01  0.000000D+00  0.120245D+00 -0.183777D+00  0.000000D+00
     21  0.000000D+00  0.801668D-02  0.000000D+00  0.000000D+00 -0.668207D-01
     22 -0.647463D-02  0.000000D+00 -0.120952D-01 -0.864628D-02  0.000000D+00
     23 -0.178759D-01  0.000000D+00 -0.153591D-01 -0.195280D-01  0.000000D+00
     24  0.000000D+00  0.545150D-02  0.000000D+00  0.000000D+00 -0.420501D-02
     25 -0.124828D+00  0.000000D+00  0.190437D-03  0.204926D-02  0.000000D+00
     26 -0.132434D+00  0.000000D+00  0.283748D-03 -0.134813D-02  0.000000D+00
     27  0.000000D+00 -0.336270D-01  0.000000D+00  0.000000D+00 -0.298609D-03
     28  0.864005D-03  0.000000D+00 -0.289076D+00 -0.100844D+00  0.000000D+00
     29 -0.483358D-03  0.000000D+00 -0.976058D-01 -0.101327D+00  0.000000D+00
     30  0.000000D+00 -0.768682D-03  0.000000D+00  0.000000D+00 -0.418740D-01
     31 -0.155083D-02  0.000000D+00 -0.403205D-02 -0.383990D-02  0.000000D+00
     32 -0.110638D-01  0.000000D+00 -0.350520D-02 -0.786802D-03  0.000000D+00
     33  0.000000D+00  0.593828D-02  0.000000D+00  0.000000D+00  0.669273D-02
     34 -0.194218D-02  0.000000D+00  0.626851D-02  0.269106D-01  0.000000D+00
     35  0.809144D-03  0.000000D+00 -0.427486D-02 -0.121860D-01  0.000000D+00
     36  0.000000D+00  0.544313D-02  0.000000D+00  0.000000D+00 -0.929336D-03
               16            17            18            19            20 
     16  0.719104D+00
     17 -0.422886D-01  0.693572D+00
     18  0.000000D+00  0.000000D+00  0.144647D+00
     19 -0.280215D+00 -0.493972D-01  0.000000D+00  0.646718D+00
     20 -0.111584D+00 -0.171247D+00  0.000000D+00  0.563828D-02  0.756786D+00
     21  0.000000D+00  0.000000D+00 -0.616113D-01  0.000000D+00  0.000000D+00
     22  0.248989D-02  0.495497D-02  0.000000D+00 -0.368995D-02  0.169814D-02
     23  0.759109D-02  0.951881D-02  0.000000D+00 -0.104902D-01  0.533324D-02
     24  0.000000D+00  0.000000D+00 -0.436244D-03  0.000000D+00  0.000000D+00
     25  0.528633D-02  0.190039D-02  0.000000D+00  0.207875D-02  0.802410D-03
     26 -0.280507D-01 -0.105218D-01  0.000000D+00  0.162313D-02 -0.514138D-02
     27  0.000000D+00  0.000000D+00  0.218668D-02  0.000000D+00  0.000000D+00
     28 -0.317324D-02  0.396327D-02  0.000000D+00 -0.170537D-01 -0.132170D-01
     29  0.317645D-02 -0.174859D-02  0.000000D+00  0.157915D-01  0.119208D-01
     30  0.000000D+00  0.000000D+00  0.784229D-02  0.000000D+00  0.000000D+00
     31 -0.262841D+00  0.122578D+00  0.000000D+00 -0.175155D-01  0.167338D-01
     32  0.122363D+00 -0.135332D+00  0.000000D+00 -0.136655D-01  0.122842D-01
     33  0.000000D+00  0.000000D+00 -0.430490D-01  0.000000D+00  0.000000D+00
     34  0.335388D-02 -0.294369D-01  0.000000D+00 -0.591266D-01 -0.162820D-01
     35  0.148870D-02 -0.925280D-02  0.000000D+00 -0.157799D-01 -0.342178D+00
     36  0.000000D+00  0.000000D+00  0.101579D-02  0.000000D+00  0.000000D+00
               21            22            23            24            25 
     21  0.120368D+00
     22  0.000000D+00  0.254949D-01
     23  0.000000D+00 -0.113519D+00 -0.154574D-01
     24  0.273508D-02  0.000000D+00  0.000000D+00  0.346451D-01
     25  0.000000D+00 -0.120041D-02 -0.155082D-02  0.000000D+00  0.282202D+00
     26  0.000000D+00 -0.975251D-04  0.823597D-03  0.000000D+00  0.135813D+00
     27  0.877502D-02  0.000000D+00  0.000000D+00 -0.328274D-03  0.000000D+00
     28  0.000000D+00  0.493684D-03  0.792986D-03  0.000000D+00 -0.325165D-04
     29  0.000000D+00 -0.353892D-03 -0.753353D-04  0.000000D+00 -0.150552D-03
     30  0.677371D-02  0.000000D+00  0.000000D+00 -0.148108D-02  0.000000D+00
     31  0.000000D+00 -0.361675D-04 -0.886092D-05  0.000000D+00  0.682552D-03
     32  0.000000D+00 -0.190379D-04 -0.577815D-03  0.000000D+00 -0.471553D-03
     33  0.484684D-02  0.000000D+00  0.000000D+00 -0.840092D-03  0.000000D+00
     34  0.000000D+00 -0.116104D-02 -0.172453D-02  0.000000D+00  0.146552D-03
     35  0.000000D+00  0.538045D-03  0.950387D-03  0.000000D+00  0.260209D-03
     36 -0.303771D-01  0.000000D+00  0.000000D+00  0.601636D-03  0.000000D+00
               26            27            28            29            30 
     26  0.136591D+00
     27  0.000000D+00  0.239569D-01
     28 -0.507673D-04  0.000000D+00  0.301405D+00
     29  0.110192D-03  0.000000D+00  0.112250D+00  0.118236D+00
     30  0.000000D+00 -0.149212D-02  0.000000D+00  0.000000D+00  0.267577D-01
     31  0.329353D-03  0.000000D+00 -0.925211D-03  0.887822D-03  0.000000D+00
     32  0.121613D-02  0.000000D+00 -0.755100D-03  0.465421D-03  0.000000D+00
     33  0.000000D+00 -0.467748D-02  0.000000D+00  0.000000D+00 -0.456996D-03
     34 -0.134143D-02  0.000000D+00  0.752973D-03 -0.555309D-03  0.000000D+00
     35 -0.435747D-03  0.000000D+00  0.319230D-03  0.564835D-03  0.000000D+00
     36  0.000000D+00  0.493160D-03  0.000000D+00  0.000000D+00 -0.396449D-02
               31            32            33            34            35 
     31  0.276461D+00
     32 -0.133178D+00  0.139446D+00
     33  0.000000D+00  0.000000D+00  0.270369D-01
     34  0.106686D-02  0.717459D-03  0.000000D+00  0.576749D-01
     35 -0.216347D-03  0.689942D-03  0.000000D+00  0.179229D-01  0.361009D+00
     36  0.000000D+00  0.000000D+00 -0.318132D-02  0.000000D+00  0.000000D+00
               36 
     36  0.241748D-01
 FormGI is forming the generalized inverse of G from B-inverse, IUseBI=4.
 Leave Link  716 at Sat Aug 28 00:51:21 2021, MaxMem= 17179869184 cpu:        11.0
 (Enter /public3/home/sc51754/softwares/g09e01/l103.exe)

 GradGradGradGradGradGradGradGradGradGradGradGradGradGradGradGradGradGrad
 Berny optimization.
 Red2BG is reusing G-inverse.
 Internal  Forces:  Max     0.050680490 RMS     0.012386938
 Search for a saddle point.
 Step number   1 out of a maximum of  100
 All quantities printed in internal units (Hartrees-Bohrs-Radians)
 Second derivative matrix not updated -- analytic derivatives used.
 ITU=  0
 LST/QST climbing along tangent vector
     Eigenvalues ---   -0.06121   0.00099   0.00494   0.01585   0.01737
     Eigenvalues ---    0.02075   0.02320   0.02747   0.03061   0.04382
     Eigenvalues ---    0.06801   0.10431   0.10826   0.12105   0.13034
     Eigenvalues ---    0.14631   0.20034   0.20112   0.23791   0.28654
     Eigenvalues ---    0.31482   0.35280   0.35832   0.36300   0.36458
     Eigenvalues ---    0.41079   0.42335   0.46430   0.48759   0.53916
     Eigenvalues --- 1000.000001000.000001000.000001000.000001000.00000
     Eigenvalues --- 1000.000001000.000001000.000001000.000001000.00000
     Eigenvalues --- 1000.000001000.000001000.000001000.000001000.00000
     Eigenvalues --- 1000.000001000.000001000.000001000.000001000.00000
     Eigenvalues --- 1000.000001000.000001000.000001000.000001000.00000
     Eigenvalues --- 1000.000001000.000001000.00000
 Eigenvectors required to have negative eigenvalues:
                          R2        R5        A4        D22       A3
   1                    0.64716  -0.53452  -0.21110   0.17957   0.17736
                          D8        D21       D10       A1        D9
   1                   -0.16507   0.16358  -0.14764  -0.13984   0.13684
 QST in optimization variable space.
                        Tangent   TS vect  // Eig F  Eigenval
   1         R1        -0.04418  -0.04418  -0.03139  -0.06121
   2         R2         0.64716   0.64716  -0.00073   0.00099
   3         R3         0.02257   0.02257   0.00664   0.00494
   4         R4         0.00941   0.00941  -0.00067   0.01585
   5         R5        -0.53452  -0.53452   0.00088   0.01737
   6         R6         0.02169   0.02169  -0.00007   0.02075
   7         R7        -0.00919  -0.00919   0.00061   0.02320
   8         R8        -0.00001  -0.00001   0.00023   0.02747
   9         R9        -0.01156  -0.01156   0.00047   0.03061
  10         R10       -0.00136  -0.00136   0.00051   0.04382
  11         R11        0.01242   0.01242  -0.01683   0.06801
  12         R12        0.00040   0.00040  -0.00362   0.10431
  13         R13       -0.00085  -0.00085   0.00684   0.10826
  14         A1        -0.13984  -0.13984  -0.00069   0.12105
  15         A2         0.03374   0.03374   0.00113   0.13034
  16         A3         0.17736   0.17736  -0.02574   0.14631
  17         A4        -0.21110  -0.21110   0.00520   0.20034
  18         A5         0.00675   0.00675  -0.00720   0.20112
  19         A6         0.03675   0.03675  -0.01567   0.23791
  20         A7        -0.04350  -0.04350   0.02269   0.28654
  21         A8         0.01560   0.01560  -0.00825   0.31482
  22         A9        -0.01467  -0.01467  -0.00066   0.35280
  23         A10       -0.00093  -0.00093  -0.00013   0.35832
  24         A11       -0.01275  -0.01275  -0.00123   0.36300
  25         A12        0.00199   0.00199  -0.00005   0.36458
  26         A13        0.01076   0.01076  -0.00054   0.41079
  27         A14        0.00728   0.00728  -0.00139   0.42335
  28         A15       -0.00157  -0.00157  -0.00039   0.46430
  29         A16       -0.00572  -0.00572  -0.00181   0.48759
  30         A17       -0.00039  -0.00039   0.00310   0.53916
  31         A18       -0.00041  -0.00041  -0.000001000.00000
  32         A19        0.00080   0.00080   0.000001000.00000
  33         D1         0.02098   0.02098   0.000001000.00000
  34         D2         0.03214   0.03214  -0.000001000.00000
  35         D3        -0.01786  -0.01786   0.000001000.00000
  36         D4        -0.02966  -0.02966   0.000001000.00000
  37         D5        -0.01961  -0.01961  -0.000001000.00000
  38         D6        -0.03141  -0.03141   0.000001000.00000
  39         D7         0.11941   0.11941  -0.000001000.00000
  40         D8        -0.16507  -0.16507  -0.000001000.00000
  41         D9         0.13684   0.13684  -0.000001000.00000
  42         D10       -0.14764  -0.14764   0.000001000.00000
  43         D11       -0.05119  -0.05119  -0.000001000.00000
  44         D12       -0.01200  -0.01200  -0.000001000.00000
  45         D13       -0.03926  -0.03926  -0.000001000.00000
  46         D14       -0.00007  -0.00007  -0.000001000.00000
  47         D15        0.02221   0.02221  -0.000001000.00000
  48         D16        0.04639   0.04639   0.000001000.00000
  49         D17       -0.01798  -0.01798  -0.000001000.00000
[...]
    A1        1.30715   0.00012   0.00000   0.00002   0.00002   1.30717
    A2        2.15187  -0.00002   0.00000   0.00004   0.00004   2.15192
    A3        1.30860  -0.00001   0.00000   0.00016   0.00016   1.30876
    A4        2.82271   0.00003   0.00000  -0.00020  -0.00020   2.82251
    A5        1.84205   0.00002   0.00000   0.00007   0.00007   1.84213
    A6        2.34407  -0.00002   0.00000   0.00006   0.00006   2.34413
    A7        2.09706   0.00001   0.00000  -0.00014  -0.00014   2.09692
    A8        2.03570   0.00001   0.00000   0.00009   0.00009   2.03579
    A9        2.10828  -0.00001   0.00000  -0.00006  -0.00006   2.10822
   A10        2.13921  -0.00001   0.00000  -0.00003  -0.00003   2.13918
   A11        2.08208   0.00002   0.00000   0.00003   0.00003   2.08211
   A12        2.05309  -0.00001   0.00000   0.00001   0.00001   2.05309
   A13        2.14802  -0.00001   0.00000  -0.00003  -0.00003   2.14798
   A14        2.12963  -0.00001   0.00000  -0.00001  -0.00001   2.12963
   A15        2.07788   0.00001   0.00000   0.00000   0.00000   2.07788
   A16        2.07568   0.00001   0.00000   0.00000   0.00000   2.07568
   A17        2.07002  -0.00001   0.00000  -0.00001  -0.00001   2.07001
   A18        2.09989   0.00001   0.00000   0.00000   0.00000   2.09989
   A19        2.11327   0.00000   0.00000   0.00001   0.00001   2.11329
    D1       -0.00001   0.00001   0.00000   0.00001   0.00001  -0.00000
    D2       -3.14117  -0.00000   0.00000  -0.00042  -0.00042   3.14159
    D3       -3.14075  -0.00001   0.00000  -0.00084  -0.00084   3.14159
    D4        0.00049  -0.00000   0.00000  -0.00049  -0.00049  -0.00000
    D5        0.00001  -0.00001   0.00000  -0.00001  -0.00001   0.00000
    D6        3.14125   0.00000   0.00000   0.00035   0.00035  -3.14159
    D7       -0.00048   0.00001   0.00000   0.00048   0.00048   0.00000
    D8        3.14074   0.00001   0.00000   0.00085   0.00085   3.14159
    D9       -3.13950  -0.00000   0.00000  -0.00210  -0.00210   3.14159
   D10        0.00172   0.00000   0.00000  -0.00172  -0.00172  -0.00000
   D11        3.14088   0.00001   0.00000   0.00071   0.00071  -3.14159
   D12       -0.00036   0.00001   0.00000   0.00036   0.00036   0.00000
   D13       -0.00023  -0.00000   0.00000   0.00023   0.00023   0.00000
   D14       -3.14147  -0.00001   0.00000  -0.00012  -0.00012  -3.14159
   D15       -0.00000   0.00000   0.00000   0.00000   0.00000   0.00000
   D16       -3.14141  -0.00000   0.00000  -0.00018  -0.00018  -3.14159
   D17        3.14123   0.00001   0.00000   0.00036   0.00036   3.14159
   D18       -0.00018   0.00000   0.00000   0.00018   0.00018  -0.00000
   D19        0.00022  -0.00001   0.00000  -0.00022  -0.00022   0.00000
   D20       -3.14113  -0.00001   0.00000  -0.00046  -0.00046  -3.14159
   D21       -3.14097  -0.00001   0.00000  -0.00062  -0.00062  -3.14159
   D22        0.00086  -0.00002   0.00000  -0.00086  -0.00086   0.00000
   D23        0.00001   0.00000   0.00000  -0.00001  -0.00001  -0.00000
   D24        3.14136   0.00000   0.00000   0.00023   0.00023   3.14159
   D25        3.14142   0.00000   0.00000   0.00017   0.00017   3.14159
   D26       -0.00041   0.00001   0.00000   0.00041   0.00041  -0.00000
         Item               Value     Threshold  Converged?
 Maximum Force            0.000322     0.000450     YES
 RMS     Force            0.000049     0.000300     YES
 Maximum Displacement     0.000915     0.001800     YES
 RMS     Displacement     0.000252     0.001200     YES
 Predicted change in Energy=-1.174723D-07
 Optimization completed.
    -- Stationary point found.
                           ----------------------------
                           !   Optimized Parameters   !
                           ! (Angstroms and Degrees)  !
 --------------------------                            --------------------------
 ! Name  Definition              Value          Derivative Info.                !
 --------------------------------------------------------------------------------
 ! R1    R(1,3)                  1.2873         -DE/DX =   -0.0003              !
 ! R2    R(1,8)                  1.3679         -DE/DX =   -0.0001              !
 ! R3    R(2,3)                  1.3585         -DE/DX =    0.0                 !
 ! R4    R(2,5)                  1.3343         -DE/DX =    0.0                 !
 ! R5    R(2,8)                  1.2949         -DE/DX =    0.0                 !
 ! R6    R(3,4)                  1.4052         -DE/DX =    0.0                 !
 ! R7    R(4,6)                  1.381          -DE/DX =    0.0                 !
 ! R8    R(4,9)                  1.0787         -DE/DX =    0.0                 !
 ! R9    R(5,7)                  1.381          -DE/DX =    0.0                 !
 ! R10   R(5,10)                 1.0809         -DE/DX =    0.0                 !
 ! R11   R(6,7)                  1.405          -DE/DX =    0.0                 !
 ! R12   R(6,11)                 1.0823         -DE/DX =    0.0                 !
 ! R13   R(7,12)                 1.0788         -DE/DX =    0.0                 !
 ! A1    A(3,1,8)               74.8939         -DE/DX =    0.0001              !
 ! A2    A(3,2,5)              123.2933         -DE/DX =    0.0                 !
 ! A3    A(3,2,8)               74.9773         -DE/DX =    0.0                 !
 ! A4    A(5,2,8)              161.7293         -DE/DX =    0.0                 !
 ! A5    A(1,3,2)              105.542          -DE/DX =    0.0                 !
 ! A6    A(1,3,4)              134.3054         -DE/DX =    0.0                 !
 ! A7    A(2,3,4)              120.1526         -DE/DX =    0.0                 !
 ! A8    A(3,4,6)              116.637          -DE/DX =    0.0                 !
 ! A9    A(3,4,9)              120.7954         -DE/DX =    0.0                 !
 ! A10   A(6,4,9)              122.5676         -DE/DX =    0.0                 !
 ! A11   A(2,5,7)              119.2945         -DE/DX =    0.0                 !
 ! A12   A(2,5,10)             117.6331         -DE/DX =    0.0                 !
 ! A13   A(7,5,10)             123.0724         -DE/DX =    0.0                 !
 ! A14   A(4,6,7)              122.0189         -DE/DX =    0.0                 !
 ! A15   A(4,6,11)             119.0536         -DE/DX =    0.0                 !
 ! A16   A(7,6,11)             118.9275         -DE/DX =    0.0                 !
 ! A17   A(5,7,6)              118.6037         -DE/DX =    0.0                 !
 ! A18   A(5,7,12)             120.3147         -DE/DX =    0.0                 !
 ! A19   A(6,7,12)             121.0816         -DE/DX =    0.0                 !
 ! D1    D(8,1,3,2)             -0.0004         -DE/DX =    0.0                 !
 ! D2    D(8,1,3,4)            180.0241         -DE/DX =    0.0                 !
 ! D3    D(5,2,3,1)            180.0483         -DE/DX =    0.0                 !
 ! D4    D(5,2,3,4)              0.028          -DE/DX =    0.0                 !
 ! D5    D(8,2,3,1)              0.0004         -DE/DX =    0.0                 !
 ! D6    D(8,2,3,4)           -180.0199         -DE/DX =    0.0                 !
 ! D7    D(3,2,5,7)             -0.0275         -DE/DX =    0.0                 !
 ! D8    D(3,2,5,10)           179.951          -DE/DX =    0.0                 !
 ! D9    D(8,2,5,7)            180.1201         -DE/DX =    0.0                 !
 ! D10   D(8,2,5,10)             0.0986         -DE/DX =    0.0                 !
 ! D11   D(1,3,4,6)           -180.0407         -DE/DX =    0.0                 !
 ! D12   D(1,3,4,9)             -0.0204         -DE/DX =    0.0                 !
 ! D13   D(2,3,4,6)             -0.0133         -DE/DX =    0.0                 !
 ! D14   D(2,3,4,9)           -179.993          -DE/DX =    0.0                 !
 ! D15   D(3,4,6,7)              0.0            -DE/DX =    0.0                 !
 ! D16   D(3,4,6,11)          -179.9897         -DE/DX =    0.0                 !
 ! D17   D(9,4,6,7)            179.9793         -DE/DX =    0.0                 !
 ! D18   D(9,4,6,11)            -0.0104         -DE/DX =    0.0                 !
 ! D19   D(2,5,7,6)              0.0129         -DE/DX =    0.0                 !
 ! D20   D(2,5,7,12)          -179.9736         -DE/DX =    0.0                 !
 ! D21   D(10,5,7,6)          -179.9644         -DE/DX =    0.0                 !
 ! D22   D(10,5,7,12)            0.0491         -DE/DX =    0.0                 !
 ! D23   D(4,6,7,5)              0.0003         -DE/DX =    0.0                 !
 ! D24   D(4,6,7,12)           179.9867         -DE/DX =    0.0                 !
 ! D25   D(11,6,7,5)           179.99           -DE/DX =    0.0                 !
 ! D26   D(11,6,7,12)           -0.0236         -DE/DX =    0.0                 !
 --------------------------------------------------------------------------------
 GradGradGradGradGradGradGradGradGradGradGradGradGradGradGradGradGradGrad

 Leave Link  103 at Sat Aug 28 00:56:05 2021, MaxMem= 17179869184 cpu:        17.0
 (Enter /public3/home/sc51754/softwares/g09e01/l9999.exe)
 1\1\GINC-Q2006\Freq\RB3LYP\Gen\C5H5N1O1\SC51754\28-Aug-2021\0\\#P Geom
 =AllCheck Guess=TCheck SCRF=Check GenChk RB3LYP/ChkBas Freq\\HY_B3LYP_
 PC2_OPT_FREQ\\0,1\O,0.01208216,2.5929006821,0.0025115394\N,-0.89697904
 33,0.6919357642,0.0005634895\C,0.2982299343,1.3377777264,0.0008047552\
 C,1.4968601296,0.6043385231,-0.0002512445\C,-1.0111462092,-0.637485128
 7,-0.0001054546\C,1.3806945905,-0.7717186461,-0.0012213036\C,0.1310208
 309,-1.4137840361,-0.0011626127\H,-1.1962444568,1.9517992676,0.0022731
 275\H,2.4515480423,1.106458362,0.0000410974\H,-2.0081033063,-1.0550280
 232,0.0005735176\H,2.2792508612,-1.3750454115,-0.0018828228\H,0.057869
 5668,-2.4900793798,-0.0021440883\\Version=EM64L-G09RevE.01\State=1-A\H
 F=-323.6007461\RMSD=7.952e-09\RMSF=9.186e-05\ZeroPoint=0.0884143\Therm
 al=0.0934068\Dipole=-0.0211748,-1.3889908,-0.0010226\DipoleDeriv=-0.50
 24605,0.0013182,0.0000319,0.1747898,-1.6599354,-0.0013156,0.00021,-0.0
 014653,-0.3855454,-0.3242653,-0.3888973,-0.0003847,0.1699462,-0.996002
 7,-0.0007432,-0.0000523,-0.000795,-0.2116479,0.1788041,-0.409173,-0.00
 03261,-0.2424187,1.6845803,0.0016619,-0.0002115,0.0019757,0.2143489,-0
 .0123298,0.4964027,0.0004473,-0.0928961,-0.6049583,-0.000311,0.0000292
 ,-0.000581,-0.1737952,0.4757305,0.1311217,-0.0001453,-0.495486,0.42789
 54,0.0003037,-0.0008076,0.0000073,0.0294039,0.3762852,0.1426693,-0.000
 0479,0.2180281,0.476745,0.0002687,-0.0000576,0.0002975,-0.0664191,-0.6
 064375,-0.1596711,0.0000395,0.0808523,-0.1610885,0.0000239,0.0003412,0
 .0004623,-0.1994522,0.3928788,0.2134868,0.0001878,0.2091286,0.7536497,
 0.0004778,0.0003103,0.0005201,0.2277049,-0.0040242,-0.0359806,0.000014
 9,-0.0394147,0.0467933,-0.000084,-0.0000718,-0.0001345,0.1560604,-0.01
 88534,-0.0590229,0.000034,-0.0371129,0.0532499,-0.0000342,0.0001485,0.
 0000703,0.1253306,-0.0228777,0.0749828,0.0001076,0.0752445,0.037031,-0
 .0000914,0.0001103,-0.0000514,0.122631,0.0675498,-0.0072364,0.000041,-
 0.020661,-0.0579596,-0.0001566,0.0000514,-0.0003059,0.1613801\Polar=74
 .9133811,0.0771928,89.4292047,-0.0153902,0.0428195,37.8612119\PG=C01 [
 X(C5H5N1O1)]\NImag=1\\0.07961178,-0.01380927,0.59563990,-0.00002296,0.
 00067410,0.05334725,-0.01072917,-0.05519794,-0.00004061,0.47812394,-0.
 15339651,-0.12802500,-0.00013593,0.11928678,0.70039174,-0.00013167,-0.
 00018538,0.03591824,-0.00007103,0.00043862,0.09173935,-0.10251673,0.05
 707219,0.00007461,-0.25190494,-0.01793696,0.00004155,0.69536837,0.0269
 7412,-0.40951068,-0.00042792,-0.06765637,-0.18510138,-0.00006251,-0.11
 741700,0.71717889,0.00004327,-0.00042658,-0.07173098,-0.00002928,-0.00
 012339,-0.07895895,-0.00030820,0.00060576,0.18835467,-0.00567722,0.020
 39129,0.00002824,-0.04990129,-0.02093425,0.00001275,-0.25913168,0.0752
 6367,0.00012570,0.71670717,0.05923250,-0.02664426,-0.00006762,0.013055
 08,0.06630010,0.00004631,0.03896660,-0.14478301,-0.00008005,0.06357042
 ,0.68917029,0.00007405,-0.00006875,0.01239701,0.00001762,0.00006130,0.
 00726893,0.00010082,-0.00007307,-0.07283328,-0.00010428,0.00046844,0.1
 1734795,0.00980473,-0.00216011,-0.00000238,-0.14395045,-0.02244116,0.0
 0005781,0.02845835,-0.02647885,-0.00002554,-0.01088291,0.02083535,0.00
 001948,0.77112297,0.02385696,0.00095186,-0.00002145,-0.01243200,-0.341
 01157,-0.00016268,-0.09706192,-0.02265964,0.00004562,0.02743765,-0.050
 68513,-0.00004600,0.03688928,0.66711561,-0.00000374,-0.00000829,0.0067
 5022,0.00007814,-0.00014421,-0.05134283,-0.00009417,-0.00001587,-0.000
 14645,0.00001991,-0.00004440,-0.00054153,-0.00041614,0.00025602,0.1461
 0697,-0.01970241,0.00171121,0.00001235,-0.01861765,-0.04335077,-0.0000
 2246,0.04872388,0.02844449,0.00000456,-0.13411400,0.00763723,0.0000195
 9,-0.05971772,0.03588068,0.00005181,0.68918043,-0.01838038,0.00830806,
 0.00001492,-0.02051360,-0.05217917,-0.00002208,0.07196141,-0.04338069,
 -0.00006626,-0.04815407,-0.35877601,-0.00021470,-0.01233502,0.06381273
 ,0.00003479,-0.04419921,0.69676709,-0.00000614,0.00000080,0.00537299,-
 0.00000983,-0.00001685,-0.00570621,0.00003748,-0.00004759,0.00082053,-
 0.00001661,-0.00022221,-0.05611379,0.00002057,0.00002212,0.00610738,-0
 .00020827,0.00040994,0.14625518,0.02059644,-0.00369216,-0.00001927,0.0
 3454065,0.08243875,0.00004191,-0.07352206,0.00848710,0.00004228,0.0258
 1421,-0.07162634,-0.00005670,-0.28485804,0.06290257,0.00016986,-0.2618
 0032,-0.03689298,0.00004440,0.63286627,-0.00671875,-0.00816711,-0.0000
 0614,0.02769455,-0.06290859,-0.00006548,0.01212670,0.00190971,0.000001
 63,-0.03402694,-0.02021571,-0.00000865,0.12526473,-0.18588907,-0.00014
 251,-0.09975040,-0.16358467,-0.00003036,-0.01191760,0.75691652,-0.0000
 1165,0.00000185,-0.00250721,0.00000979,-0.00008072,0.01746872,0.000036
 61,0.00001062,-0.00807417,-0.00003092,0.00000838,0.00792086,0.00020043
 ,-0.00012777,-0.06484631,0.00000451,-0.00005699,-0.06277383,-0.0002394
 3,0.00053189,0.11673001,0.02454449,-0.00492616,-0.00002926,-0.03253510
 ,0.05393539,0.00006318,-0.07082664,0.08769636,0.00014848,0.00220687,-0
 .01155953,-0.00001349,-0.00844070,-0.00799754,0.00000007,0.00368565,0.
 00585359,0.00000350,-0.00438011,0.00097935,0.00000525,0.08785621,0.083
 48571,-0.03092596,-0.00002991,0.02427312,0.02118666,0.00001752,0.03598
 787,0.08124795,0.00004854,0.00888850,-0.02314597,-0.00003755,-0.020295
 18,-0.02001064,0.00002362,0.01050850,0.01432449,0.00000918,-0.01543259
 ,0.00635957,0.00000162,-0.12480693,-0.04994630,0.00006408,0.00000392,-
 0.03590168,0.00005207,0.00002664,-0.02903048,0.00009230,0.00002479,0.0
 2180431,0.00000942,-0.00002809,0.00636314,-0.00003622,-0.00000785,-0.0
 0608763,0.00001009,0.00001160,-0.00058568,-0.00000726,0.00000786,0.004
 58363,-0.00017884,-0.00004048,0.04157855,0.00227226,0.00070909,-0.0000
 0015,-0.00324997,0.00352167,0.00000660,-0.01750333,-0.01627224,-0.0000
 1296,-0.28632215,-0.11668482,-0.00005807,-0.00020563,0.00215348,0.0000
 0178,0.00351562,0.00074811,0.00000061,0.00254355,0.00052681,-0.0000001
 1,-0.00159088,-0.00126141,-0.00000083,0.29976333,-0.00197126,0.0003890
 2,0.00000305,0.00485741,-0.00114769,-0.00000897,0.01506036,0.01265257,
 0.00000808,-0.11743134,-0.11855177,-0.00005615,0.00043120,-0.00149313,
 -0.00000094,-0.02886388,-0.00923967,-0.00000377,0.00136042,-0.00477308
 ,-0.00001220,0.00068450,0.00074931,0.00000086,0.12692917,0.12041376,-0
 .00000219,0.00000429,-0.00217738,0.00001179,-0.00000260,0.00602474,0.0
 0001046,0.00001392,0.00160186,-0.00006347,-0.00006604,-0.03206182,0.00
 000125,-0.00000547,-0.00033742,-0.00002079,-0.00000332,0.00140274,0.00
 000133,-0.00000917,0.00868064,0.00000079,0.00000106,-0.00031634,0.0000
 6416,0.00006262,0.02312224,-0.00071826,-0.00038309,0.00000042,0.002617
 00,-0.00500327,-0.00000690,0.00320215,0.00135953,0.00000874,0.00016804
 ,0.00064178,-0.00000010,-0.30356362,-0.09582446,0.00017306,-0.00262822
 ,0.00378635,0.00001152,-0.01490239,-0.01223748,0.00000901,0.00046277,0
 .00081477,-0.00000149,-0.00004443,-0.00004367,-0.00000153,0.31553334,0
 .00000956,-0.00196291,-0.00000389,-0.03679148,-0.01653639,0.00001438,0
 .00295433,-0.00165697,-0.00000179,-0.00019377,-0.00061930,-0.00000069,
 -0.09197119,-0.09637946,0.00005151,0.00321837,-0.00199277,-0.00000622,
 0.01564424,0.01244185,-0.00000672,-0.00025010,-0.00074184,-0.00000012,
 -0.00018256,0.00016761,0.00000085,0.10729919,0.10626479,-0.00000110,0.
 00000122,0.00038212,-0.00002123,-0.00000860,-0.00015052,-0.00000032,-0
 .00001552,0.00931790,-0.00000169,-0.00000081,-0.00055740,0.00019531,0.
 00005789,-0.04087891,0.00000707,-0.00000890,0.00782549,0.00001169,0.00
 001316,0.00643507,-0.00000058,0.00000488,-0.00244062,-0.00000026,0.000
 00156,-0.00171690,-0.00018757,-0.00005046,0.02611661,0.00011662,0.0001
 8056,-0.00000017,0.00055736,-0.00116304,-0.00000123,0.00161916,-0.0017
 4616,0.00000041,0.00571831,-0.00244400,-0.00000125,-0.00443827,-0.0031
 6739,0.00000220,-0.25091554,0.12765409,0.00014702,-0.01775833,0.017388
 18,0.00001849,0.00000993,-0.00000899,-0.00000039,0.00074673,0.00030238
 ,-0.00000108,-0.00088021,0.00090304,0.00000120,0.26415484,0.00179699,-
 0.00017984,-0.00000040,-0.00035045,-0.00023351,0.00000094,-0.00151081,
 -0.00578196,-0.00001149,0.02728740,-0.01296306,-0.00002039,-0.00340208
 ,-0.00066609,-0.00000235,0.12735549,-0.14547266,-0.00010722,-0.0129285
 0,0.01183177,0.00000882,-0.00012724,-0.00059057,-0.00000019,-0.0003774
 3,0.00123327,0.00000470,-0.00069857,0.00048447,0.00000140,-0.13766096,
 0.15165960,-0.00000203,0.00000352,-0.00111888,-0.00000004,-0.00000290,
 -0.00089201,0.00000408,-0.00001536,0.01033853,0.00001696,-0.00001156,0
 .00572449,0.00000003,-0.00000136,0.00618337,0.00014007,-0.00010988,-0.
 04274234,0.00000681,0.00000035,0.00477188,0.00000062,0.00000274,-0.000
 95832,-0.00000088,0.00000520,-0.00482168,-0.00000095,0.00000098,-0.000
 49024,-0.00016343,0.00012437,0.02723304,0.00239746,0.00010440,-0.00000
 081,-0.00495037,0.00504338,0.00000948,-0.00196655,0.00134537,0.0000025
 3,-0.00458535,-0.00162427,0.00000234,0.00667130,0.02736269,0.00001724,
 0.00239029,-0.02952829,-0.00002424,-0.05913987,-0.01932916,-0.00000197
 ,-0.00099249,-0.00215339,-0.00000294,0.00007490,-0.00131528,-0.0000007
 0,0.00075382,-0.00063962,-0.00000252,0.00106940,0.00061617,-0.00000123
 ,0.05827747,-0.00107967,0.00012692,0.00000120,0.00377491,-0.00073520,-
 0.00001067,-0.00020277,-0.00011479,-0.00000009,-0.00209856,0.00091383,
 -0.00000378,-0.00433697,-0.01308548,-0.00000737,0.00140828,-0.00858672
 ,-0.00000781,-0.01834291,-0.34392120,-0.00027877,0.00051833,0.00149329
 ,0.00000107,0.00019014,-0.00040020,-0.00000085,0.00028893,0.00053090,0
 .00000418,-0.00023771,0.00067856,0.00000390,0.02011801,0.36310008,0.00
 000008,-0.00000070,-0.00073171,0.00000261,-0.00001137,0.00766101,0.000
 00478,0.00000275,-0.00049396,0.00000400,-0.00000235,0.00508544,-0.0000
 1460,-0.00000907,-0.00096686,0.00000147,0.00001088,0.00013754,0.000004
 38,-0.00029258,-0.02838929,0.00000029,-0.00000120,0.00099112,0.0000001
 4,0.00000066,0.00059932,-0.00000421,0.00000217,-0.00384260,-0.00000177
 ,0.00000182,-0.00322786,0.00000282,0.00029899,0.02317784\\0.00005087,0
 .00041956,0.00002116,-0.00000441,0.00003023,-0.00002279,0.00007581,-0.
 00029339,-0.00001835,0.00002112,0.00000058,-0.00000465,-0.00003229,-0.
 00002062,-0.00001195,0.00000523,0.00000253,0.00000447,-0.00001185,-0.0
 0000133,0.00001709,-0.00009439,-0.00013564,-0.00000341,0.00000159,-0.0
 0000083,0.00000471,-0.00000672,0.00000024,0.00002709,-0.00000059,-0.00
 000197,0.00000487,-0.00000436,0.00000064,-0.00001825\\\@


 THE WORLD OF CHEMICAL REACTIONS IS LIKE A STAGE,
 ON WHICH SCENE AFTER SCENE IS CEASELESSLY PLAYED.
 THE ACTORS ON IT ARE THE ELEMENTS.
   -- CLEMENS WINKLER   BER. 30,13(1897)
 (DISCOVERER OF GERMANIUM, FEB 6, 1886)
 Job cpu time:       0 days  0 hours 40 minutes 49.3 seconds.
 File lengths (MBytes):  RWF=     81 Int=      0 D2E=      0 Chk=      7 Scr=      1
 Normal termination of Gaussian 09 at Sat Aug 28 00:56:06 2021.
