 Entering Gaussian System, Link 0=g09
 AtFile(1): pc-2.gbs
            -H     0
            S    4   1.00
                  0.754230D+02           0.240650D-02
                  0.113500D+02           0.184870D-01
                  0.259930D+01           0.897420D-01
                  0.735130D+00           0.281110D+00
            S    1   1.00
                  0.231670D+00           0.100000D+01
            S    1   1.00
                  0.741470D-01           0.100000D+01
            P    1   1.00
                  0.160000D+01           0.100000D+01
            P    1   1.00
                  0.450000D+00           0.100000D+01
            D    1   1.00
                  0.125000D+01           0.100000D+01
            ****
            -C     0
            S    7   1.00
                  0.785710D+04           0.568250D-03
                  0.117870D+04           0.439150D-02
                  0.268320D+03           0.225040D-01
                  0.759480D+02           0.866530D-01
                  0.245590D+02           0.244050D+00
                  0.862120D+01           0.441480D+00
                  0.312780D+01           0.353320D+00
            S    7   1.00
                  0.117870D+04          -0.594920D-06
                  0.268320D+03          -0.627480D-04
                  0.759480D+02          -0.757730D-03
                  0.245590D+02          -0.733080D-02
                  0.862120D+01          -0.389320D-01
                  0.312780D+01          -0.889080D-01
                  0.822020D+00           0.216890D+00
            S    1   1.00
                  0.330170D+00           0.100000D+01
            S    1   1.00
                  0.114630D+00           0.100000D+01
            P    4   1.00
                  0.337750D+02           0.602940D-02
                  0.767660D+01           0.432280D-01
                  0.223570D+01           0.163010D+00
                  0.764470D+00           0.365040D+00
            P    1   1.00
                  0.262320D+00           0.100000D+01
            P    1   1.00
                  0.846380D-01           0.100000D+01
            D    1   1.00
                  0.140000D+01           0.100000D+01
            D    1   1.00
                  0.450000D+00           0.100000D+01
            F    1   1.00
                  0.950000D+00           0.100000D+01
            ****
            -N     0
            S    7   1.00
                  0.111010D+05           0.545700D-03
                  0.166530D+04           0.421810D-02
                  0.379080D+03           0.216450D-01
                  0.107300D+03           0.837760D-01
                  0.347470D+02           0.238810D+00
                  0.122490D+02           0.439940D+00
                  0.447430D+01           0.363640D+00
            S    7   1.00
                  0.166530D+04          -0.150060D-05
                  0.379080D+03          -0.587530D-04
                  0.107300D+03          -0.774530D-03
                  0.347470D+02          -0.721610D-02
                  0.122490D+02          -0.393380D-01
                  0.447430D+01          -0.906110D-01
                  0.124040D+01           0.198820D+00
            S    1   1.00
                  0.487430D+00           0.100000D+01
            S    1   1.00
                  0.164840D+00           0.100000D+01
            P    4   1.00
                  0.479340D+02           0.617060D-02
                  0.109990D+02           0.442600D-01
                  0.324720D+01           0.168250D+00
                  0.111140D+01           0.368480D+00
            P    1   1.00
                  0.379880D+00           0.100000D+01
            P    1   1.00
                  0.120680D+00           0.100000D+01
            D    1   1.00
                  0.180000D+01           0.100000D+01
            D    1   1.00
                  0.550000D+00           0.100000D+01
            F    1   1.00
                  0.102000D+01           0.100000D+01
            ****
            -O     0
            S    7   1.00
                  0.147820D+05           0.535190D-03
                  0.221730D+04           0.413750D-02
                  0.504740D+03           0.212450D-01
                  0.142870D+03           0.824530D-01
                  0.463000D+02           0.236710D+00
                  0.163370D+02           0.440390D+00
                  0.598280D+01           0.364650D+00
            S    7   1.00
                  0.221730D+04          -0.192750D-05
                  0.504740D+03          -0.579640D-04
                  0.142870D+03          -0.794940D-03
                  0.463000D+02          -0.731250D-02
                  0.163370D+02          -0.405740D-01
                  0.598280D+01          -0.915940D-01
                  0.167180D+01           0.209400D+00
            S    1   1.00
                  0.646620D+00           0.100000D+01
            S    1   1.00
                  0.216690D+00           0.100000D+01
            P    4   1.00
                  0.604240D+02           0.689490D-02
                  0.139350D+02           0.490050D-01
                  0.415310D+01           0.182550D+00
                  0.141580D+01           0.376330D+00
            P    1   1.00
                  0.475490D+00           0.100000D+01
            P    1   1.00
                  0.145290D+00           0.100000D+01
            D    1   1.00
                  0.220000D+01           0.100000D+01
            D    1   1.00
                  0.650000D+00           0.100000D+01
            F    1   1.00
                  0.110000D+01           0.100000D+01
            ****
 Initial command:
 /public3/home/sc51754/softwares/g09e01/l1.exe "./Gau-63221.inp" -scrdir="./"
 Entering Link 1 = /public3/home/sc51754/softwares/g09e01/l1.exe PID=     63223.
  
 Copyright (c) 1988,1990,1992,1993,1995,1998,2003,2009,2015,
            Gaussian, Inc.  All Rights Reserved.
  
 This is part of the Gaussian(R) 09 program.  It is based on
 the Gaussian(R) 03 system (copyright 2003, Gaussian, Inc.),
 the Gaussian(R) 98 system (copyright 1998, Gaussian, Inc.),
 the Gaussian(R) 94 system (copyright 1995, Gaussian, Inc.),
 the Gaussian 92(TM) system (copyright 1992, Gaussian, Inc.),
 the Gaussian 90(TM) system (copyright 1990, Gaussian, Inc.),
 the Gaussian 88(TM) system (copyright 1988, Gaussian, Inc.),
 the Gaussian 86(TM) system (copyright 1986, Carnegie Mellon
 University), and the Gaussian 82(TM) system (copyright 1983,
 Carnegie Mellon University). Gaussian is a federally registered
 trademark of Gaussian, Inc.
  
 This software contains proprietary and confidential information,
 including trade secrets, belonging to Gaussian, Inc.
  
 This software is provided under written license and may be
 used, copied, transmitted, or stored only in accord with that
 written license.
  
 The following legend is applicable only to US Government
 contracts under FAR:
  
                    RESTRICTED RIGHTS LEGEND
  
 Use, reproduction and disclosure by the US Government is
 subject to restrictions as set forth in subparagraphs (a)
 and (c) of the Commercial Computer Software - Restricted
 Rights clause in FAR 52.227-19.
  
 Gaussian, Inc.
 340 Quinnipiac St., Bldg. 40, Wallingford CT 06492
  
  
 ---------------------------------------------------------------
 Warning -- This program may not be used in any manner that
 competes with the business of Gaussian, Inc. or will provide
 assistance to any competitor of Gaussian, Inc.  The licensee
 of this program is prohibited from giving any competitor of
 Gaussian, Inc. access to this program.  By using this program,
 the user acknowledges that Gaussian, Inc. is engaged in the
 business of creating and licensing software in the field of
 computational chemistry and represents and warrants to the
 licensee that it is not a competitor of Gaussian, Inc. and that
 it will not use this program in any manner prohibited above.
 ---------------------------------------------------------------
  

 Cite this work as:
 Gaussian 09, Revision E.01,
 M. J. Frisch, G. W. Trucks, H. B. Schlegel, G. E. Scuseria, 
 M. A. Robb, J. R. Cheeseman, G. Scalmani, V. Barone, B. Mennucci, 
 G. A. Petersson, H. Nakatsuji, M. Caricato, X. Li, H. P. Hratchian, 
 A. F. Izmaylov, J. Bloino, G. Zheng, J. L. Sonnenberg, M. Hada, 
 M. Ehara, K. Toyota, R. Fukuda, J. Hasegawa, M. Ishida, T. Nakajima, 
 Y. Honda, O. Kitao, H. Nakai, T. Vreven, J. A. Montgomery, Jr., 
 J. E. Peralta, F. Ogliaro, M. Bearpark, J. J. Heyd, E. Brothers, 
 K. N. Kudin, V. N. Staroverov, T. Keith, R. Kobayashi, J. Normand, 
 K. Raghavachari, A. Rendell, J. C. Burant, S. S. Iyengar, J. Tomasi, 
 M. Cossi, N. Rega, J. M. Millam, M. Klene, J. E. Knox, J. B. Cross, 
 V. Bakken, C. Adamo, J. Jaramillo, R. Gomperts, R. E. Stratmann, 
 O. Yazyev, A. J. Austin, R. Cammi, C. Pomelli, J. W. Ochterski, 
 R. L. Martin, K. Morokuma, V. G. Zakrzewski, G. A. Voth, 
 P. Salvador, J. J. Dannenberg, S. Dapprich, A. D. Daniels, 
 O. Farkas, J. B. Foresman, J. V. Ortiz, J. Cioslowski, 
 and D. J. Fox, Gaussian, Inc., Wallingford CT, 2013.
 
 ******************************************
 Gaussian 09:  EM64L-G09RevE.01 30-Nov-2015
                28-Aug-2021 
 ******************************************
 %nprocshared=64
 Will use up to   64 processors via shared memory.
 %mem=128GB
 %chk=TST_H2O_B3LYP.chk
 ----------------------------------------------------------------------
 #p opt=(calcfc,qst3,maxcycle=300,cartesian) freq b3lyp/gen int=acc2e=1
 2 scf=(novaracc,noincfock)
 ----------------------------------------------------------------------
 1/5=1,6=300,10=4,14=-1,18=20,26=3,27=203,38=1/1,3;
 2/9=110,12=2,17=6,18=5,40=1/2;
 3/5=7,11=2,16=1,25=1,30=1,71=2,74=-5,140=1/1,2,3;
 4//1;
 5/5=100002,38=1,87=12/2;
 8/6=4,10=90,11=11,87=12/1;
 11/6=1,8=1,9=11,15=111,16=1,87=12/1,2,10;
 10/6=1,13=1,87=12/2;
 6/7=2,8=2,9=2,10=2,28=1/1;
 7/10=1,18=20,25=1,87=12/1,2,3,16;
 1/5=1,6=300,10=4,14=-1,18=20,26=3,27=203/3(2);
 2/9=110/2;
 99//99;
 2/9=110/2;
 3/5=7,6=1,11=2,16=1,25=1,30=1,71=1,74=-5,82=7/1,2,3;
 4/5=5,16=3,69=1/1;
 5/5=100002,38=1,87=12/2;
 7/87=12/1,2,3,16;
 1/5=1,6=300,14=-1,18=20,26=3,27=203/3(-5);
 2/9=110/2;
 6/7=2,8=2,9=2,10=2,19=2,28=1/1;
 99/9=1/99;
 Leave Link    1 at Sat Aug 28 15:06:49 2021, MaxMem= 17179869184 cpu:        15.1
 (Enter /public3/home/sc51754/softwares/g09e01/l101.exe)
 -------------------------
 HY_H2O_B3LYP_PC2_OPT_FREQ
 -------------------------
 Symbolic Z-matrix:
 Charge =  0 Multiplicity = 1
 O                     1.22023   1.4428   -0.00044 
 N                     0.3041   -0.66924  -0.00265 
 C                     0.13949   0.65299   0.00131 
 C                    -1.12584   1.25632   0.00717 
 C                    -0.7875   -1.44591  -0.00399 
 C                    -2.23648   0.4401    0.00713 
 C                    -2.07475  -0.94687   0.00102 
 H                     2.03305   0.89154  -0.01354 
 H                    -1.19893   2.33344   0.00979 
 H                    -0.60648  -2.51379  -0.01027 
 H                    -3.22679   0.87549   0.01064 
 H                    -2.92281  -1.61521  -0.00077 
 O                     3.09183  -0.5844   -0.08665 
 H                     3.59686  -0.8855    0.67254 
 H                     2.21047  -1.00831  -0.0289 
 
 Add virtual bond connecting atoms O13        and H8         Dist= 3.44D+00.
 Add virtual bond connecting atoms H15        and N2         Dist= 3.66D+00.
 Add virtual bond connecting atoms H15        and H8         Dist= 3.61D+00.
 Add atom     13 valence  3 ND=      2 dihedral       8     13     14     15
 -------------------------
 PY_H2O_B3LYP_PC2_OPT_FREQ
 -------------------------
 Symbolic Z-matrix:
 Charge =  0 Multiplicity = 1
 O                     1.26078   1.39165   0.00652 
 N                     0.2523   -0.65711   0.01247 
 C                     0.21107   0.73809   0.00665 
 C                    -1.12003   1.28708   0.00003 
 C                    -0.83949  -1.4606    0.00731 
 C                    -2.21702   0.47964  -0.00435 
 C                    -2.09229  -0.93267  -0.00141 
 H                     2.70238   0.27516  -0.04557 
 H                    -1.19905   2.36366  -0.00348 
 H                    -0.64398  -2.5229    0.00939 
 H                    -3.20492   0.92216  -0.01098 
 H                    -2.95672  -1.57691  -0.00643 
 O                     3.09631  -0.62244  -0.08537 
 H                     3.83444  -0.629     0.52738 
 H                     1.19159  -1.05534   0.02385 
 
 Add virtual bond connecting atoms H8         and O1         Dist= 3.45D+00.
 Add virtual bond connecting atoms O13        and H15        Dist= 3.70D+00.
 -------------
 TST_H2O_B3LYP
 -------------
 Symbolic Z-matrix:
 Charge =  0 Multiplicity = 1
 O                     1.33698   1.29098  -0.01074 
 N                     0.42085  -0.82107  -0.01294 
 C                     0.25623   0.50116  -0.00898 
 C                    -1.00909   1.10449  -0.00313 
 C                    -0.67076  -1.59773  -0.01429 
 C                    -2.11973   0.28827  -0.00316 
 C                    -1.958    -1.09869  -0.00927 
 H                     2.28324   0.55587  -0.02761 
 H                    -1.08218   2.18162  -0.00051 
 H                    -0.48973  -2.66561  -0.02056 
 H                    -3.11004   0.72366   0.00034 
 H                    -2.80606  -1.76703  -0.01106 
 O                     2.74332  -0.43976  -0.07732 
 H                     3.24835  -0.74086   0.68187 
 H                     1.76275  -0.9114   -0.01306 
 
 NAtoms=     15 NQM=       15 NQMF=       0 NMMI=      0 NMMIF=      0
                NMic=       0 NMicF=      0.
                    Isotopes and Nuclear Properties:
 (Nuclear quadrupole moments (NQMom) in fm**2, nuclear magnetic moments (NMagM)
  in nuclear magnetons)

  Atom         1           2           3           4           5           6           7           8           9          10
 IAtWgt=          16          14          12          12          12          12          12           1           1           1
 AtmWgt=  15.9949146  14.0030740  12.0000000  12.0000000  12.0000000  12.0000000  12.0000000   1.0078250   1.0078250   1.0078250
 NucSpn=           0           2           0           0           0           0           0           1           1           1
 AtZEff=   0.0000000   0.0000000   0.0000000   0.0000000   0.0000000   0.0000000   0.0000000   0.0000000   0.0000000   0.0000000
 NQMom=    0.0000000   2.0440000   0.0000000   0.0000000   0.0000000   0.0000000   0.0000000   0.0000000   0.0000000   0.0000000
 NMagM=    0.0000000   0.4037610   0.0000000   0.0000000   0.0000000   0.0000000   0.0000000   2.7928460   2.7928460   2.7928460
 AtZNuc=   8.0000000   7.0000000   6.0000000   6.0000000   6.0000000   6.0000000   6.0000000   1.0000000   1.0000000   1.0000000

  Atom        11          12          13          14          15
 IAtWgt=           1           1          16           1           1
 AtmWgt=   1.0078250   1.0078250  15.9949146   1.0078250   1.0078250
 NucSpn=           1           1           0           1           1
 AtZEff=   0.0000000   0.0000000   0.0000000   0.0000000   0.0000000
 NQMom=    0.0000000   0.0000000   0.0000000   0.0000000   0.0000000
 NMagM=    2.7928460   2.7928460   0.0000000   2.7928460   2.7928460
 AtZNuc=   1.0000000   1.0000000   8.0000000   1.0000000   1.0000000
 Leave Link  101 at Sat Aug 28 15:06:51 2021, MaxMem= 17179869184 cpu:        27.9
 (Enter /public3/home/sc51754/softwares/g09e01/l103.exe)

 GradGradGradGradGradGradGradGradGradGradGradGradGradGradGradGradGradGrad
 Berny optimization.
 Initialization pass.
                           ----------------------------
                           !    Initial Parameters    !
                           ! (Angstroms and Degrees)  !
 --------------------------                            --------------------------
 ! Name  Definition        TS        Reactant  Product Derivative Info.         !
 --------------------------------------------------------------------------------
 ! R1    R(1,3)             1.3386    1.3386    1.2365 calculate D2E/DX2 analyti!
 ! R2    R(1,8)             1.1984    0.9822    1.8241 calculate D2E/DX2 analyti!
 ! R3    R(2,3)             1.3324    1.3324    1.3958 calculate D2E/DX2 analyti!
 ! R4    R(2,5)             1.3397    1.3397    1.3556 calculate D2E/DX2 analyti!
 ! R5    R(2,15)            1.3449    1.9365    1.0203 calculate D2E/DX2 analyti!
 ! R6    R(3,4)             1.4018    1.4018    1.4399 calculate D2E/DX2 analyti!
 ! R7    R(4,6)             1.3783    1.3783    1.3621 calculate D2E/DX2 analyti!
 ! R8    R(4,9)             1.0796    1.0796    1.0795 calculate D2E/DX2 analyti!
 ! R9    R(5,7)             1.3806    1.3806    1.3595 calculate D2E/DX2 analyti!
 ! R10   R(5,10)            1.0831    1.0831    1.0802 calculate D2E/DX2 analyti!
 ! R11   R(6,7)             1.3964    1.3964    1.4178 calculate D2E/DX2 analyti!
 ! R12   R(6,11)            1.0818    1.0818    1.0825 calculate D2E/DX2 analyti!
 ! R13   R(7,12)            1.0798    1.0798    1.0781 calculate D2E/DX2 analyti!
 ! R14   R(8,13)            1.0979    1.8179    0.981  calculate D2E/DX2 analyti!
 ! R15   R(8,15)            1.5569    1.9082    2.0143 calculate D2E/DX2 analyti!
 ! R16   R(13,14)           0.9603    0.9603    0.9593 calculate D2E/DX2 analyti!
 ! R17   R(13,15)           1.09      0.9797    1.9564 calculate D2E/DX2 analyti!
 ! A1    A(3,1,8)         105.998   109.6937  110.3274 calculate D2E/DX2 analyti!
 ! A2    A(3,2,5)         118.3349  118.3349  124.6563 calculate D2E/DX2 analyti!
 ! A3    A(3,2,15)        100.9474  107.1826  114.6696 calculate D2E/DX2 analyti!
 ! A4    A(5,2,15)        140.7177  134.477   120.674  calculate D2E/DX2 analyti!
 ! A5    A(1,3,2)         119.0626  119.0626  120.214  calculate D2E/DX2 analyti!
 ! A6    A(1,3,4)         118.3478  118.3478  125.6799 calculate D2E/DX2 analyti!
 ! A7    A(2,3,4)         122.5895  122.5895  114.106  calculate D2E/DX2 analyti!
 ! A8    A(3,4,6)         118.1946  118.1946  121.233  calculate D2E/DX2 analyti!
 ! A9    A(3,4,9)         119.3749  119.3749  116.6108 calculate D2E/DX2 analyti!
 ! A10   A(6,4,9)         122.4304  122.4304  122.1561 calculate D2E/DX2 analyti!
 ! A11   A(2,5,7)         123.3779  123.3779  120.7996 calculate D2E/DX2 analyti!
 ! A12   A(2,5,10)        115.8101  115.8101  115.9216 calculate D2E/DX2 analyti!
 ! A13   A(7,5,10)        120.8119  120.8119  123.2787 calculate D2E/DX2 analyti!
 ! A14   A(4,6,7)         119.6613  119.6613  121.307  calculate D2E/DX2 analyti!
 ! A15   A(4,6,11)        119.9545  119.9545  119.5163 calculate D2E/DX2 analyti!
 ! A16   A(7,6,11)        120.3842  120.3842  119.1766 calculate D2E/DX2 analyti!
 ! A17   A(5,7,6)         117.8417  117.8417  117.8977 calculate D2E/DX2 analyti!
 ! A18   A(5,7,12)        120.568   120.568   120.4542 calculate D2E/DX2 analyti!
 ! A19   A(6,7,12)        121.5903  121.5903  121.6481 calculate D2E/DX2 analyti!
 ! A20   A(1,8,13)        152.5984  159.7495  151.4621 calculate D2E/DX2 analyti!
 ! A21   A(1,8,15)        108.2996  129.4834   79.0799 calculate D2E/DX2 analyti!
 ! A22   A(8,13,14)       117.9661  121.9447  106.8162 calculate D2E/DX2 analyti!
 ! A23   A(8,13,15)        90.7298   79.9201   79.0029 calculate D2E/DX2 analyti!
 ! A24   A(14,13,15)      106.9088  106.9088  135.3932 calculate D2E/DX2 analyti!
 ! A25   A(2,15,8)        105.6801   74.575   115.6125 calculate D2E/DX2 analyti!
 ! A26   A(2,15,13)       150.2876  144.1608  144.0302 calculate D2E/DX2 analyti!
 ! D1    D(8,1,3,2)         0.5817    0.5485    2.0152 calculate D2E/DX2 analyti!
 ! D2    D(8,1,3,4)      -179.4137 -179.4469 -177.9286 calculate D2E/DX2 analyti!
 ! D3    D(3,1,8,13)        3.9301    4.3976    1.258  calculate D2E/DX2 analyti!
 ! D4    D(3,1,8,15)       -0.9844   -0.226    -2.2958 calculate D2E/DX2 analyti!
 ! D5    D(5,2,3,1)      -179.846  -179.846  -179.7017 calculate D2E/DX2 analyti!
 ! D6    D(5,2,3,4)         0.1492    0.1492    0.2483 calculate D2E/DX2 analyti!
 ! D7    D(15,2,3,1)        0.2078   -0.5801    0.4618 calculate D2E/DX2 analyti!
 ! D8    D(15,2,3,4)     -179.797   179.4151 -179.5883 calculate D2E/DX2 analyti!
 ! D9    D(3,2,5,7)        -0.1248   -0.1248   -0.1432 calculate D2E/DX2 analyti!
 ! D10   D(3,2,5,10)      179.8212  179.8212  179.7877 calculate D2E/DX2 analyti!
 ! D11   D(15,2,5,7)      179.7917 -179.1419  179.6841 calculate D2E/DX2 analyti!
 ! D12   D(15,2,5,10)      -0.2624    0.804    -0.385  calculate D2E/DX2 analyti!
 ! D13   D(3,2,15,8)       -0.7269    0.3262   -2.5277 calculate D2E/DX2 analyti!
 ! D14   D(3,2,15,13)      -6.9938   -4.6369   -6.3701 calculate D2E/DX2 analyti!
 ! D15   D(5,2,15,8)      179.348   179.4206  177.6287 calculate D2E/DX2 analyti!
 ! D16   D(5,2,15,13)     173.0811  174.4575  173.7862 calculate D2E/DX2 analyti!
 ! D17   D(1,3,4,6)       179.9139  179.9139  179.7475 calculate D2E/DX2 analyti!
 ! D18   D(1,3,4,9)         0.0193    0.0193   -0.1206 calculate D2E/DX2 analyti!
 ! D19   D(2,3,4,6)        -0.0814   -0.0814   -0.1993 calculate D2E/DX2 analyti!
 ! D20   D(2,3,4,9)      -179.9759 -179.9759  179.9326 calculate D2E/DX2 analyti!
 ! D21   D(3,4,6,7)        -0.0151   -0.0151    0.0546 calculate D2E/DX2 analyti!
 ! D22   D(3,4,6,11)     -179.9426 -179.9426 -179.8973 calculate D2E/DX2 analyti!
 ! D23   D(9,4,6,7)       179.876   179.876   179.9153 calculate D2E/DX2 analyti!
 ! D24   D(9,4,6,11)       -0.0515   -0.0515   -0.0365 calculate D2E/DX2 analyti!
 ! D25   D(2,5,7,6)         0.0323    0.0323   -0.0253 calculate D2E/DX2 analyti!
 ! D26   D(2,5,7,12)      179.9729  179.9729  179.9416 calculate D2E/DX2 analyti!
 ! D27   D(10,5,7,6)     -179.9111 -179.9111 -179.9509 calculate D2E/DX2 analyti!
 ! D28   D(10,5,7,12)       0.0296    0.0296    0.016  calculate D2E/DX2 analyti!
 ! D29   D(4,6,7,5)         0.0382    0.0382    0.0651 calculate D2E/DX2 analyti!
 ! D30   D(4,6,7,12)     -179.9018 -179.9018 -179.9015 calculate D2E/DX2 analyti!
 ! D31   D(11,6,7,5)      179.9654  179.9654 -179.9829 calculate D2E/DX2 analyti!
 ! D32   D(11,6,7,12)       0.0254    0.0254    0.0505 calculate D2E/DX2 analyti!
 ! D33   D(1,8,13,14)    -116.3111 -110.7962 -138.0013 calculate D2E/DX2 analyti!
 ! D34   D(1,8,13,15)      -6.6721   -7.0697   -3.6602 calculate D2E/DX2 analyti!
 ! D35   D(1,8,15,2)        1.172    -0.0683    2.9425 calculate D2E/DX2 analyti!
 ! D36   D(8,13,14,15)    100.1646   88.5084   91.2963 calculate D2E/DX2 analyti!
 ! D37   D(8,13,15,2)       8.5717    5.101     7.2613 calculate D2E/DX2 analyti!
 ! D38   D(14,13,15,2)    128.1789  125.6077  110.1269 calculate D2E/DX2 analyti!
 --------------------------------------------------------------------------------
 Trust Radius=3.00D-01 FncErr=1.00D-07 GrdErr=1.00D-06
 Number of steps in this run=    100 maximum allowed number of steps=    100.
 Search for a saddle point of order  1.
 GradGradGradGradGradGradGradGradGradGradGradGradGradGradGradGradGradGrad

 Leave Link  103 at Sat Aug 28 15:06:51 2021, MaxMem= 17179869184 cpu:         6.2
 (Enter /public3/home/sc51754/softwares/g09e01/l202.exe)
                          Input orientation:                          
 ---------------------------------------------------------------------
 Center     Atomic      Atomic             Coordinates (Angstroms)
 Number     Number       Type             X           Y           Z
 ---------------------------------------------------------------------
      1          8           0        1.336977    1.290978   -0.010735
      2          7           0        0.420847   -0.821069   -0.012940
      3          6           0        0.256235    0.501164   -0.008984
      4          6           0       -1.009088    1.104492   -0.003125
      5          6           0       -0.670756   -1.597731   -0.014286
      6          6           0       -2.119731    0.288270   -0.003163
      7          6           0       -1.958004   -1.098694   -0.009274
      8          1           0        2.283244    0.555871   -0.027613
      9          1           0       -1.082179    2.181618   -0.000506
     10          1           0       -0.489732   -2.665614   -0.020564
     11          1           0       -3.110039    0.723662    0.000342
     12          1           0       -2.806061   -1.767035   -0.011062
     13          8           0        2.743321   -0.439757   -0.077320
     14          1           0        3.248353   -0.740862    0.681874
     15          1           0        1.762746   -0.911395   -0.013063
 ---------------------------------------------------------------------
                    Distance matrix (angstroms):
                    1          2          3          4          5
     1  O    0.000000
     2  N    2.302182   0.000000
     3  C    1.338586   1.332446   0.000000
     4  C    2.353477   2.398457   1.401814   0.000000
     5  C    3.517903   1.339702   2.294494   2.723344   0.000000
     6  C    3.599210   2.772231   2.385492   1.378313   2.378372
     7  C    4.070311   2.394999   2.731739   2.398856   1.380605
     8  H    1.198369   2.316182   2.027833   3.337819   3.655721
     9  H    2.577918   3.357882   2.148336   1.079606   3.801702
    10  H    4.357933   2.057075   3.253473   3.805750   1.083136
    11  H    4.483071   3.854027   3.373632   2.135191   3.367370
    12  H    5.149389   3.362706   3.810825   3.387454   2.142009
    13  O    2.231072   2.354449   2.660000   4.058421   3.605662
    14  H    2.874272   2.912729   3.312504   4.690454   4.071644
    15  H    2.243153   1.344936   2.065167   3.427385   2.528436
                    6          7          8          9         10
     6  C    0.000000
     7  C    1.396375   0.000000
     8  H    4.411167   4.552593   0.000000
     9  H    2.159002   3.395231   3.737627   0.000000
    10  H    3.373815   2.147368   4.250578   4.883345   0.000000
    11  H    1.081799   2.155982   5.395965   2.497569   4.284115
    12  H    2.166885   1.079761   5.594389   4.308566   2.484535
    13  O    4.917804   4.747767   1.097915   4.638099   3.925595
    14  H    5.508604   5.264208   1.765311   5.268780   4.262789
    15  H    4.063610   3.725463   1.556920   4.202438   2.854995
                   11         12         13         14         15
    11  H    0.000000
    12  H    2.509204   0.000000
    13  O    5.968367   5.706286   0.000000
    14  H    6.560371   6.179735   0.960259   0.000000
    15  H    5.139808   4.648238   1.090000   1.648954   0.000000
 Stoichiometry    C5H7NO2
 Framework group  C1[X(C5H7NO2)]
 Deg. of freedom    39
 Full point group                 C1      NOp   1
 Largest Abelian subgroup         C1      NOp   1
 Largest concise Abelian subgroup C1      NOp   1
                         Standard orientation:                         
 ---------------------------------------------------------------------
 Center     Atomic      Atomic             Coordinates (Angstroms)
 Number     Number       Type             X           Y           Z
 ---------------------------------------------------------------------
      1          8           0        1.430753    1.260149   -0.005266
      2          7           0        0.307454   -0.749386   -0.008647
      3          6           0        0.276271    0.582676   -0.001513
      4          6           0       -0.922152    1.309820    0.009732
      5          6           0       -0.856525   -1.412676   -0.007930
      6          6           0       -2.109038    0.609075    0.011742
      7          6           0       -2.087223   -0.787098    0.002333
      8          1           0        2.298482    0.433908   -0.026737
      9          1           0       -0.886858    2.388837    0.014738
     10          1           0       -0.783515   -2.493311   -0.016933
     11          1           0       -3.050681    1.141559    0.019389
     12          1           0       -2.998025   -1.367032    0.002019
     13          8           0        2.656248   -0.602716   -0.079948
     14          1           0        3.130886   -0.954697    0.676970
     15          1           0        1.633525   -0.973805   -0.013388
 ---------------------------------------------------------------------
 Rotational constants (GHZ):      4.3075772      1.6257885      1.1833618
 Leave Link  202 at Sat Aug 28 15:06:52 2021, MaxMem= 17179869184 cpu:         2.9
 (Enter /public3/home/sc51754/softwares/g09e01/l301.exe)
 General basis read from cards:  (5D, 7F)
 Centers:       8      9     10     11     12     14     15
 S 4 1.00
     Exponent=  7.5423000000D+01 Coefficients=  2.4065000000D-03
     Exponent=  1.1350000000D+01 Coefficients=  1.8487000000D-02
     Exponent=  2.5993000000D+00 Coefficients=  8.9742000000D-02
     Exponent=  7.3513000000D-01 Coefficients=  2.8111000000D-01
 S 1 1.00
     Exponent=  2.3167000000D-01 Coefficients=  1.0000000000D+00
 S 1 1.00
     Exponent=  7.4147000000D-02 Coefficients=  1.0000000000D+00
 P 1 1.00
     Exponent=  1.6000000000D+00 Coefficients=  1.0000000000D+00
 P 1 1.00
     Exponent=  4.5000000000D-01 Coefficients=  1.0000000000D+00
 D 1 1.00
     Exponent=  1.2500000000D+00 Coefficients=  1.0000000000D+00
 ****
 Centers:       3      4      5      6      7
 S 7 1.00
     Exponent=  7.8571000000D+03 Coefficients=  5.6825000000D-04
     Exponent=  1.1787000000D+03 Coefficients=  4.3915000000D-03
     Exponent=  2.6832000000D+02 Coefficients=  2.2504000000D-02
     Exponent=  7.5948000000D+01 Coefficients=  8.6653000000D-02
     Exponent=  2.4559000000D+01 Coefficients=  2.4405000000D-01
     Exponent=  8.6212000000D+00 Coefficients=  4.4148000000D-01
     Exponent=  3.1278000000D+00 Coefficients=  3.5332000000D-01
 S 7 1.00
     Exponent=  1.1787000000D+03 Coefficients= -5.9492000000D-07
     Exponent=  2.6832000000D+02 Coefficients= -6.2748000000D-05
     Exponent=  7.5948000000D+01 Coefficients= -7.5773000000D-04
     Exponent=  2.4559000000D+01 Coefficients= -7.3308000000D-03
     Exponent=  8.6212000000D+00 Coefficients= -3.8932000000D-02
     Exponent=  3.1278000000D+00 Coefficients= -8.8908000000D-02
     Exponent=  8.2202000000D-01 Coefficients=  2.1689000000D-01
 S 1 1.00
     Exponent=  3.3017000000D-01 Coefficients=  1.0000000000D+00
 S 1 1.00
     Exponent=  1.1463000000D-01 Coefficients=  1.0000000000D+00
 P 4 1.00
     Exponent=  3.3775000000D+01 Coefficients=  6.0294000000D-03
     Exponent=  7.6766000000D+00 Coefficients=  4.3228000000D-02
     Exponent=  2.2357000000D+00 Coefficients=  1.6301000000D-01
     Exponent=  7.6447000000D-01 Coefficients=  3.6504000000D-01
 P 1 1.00
     Exponent=  2.6232000000D-01 Coefficients=  1.0000000000D+00
 P 1 1.00
     Exponent=  8.4638000000D-02 Coefficients=  1.0000000000D+00
 D 1 1.00
     Exponent=  1.4000000000D+00 Coefficients=  1.0000000000D+00
 D 1 1.00
     Exponent=  4.5000000000D-01 Coefficients=  1.0000000000D+00
 F 1 1.00
     Exponent=  9.5000000000D-01 Coefficients=  1.0000000000D+00
 ****
 Centers:       2
 S 7 1.00
     Exponent=  1.1101000000D+04 Coefficients=  5.4570000000D-04
     Exponent=  1.6653000000D+03 Coefficients=  4.2181000000D-03
     Exponent=  3.7908000000D+02 Coefficients=  2.1645000000D-02
     Exponent=  1.0730000000D+02 Coefficients=  8.3776000000D-02
     Exponent=  3.4747000000D+01 Coefficients=  2.3881000000D-01
     Exponent=  1.2249000000D+01 Coefficients=  4.3994000000D-01
     Exponent=  4.4743000000D+00 Coefficients=  3.6364000000D-01
 S 7 1.00
     Exponent=  1.6653000000D+03 Coefficients= -1.5006000000D-06
     Exponent=  3.7908000000D+02 Coefficients= -5.8753000000D-05
     Exponent=  1.0730000000D+02 Coefficients= -7.7453000000D-04
     Exponent=  3.4747000000D+01 Coefficients= -7.2161000000D-03
     Exponent=  1.2249000000D+01 Coefficients= -3.9338000000D-02
     Exponent=  4.4743000000D+00 Coefficients= -9.0611000000D-02
     Exponent=  1.2404000000D+00 Coefficients=  1.9882000000D-01
 S 1 1.00
     Exponent=  4.8743000000D-01 Coefficients=  1.0000000000D+00
 S 1 1.00
     Exponent=  1.6484000000D-01 Coefficients=  1.0000000000D+00
 P 4 1.00
     Exponent=  4.7934000000D+01 Coefficients=  6.1706000000D-03
     Exponent=  1.0999000000D+01 Coefficients=  4.4260000000D-02
     Exponent=  3.2472000000D+00 Coefficients=  1.6825000000D-01
     Exponent=  1.1114000000D+00 Coefficients=  3.6848000000D-01
 P 1 1.00
     Exponent=  3.7988000000D-01 Coefficients=  1.0000000000D+00
 P 1 1.00
     Exponent=  1.2068000000D-01 Coefficients=  1.0000000000D+00
 D 1 1.00
     Exponent=  1.8000000000D+00 Coefficients=  1.0000000000D+00
 D 1 1.00
     Exponent=  5.5000000000D-01 Coefficients=  1.0000000000D+00
 F 1 1.00
     Exponent=  1.0200000000D+00 Coefficients=  1.0000000000D+00
 ****
 Centers:       1     13
 S 7 1.00
     Exponent=  1.4782000000D+04 Coefficients=  5.3519000000D-04
     Exponent=  2.2173000000D+03 Coefficients=  4.1375000000D-03
     Exponent=  5.0474000000D+02 Coefficients=  2.1245000000D-02
     Exponent=  1.4287000000D+02 Coefficients=  8.2453000000D-02
     Exponent=  4.6300000000D+01 Coefficients=  2.3671000000D-01
     Exponent=  1.6337000000D+01 Coefficients=  4.4039000000D-01
     Exponent=  5.9828000000D+00 Coefficients=  3.6465000000D-01
 S 7 1.00
     Exponent=  2.2173000000D+03 Coefficients= -1.9275000000D-06
     Exponent=  5.0474000000D+02 Coefficients= -5.7964000000D-05
     Exponent=  1.4287000000D+02 Coefficients= -7.9494000000D-04
     Exponent=  4.6300000000D+01 Coefficients= -7.3125000000D-03
     Exponent=  1.6337000000D+01 Coefficients= -4.0574000000D-02
     Exponent=  5.9828000000D+00 Coefficients= -9.1594000000D-02
     Exponent=  1.6718000000D+00 Coefficients=  2.0940000000D-01
 S 1 1.00
     Exponent=  6.4662000000D-01 Coefficients=  1.0000000000D+00
 S 1 1.00
     Exponent=  2.1669000000D-01 Coefficients=  1.0000000000D+00
 P 4 1.00
     Exponent=  6.0424000000D+01 Coefficients=  6.8949000000D-03
     Exponent=  1.3935000000D+01 Coefficients=  4.9005000000D-02
     Exponent=  4.1531000000D+00 Coefficients=  1.8255000000D-01
     Exponent=  1.4158000000D+00 Coefficients=  3.7633000000D-01
 P 1 1.00
     Exponent=  4.7549000000D-01 Coefficients=  1.0000000000D+00
 P 1 1.00
     Exponent=  1.4529000000D-01 Coefficients=  1.0000000000D+00
 D 1 1.00
     Exponent=  2.2000000000D+00 Coefficients=  1.0000000000D+00
 D 1 1.00
     Exponent=  6.5000000000D-01 Coefficients=  1.0000000000D+00
 F 1 1.00
     Exponent=  1.1000000000D+00 Coefficients=  1.0000000000D+00
 ****
 Ernie: Thresh=  0.10000D-02 Tol=  0.10000D-05 Strict=F.
 Ernie:  8 primitive shells out of 263 were deleted.
 There are   385 symmetry adapted cartesian basis functions of A   symmetry.
 There are   338 symmetry adapted basis functions of A   symmetry.
   338 basis functions,   566 primitive gaussians,   385 cartesian basis functions
    30 alpha electrons       30 beta electrons
       nuclear repulsion energy       369.9802025265 Hartrees.
 IExCor=  402 DFT=T Ex+Corr=B3LYP ExCW=0 ScaHFX=  0.200000
 ScaDFX=  0.800000  0.720000  1.000000  0.810000 ScalE2=  1.000000  1.000000
 IRadAn=      0 IRanWt=     -1 IRanGd=            0 ICorTp=0 IEmpDi=  4
 NAtoms=   15 NActive=   15 NUniq=   15 SFac= 1.00D+00 NAtFMM=   60 NAOKFM=F Big=F
 Integral buffers will be    131072 words long.
 Raffenetti 2 integral format.
 Two-electron integral symmetry is turned on.
 Leave Link  301 at Sat Aug 28 15:06:53 2021, MaxMem= 17179869184 cpu:        18.1
 (Enter /public3/home/sc51754/softwares/g09e01/l302.exe)
 NPDir=0 NMtPBC=     1 NCelOv=     1 NCel=       1 NClECP=     1 NCelD=      1
         NCelK=      1 NCelE2=     1 NClLst=     1 CellRange=     0.0.
 One-electron integrals computed using PRISM.
 NBasis=   338 RedAO= T EigKep=  1.47D-04  NBF=   338
 NBsUse=   338 1.00D-06 EigRej= -1.00D+00 NBFU=   338
 Precomputing XC quadrature grid using
 IXCGrd= 4 IRadAn=           0 IRanWt=          -1 IRanGd=           0 AccXCQ= 0.00D+00.
 Generated NRdTot=       0 NPtTot=           0 NUsed=           0 NTot=          32
 NSgBfM=   385   385   385   385   385 MxSgAt=    15 MxSgA2=    15.
 Leave Link  302 at Sat Aug 28 15:06:55 2021, MaxMem= 17179869184 cpu:        79.4
 (Enter /public3/home/sc51754/softwares/g09e01/l303.exe)
 DipDrv:  MaxL=1.
 Leave Link  303 at Sat Aug 28 15:06:56 2021, MaxMem= 17179869184 cpu:        16.4
 (Enter /public3/home/sc51754/softwares/g09e01/l401.exe)
 ExpMin= 7.41D-02 ExpMax= 1.48D+04 ExpMxC= 5.05D+02 IAcc=2 IRadAn=         4 AccDes= 0.00D+00
 Harris functional with IExCor=  402 and IRadAn=       4 diagonalized for initial guess.
 HarFok:  IExCor=  402 AccDes= 0.00D+00 IRadAn=         4 IDoV= 1 UseB2=F ITyADJ=14
 ICtDFT=  3500011 ScaDFX=  1.000000  1.000000  1.000000  1.000000
 FoFCou: FMM=F IPFlag=           0 FMFlag=      100000 FMFlg1=           0
         NFxFlg=           0 DoJE=T BraDBF=F KetDBF=T FulRan=T
         wScrn=  0.000000 ICntrl=     500 IOpCl=  0 I1Cent=   200000004 NGrid=           0
         NMat0=    1 NMatS0=      1 NMatT0=    0 NMatD0=    1 NMtDS0=    0 NMtDT0=    0
 Petite list used in FoFCou.
 Harris En= -400.153408918089    
 JPrj=0 DoOrth=F DoCkMO=F.
 Leave Link  401 at Sat Aug 28 15:06:58 2021, MaxMem= 17179869184 cpu:        78.6
 (Enter /public3/home/sc51754/softwares/g09e01/l502.exe)
 Closed shell SCF:
 Using DIIS extrapolation, IDIIS=  1040.
 Integral symmetry usage will be decided dynamically.
 Keep R1 ints in memory in canonical form, NReq=1670404686.
 IVT=      490665 IEndB=      490665 NGot= 17179869184 MDV= 15538220534
 LenX= 15538220534 LenY= 15538071868
 Requested convergence on RMS density matrix=1.00D-08 within 128 cycles.
 Requested convergence on MAX density matrix=1.00D-06.
 Requested convergence on             energy=1.00D-06.
 No special actions if energy rises.
 FoFCou: FMM=F IPFlag=           0 FMFlag=           0 FMFlg1=           0
         NFxFlg=           0 DoJE=F BraDBF=F KetDBF=F FulRan=T
         wScrn=  0.000000 ICntrl=     600 IOpCl=  0 I1Cent=           0 NGrid=           0
         NMat0=    1 NMatS0=  57291 NMatT0=    0 NMatD0=    1 NMtDS0=    0 NMtDT0=    0
 Symmetry not used in FoFCou.

 Cycle   1  Pass 1  IDiag  1:
 E= -399.865754112341    
 DIIS: error= 2.32D-02 at cycle   1 NSaved=   1.
 NSaved= 1 IEnMin= 1 EnMin= -399.865754112341     IErMin= 1 ErrMin= 2.32D-02
 ErrMax= 2.32D-02  0.00D+00 EMaxC= 1.00D-01 BMatC= 3.04D-01 BMatP= 3.04D-01
 IDIUse=3 WtCom= 7.68D-01 WtEn= 2.32D-01
 Coeff-Com:  0.100D+01
 Coeff-En:   0.100D+01
 Coeff:      0.100D+01
 Gap=     0.163 Goal=   None    Shift=    0.000
 GapD=    0.163 DampG=1.000 DampE=0.500 DampFc=0.5000 IDamp=-1.
 Damping current iteration by 5.00D-01
 RMSDP=3.02D-03 MaxDP=1.28D-01              OVMax= 2.40D-01

 Cycle   2  Pass 1  IDiag  1:
 E= -399.947640284410     Delta-E=       -0.081886172068 Rises=F Damp=T
 DIIS: error= 5.21D-03 at cycle   2 NSaved=   2.
 NSaved= 2 IEnMin= 2 EnMin= -399.947640284410     IErMin= 2 ErrMin= 5.21D-03
 ErrMax= 5.21D-03  0.00D+00 EMaxC= 1.00D-01 BMatC= 2.83D-02 BMatP= 3.04D-01
 IDIUse=3 WtCom= 9.48D-01 WtEn= 5.21D-02
 Coeff-Com:  0.159D+00 0.841D+00
 Coeff-En:   0.279D+00 0.721D+00
 Coeff:      0.165D+00 0.835D+00
 Gap=     0.247 Goal=   None    Shift=    0.000
 RMSDP=8.72D-04 MaxDP=3.22D-02 DE=-8.19D-02 OVMax= 1.78D-01

 Cycle   3  Pass 1  IDiag  1:
 E= -400.084810295658     Delta-E=       -0.137170011248 Rises=F Damp=F
 DIIS: error= 5.51D-03 at cycle   3 NSaved=   3.
 NSaved= 3 IEnMin= 3 EnMin= -400.084810295658     IErMin= 2 ErrMin= 5.21D-03
 ErrMax= 5.51D-03  0.00D+00 EMaxC= 1.00D-01 BMatC= 2.75D-02 BMatP= 2.83D-02
 IDIUse=3 WtCom= 9.45D-01 WtEn= 5.51D-02
 Coeff-Com:  0.368D-01 0.499D+00 0.464D+00
 Coeff-En:   0.000D+00 0.000D+00 0.100D+01
 Coeff:      0.348D-01 0.472D+00 0.494D+00
 Gap=     0.186 Goal=   None    Shift=    0.000
 RMSDP=4.53D-04 MaxDP=2.44D-02 DE=-1.37D-01 OVMax= 7.49D-02

 Cycle   4  Pass 1  IDiag  1:
 E= -400.104286153227     Delta-E=       -0.019475857569 Rises=F Damp=F
 DIIS: error= 2.63D-03 at cycle   4 NSaved=   4.
 NSaved= 4 IEnMin= 4 EnMin= -400.104286153227     IErMin= 4 ErrMin= 2.63D-03
 ErrMax= 2.63D-03  0.00D+00 EMaxC= 1.00D-01 BMatC= 4.45D-03 BMatP= 2.75D-02
 IDIUse=3 WtCom= 9.74D-01 WtEn= 2.63D-02
 Coeff-Com: -0.101D-01 0.136D+00 0.310D+00 0.565D+00
 Coeff-En:   0.000D+00 0.000D+00 0.161D+00 0.839D+00
 Coeff:     -0.982D-02 0.132D+00 0.306D+00 0.572D+00
 Gap=     0.187 Goal=   None    Shift=    0.000
 RMSDP=1.51D-04 MaxDP=7.71D-03 DE=-1.95D-02 OVMax= 2.66D-02

 Cycle   5  Pass 1  IDiag  1:
 E= -400.107879340572     Delta-E=       -0.003593187346 Rises=F Damp=F
 DIIS: error= 5.55D-04 at cycle   5 NSaved=   5.
 NSaved= 5 IEnMin= 5 EnMin= -400.107879340572     IErMin= 5 ErrMin= 5.55D-04
 ErrMax= 5.55D-04  0.00D+00 EMaxC= 1.00D-01 BMatC= 2.38D-04 BMatP= 4.45D-03
 IDIUse=3 WtCom= 9.94D-01 WtEn= 5.55D-03
 Coeff-Com: -0.817D-02 0.316D-01 0.118D+00 0.295D+00 0.564D+00
 Coeff-En:   0.000D+00 0.000D+00 0.000D+00 0.000D+00 0.100D+01
 Coeff:     -0.813D-02 0.314D-01 0.117D+00 0.293D+00 0.567D+00
 Gap=     0.186 Goal=   None    Shift=    0.000
 RMSDP=4.30D-05 MaxDP=2.32D-03 DE=-3.59D-03 OVMax= 6.00D-03

 Cycle   6  Pass 1  IDiag  1:
 E= -400.108060194626     Delta-E=       -0.000180854054 Rises=F Damp=F
 DIIS: error= 2.68D-04 at cycle   6 NSaved=   6.
 NSaved= 6 IEnMin= 6 EnMin= -400.108060194626     IErMin= 6 ErrMin= 2.68D-04
 ErrMax= 2.68D-04  0.00D+00 EMaxC= 1.00D-01 BMatC= 2.93D-05 BMatP= 2.38D-04
 IDIUse=3 WtCom= 9.97D-01 WtEn= 2.68D-03
 Coeff-Com: -0.341D-02 0.268D-02 0.277D-01 0.937D-01 0.314D+00 0.566D+00
 Coeff-En:   0.000D+00 0.000D+00 0.000D+00 0.000D+00 0.747D-01 0.925D+00
 Coeff:     -0.340D-02 0.267D-02 0.276D-01 0.935D-01 0.313D+00 0.567D+00
 Gap=     0.186 Goal=   None    Shift=    0.000
 RMSDP=1.25D-05 MaxDP=7.51D-04 DE=-1.81D-04 OVMax= 2.02D-03

 Cycle   7  Pass 1  IDiag  1:
 E= -400.108085430320     Delta-E=       -0.000025235694 Rises=F Damp=F
 DIIS: error= 7.12D-05 at cycle   7 NSaved=   7.
 NSaved= 7 IEnMin= 7 EnMin= -400.108085430320     IErMin= 7 ErrMin= 7.12D-05
 ErrMax= 7.12D-05  0.00D+00 EMaxC= 1.00D-01 BMatC= 1.32D-06 BMatP= 2.93D-05
 IDIUse=1 WtCom= 1.00D+00 WtEn= 0.00D+00
 Coeff-Com: -0.144D-02 0.204D-03 0.998D-02 0.385D-01 0.144D+00 0.292D+00
 Coeff-Com:  0.517D+00
 Coeff:     -0.144D-02 0.204D-03 0.998D-02 0.385D-01 0.144D+00 0.292D+00
 Coeff:      0.517D+00
 Gap=     0.186 Goal=   None    Shift=    0.000
 RMSDP=3.41D-06 MaxDP=1.94D-04 DE=-2.52D-05 OVMax= 6.68D-04

 Cycle   8  Pass 1  IDiag  1:
 E= -400.108086577256     Delta-E=       -0.000001146936 Rises=F Damp=F
 DIIS: error= 2.88D-05 at cycle   8 NSaved=   8.
 NSaved= 8 IEnMin= 8 EnMin= -400.108086577256     IErMin= 8 ErrMin= 2.88D-05
 ErrMax= 2.88D-05  0.00D+00 EMaxC= 1.00D-01 BMatC= 2.42D-07 BMatP= 1.32D-06
 IDIUse=1 WtCom= 1.00D+00 WtEn= 0.00D+00
 Coeff-Com: -0.158D-03-0.385D-03 0.565D-03 0.510D-02 0.275D-01 0.659D-01
 Coeff-Com:  0.309D+00 0.593D+00
 Coeff:     -0.158D-03-0.385D-03 0.565D-03 0.510D-02 0.275D-01 0.659D-01
 Coeff:      0.309D+00 0.593D+00
 Gap=     0.186 Goal=   None    Shift=    0.000
 RMSDP=1.22D-06 MaxDP=4.14D-05 DE=-1.15D-06 OVMax= 2.17D-04

 Cycle   9  Pass 1  IDiag  1:
 E= -400.108086811486     Delta-E=       -0.000000234230 Rises=F Damp=F
 DIIS: error= 4.88D-06 at cycle   9 NSaved=   9.
 NSaved= 9 IEnMin= 9 EnMin= -400.108086811486     IErMin= 9 ErrMin= 4.88D-06
 ErrMax= 4.88D-06  0.00D+00 EMaxC= 1.00D-01 BMatC= 1.13D-08 BMatP= 2.42D-07
 IDIUse=1 WtCom= 1.00D+00 WtEn= 0.00D+00
 Coeff-Com: -0.121D-04-0.198D-03-0.191D-03 0.671D-03 0.650D-02 0.175D-01
 Coeff-Com:  0.116D+00 0.280D+00 0.580D+00
 Coeff:     -0.121D-04-0.198D-03-0.191D-03 0.671D-03 0.650D-02 0.175D-01
 Coeff:      0.116D+00 0.280D+00 0.580D+00
 Gap=     0.186 Goal=   None    Shift=    0.000
 RMSDP=3.29D-07 MaxDP=1.81D-05 DE=-2.34D-07 OVMax= 6.96D-05

 Cycle  10  Pass 1  IDiag  1:
 E= -400.108086820088     Delta-E=       -0.000000008602 Rises=F Damp=F
 DIIS: error= 2.96D-06 at cycle  10 NSaved=  10.
 NSaved=10 IEnMin=10 EnMin= -400.108086820088     IErMin=10 ErrMin= 2.96D-06
 ErrMax= 2.96D-06  0.00D+00 EMaxC= 1.00D-01 BMatC= 2.31D-09 BMatP= 1.13D-08
 IDIUse=1 WtCom= 1.00D+00 WtEn= 0.00D+00
 Coeff-Com:  0.138D-04-0.441D-04-0.202D-03-0.344D-03-0.949D-04 0.102D-02
 Coeff-Com:  0.233D-01 0.810D-01 0.345D+00 0.550D+00
 Coeff:      0.138D-04-0.441D-04-0.202D-03-0.344D-03-0.949D-04 0.102D-02
 Coeff:      0.233D-01 0.810D-01 0.345D+00 0.550D+00
 Gap=     0.186 Goal=   None    Shift=    0.000
 RMSDP=1.34D-07 MaxDP=5.60D-06 DE=-8.60D-09 OVMax= 2.81D-05

 Cycle  11  Pass 1  IDiag  1:
 E= -400.108086822357     Delta-E=       -0.000000002269 Rises=F Damp=F
 DIIS: error= 5.31D-07 at cycle  11 NSaved=  11.
 NSaved=11 IEnMin=11 EnMin= -400.108086822357     IErMin=11 ErrMin= 5.31D-07
 ErrMax= 5.31D-07  0.00D+00 EMaxC= 1.00D-01 BMatC= 2.23D-10 BMatP= 2.31D-09
 IDIUse=1 WtCom= 1.00D+00 WtEn= 0.00D+00
 Coeff-Com:  0.836D-05-0.106D-04-0.123D-03-0.302D-03-0.707D-03-0.917D-03
 Coeff-Com:  0.404D-02 0.261D-01 0.161D+00 0.323D+00 0.488D+00
 Coeff:      0.836D-05-0.106D-04-0.123D-03-0.302D-03-0.707D-03-0.917D-03
 Coeff:      0.404D-02 0.261D-01 0.161D+00 0.323D+00 0.488D+00
 Gap=     0.186 Goal=   None    Shift=    0.000
 RMSDP=3.61D-08 MaxDP=1.78D-06 DE=-2.27D-09 OVMax= 5.88D-06

 Cycle  12  Pass 1  IDiag  1:
 E= -400.108086822529     Delta-E=       -0.000000000172 Rises=F Damp=F
 DIIS: error= 2.49D-07 at cycle  12 NSaved=  12.
 NSaved=12 IEnMin=12 EnMin= -400.108086822529     IErMin=12 ErrMin= 2.49D-07
 ErrMax= 2.49D-07  0.00D+00 EMaxC= 1.00D-01 BMatC= 2.22D-11 BMatP= 2.23D-10
 IDIUse=1 WtCom= 1.00D+00 WtEn= 0.00D+00
 Coeff-Com:  0.119D-06 0.572D-05-0.257D-04-0.795D-04-0.315D-03-0.538D-03
 Coeff-Com: -0.229D-02-0.863D-03 0.202D-01 0.682D-01 0.253D+00 0.662D+00
 Coeff:      0.119D-06 0.572D-05-0.257D-04-0.795D-04-0.315D-03-0.538D-03
 Coeff:     -0.229D-02-0.863D-03 0.202D-01 0.682D-01 0.253D+00 0.662D+00
 Gap=     0.186 Goal=   None    Shift=    0.000
 RMSDP=1.08D-08 MaxDP=4.64D-07 DE=-1.72D-10 OVMax= 1.18D-06

 Cycle  13  Pass 1  IDiag  1:
 E= -400.108086822542     Delta-E=       -0.000000000013 Rises=F Damp=F
 DIIS: error= 3.48D-08 at cycle  13 NSaved=  13.
 NSaved=13 IEnMin=13 EnMin= -400.108086822542     IErMin=13 ErrMin= 3.48D-08
 ErrMax= 3.48D-08  0.00D+00 EMaxC= 1.00D-01 BMatC= 9.48D-13 BMatP= 2.22D-11
 IDIUse=1 WtCom= 1.00D+00 WtEn= 0.00D+00
 Coeff-Com: -0.479D-06 0.282D-05-0.685D-05-0.217D-04-0.104D-03-0.179D-03
 Coeff-Com: -0.110D-02-0.118D-02 0.235D-02 0.130D-01 0.802D-01 0.277D+00
 Coeff-Com:  0.630D+00
 Coeff:     -0.479D-06 0.282D-05-0.685D-05-0.217D-04-0.104D-03-0.179D-03
 Coeff:     -0.110D-02-0.118D-02 0.235D-02 0.130D-01 0.802D-01 0.277D+00
 Coeff:      0.630D+00
 Gap=     0.186 Goal=   None    Shift=    0.000
 RMSDP=2.51D-09 MaxDP=1.43D-07 DE=-1.32D-11 OVMax= 2.78D-07

 SCF Done:  E(RB3LYP) =  -400.108086823     A.U. after   13 cycles
            NFock= 13  Conv=0.25D-08     -V/T= 2.0030
 KE= 3.989265517100D+02 PE=-1.676406783263D+03 EE= 5.073919422043D+02
 Leave Link  502 at Sat Aug 28 15:07:22 2021, MaxMem= 17179869184 cpu:       447.6
 (Enter /public3/home/sc51754/softwares/g09e01/l801.exe)
 DoSCS=F DFT=T ScalE2(SS,OS)=  1.000000  1.000000
 Range of M.O.s used for correlation:     1   338
 NBasis=   338 NAE=    30 NBE=    30 NFC=     0 NFV=     0
 NROrb=    338 NOA=    30 NOB=    30 NVA=   308 NVB=   308

 **** Warning!!: The largest alpha MO coefficient is  0.17013264D+02

 Leave Link  801 at Sat Aug 28 15:07:22 2021, MaxMem= 17179869184 cpu:         1.1
 (Enter /public3/home/sc51754/softwares/g09e01/l1101.exe)
 Using compressed storage, NAtomX=    15.
 Will process     16 centers per pass.
 Leave Link 1101 at Sat Aug 28 15:07:25 2021, MaxMem= 17179869184 cpu:       123.8
 (Enter /public3/home/sc51754/softwares/g09e01/l1102.exe)
 Symmetrizing basis deriv contribution to polar:
 IMax=3 JMax=2 DiffMx= 0.00D+00
 Leave Link 1102 at Sat Aug 28 15:07:25 2021, MaxMem= 17179869184 cpu:         7.1
 (Enter /public3/home/sc51754/softwares/g09e01/l1110.exe)
 Forming Gx(P) for the SCF density, NAtomX=    15.
 Integral derivatives from FoFJK, PRISM(SPDF).
 Do as many integral derivatives as possible in FoFJK.
 G2DrvN: MDV=   17179868960.
 G2DrvN: will do    16 centers at a time, making    1 passes.
 Calling FoFCou, ICntrl=  3107 FMM=F I1Cent=   0 AccDes= 1.00D-12.
 FoFJK:  IHMeth= 1 ICntrl=    3107 DoSepK=F KAlg= 0 I1Cent=   0 FoldK=F
 IRaf=         0 NMat=   1 IRICut=       1 DoRegI=T DoRafI=F ISym2E= 0.
 FoFCou: FMM=F IPFlag=           0 FMFlag=      100000 FMFlg1=           0
         NFxFlg=           0 DoJE=F BraDBF=F KetDBF=F FulRan=T
         wScrn=  0.000000 ICntrl=    3107 IOpCl=  0 I1Cent=           0 NGrid=           0
         NMat0=    1 NMatS0=      1 NMatT0=    0 NMatD0=    1 NMtDS0=    0 NMtDT0=    0
 Symmetry not used in FoFCou.
 End of G2Drv F.D. properties file   721 does not exist.
 End of G2Drv F.D. properties file   722 does not exist.
 End of G2Drv F.D. properties file   788 does not exist.
 Leave Link 1110 at Sat Aug 28 15:07:39 2021, MaxMem= 17179869184 cpu:       825.4
 (Enter /public3/home/sc51754/softwares/g09e01/l1002.exe)
 Minotr:  Closed shell wavefunction.
          IDoAtm=111111111111111
          Direct CPHF calculation.
          Differentiating once with respect to nuclear coordinates.
          Requested convergence is 1.0D-08 RMS, and 1.0D-07 maximum.
          Secondary convergence is 1.0D-12 RMS, and 1.0D-12 maximum.
          NewPWx=T KeepS1=F KeepF1=F KeepIn=T MapXYZ=F SortEE=F KeepMc=T.
          MDV=   17179868692 using IRadAn=       2.
 Generate precomputed XC quadrature information.
 Keep R1 ints in memory in canonical form, NReq=1669919891.
 FoFCou: FMM=F IPFlag=           0 FMFlag=           0 FMFlg1=           0
         NFxFlg=           0 DoJE=F BraDBF=F KetDBF=F FulRan=T
         wScrn=  0.000000 ICntrl=     600 IOpCl=  0 I1Cent=           0 NGrid=           0
         NMat0=    1 NMatS0=  57291 NMatT0=    0 NMatD0=    1 NMtDS0=    0 NMtDT0=    0
 Symmetry not used in FoFCou.
          Solving linear equations simultaneously, MaxMat=       0.
          There are    48 degrees of freedom in the 1st order CPHF.  IDoFFX=6 NUNeed=     0.
     42 vectors produced by pass  0 Test12= 1.92D-14 2.08D-09 XBig12= 1.29D-01 1.21D-01.
 AX will form    42 AO Fock derivatives at one time.
     42 vectors produced by pass  1 Test12= 1.92D-14 2.08D-09 XBig12= 2.49D-02 3.67D-02.
     42 vectors produced by pass  2 Test12= 1.92D-14 2.08D-09 XBig12= 3.47D-04 3.15D-03.
     42 vectors produced by pass  3 Test12= 1.92D-14 2.08D-09 XBig12= 1.57D-06 2.16D-04.
     42 vectors produced by pass  4 Test12= 1.92D-14 2.08D-09 XBig12= 3.76D-09 1.08D-05.
     42 vectors produced by pass  5 Test12= 1.92D-14 2.08D-09 XBig12= 6.21D-12 2.87D-07.
     13 vectors produced by pass  6 Test12= 1.92D-14 2.08D-09 XBig12= 8.36D-15 1.27D-08.
 InvSVY:  IOpt=1 It=  1 EMax= 1.55D-15
 Solved reduced A of dimension   265 with    42 vectors.
 End of Minotr F.D. properties file   721 does not exist.
 End of Minotr F.D. properties file   722 does not exist.
 End of Minotr F.D. properties file   788 does not exist.
 Leave Link 1002 at Sat Aug 28 15:08:00 2021, MaxMem= 17179869184 cpu:      1270.4
 (Enter /public3/home/sc51754/softwares/g09e01/l601.exe)
 Copying SCF densities to generalized density rwf, IOpCl= 0 IROHF=0.

 **********************************************************************

            Population analysis using the SCF density.

 **********************************************************************

 Orbital symmetries:
       Occupied  (A) (A) (A) (A) (A) (A) (A) (A) (A) (A) (A) (A)
                 (A) (A) (A) (A) (A) (A) (A) (A) (A) (A) (A) (A)
                 (A) (A) (A) (A) (A) (A)
       Virtual   (A) (A) (A) (A) (A) (A) (A) (A) (A) (A) (A) (A)
                 (A) (A) (A) (A) (A) (A) (A) (A) (A) (A) (A) (A)
                 (A) (A) (A) (A) (A) (A) (A) (A) (A) (A) (A) (A)
                 (A) (A) (A) (A) (A) (A) (A) (A) (A) (A) (A) (A)
                 (A) (A) (A) (A) (A) (A) (A) (A) (A) (A) (A) (A)
                 (A) (A) (A) (A) (A) (A) (A) (A) (A) (A) (A) (A)
                 (A) (A) (A) (A) (A) (A) (A) (A) (A) (A) (A) (A)
                 (A) (A) (A) (A) (A) (A) (A) (A) (A) (A) (A) (A)
                 (A) (A) (A) (A) (A) (A) (A) (A) (A) (A) (A) (A)
                 (A) (A) (A) (A) (A) (A) (A) (A) (A) (A) (A) (A)
                 (A) (A) (A) (A) (A) (A) (A) (A) (A) (A) (A) (A)
                 (A) (A) (A) (A) (A) (A) (A) (A) (A) (A) (A) (A)
                 (A) (A) (A) (A) (A) (A) (A) (A) (A) (A) (A) (A)
                 (A) (A) (A) (A) (A) (A) (A) (A) (A) (A) (A) (A)
                 (A) (A) (A) (A) (A) (A) (A) (A) (A) (A) (A) (A)
                 (A) (A) (A) (A) (A) (A) (A) (A) (A) (A) (A) (A)
                 (A) (A) (A) (A) (A) (A) (A) (A) (A) (A) (A) (A)
                 (A) (A) (A) (A) (A) (A) (A) (A) (A) (A) (A) (A)
                 (A) (A) (A) (A) (A) (A) (A) (A) (A) (A) (A) (A)
                 (A) (A) (A) (A) (A) (A) (A) (A) (A) (A) (A) (A)
                 (A) (A) (A) (A) (A) (A) (A) (A) (A) (A) (A) (A)
                 (A) (A) (A) (A) (A) (A) (A) (A) (A) (A) (A) (A)
                 (A) (A) (A) (A) (A) (A) (A) (A) (A) (A) (A) (A)
                 (A) (A) (A) (A) (A) (A) (A) (A) (A) (A) (A) (A)
                 (A) (A) (A) (A) (A) (A) (A) (A) (A) (A) (A) (A)
                 (A) (A) (A) (A) (A) (A) (A) (A)
 The electronic state is 1-A.
 Alpha  occ. eigenvalues --  -19.14328 -19.08839 -14.33437 -10.26636 -10.22769
 Alpha  occ. eigenvalues --  -10.19968 -10.18356 -10.18032  -1.07278  -1.00646
 Alpha  occ. eigenvalues --   -0.94611  -0.81962  -0.75913  -0.66149  -0.62974
 Alpha  occ. eigenvalues --   -0.57961  -0.56082  -0.50728  -0.49292  -0.46908
 Alpha  occ. eigenvalues --   -0.44384  -0.43480  -0.40861  -0.39451  -0.37724
 Alpha  occ. eigenvalues --   -0.33873  -0.31347  -0.30696  -0.27757  -0.23208
 Alpha virt. eigenvalues --   -0.04575  -0.00806   0.00687   0.02163   0.04020
 Alpha virt. eigenvalues --    0.05796   0.07835   0.10680   0.11695   0.12455
 Alpha virt. eigenvalues --    0.14302   0.15318   0.16772   0.17673   0.18673
 Alpha virt. eigenvalues --    0.19230   0.20291   0.21132   0.23179   0.24776
 Alpha virt. eigenvalues --    0.26086   0.27892   0.28363   0.28600   0.30097
 Alpha virt. eigenvalues --    0.30327   0.31199   0.31730   0.32907   0.33856
 Alpha virt. eigenvalues --    0.35586   0.36291   0.38531   0.38819   0.40928
 Alpha virt. eigenvalues --    0.41404   0.43294   0.44381   0.45322   0.46885
 Alpha virt. eigenvalues --    0.49998   0.51938   0.53054   0.54017   0.55679
 Alpha virt. eigenvalues --    0.58696   0.61715   0.62051   0.63646   0.64189
 Alpha virt. eigenvalues --    0.65128   0.66732   0.68402   0.71955   0.74422
 Alpha virt. eigenvalues --    0.76865   0.78911   0.80978   0.81852   0.84415
 Alpha virt. eigenvalues --    0.86838   0.90439   0.91234   0.92475   0.93673
 Alpha virt. eigenvalues --    0.96343   0.97254   0.99444   1.02337   1.05333
 Alpha virt. eigenvalues --    1.07122   1.08942   1.10126   1.12426   1.14024
 Alpha virt. eigenvalues --    1.14166   1.15591   1.16293   1.18123   1.20363
 Alpha virt. eigenvalues --    1.21774   1.23853   1.25128   1.25441   1.26637
 Alpha virt. eigenvalues --    1.29731   1.31373   1.32725   1.36533   1.41156
 Alpha virt. eigenvalues --    1.42374   1.44858   1.46581   1.48326   1.49536
 Alpha virt. eigenvalues --    1.51006   1.52573   1.54623   1.56825   1.58708
 Alpha virt. eigenvalues --    1.60009   1.61530   1.63413   1.66875   1.67555
 Alpha virt. eigenvalues --    1.68648   1.71227   1.72358   1.74257   1.78566
 Alpha virt. eigenvalues --    1.79963   1.82169   1.84570   1.86538   1.87250
 Alpha virt. eigenvalues --    1.88281   1.89471   1.94328   1.97083   1.99899
 Alpha virt. eigenvalues --    2.02771   2.04601   2.07247   2.08111   2.09892
 Alpha virt. eigenvalues --    2.12584   2.16008   2.17448   2.21049   2.21901
 Alpha virt. eigenvalues --    2.23314   2.27780   2.28404   2.30054   2.31930
 Alpha virt. eigenvalues --    2.35078   2.47459   2.58726   2.62982   2.76437
 Alpha virt. eigenvalues --    2.81500   2.86284   2.88328   2.94740   2.95603
 Alpha virt. eigenvalues --    3.10178   3.15797   3.16402   3.19525   3.22323
 Alpha virt. eigenvalues --    3.23009   3.25714   3.26239   3.30603   3.32046
 Alpha virt. eigenvalues --    3.34459   3.35830   3.41295   3.42839   3.43589
 Alpha virt. eigenvalues --    3.46276   3.48318   3.51979   3.54442   3.57353
 Alpha virt. eigenvalues --    3.57960   3.60016   3.61444   3.62541   3.63579
 Alpha virt. eigenvalues --    3.64811   3.67389   3.70086   3.75439   3.75998
 Alpha virt. eigenvalues --    3.78300   3.80586   3.84425   3.87567   3.89394
 Alpha virt. eigenvalues --    3.92928   3.94495   3.95671   3.96661   4.01845
 Alpha virt. eigenvalues --    4.03699   4.05223   4.05370   4.06849   4.07675
 Alpha virt. eigenvalues --    4.09791   4.10909   4.12625   4.13342   4.16587
 Alpha virt. eigenvalues --    4.17009   4.18329   4.20265   4.21435   4.22819
 Alpha virt. eigenvalues --    4.23515   4.25192   4.27455   4.28229   4.29365
 Alpha virt. eigenvalues --    4.31468   4.32808   4.33949   4.34579   4.34873
 Alpha virt. eigenvalues --    4.37753   4.40244   4.40443   4.41650   4.43430
 Alpha virt. eigenvalues --    4.44311   4.46444   4.47026   4.47388   4.49465
 Alpha virt. eigenvalues --    4.51061   4.52294   4.56822   4.56983   4.57647
 Alpha virt. eigenvalues --    4.60434   4.62750   4.66358   4.68134   4.73389
 Alpha virt. eigenvalues --    4.75149   4.76335   4.81316   4.83506   4.84347
 Alpha virt. eigenvalues --    4.86730   4.90650   4.92133   4.93527   4.97936
 Alpha virt. eigenvalues --    5.01093   5.03775   5.05072   5.07475   5.09023
 Alpha virt. eigenvalues --    5.12193   5.17738   5.18643   5.21545   5.23886
 Alpha virt. eigenvalues --    5.26161   5.29021   5.31475   5.34292   5.36257
 Alpha virt. eigenvalues --    5.37125   5.39858   5.42488   5.43825   5.47064
 Alpha virt. eigenvalues --    5.48020   5.52153   5.53085   5.54606   5.56229
 Alpha virt. eigenvalues --    5.62211   5.62985   5.68364   5.69532   5.74235
 Alpha virt. eigenvalues --    5.77454   5.81337   5.82288   5.93346   6.00094
 Alpha virt. eigenvalues --    6.02246   6.07607   6.10463   6.14110   6.17321
 Alpha virt. eigenvalues --    6.27987   6.31294   6.36318   6.36758   6.44791
 Alpha virt. eigenvalues --    6.49103   6.50611   6.53851   6.57935   6.62289
 Alpha virt. eigenvalues --    6.68142   6.73045   6.77482   6.83405   7.06106
 Alpha virt. eigenvalues --    7.09920   7.14604   7.29949   7.52355   7.77550
 Alpha virt. eigenvalues --    9.38206  12.15396  13.01411  15.45050  17.26855
 Alpha virt. eigenvalues --   18.22566  18.78277  22.54612
          Condensed to atoms (all electrons):
               1          2          3          4          5          6
     1  O    8.282182  -0.098105   0.388103  -0.077395   0.005558   0.008669
     2  N   -0.098105   6.786235   0.403924  -0.024718   0.461806  -0.027755
     3  C    0.388103   0.403924   4.434873   0.513773  -0.064470  -0.055796
     4  C   -0.077395  -0.024718   0.513773   4.856461  -0.042046   0.518839
     5  C    0.005558   0.461806  -0.064470  -0.042046   4.604789  -0.072320
     6  C    0.008669  -0.027755  -0.055796   0.518839  -0.072320   4.751158
     7  C    0.000668  -0.039583  -0.040418  -0.058250   0.542515   0.472064
     8  H    0.222410   0.003313  -0.014614   0.003901  -0.000434  -0.000867
     9  H    0.005272   0.006980  -0.039682   0.441834  -0.001506  -0.037251
    10  H   -0.000748  -0.046294   0.004334  -0.003012   0.445710   0.009047
    11  H   -0.000562  -0.001805   0.009272  -0.036174   0.008531   0.431807
    12  H    0.000054   0.005619  -0.001532   0.007640  -0.030626  -0.037340
    13  O   -0.166710  -0.148410  -0.005450  -0.001870  -0.001148   0.000745
    14  H    0.009282   0.006213   0.001365   0.000508  -0.000313  -0.000096
    15  H    0.004296   0.146089  -0.016722   0.003012  -0.003073  -0.001646
               7          8          9         10         11         12
     1  O    0.000668   0.222410   0.005272  -0.000748  -0.000562   0.000054
     2  N   -0.039583   0.003313   0.006980  -0.046294  -0.001805   0.005619
     3  C   -0.040418  -0.014614  -0.039682   0.004334   0.009272  -0.001532
     4  C   -0.058250   0.003901   0.441834  -0.003012  -0.036174   0.007640
     5  C    0.542515  -0.000434  -0.001506   0.445710   0.008531  -0.030626
     6  C    0.472064  -0.000867  -0.037251   0.009047   0.431807  -0.037340
     7  C    4.915001   0.000356   0.007800  -0.059521  -0.045546   0.434003
     8  H    0.000356   0.323703   0.000465   0.000157  -0.000004  -0.000014
     9  H    0.007800   0.000465   0.569021   0.000248  -0.007741  -0.000042
    10  H   -0.059521   0.000157   0.000248   0.609469  -0.000237  -0.004249
    11  H   -0.045546  -0.000004  -0.007741  -0.000237   0.599075  -0.007657
    12  H    0.434003  -0.000014  -0.000042  -0.004249  -0.007657   0.591909
    13  O   -0.001658   0.210154   0.000279   0.000554  -0.000023   0.000041
    14  H    0.000205  -0.012197  -0.000041  -0.000217   0.000004  -0.000006
    15  H    0.002625  -0.017406  -0.000309  -0.003339   0.000102  -0.000053
              13         14         15
     1  O   -0.166710   0.009282   0.004296
     2  N   -0.148410   0.006213   0.146089
     3  C   -0.005450   0.001365  -0.016722
     4  C   -0.001870   0.000508   0.003012
     5  C   -0.001148  -0.000313  -0.003073
     6  C    0.000745  -0.000096  -0.001646
     7  C   -0.001658   0.000205   0.002625
     8  H    0.210154  -0.012197  -0.017406
     9  H    0.000279  -0.000041  -0.000309
    10  H    0.000554  -0.000217  -0.003339
    11  H   -0.000023   0.000004   0.000102
    12  H    0.000041  -0.000006  -0.000053
    13  O    7.879298   0.344262   0.264111
    14  H    0.344262   0.450549  -0.010723
    15  H    0.264111  -0.010723   0.368678
 Mulliken charges:
               1
     1  O   -0.582975
     2  N   -0.433509
     3  C    0.483038
     4  C   -0.102504
     5  C    0.147026
     6  C    0.040741
     7  C   -0.130261
     8  H    0.281077
     9  H    0.054672
    10  H    0.048098
    11  H    0.050958
    12  H    0.042253
    13  O   -0.374177
    14  H    0.211204
    15  H    0.264359
 Sum of Mulliken charges =  -0.00000
 Mulliken charges with hydrogens summed into heavy atoms:
               1
     1  O   -0.582975
     2  N   -0.433509
     3  C    0.483038
     4  C   -0.047833
     5  C    0.195124
     6  C    0.091699
     7  C   -0.088008
    13  O    0.382463
 APT charges:
               1
     1  O   -0.433772
     2  N   -0.434658
     3  C    0.089741
     4  C   -0.493480
     5  C   -0.353648
     6  C   -0.368241
     7  C   -0.468150
     8  H    0.293034
     9  H    0.449991
    10  H    0.435914
    11  H    0.571889
    12  H    0.589870
    13  O   -0.709019
    14  H    0.689790
    15  H    0.140739
 Sum of APT charges =  -0.00000
 APT charges with hydrogens summed into heavy atoms:
               1
     1  O   -0.433772
     2  N   -0.434658
     3  C    0.089741
     4  C   -0.043489
     5  C    0.082267
     6  C    0.203649
     7  C    0.121720
    13  O    0.414544
 Electronic spatial extent (au):  <R**2>=            962.8058
 Charge=             -0.0000 electrons
 Dipole moment (field-independent basis, Debye):
    X=             -1.4484    Y=             -2.3320    Z=              1.3285  Tot=              3.0497
 Quadrupole moment (field-independent basis, Debye-Ang):
   XX=            -41.3580   YY=            -45.8506   ZZ=            -49.4225
   XY=             -5.0429   XZ=              4.6462   YZ=             -1.4754
 Traceless Quadrupole moment (field-independent basis, Debye-Ang):
   XX=              4.1857   YY=             -0.3069   ZZ=             -3.8788
   XY=             -5.0429   XZ=              4.6462   YZ=             -1.4754
 Octapole moment (field-independent basis, Debye-Ang**2):
  XXX=             18.5451  YYY=             -9.3297  ZZZ=              1.0178  XYY=             -2.6132
  XXY=             -8.5103  XXZ=             15.3615  XZZ=             12.4448  YZZ=             -0.8272
  YYZ=              1.5256  XYZ=             -4.9954
 Hexadecapole moment (field-independent basis, Debye-Ang**3):
 XXXX=           -726.8990 YYYY=           -338.3193 ZZZZ=            -54.8884 XXXY=            -26.8680
 XXXZ=             50.7551 YYYX=            -17.7137 YYYZ=             -1.8274 ZZZX=              4.3961
 ZZZY=             -1.5707 XXYY=           -187.9919 XXZZ=           -150.6183 YYZZ=            -74.5502
 XXYZ=            -15.6044 YYXZ=              5.3904 ZZXY=             -4.5713
 N-N= 3.699802025265D+02 E-N=-1.676406779455D+03  KE= 3.989265517100D+02
  Exact polarizability:   0.000   0.000   0.000   0.000   0.000   0.000
 Approx polarizability: 156.372   9.844 140.039   1.211  -0.842  67.538
 No NMR shielding tensors so no spin-rotation constants.
 Leave Link  601 at Sat Aug 28 15:08:02 2021, MaxMem= 17179869184 cpu:        68.3
 (Enter /public3/home/sc51754/softwares/g09e01/l701.exe)
 Compute integral second derivatives.
 ... and contract with generalized density number  0.
 Leave Link  701 at Sat Aug 28 15:08:05 2021, MaxMem= 17179869184 cpu:       131.0
 (Enter /public3/home/sc51754/softwares/g09e01/l702.exe)
 L702 exits ... SP integral derivatives will be done elsewhere.
 Leave Link  702 at Sat Aug 28 15:08:06 2021, MaxMem= 17179869184 cpu:         2.6
 (Enter /public3/home/sc51754/softwares/g09e01/l703.exe)
 Compute integral second derivatives, UseDBF=F ICtDFT=           0.
 Integral derivatives from FoFJK, PRISM(SPDF).
 Calling FoFJK, ICntrl=    100147 FMM=F ISym2X=0 I1Cent= 0 IOpClX= 0 NMat=1 NMatS=1 NMatT=0.
 FoFJK:  IHMeth= 1 ICntrl=  100147 DoSepK=F KAlg= 0 I1Cent=   0 FoldK=F
 IRaf=         0 NMat=   1 IRICut=       1 DoRegI=T DoRafI=F ISym2E= 0.
 FoFCou: FMM=F IPFlag=           0 FMFlag=      100000 FMFlg1=         800
         NFxFlg=           0 DoJE=F BraDBF=F KetDBF=F FulRan=T
         wScrn=  0.000000 ICntrl=  100147 IOpCl=  0 I1Cent=           0 NGrid=           0
         NMat0=    1 NMatS0=      1 NMatT0=    0 NMatD0=    1 NMtDS0=    0 NMtDT0=    0
 Symmetry not used in FoFCou.
 Leave Link  703 at Sat Aug 28 15:08:30 2021, MaxMem= 17179869184 cpu:      1505.5
 (Enter /public3/home/sc51754/softwares/g09e01/l716.exe)
 Dipole        =-5.69828015D-01-9.17466273D-01 5.22664114D-01
 Polarizability= 0.00000000D+00 0.00000000D+00 0.00000000D+00
                 0.00000000D+00 0.00000000D+00 0.00000000D+00
 ***** Axes restored to original set *****
 -------------------------------------------------------------------
 Center     Atomic                   Forces (Hartrees/Bohr)
 Number     Number              X              Y              Z
 -------------------------------------------------------------------
      1        8          -0.035953999   -0.002369752   -0.000433291
      2        7          -0.020370108   -0.008600668    0.001196072
      3        6           0.033215243    0.051551231    0.000082303
      4        6          -0.015833490   -0.006640143    0.000016875
      5        6          -0.006660483   -0.009447795    0.000053508
      6        6           0.002826043    0.008725916   -0.000005907
      7        6           0.005617340   -0.006261807   -0.000092152
      8        1          -0.017591399    0.029817835    0.004680014
      9        1           0.001555692   -0.000933982    0.000004539
     10        1          -0.000163146    0.000201148   -0.000004625
     11        1          -0.000518803   -0.000230662   -0.000002055
     12        1           0.000876619   -0.000417914   -0.000025974
     13        8           0.050591824   -0.049581369   -0.001660770
     14        1           0.005454978    0.003768766    0.000814961
     15        1          -0.003046312   -0.009580804   -0.004623495
 -------------------------------------------------------------------
 Cartesian Forces:  Max     0.051551231 RMS     0.016697111
 FormGI is forming the generalized inverse of G from B-inverse, IUseBI=4.
 Leave Link  716 at Sat Aug 28 15:08:31 2021, MaxMem= 17179869184 cpu:        25.2
 (Enter /public3/home/sc51754/softwares/g09e01/l103.exe)

 GradGradGradGradGradGradGradGradGradGradGradGradGradGradGradGradGradGrad
 Berny optimization.
 Red2BG is reusing G-inverse.
 Internal  Forces:  Max     0.044200288 RMS     0.008717025
 Search for a saddle point.
 Step number   1 out of a maximum of  100
 All quantities printed in internal units (Hartrees-Bohrs-Radians)
 Second derivative matrix not updated -- analytic derivatives used.
 ITU=  0
 LST/QST climbing along tangent vector
     Eigenvalues ---    0.00228   0.00371   0.00492   0.00543   0.01018
     Eigenvalues ---    0.01193   0.01703   0.01846   0.02123   0.02352
     Eigenvalues ---    0.02754   0.03085   0.03399   0.04208   0.04847
     Eigenvalues ---    0.05842   0.07287   0.10391   0.10917   0.12118
     Eigenvalues ---    0.13102   0.15005   0.19850   0.20091   0.21339
     Eigenvalues ---    0.24426   0.27110   0.29645   0.34366   0.35267
     Eigenvalues ---    0.35854   0.36349   0.36579   0.41646   0.43074
     Eigenvalues ---    0.46004   0.48216   0.53508   0.536111000.00000
     Eigenvalues --- 1000.000001000.000001000.000001000.000001000.00000
     Eigenvalues --- 1000.000001000.000001000.000001000.000001000.00000
     Eigenvalues --- 1000.000001000.000001000.000001000.000001000.00000
     Eigenvalues --- 1000.000001000.000001000.000001000.000001000.00000
     Eigenvalues --- 1000.000001000.000001000.000001000.000001000.00000
     Eigenvalues --- 1000.000001000.000001000.000001000.000001000.00000
     Eigenvalues --- 1000.000001000.000001000.000001000.000001000.00000
     Eigenvalues --- 1000.000001000.000001000.000001000.000001000.00000
     Eigenvalues --- 1000.00000
 Eigenvectors required to have negative eigenvalues:
                          D33       D38       D34       D37       D3
   1                    0.54133  -0.53219   0.31062  -0.26138  -0.24564
                          D36       A22       D16       D14       A24
   1                   -0.22248  -0.21573   0.18597   0.18449  -0.14140
 Eigenvalue     1 is   2.28D-03 should be less than     0.000000 Eigenvector:
                          D33       D38       D34       D37       D3
   1                    0.54133  -0.53219   0.31062  -0.26138  -0.24564
                          D36       A22       D16       D14       A24
   1                   -0.22248  -0.21573   0.18597   0.18449  -0.14140
 QST in optimization variable space.
 Eigenvectors 1 and   3 swapped, overlap=  1.0000
                        Tangent   TS vect  // Eig F  Eigenval
   1         R1        -0.05504   0.05504   0.01529   0.00492
   2         R2         0.39477  -0.39477   0.00007   0.00371
   3         R3         0.02055  -0.02055   0.00029   0.00228
   4         R4         0.00735  -0.00735   0.00017   0.00543
   5         R5        -0.49734   0.49734  -0.00081   0.01018
   6         R6         0.01524  -0.01524  -0.00021   0.01193
   7         R7        -0.00747   0.00747   0.00002   0.01703
   8         R8        -0.00005   0.00005  -0.00003   0.01846
   9         R9        -0.00808   0.00808  -0.00005   0.02123
  10         R10       -0.00125   0.00125  -0.00008   0.02352
  11         R11        0.00910  -0.00910  -0.00001   0.02754
  12         R12        0.00030  -0.00030  -0.00005   0.03085
  13         R13       -0.00070   0.00070   0.00007   0.03399
  14         R14       -0.49324   0.49324  -0.00045   0.04208
  15         R15       -0.02265   0.02265   0.00511   0.04847
  16         R16       -0.00039   0.00039   0.00454   0.05842
  17         R17        0.43308  -0.43308   0.00219   0.07287
  18         A1        -0.02068   0.02068  -0.00050   0.10391
  19         A2         0.02125  -0.02125   0.00143   0.10917
  20         A3         0.02404  -0.02404  -0.00066   0.12118
  21         A4        -0.04530   0.04530   0.00018   0.13102
  22         A5        -0.00581   0.00581  -0.01107   0.15005
  23         A6         0.03441  -0.03441  -0.00429   0.19850
  24         A7        -0.02860   0.02860   0.00987   0.20091
  25         A8         0.01003  -0.01003   0.00168   0.21339
  26         A9        -0.00984   0.00984   0.01579   0.24426
  27         A10       -0.00019   0.00019   0.01318   0.27110
  28         A11       -0.00893   0.00893   0.00967   0.29645
  29         A12       -0.00010   0.00010  -0.01999   0.34366
  30         A13        0.00903  -0.00903  -0.00380   0.35267
  31         A14        0.00548  -0.00548  -0.00352   0.35854
  32         A15       -0.00125   0.00125  -0.00235   0.36349
  33         A16       -0.00423   0.00423   0.00408   0.36579
  34         A17        0.00076  -0.00076  -0.00763   0.41646
  35         A18       -0.00071   0.00071   0.00138   0.43074
  36         A19       -0.00005   0.00005   0.01054   0.46004
  37         A20       -0.02881   0.02881   0.00361   0.48216
  38         A21       -0.24226   0.24226   0.00011   0.53508
  39         A22       -0.08110   0.08110   0.00586   0.53611
  40         A23        0.01547  -0.01547  -0.000001000.00000
  41         A24        0.10894  -0.10894  -0.000001000.00000
  42         A25        0.24436  -0.24436  -0.000001000.00000
  43         A26        0.01541  -0.01541  -0.000001000.00000
  44         D1         0.00640  -0.00640  -0.000001000.00000
  45         D2         0.00656  -0.00656  -0.000001000.00000
  46         D3        -0.00658   0.00658  -0.000001000.00000
  47         D4        -0.01044   0.01044   0.000001000.00000
  48         D5         0.00111  -0.00111  -0.000001000.00000
  49         D6         0.00094  -0.00094   0.000001000.00000
  50         D7         0.00503  -0.00503   0.000001000.00000
  51         D8         0.00486  -0.00486  -0.000001000.00000
  52         D9        -0.00051   0.00051  -0.000001000.00000
  53         D10       -0.00042   0.00042  -0.000001000.00000
  54         D11       -0.00650   0.00650   0.000001000.00000
  55         D12       -0.00641   0.00641   0.000001000.00000
  56         D13       -0.01431   0.01431  -0.000001000.00000
  57         D14       -0.00686   0.00686  -0.000001000.00000
  58         D15       -0.00895   0.00895   0.000001000.00000
  59         D16       -0.00150   0.00150  -0.000001000.00000
  60         D17       -0.00095   0.00095   0.000001000.00000
  61         D18       -0.00070   0.00070   0.000001000.00000
  62         D19       -0.00078   0.00078   0.000001000.00000
  63         D20       -0.00053   0.00053   0.000001000.00000
  64         D21        0.00019  -0.00019   0.000001000.00000
  65         D22        0.00024  -0.00024   0.000001000.00000
  66         D23       -0.00008   0.00008   0.000001000.00000
  67         D24       -0.00003   0.00003   0.000001000.00000
  68         D25       -0.00011   0.00011  -0.000001000.00000
  69         D26        0.00001  -0.00001  -0.000001000.00000
  70         D27       -0.00019   0.00019   0.000001000.00000
  71         D28       -0.00008   0.00008  -0.000001000.00000
  72         D29        0.00024  -0.00024  -0.000001000.00000
  73         D30        0.00013  -0.00013  -0.000001000.00000
  74         D31        0.00019  -0.00019   0.000001000.00000
  75         D32        0.00008  -0.00008  -0.000001000.00000
  76         D33       -0.10679   0.10679  -0.000001000.00000
  77         D34        0.01085  -0.01085  -0.000001000.00000
  78         D35        0.01703  -0.01703   0.000001000.00000
  79         D36        0.05054  -0.05054   0.000001000.00000
  80         D37        0.01413  -0.01413  -0.000001000.00000
  81         D38       -0.04605   0.04605   0.000001000.00000
 RFO step:  Lambda0=1.794308349D-02 Lambda=-5.98402612D-03.
 Linear search not attempted -- option 19 set.
 Maximum step size (   0.300) exceeded in Quadratic search.
    -- Step size scaled by   0.255
 Iteration  1 RMS(Cart)=  0.02439968 RMS(Int)=  0.00128109
 Iteration  2 RMS(Cart)=  0.00069683 RMS(Int)=  0.00049444
 Iteration  3 RMS(Cart)=  0.00000080 RMS(Int)=  0.00049444
 ITry= 1 IFail=0 DXMaxC= 1.54D-01 DCOld= 1.00D+10 DXMaxT= 3.00D-01 DXLimC= 3.00D+00 Rises=F
 Variable       Old X    -DE/DX   Delta X   Delta X   Delta X     New X
                                 (Linear)    (Quad)   (Total)
    R1        2.52956  -0.02582   0.00000  -0.02888  -0.02934   2.50022
    R2        2.26459   0.02412   0.00000   0.12099   0.12118   2.38577
    R3        2.51796   0.02574   0.00000   0.01261   0.01209   2.53005
    R4        2.53167   0.00516   0.00000   0.00249   0.00250   2.53417
    R5        2.54156   0.01823   0.00000  -0.15143  -0.15129   2.39027
    R6        2.64904   0.00815   0.00000   0.00766   0.00764   2.65669
    R7        2.60463  -0.00246   0.00000  -0.00362  -0.00362   2.60101
    R8        2.04016  -0.00104   0.00000  -0.00002  -0.00002   2.04014
    R9        2.60897  -0.00593   0.00000  -0.00410  -0.00409   2.60487
   R10        2.04683  -0.00023   0.00000  -0.00057  -0.00057   2.04626
   R11        2.63877   0.00726   0.00000   0.00455   0.00456   2.64332
   R12        2.04430   0.00038   0.00000   0.00020   0.00020   2.04450
   R13        2.04045  -0.00043   0.00000  -0.00037  -0.00037   2.04008
   R14        2.07476   0.04420   0.00000  -0.12531  -0.12673   1.94803
   R15        2.94215   0.01295   0.00000   0.00002   0.00284   2.94500
   R16        1.81463   0.00233   0.00000   0.00002   0.00002   1.81464
   R17        2.05980   0.01302   0.00000   0.14712   0.14534   2.20514
    A1        1.85001   0.00324   0.00000  -0.00503  -0.00511   1.84491
    A2        2.06533   0.00507   0.00000   0.01240   0.01241   2.07774
    A3        1.76187   0.00385   0.00000   0.01402   0.01389   1.77575
    A4        2.45599  -0.00892   0.00000  -0.02641  -0.02629   2.42969
    A5        2.07803   0.00207   0.00000  -0.00390  -0.00444   2.07360
    A6        2.06556   0.01015   0.00000   0.02023   0.02057   2.08613
    A7        2.13959  -0.01221   0.00000  -0.01634  -0.01613   2.12346
    A8        2.06288   0.00346   0.00000   0.00532   0.00525   2.06813
    A9        2.08349  -0.00325   0.00000  -0.00518  -0.00514   2.07835
   A10        2.13681  -0.00021   0.00000  -0.00015  -0.00011   2.13671
   A11        2.15335  -0.00219   0.00000  -0.00502  -0.00507   2.14828
   A12        2.02127   0.00123   0.00000   0.00038   0.00041   2.02168
   A13        2.10857   0.00096   0.00000   0.00463   0.00466   2.11322
   A14        2.08848   0.00334   0.00000   0.00350   0.00345   2.09193
   A15        2.09360  -0.00125   0.00000  -0.00094  -0.00092   2.09268
   A16        2.10110  -0.00210   0.00000  -0.00256  -0.00253   2.09857
   A17        2.05673   0.00252   0.00000   0.00014   0.00010   2.05682
   A18        2.10431  -0.00215   0.00000  -0.00019  -0.00017   2.10414
   A19        2.12215  -0.00038   0.00000   0.00006   0.00008   2.12223
   A20        2.66334   0.00503   0.00000   0.00049   0.00139   2.66473
   A21        1.89018   0.00283   0.00000  -0.06961  -0.06934   1.82085
   A22        2.05890   0.00348   0.00000  -0.03337  -0.03273   2.02616
   A23        1.58353  -0.01917   0.00000  -0.01020  -0.01093   1.57260
   A24        1.86591   0.01399   0.00000   0.04284   0.04349   1.90940
   A25        1.84446  -0.01198   0.00000   0.06441   0.06488   1.90934
   A26        2.62301   0.00511   0.00000   0.00445   0.00504   2.62806
    D1        0.01015  -0.00008   0.00000   0.00176   0.00180   0.01196
    D2       -3.13136  -0.00004   0.00000   0.00191   0.00190  -3.12946
    D3        0.06859  -0.00107   0.00000  -0.00023  -0.00025   0.06834
    D4       -0.01718  -0.00004   0.00000  -0.00314  -0.00299  -0.02017
    D5       -3.13891  -0.00006   0.00000   0.00060   0.00051  -3.13839
    D6        0.00260  -0.00010   0.00000   0.00045   0.00042   0.00302
[...]
 ! A17   A(5,7,6)              117.8803         -DE/DX =    0.0                 !
 ! A18   A(5,7,12)             120.5411         -DE/DX =    0.0                 !
 ! A19   A(6,7,12)             121.5785         -DE/DX =    0.0                 !
 ! A20   A(1,8,13)             157.7476         -DE/DX =    0.0                 !
 ! A21   A(1,8,15)             108.5714         -DE/DX =    0.0                 !
 ! A22   A(8,13,14)            113.0924         -DE/DX =    0.0                 !
 ! A23   A(8,13,15)             81.6924         -DE/DX =    0.0                 !
 ! A24   A(14,13,15)           115.0599         -DE/DX =    0.0                 !
 ! A25   A(2,15,8)             101.2231         -DE/DX =    0.0                 !
 ! A26   A(2,15,13)            149.9312         -DE/DX =    0.0                 !
 ! D1    D(8,1,3,2)              0.1004         -DE/DX =    0.0                 !
 ! D2    D(8,1,3,4)           -179.8374         -DE/DX =    0.0                 !
 ! D3    D(3,1,8,13)             5.8329         -DE/DX =    0.0                 !
 ! D4    D(3,1,8,15)            -0.6848         -DE/DX =    0.0                 !
 ! D5    D(5,2,3,1)           -179.7704         -DE/DX =    0.0                 !
 ! D6    D(5,2,3,4)              0.1704         -DE/DX =    0.0                 !
 ! D7    D(15,2,3,1)             0.7296         -DE/DX =    0.0                 !
 ! D8    D(15,2,3,4)          -179.3297         -DE/DX =    0.0                 !
 ! D9    D(3,2,5,7)             -0.1087         -DE/DX =    0.0                 !
 ! D10   D(3,2,5,10)           179.7468         -DE/DX =    0.0                 !
 ! D11   D(15,2,5,7)           179.2487         -DE/DX =    0.0                 !
 ! D12   D(15,2,5,10)           -0.8959         -DE/DX =    0.0                 !
 ! D13   D(3,2,15,8)            -0.95           -DE/DX =    0.0                 !
 ! D14   D(3,2,15,13)           -7.5507         -DE/DX =    0.0                 !
 ! D15   D(5,2,15,8)           179.62           -DE/DX =    0.0                 !
 ! D16   D(5,2,15,13)          173.0193         -DE/DX =    0.0                 !
 ! D17   D(1,3,4,6)            179.8003         -DE/DX =    0.0                 !
 ! D18   D(1,3,4,9)             -0.0476         -DE/DX =    0.0                 !
 ! D19   D(2,3,4,6)             -0.1371         -DE/DX =    0.0                 !
 ! D20   D(2,3,4,9)           -179.985          -DE/DX =    0.0                 !
 ! D21   D(3,4,6,7)              0.0448         -DE/DX =    0.0                 !
 ! D22   D(3,4,6,11)          -179.8912         -DE/DX =    0.0                 !
 ! D23   D(9,4,6,7)            179.8864         -DE/DX =    0.0                 !
 ! D24   D(9,4,6,11)            -0.0496         -DE/DX =    0.0                 !
 ! D25   D(2,5,7,6)              0.0109         -DE/DX =    0.0                 !
 ! D26   D(2,5,7,12)           179.9051         -DE/DX =    0.0                 !
 ! D27   D(10,5,7,6)          -179.8355         -DE/DX =    0.0                 !
 ! D28   D(10,5,7,12)            0.0587         -DE/DX =    0.0                 !
 ! D29   D(4,6,7,5)              0.0186         -DE/DX =    0.0                 !
 ! D30   D(4,6,7,12)          -179.8744         -DE/DX =    0.0                 !
 ! D31   D(11,6,7,5)           179.9546         -DE/DX =    0.0                 !
 ! D32   D(11,6,7,12)            0.0616         -DE/DX =    0.0                 !
 ! D33   D(1,8,13,14)         -121.924          -DE/DX =    0.0                 !
 ! D34   D(1,8,13,15)           -8.1529         -DE/DX =    0.0                 !
 ! D35   D(1,8,15,2)             1.1318         -DE/DX =    0.0                 !
 ! D36   D(8,13,14,15)          91.4882         -DE/DX =    0.0                 !
 ! D37   D(8,13,15,2)            8.5977         -DE/DX =    0.0                 !
 ! D38   D(14,13,15,2)         120.2693         -DE/DX =    0.0                 !
 --------------------------------------------------------------------------------
 GradGradGradGradGradGradGradGradGradGradGradGradGradGradGradGradGradGrad

 Leave Link  103 at Sat Aug 28 15:17:10 2021, MaxMem= 17179869184 cpu:        41.1
 (Enter /public3/home/sc51754/softwares/g09e01/l9999.exe)
 1\1\GINC-R2701\Freq\RB3LYP\Gen\C5H7N1O2\SC51754\28-Aug-2021\0\\#P Geom
 =AllCheck Guess=TCheck SCRF=Check GenChk RB3LYP/ChkBas Freq\\HY_H2O_B3
 LYP_PC2_OPT_FREQ\\0,1\O,1.3355109288,1.3118329546,-0.013939105\N,0.406
 2396098,-0.7629296054,-0.0146700888\C,0.2634175487,0.5905726247,-0.010
 5052358\C,-1.0402378804,1.1363016204,-0.0039721103\C,-0.6546098966,-1.
 5848239886,-0.0161222815\C,-2.1204555449,0.2889931871,-0.0048906858\C,
 -1.9400139393,-1.1042243807,-0.011270888\H,2.2355453287,0.5490921497,-
 0.0223108801\H,-1.1475863424,2.210292046,-0.0009399099\H,-0.434371627,
 -2.6436962512,-0.0237783818\H,-3.121635107,0.6995950262,-0.0017014916\
 H,-2.7789537262,-1.7825590963,-0.0140854832\O,2.8184947681,-0.56770173
 16,-0.0787643742\H,3.3610235355,-0.7488099236,0.6926528174\H,1.6237606
 842,-0.9880330812,-0.0061230915\\Version=EM64L-G09RevE.01\State=1-A\HF
 =-400.1222604\RMSD=5.226e-09\RMSF=1.074e-05\ZeroPoint=0.1124906\Therma
 l=0.1190596\Dipole=-1.172653,-0.7025954,0.5313317\DipoleDeriv=-1.90034
 82,-0.3375606,-0.0126795,-0.1855509,-0.8628207,0.0039311,-0.0124681,0.
 0027395,-0.3399368,-1.3177329,0.1633839,-0.0073845,-0.4772829,-0.46213
 02,-0.0011077,-0.0405651,0.0004146,-0.1573739,1.6561321,0.7610532,0.00
 29193,0.6861914,0.6329575,0.0007933,-0.0070558,-0.004175,0.2110787,-0.
 6235389,-0.4540877,-0.0029762,0.086732,0.020682,-0.0004173,0.0101148,-
 0.0004016,-0.1662857,0.5829871,-0.2946949,-0.0013223,0.2997336,0.23561
 79,0.0077677,0.0010134,0.0057843,0.0016664,0.2693438,0.1036889,0.00002
 82,0.0786722,0.5225558,0.0025907,-0.0016312,0.0014464,-0.07194,-0.2561
 397,0.338513,0.0006153,0.0429739,-0.421695,-0.0014069,0.0073085,-0.000
 7421,-0.1852315,1.1485618,-0.4128265,0.0012289,-0.9351386,0.6900667,-0
 .0316069,-0.0112364,-0.019763,0.2110505,0.0650447,-0.0011779,-0.000052
 2,0.0124628,-0.023804,-0.0005807,0.0004191,-0.0003226,0.1499878,0.0632
 02,0.027428,-0.0004493,-0.0118018,-0.0547361,-0.0008303,-0.0033918,-0.
 0015636,0.1263426,-0.0525741,0.0575926,0.0003389,0.05891,0.0635354,-0.
 0004051,-0.0010307,0.0000005,0.123834,-0.0087775,-0.063879,-0.0005548,
 -0.0631214,0.0091303,-0.0006025,-0.0004667,-0.0006227,0.1570333,-1.779
 5893,0.1976914,0.0320332,0.3223993,-0.7857065,-0.013253,0.1045459,-0.0
 295789,-0.4016673,0.2724527,0.0042053,-0.039855,-0.0092828,0.2699658,0
 .0144279,-0.0644983,0.0258309,0.1621428,1.8809763,-0.0893297,0.0281101
 ,0.0941033,0.1663812,0.0206997,0.0189425,0.0209533,0.1792991\Polar=104
 .6420412,3.4772903,84.8688988,1.3461409,-0.2435997,44.168461\PG=C01 [X
 (C5H7N1O2)]\NImag=1\\0.43532093,0.13729795,0.34938832,-0.00195747,-0.0
 0095784,0.05478914,0.02953219,-0.05757582,0.00045153,0.60845365,-0.038
 14437,-0.06165918,-0.00023487,0.11367396,0.62162272,0.00132802,-0.0003
 8411,0.01381998,0.00079987,0.00169613,0.10567470,-0.30987223,-0.130897
 80,0.00111523,-0.18208057,0.01652241,-0.00126257,0.78648645,-0.1307589
 0,-0.20232679,0.00108508,0.04425970,-0.24404902,-0.00106651,0.04007669
 ,0.63392059,0.00035228,0.00019906,-0.06623801,0.00005194,-0.00064109,-
 0.07398451,-0.00124741,0.00104415,0.19880950,-0.07506610,0.00283645,0.
 00026901,0.02926597,0.06588001,0.00062281,-0.23072590,0.04411932,0.000
 43151,0.66010346,-0.03173924,0.02073048,0.00011946,0.03850521,-0.02315
 348,-0.00015423,0.08959466,-0.15821886,-0.00065268,0.03996682,0.767720
 77,0.00040730,0.00052497,0.01342749,-0.00022624,-0.00030775,0.01295680
 ,0.00088774,-0.00085570,-0.07673951,-0.00135487,0.00197739,0.12068401,
 -0.01499797,0.01199413,-0.00007331,-0.26385085,-0.08293757,0.00023710,
 0.05749136,-0.07601472,-0.00038953,-0.06251227,-0.00463255,0.00013417,
 0.69960987,-0.00311031,0.00056688,-0.00012715,-0.10911305,-0.21274598,
 -0.00014270,-0.02011926,-0.05979159,-0.00006717,-0.01146979,-0.0011566
 7,0.00007210,-0.04787689,0.75904959,-0.00005853,0.00006901,0.00806441,
 -0.00019029,-0.00048101,-0.05619992,-0.00018065,-0.00005488,-0.0020863
 7,0.00004618,0.00007854,-0.00303798,-0.00118947,0.00346233,0.15020273,
 0.00489841,0.00426554,-0.00000668,-0.00936278,-0.01544894,-0.00025645,
 -0.05349726,-0.00430073,0.00016973,-0.28859754,-0.14739896,0.00001836,
 0.01496622,0.03866151,0.00022457,0.74941582,0.02339373,-0.00558290,0.0
 0000629,-0.03603783,-0.05391567,-0.00026539,-0.04474296,0.06433348,0.0
 0043945,-0.09286767,-0.22839633,-0.00036738,0.08563467,-0.01210205,-0.
 00027757,-0.00552089,0.66026949,0.00008295,-0.00005247,0.00470119,-0.0
 0006221,-0.00016210,-0.00637754,-0.00007699,0.00028811,0.00077084,0.00
 009820,-0.00034315,-0.05712256,0.00036092,-0.00015184,0.00768820,-0.00
 117210,0.00204574,0.14505845,0.00725432,-0.00632303,0.00003681,-0.0775
 4422,-0.04824213,-0.00012013,-0.02956761,0.04301737,0.00020335,0.04446
 449,-0.02396391,-0.00019642,-0.32944624,0.11209206,0.00097247,-0.13143
 533,-0.00743383,0.00005237,0.74638130,-0.01670108,0.00073778,-0.000014
 95,0.00191652,0.05174753,0.00032867,0.03524166,-0.03438696,-0.00025907
 ,-0.05762883,-0.03848476,-0.00007169,0.05292291,-0.16559772,-0.0006824
 7,0.05220728,-0.29968919,-0.00107779,0.04670783,0.67096115,-0.00013931
 ,0.00011557,-0.00089997,-0.00001443,0.00023828,0.01655435,0.00027465,-
 0.00028764,-0.00766607,-0.00032873,-0.00020068,0.00729974,0.00061698,-
 0.00066281,-0.06610149,0.00033797,-0.00108915,-0.06249920,-0.00063883,
 0.00268675,0.11945874,-0.00661474,-0.00642469,-0.00127492,-0.01707672,
 0.01391696,-0.00126900,-0.06508552,-0.02211314,0.00038820,0.01204782,0
 .00216576,0.00011417,0.00226032,0.00320819,0.00001200,-0.00217611,-0.0
 0568660,-0.00001279,-0.00169754,0.00452033,0.00015583,0.06888651,-0.02
 999097,-0.05479470,0.00061791,0.01764506,-0.01258744,0.00138293,0.0211
 0860,0.04927352,-0.00003827,-0.01745105,-0.00692032,-0.00007207,-0.004
 44731,-0.00540284,-0.00009198,0.00187224,0.00882881,0.00001687,0.00372
 886,-0.00596458,-0.00015234,0.05821090,0.04263535,0.00156482,-0.001570
 48,-0.03567359,-0.00102823,0.00004496,-0.00147627,-0.00057220,-0.00037
 381,0.00131221,0.00020324,0.00001100,0.00353572,0.00000935,0.00012286,
 -0.00072889,-0.00006387,-0.00012214,0.00092011,-0.00011727,0.00006105,
 0.00030842,0.00487946,0.00503566,0.06665874,0.00248006,-0.00183887,-0.
 00002046,-0.00651583,0.00408229,0.00000046,0.00305322,0.02986514,0.000
 06741,-0.06194864,0.03043778,0.00019951,-0.00197386,-0.00110708,-0.000
 00382,0.00756381,-0.02642468,-0.00008612,-0.00350460,-0.00265577,0.000
 01936,-0.00077761,0.00090568,-0.00002501,0.05881221,-0.00039607,0.0014
 7893,0.00001428,0.00264104,-0.00007510,-0.00000672,-0.00261033,-0.0094
 8510,0.00000157,0.03253358,-0.34112984,-0.00092823,0.00048734,0.000898
 34,0.00000708,0.00346706,-0.01326714,-0.00003809,-0.00345250,0.0009164
 7,-0.00000582,0.00047818,-0.00038693,0.00000913,-0.03258450,0.36064384
 ,-0.00001445,-0.00001336,-0.00237452,0.00005100,-0.00003008,0.00537394
 ,-0.00001136,-0.00009105,0.00257197,0.00018410,-0.00080346,-0.03381229
 ,0.00001748,0.00001045,-0.00051656,-0.00001426,-0.00003357,0.00216492,
 0.00000083,-0.00003520,0.00875341,-0.00001669,0.00001124,-0.00035352,-
 0.00018261,0.00097591,0.02415723,-0.00087614,-0.00151120,0.00000024,0.
 00569636,-0.03369805,-0.00020192,-0.00314859,-0.00138258,0.00001758,-0
 .00041629,-0.00067700,0.00000258,-0.07491307,0.06556902,0.00045777,-0.
 00570352,0.00125776,0.00002449,0.00131509,0.02838427,0.00019557,0.0008
 4600,-0.00077057,0.00001063,0.00016470,0.00000499,-0.00000584,0.075828
 24,-0.00044094,-0.00143650,0.00000904,-0.00290255,-0.02228337,-0.00015
 229,-0.00288417,0.00306665,-0.00008651,0.00020705,0.00042864,0.0000043
 2,0.06174621,-0.32173725,-0.00194566,0.00205299,0.00071090,-0.00005466
 ,-0.00022996,-0.00510390,-0.00009413,0.00044599,-0.00033352,0.00000188
 ,0.00008079,-0.00007893,0.00000947,-0.05862230,0.34637081,0.00003309,-
 0.00003727,0.00008531,0.00012163,0.00010271,-0.00009993,-0.00000368,-0
 .00000928,0.00807957,0.00003378,0.00001825,-0.00039652,0.00040240,-0.0
 0223811,-0.04054900,-0.00000481,-0.00004276,0.00762297,0.00002997,-0.0
 0006650,0.00687735,-0.00006800,0.00005789,-0.00012406,-0.00000654,0.00
 000308,-0.00141006,-0.00044744,0.00224800,0.02608754,-0.00183877,0.000
 69552,0.00000784,0.00024806,-0.00061873,-0.00000242,-0.00097013,-0.003
 81046,-0.00000838,-0.01904179,0.01130799,0.00006925,0.00167982,0.00066
 651,0.00000448,-0.29643842,0.09691745,0.00080554,0.00042778,-0.0002820
 2,-0.00000864,0.00040678,-0.00068970,-0.00000239,0.00112632,-0.0001583
 7,-0.00000699,-0.00007493,-0.00014012,-0.00000036,0.31403803,-0.000914
 09,0.00070114,0.00001002,-0.00095787,-0.00023574,0.00000331,-0.0034877
 1,-0.00234379,-0.00003928,-0.01906971,0.01183155,0.00005325,0.00026166
 ,-0.00647915,-0.00005612,0.09748763,-0.10063760,-0.00038092,0.02988332
 ,-0.00605058,-0.00008435,0.00004377,-0.00030788,0.00000147,0.00053202,
 0.00084544,0.00001884,0.00151854,-0.00035378,0.00000148,-0.10461535,0.
 10164410,-0.00001576,-0.00005778,-0.00108162,0.00003685,0.00000446,-0.
 00190104,0.00000934,-0.00000283,0.01067866,0.00000614,0.00005101,0.006
 06989,0.00002511,-0.00007866,0.00643275,0.00072067,-0.00038540,-0.0429
 1994,0.00013049,-0.00003524,0.00497781,-0.00002861,0.00002155,-0.00042
 170,-0.00001343,0.00000540,-0.00504477,0.00000268,0.00000245,-0.000493
 17,-0.00086950,0.00045157,0.02711759,0.00054285,-0.00026937,0.00000626
 ,-0.00540680,0.00330229,0.00003038,-0.00038072,0.00131957,-0.00000939,
 0.00095802,0.00168846,0.00000612,-0.01705162,-0.02170445,-0.00013360,0
 .00837385,0.00510446,0.00000798,-0.23231499,-0.13899551,-0.00050083,-0
 .00023381,0.00048853,-0.00002010,0.00027205,0.00034994,-0.00000032,0.0
 0075294,0.00026347,0.00000038,0.00060530,-0.00057535,0.00000028,0.2433
 0124,-0.00045454,0.00044262,0.00000420,0.00374076,0.00032643,-0.000045
 26,0.00129971,-0.00116281,-0.00000684,0.00251946,-0.00471753,-0.000050
 57,0.01032430,0.01128798,0.00005290,-0.02569689,-0.01400688,-0.0000595
 5,-0.14038369,-0.17105505,-0.00059754,0.00020417,-0.00031914,0.0000072
 4,-0.00121729,-0.00054972,-0.00000153,-0.00058542,0.00053153,0.0000270
 0,0.00033364,0.00117663,0.00002325,0.15003434,0.17750381,-0.00000304,-
 0.00003856,-0.00086590,0.00002145,-0.00007237,0.00818155,-0.00000469,0
 .00002990,-0.00023463,0.00001225,-0.00004514,0.00551352,0.00009363,0.0
 0009064,-0.00081111,-0.00012046,-0.00002671,0.00048118,-0.00056721,-0.
 00067572,-0.03020101,0.00001352,-0.00001325,-0.00000357,-0.00000751,-0
 .00000270,0.00055710,-0.00001121,0.00003713,-0.00397895,-0.00000026,0.
 00002038,-0.00308876,0.00057532,0.00065884,0.02375945,-0.02476209,0.04
 209312,0.00099535,-0.08793297,-0.01108684,-0.00235899,-0.00236601,-0.0
 0436841,0.00042513,0.00019834,0.00125550,0.00017830,-0.00163936,0.0145
 8092,-0.00010556,-0.00064157,-0.00171054,-0.00006734,-0.00537898,-0.00
 139509,0.00027285,-0.02586580,0.00109276,-0.00218918,-0.00057741,0.000
 32147,0.00000024,-0.00030830,-0.00104318,-0.00012254,-0.00029028,0.000
 03627,-0.00002082,-0.00131539,0.00036399,0.00004220,0.31788259,0.09049
 654,-0.04318205,0.00335691,-0.02870645,0.01960108,-0.00394945,-0.03027
 200,-0.03253793,0.00022705,0.01102921,0.00574579,-0.00029341,0.0043356
 5,0.00511581,-0.00008648,-0.00138796,-0.00616676,-0.00006337,-0.003203
 26,0.00406707,0.00029038,-0.04364591,-0.00216432,-0.02165926,-0.001119
 33,0.00050674,-0.00002485,0.00066437,0.00001727,-0.00010323,0.00037414
 ,0.00020413,0.00005267,-0.00042946,0.00028096,0.00005991,-0.07829580,0
 .12429942,-0.00349925,0.00508993,0.01553689,-0.00646779,-0.00097015,0.
 01606839,0.00092093,-0.00053058,-0.00041400,-0.00012525,0.00005125,-0.
 00174108,-0.00052999,0.00038161,0.00082757,0.00009162,-0.00003981,0.00
 010795,-0.00008995,-0.00018622,-0.00117948,-0.00323494,-0.00820346,-0.
 03861296,0.00003477,-0.00000811,0.00013056,0.00000300,-0.00008173,0.00
 049283,0.00001205,0.00000985,0.00021896,-0.00007655,-0.00000254,-0.000
 21826,0.23136692,-0.07750856,0.39027547,0.00111132,0.00206759,0.001489
 21,-0.00751311,-0.00207943,0.00363048,-0.00068042,-0.00120808,-0.00059
 420,0.00019411,0.00017218,-0.00042470,-0.00086176,0.00103939,0.0000956
 3,0.00001985,-0.00017512,0.00004905,-0.00027832,-0.00027169,-0.0003020
 3,-0.00446731,-0.00132252,-0.00509155,0.00000550,0.00003598,0.00000240
 ,-0.00006107,-0.00013516,0.00011560,0.00001681,0.00000021,0.00005582,-
 0.00010586,0.00003808,-0.00003684,-0.17560430,0.04943845,-0.22349015,0
 .18495685,0.00737651,-0.00697748,-0.00381738,-0.00634453,0.00086052,0.
 00211914,-0.00169987,-0.00207166,-0.00009555,0.00051827,0.00026621,0.0
 0030748,0.00003998,0.00106506,0.00000355,-0.00005129,-0.00025486,0.000
 02560,-0.00039233,-0.00002614,-0.00010815,0.00187726,0.00973272,0.0173
 5627,-0.00007461,0.00005057,0.00000793,-0.00005228,-0.00013835,0.00000
 914,0.00001939,0.00000376,-0.00005417,-0.00010061,0.00002801,-0.000021
 23,0.04785291,-0.04407888,0.07387215,-0.05528841,0.03954585,0.00333194
 ,-0.00341617,-0.00006777,0.00498473,0.00032034,-0.00015910,-0.00038716
 ,-0.00006570,0.00003544,0.00007042,-0.00000118,-0.00000649,0.00033672,
 -0.00036508,0.00002757,0.00002292,0.00003210,-0.00001278,0.00017864,0.
 00010243,0.00000733,-0.00104291,0.00338058,0.00040251,0.00000881,0.000
 00369,0.00000713,-0.00001656,0.00005636,0.00001525,0.00000638,-0.00000
 540,0.00000862,0.00007086,-0.00000055,0.00000523,-0.24214768,0.0823344
 3,-0.34369302,0.23881868,-0.08028278,0.34234804,-0.04711203,0.00359050
 ,-0.00103864,-0.01591239,0.01487812,-0.00117764,0.03134391,0.04129921,
 0.00014176,-0.00892366,-0.00668269,0.00018474,-0.00876057,-0.02131677,
 0.00004882,0.00261455,0.00829207,-0.00000398,0.01132485,-0.00397083,0.
 00005960,0.03954772,-0.05038051,0.00244229,0.00182007,-0.00111781,-0.0
 0000352,0.00089858,0.00160187,-0.00008351,0.00010542,-0.00014333,-0.00
 003926,0.00200293,-0.00052061,-0.00000717,0.00860154,0.03072180,0.0050
 8458,0.00326771,0.00631960,-0.00423580,-0.02081865,-0.00591421,0.00191
 346,-0.00007100,0.01925586,-0.06345330,0.00063647,0.03287035,-0.004219
 74,-0.00002481,-0.00112312,-0.00454565,0.00000728,-0.01183781,0.007029
 59,0.00000276,-0.00020860,-0.00012332,0.00000763,-0.00180480,-0.002071
 14,-0.00004837,-0.00720115,-0.02128873,0.00107418,0.00111842,-0.000367
 56,-0.00000075,-0.00009955,0.00033980,0.00002960,0.00000012,0.00000176
 ,0.00000171,-0.00047630,0.00023317,-0.00000110,-0.00969708,-0.03170831
 ,0.00812636,0.00768852,0.00199468,-0.00209307,-0.02257064,0.11626530,-
 0.00141260,0.00052950,-0.00322302,0.00147019,0.00049255,-0.03843140,0.
 00053880,0.00089073,0.00510492,-0.00016881,-0.00010638,0.00336926,-0.0
 0005156,-0.00030648,-0.00321190,0.00005277,0.00012630,-0.00058379,0.00
 012489,-0.00007406,0.00431007,0.00138465,-0.00195325,0.00425685,0.0000
 1518,-0.00003047,-0.00020453,-0.00003156,0.00004633,-0.00220912,-0.000
 00661,-0.00000408,-0.00055328,0.00004320,-0.00000904,0.00090416,0.0137
 3112,0.01736726,-0.03779982,-0.01431739,-0.00932200,0.00108204,-0.0013
 7229,-0.00764690,0.06718957\\-0.00001310,0.00000469,0.00000988,0.00000
 582,0.00001579,0.00001450,0.00000973,0.00000486,-0.00000195,-0.0000030
 0,-0.00000300,-0.00000097,0.00000187,-0.00000412,0.00000022,0.00000073
 ,0.00000277,0.00000072,-0.00000207,0.00000067,-0.00000136,0.00001286,0
 .00001302,-0.00001761,0.00000243,0.00000078,0.00000095,-0.00000144,0.0
 0000051,0.00000054,0.00000020,0.00000220,0.00000087,-0.00000131,0.0000
 0177,-0.00000018,-0.00000584,-0.00000903,0.00002825,0.00001354,-0.0000
 0036,-0.00000044,-0.00002042,-0.00003055,-0.00003343\\\@


 CHEMISTRY BEGAN BY SAYING IT WOULD CHANGE THE BASER
 METALS INTO GOLD.  BY NOT DOING THAT IT HAS DONE MUCH
 GREATER THINGS.  --  RALPH WALDO EMERSON
 Job cpu time:       0 days  1 hours 17 minutes 52.0 seconds.
 File lengths (MBytes):  RWF=    137 Int=      0 D2E=      0 Chk=      9 Scr=      1
 Normal termination of Gaussian 09 at Sat Aug 28 15:17:10 2021.
