 Entering Gaussian System, Link 0=g09
 Initial command:
 /gpfs/share/home/1801110325/software/g09e01/l1.exe "./Gau-329.inp" -scrdir="./"
 Entering Link 1 = /gpfs/share/home/1801110325/software/g09e01/l1.exe PID=       330.
  
 Copyright (c) 1988,1990,1992,1993,1995,1998,2003,2009,2015,
            Gaussian, Inc.  All Rights Reserved.
  
 This is part of the Gaussian(R) 09 program.  It is based on
 the Gaussian(R) 03 system (copyright 2003, Gaussian, Inc.),
 the Gaussian(R) 98 system (copyright 1998, Gaussian, Inc.),
 the Gaussian(R) 94 system (copyright 1995, Gaussian, Inc.),
 the Gaussian 92(TM) system (copyright 1992, Gaussian, Inc.),
 the Gaussian 90(TM) system (copyright 1990, Gaussian, Inc.),
 the Gaussian 88(TM) system (copyright 1988, Gaussian, Inc.),
 the Gaussian 86(TM) system (copyright 1986, Carnegie Mellon
 University), and the Gaussian 82(TM) system (copyright 1983,
 Carnegie Mellon University). Gaussian is a federally registered
 trademark of Gaussian, Inc.
  
 This software contains proprietary and confidential information,
 including trade secrets, belonging to Gaussian, Inc.
  
 This software is provided under written license and may be
 used, copied, transmitted, or stored only in accord with that
 written license.
  
 The following legend is applicable only to US Government
 contracts under FAR:
  
                    RESTRICTED RIGHTS LEGEND
  
 Use, reproduction and disclosure by the US Government is
 subject to restrictions as set forth in subparagraphs (a)
 and (c) of the Commercial Computer Software - Restricted
 Rights clause in FAR 52.227-19.
  
 Gaussian, Inc.
 340 Quinnipiac St., Bldg. 40, Wallingford CT 06492
  
  
 ---------------------------------------------------------------
 Warning -- This program may not be used in any manner that
 competes with the business of Gaussian, Inc. or will provide
 assistance to any competitor of Gaussian, Inc.  The licensee
 of this program is prohibited from giving any competitor of
 Gaussian, Inc. access to this program.  By using this program,
 the user acknowledges that Gaussian, Inc. is engaged in the
 business of creating and licensing software in the field of
 computational chemistry and represents and warrants to the
 licensee that it is not a competitor of Gaussian, Inc. and that
 it will not use this program in any manner prohibited above.
 ---------------------------------------------------------------
  

 Cite this work as:
 Gaussian 09, Revision E.01,
 M. J. Frisch, G. W. Trucks, H. B. Schlegel, G. E. Scuseria, 
 M. A. Robb, J. R. Cheeseman, G. Scalmani, V. Barone, B. Mennucci, 
 G. A. Petersson, H. Nakatsuji, M. Caricato, X. Li, H. P. Hratchian, 
 A. F. Izmaylov, J. Bloino, G. Zheng, J. L. Sonnenberg, M. Hada, 
 M. Ehara, K. Toyota, R. Fukuda, J. Hasegawa, M. Ishida, T. Nakajima, 
 Y. Honda, O. Kitao, H. Nakai, T. Vreven, J. A. Montgomery, Jr., 
 J. E. Peralta, F. Ogliaro, M. Bearpark, J. J. Heyd, E. Brothers, 
 K. N. Kudin, V. N. Staroverov, T. Keith, R. Kobayashi, J. Normand, 
 K. Raghavachari, A. Rendell, J. C. Burant, S. S. Iyengar, J. Tomasi, 
 M. Cossi, N. Rega, J. M. Millam, M. Klene, J. E. Knox, J. B. Cross, 
 V. Bakken, C. Adamo, J. Jaramillo, R. Gomperts, R. E. Stratmann, 
 O. Yazyev, A. J. Austin, R. Cammi, C. Pomelli, J. W. Ochterski, 
 R. L. Martin, K. Morokuma, V. G. Zakrzewski, G. A. Voth, 
 P. Salvador, J. J. Dannenberg, S. Dapprich, A. D. Daniels, 
 O. Farkas, J. B. Foresman, J. V. Ortiz, J. Cioslowski, 
 and D. J. Fox, Gaussian, Inc., Wallingford CT, 2013.
 
 ******************************************
 Gaussian 09:  EM64L-G09RevE.01 30-Nov-2015
                 3-Sep-2021 
 ******************************************
 %nprocshared=6
 Will use up to    6 processors via shared memory.
 %mem=10GB
 %oldchk=H2O_CCSD_PC2_OPT_FREQ.chk
 %chk=H2O_G3.chk
 Copying data from "H2O_CCSD_PC2_OPT_FREQ.chk" to current chk file "H2O_G3.chk".
 ---------------------
 #p G3 geom=checkpoint
 ---------------------
 1/18=20,19=15,29=2,38=1/1,3;
 2/9=110,12=2,40=1/2;
 3/5=33,7=1,11=9,14=-4,16=1,25=1,30=1,71=1/1,2,3;
 4//1;
 5/5=2,38=5/2;
 6/7=2,8=2,9=2,10=2,28=1/1;
 7//1,2,3,16;
 1/18=20,19=15/3(2);
 2/9=110/2;
 99//99;
 2/9=110/2;
 3/5=33,7=1,11=9,14=-2,16=1,25=1,30=1,71=1/1,2,3;
 4/5=5,16=3,69=1/1;
 5/5=2,38=5/2;
 7//1,2,3,16;
 1/18=20,19=15/3(-5);
 2/9=110/2;
 6/7=2,8=2,9=2,10=2,19=2,28=1/1;
 99/9=1/99;
 Leave Link    1 at Fri Sep  3 00:08:54 2021, MaxMem=  1342177280 cpu:         3.1
 (Enter /gpfs/share/home/1801110325/software/g09e01/l101.exe)
 ------
 H2O_G3
 ------
 Structure from the checkpoint file:  "H2O_G3.chk"
 Charge =  0 Multiplicity = 1
 Redundant internal coordinates found in file.
 O,0,0.0276828598,0.7792501992,0.
 H,0,0.9821338213,0.8201208175,0.
 H,0,-0.2523930631,1.6925981738,0.
 Recover connectivity data from disk.
 NAtoms=      3 NQM=        3 NQMF=       0 NMMI=      0 NMMIF=      0
                NMic=       0 NMicF=      0.
                    Isotopes and Nuclear Properties:
 (Nuclear quadrupole moments (NQMom) in fm**2, nuclear magnetic moments (NMagM)
  in nuclear magnetons)

  Atom         1           2           3
 IAtWgt=          16           1           1
 AtmWgt=  15.9949146   1.0078250   1.0078250
 NucSpn=           0           1           1
 AtZEff=  -5.6000000  -1.0000000  -1.0000000
 NQMom=    0.0000000   0.0000000   0.0000000
 NMagM=    0.0000000   2.7928460   2.7928460
 AtZNuc=   8.0000000   1.0000000   1.0000000
 Leave Link  101 at Fri Sep  3 00:08:54 2021, MaxMem=  1342177280 cpu:         1.8
 (Enter /gpfs/share/home/1801110325/software/g09e01/l103.exe)

 GradGradGradGradGradGradGradGradGradGradGradGradGradGradGradGradGradGrad
 Berny optimization.
 Initialization pass.
                           ----------------------------
                           !    Initial Parameters    !
                           ! (Angstroms and Degrees)  !
 --------------------------                            --------------------------
 ! Name  Definition              Value          Derivative Info.                !
 --------------------------------------------------------------------------------
 ! R1    R(1,2)                  0.9553         estimate D2E/DX2                !
 ! R2    R(1,3)                  0.9553         estimate D2E/DX2                !
 ! A1    A(2,1,3)              104.5961         estimate D2E/DX2                !
 --------------------------------------------------------------------------------
 Trust Radius=3.00D-01 FncErr=1.00D-07 GrdErr=1.00D-07
 Number of steps in this run=     20 maximum allowed number of steps=    100.
 GradGradGradGradGradGradGradGradGradGradGradGradGradGradGradGradGradGrad

 Leave Link  103 at Fri Sep  3 00:08:54 2021, MaxMem=  1342177280 cpu:         0.7
 (Enter /gpfs/share/home/1801110325/software/g09e01/l202.exe)
                          Input orientation:                          
 ---------------------------------------------------------------------
 Center     Atomic      Atomic             Coordinates (Angstroms)
 Number     Number       Type             X           Y           Z
 ---------------------------------------------------------------------
      1          8           0        0.027683    0.779250    0.000000
      2          1           0        0.982134    0.820121   -0.000000
      3          1           0       -0.252393    1.692598    0.000000
 ---------------------------------------------------------------------
                    Distance matrix (angstroms):
                    1          2          3
     1  O    0.000000
     2  H    0.955326   0.000000
     3  H    0.955326   1.511712   0.000000
 Stoichiometry    H2O
 Framework group  C2V[C2(O),SGV(H2)]
 Deg. of freedom     2
 Full point group                 C2V     NOp   4
 RotChk:  IX=3 Diff= 7.07D-16
 Largest Abelian subgroup         C2V     NOp   4
 Largest concise Abelian subgroup C2      NOp   2
                         Standard orientation:                         
 ---------------------------------------------------------------------
 Center     Atomic      Atomic             Coordinates (Angstroms)
 Number     Number       Type             X           Y           Z
 ---------------------------------------------------------------------
      1          8           0       -0.000000   -0.000000    0.116847
      2          1           0        0.000000   -0.755856   -0.467387
      3          1           0        0.000000    0.755856   -0.467387
 ---------------------------------------------------------------------
 Rotational constants (GHZ):    827.1316683    438.8578695    286.7268891
 Leave Link  202 at Fri Sep  3 00:08:54 2021, MaxMem=  1342177280 cpu:         0.9
 (Enter /gpfs/share/home/1801110325/software/g09e01/l301.exe)
 Standard basis: GTBas1 (6D, 7F)
 Ernie: Thresh=  0.10000D-02 Tol=  0.10000D-05 Strict=F.
 There are    10 symmetry adapted cartesian basis functions of A1  symmetry.
 There are     1 symmetry adapted cartesian basis functions of A2  symmetry.
 There are     3 symmetry adapted cartesian basis functions of B1  symmetry.
 There are     5 symmetry adapted cartesian basis functions of B2  symmetry.
 There are    10 symmetry adapted basis functions of A1  symmetry.
 There are     1 symmetry adapted basis functions of A2  symmetry.
 There are     3 symmetry adapted basis functions of B1  symmetry.
 There are     5 symmetry adapted basis functions of B2  symmetry.
    19 basis functions,    36 primitive gaussians,    19 cartesian basis functions
     5 alpha electrons        5 beta electrons
       nuclear repulsion energy         9.2128258467 Hartrees.
 IExCor=    0 DFT=F Ex=HF Corr=None ExCW=0 ScaHFX=  1.000000
 ScaDFX=  1.000000  1.000000  1.000000  1.000000 ScalE2=  1.000000  1.000000
 IRadAn=      0 IRanWt=     -1 IRanGd=            0 ICorTp=0 IEmpDi=  4
 NAtoms=    3 NActive=    3 NUniq=    2 SFac= 2.25D+00 NAtFMM=   60 NAOKFM=F Big=F
 Integral buffers will be    131072 words long.
 Raffenetti 1 integral format.
 Two-electron integral symmetry is turned on.
 Leave Link  301 at Fri Sep  3 00:08:55 2021, MaxMem=  1342177280 cpu:         2.7
 (Enter /gpfs/share/home/1801110325/software/g09e01/l302.exe)
 NPDir=0 NMtPBC=     1 NCelOv=     1 NCel=       1 NClECP=     1 NCelD=      1
         NCelK=      1 NCelE2=     1 NClLst=     1 CellRange=     0.0.
 One-electron integrals computed using PRISM.
 One-electron integral symmetry used in STVInt
 NBasis=    19 RedAO= T EigKep=  4.14D-02  NBF=    10     1     3     5
 NBsUse=    19 1.00D-06 EigRej= -1.00D+00 NBFU=    10     1     3     5
 Leave Link  302 at Fri Sep  3 00:08:55 2021, MaxMem=  1342177280 cpu:         1.0
 (Enter /gpfs/share/home/1801110325/software/g09e01/l303.exe)
 DipDrv:  MaxL=1.
 Leave Link  303 at Fri Sep  3 00:08:55 2021, MaxMem=  1342177280 cpu:         0.4
 (Enter /gpfs/share/home/1801110325/software/g09e01/l401.exe)
 ExpMin= 1.61D-01 ExpMax= 5.48D+03 ExpMxC= 8.25D+02 IAcc=1 IRadAn=         1 AccDes= 0.00D+00
 Harris functional with IExCor=  205 and IRadAn=       1 diagonalized for initial guess.
 HarFok:  IExCor=  205 AccDes= 0.00D+00 IRadAn=         1 IDoV= 1 UseB2=F ITyADJ=14
 ICtDFT=  3500011 ScaDFX=  1.000000  1.000000  1.000000  1.000000
 FoFCou: FMM=F IPFlag=           0 FMFlag=      100000 FMFlg1=           0
         NFxFlg=           0 DoJE=T BraDBF=F KetDBF=T FulRan=T
         wScrn=  0.000000 ICntrl=     500 IOpCl=  0 I1Cent=   200000004 NGrid=           0
         NMat0=    1 NMatS0=      1 NMatT0=    0 NMatD0=    1 NMtDS0=    0 NMtDT0=    0
 Petite list used in FoFCou.
 Harris En= -76.1024591132698    
 JPrj=0 DoOrth=F DoCkMO=F.
 Initial guess orbital symmetries:
       Occupied  (A1) (A1) (B2) (A1) (B1)
       Virtual   (A1) (B2) (B2) (A1) (B1) (A1) (B2) (A1) (A1) (A2)
                 (B1) (A1) (B2) (A1)
 The electronic state of the initial guess is 1-A1.
 Leave Link  401 at Fri Sep  3 00:08:56 2021, MaxMem=  1342177280 cpu:         1.4
 (Enter /gpfs/share/home/1801110325/software/g09e01/l502.exe)
 Closed shell SCF:
 Using DIIS extrapolation, IDIIS=  1040.
 Integral symmetry usage will be decided dynamically.
 Keep R1 ints in memory in symmetry-blocked form, NReq=865582.
 IVT=       20213 IEndB=       20213 NGot=  1342177280 MDV=  1342150698
 LenX=  1342150698 LenY=  1342149816
 Requested convergence on RMS density matrix=1.00D-08 within 128 cycles.
 Requested convergence on MAX density matrix=1.00D-06.
 Requested convergence on             energy=1.00D-06.
 No special actions if energy rises.
 FoFCou: FMM=F IPFlag=           0 FMFlag=           0 FMFlg1=           0
         NFxFlg=           0 DoJE=F BraDBF=F KetDBF=F FulRan=T
         wScrn=  0.000000 ICntrl=     600 IOpCl=  0 I1Cent=           0 NGrid=           0
         NMat0=    1 NMatS0=    190 NMatT0=    0 NMatD0=    1 NMtDS0=    0 NMtDT0=    0
 Petite list used in FoFCou.

 Cycle   1  Pass 1  IDiag  1:
 E= -75.9268595826680    
 DIIS: error= 8.33D-02 at cycle   1 NSaved=   1.
 NSaved= 1 IEnMin= 1 EnMin= -75.9268595826680     IErMin= 1 ErrMin= 8.33D-02
 ErrMax= 8.33D-02  0.00D+00 EMaxC= 1.00D-01 BMatC= 1.34D-01 BMatP= 1.34D-01
 IDIUse=3 WtCom= 1.67D-01 WtEn= 8.33D-01
 Coeff-Com:  0.100D+01
 Coeff-En:   0.100D+01
 Coeff:      0.100D+01
 Gap=     0.587 Goal=   None    Shift=    0.000
 GapD=    0.587 DampG=2.000 DampE=0.500 DampFc=1.0000 IDamp=-1.
 RMSDP=1.55D-02 MaxDP=1.21D-01              OVMax= 1.26D-01

 Cycle   2  Pass 1  IDiag  1:
 E= -75.9838153804732     Delta-E=       -0.056955797805 Rises=F Damp=F
 DIIS: error= 5.13D-02 at cycle   2 NSaved=   2.
 NSaved= 2 IEnMin= 2 EnMin= -75.9838153804732     IErMin= 2 ErrMin= 5.13D-02
 ErrMax= 5.13D-02  0.00D+00 EMaxC= 1.00D-01 BMatC= 4.09D-02 BMatP= 1.34D-01
 IDIUse=3 WtCom= 4.87D-01 WtEn= 5.13D-01
 Coeff-Com:  0.337D+00 0.663D+00
 Coeff-En:   0.920D-01 0.908D+00
 Coeff:      0.211D+00 0.789D+00
 Gap=     0.733 Goal=   None    Shift=    0.000
 RMSDP=7.63D-03 MaxDP=5.90D-02 DE=-5.70D-02 OVMax= 4.92D-02

 Cycle   3  Pass 1  IDiag  1:
 E= -76.0088038219164     Delta-E=       -0.024988441443 Rises=F Damp=F
 DIIS: error= 1.30D-02 at cycle   3 NSaved=   3.
 NSaved= 3 IEnMin= 3 EnMin= -76.0088038219164     IErMin= 3 ErrMin= 1.30D-02
 ErrMax= 1.30D-02  0.00D+00 EMaxC= 1.00D-01 BMatC= 2.47D-03 BMatP= 4.09D-02
 IDIUse=3 WtCom= 8.70D-01 WtEn= 1.30D-01
 Coeff-Com: -0.260D-01 0.170D+00 0.856D+00
 Coeff-En:   0.000D+00 0.000D+00 0.100D+01
 Coeff:     -0.226D-01 0.148D+00 0.875D+00
 Gap=     0.705 Goal=   None    Shift=    0.000
 RMSDP=1.55D-03 MaxDP=1.25D-02 DE=-2.50D-02 OVMax= 1.34D-02

 Cycle   4  Pass 1  IDiag  1:
 E= -76.0105759357816     Delta-E=       -0.001772113865 Rises=F Damp=F
 DIIS: error= 1.64D-03 at cycle   4 NSaved=   4.
 NSaved= 4 IEnMin= 4 EnMin= -76.0105759357816     IErMin= 4 ErrMin= 1.64D-03
 ErrMax= 1.64D-03  0.00D+00 EMaxC= 1.00D-01 BMatC= 2.68D-05 BMatP= 2.47D-03
 IDIUse=3 WtCom= 9.84D-01 WtEn= 1.64D-02
 Coeff-Com:  0.606D-02-0.789D-01-0.237D+00 0.131D+01
 Coeff-En:   0.000D+00 0.000D+00 0.000D+00 0.100D+01
 Coeff:      0.596D-02-0.776D-01-0.233D+00 0.130D+01
 Gap=     0.709 Goal=   None    Shift=    0.000
 RMSDP=2.24D-04 MaxDP=2.16D-03 DE=-1.77D-03 OVMax= 1.75D-03

 Cycle   5  Pass 1  IDiag  1:
 E= -76.0105995357065     Delta-E=       -0.000023599925 Rises=F Damp=F
 DIIS: error= 1.48D-04 at cycle   5 NSaved=   5.
 NSaved= 5 IEnMin= 5 EnMin= -76.0105995357065     IErMin= 5 ErrMin= 1.48D-04
 ErrMax= 1.48D-04  0.00D+00 EMaxC= 1.00D-01 BMatC= 1.64D-07 BMatP= 2.68D-05
 IDIUse=3 WtCom= 9.99D-01 WtEn= 1.48D-03
 Coeff-Com: -0.116D-03 0.770D-02 0.142D-01-0.224D+00 0.120D+01
 Coeff-En:   0.000D+00 0.000D+00 0.000D+00 0.000D+00 0.100D+01
 Coeff:     -0.116D-03 0.769D-02 0.142D-01-0.224D+00 0.120D+01
 Gap=     0.709 Goal=   None    Shift=    0.000
 RMSDP=4.39D-05 MaxDP=2.86D-04 DE=-2.36D-05 OVMax= 3.85D-04

 Cycle   6  Pass 1  IDiag  1:
 E= -76.0105999452845     Delta-E=       -0.000000409578 Rises=F Damp=F
 DIIS: error= 2.57D-05 at cycle   6 NSaved=   6.
 NSaved= 6 IEnMin= 6 EnMin= -76.0105999452845     IErMin= 6 ErrMin= 2.57D-05
 ErrMax= 2.57D-05  0.00D+00 EMaxC= 1.00D-01 BMatC= 6.57D-09 BMatP= 1.64D-07
 IDIUse=1 WtCom= 1.00D+00 WtEn= 0.00D+00
 Coeff-Com: -0.220D-03 0.166D-02 0.694D-02-0.890D-02-0.270D+00 0.127D+01
 Coeff:     -0.220D-03 0.166D-02 0.694D-02-0.890D-02-0.270D+00 0.127D+01
 Gap=     0.709 Goal=   None    Shift=    0.000
 RMSDP=1.15D-05 MaxDP=6.03D-05 DE=-4.10D-07 OVMax= 9.78D-05

 Cycle   7  Pass 1  IDiag  1:
 E= -76.0105999630091     Delta-E=       -0.000000017725 Rises=F Damp=F
 DIIS: error= 5.28D-06 at cycle   7 NSaved=   7.
 NSaved= 7 IEnMin= 7 EnMin= -76.0105999630091     IErMin= 7 ErrMin= 5.28D-06
 ErrMax= 5.28D-06  0.00D+00 EMaxC= 1.00D-01 BMatC= 2.31D-10 BMatP= 6.57D-09
 IDIUse=1 WtCom= 1.00D+00 WtEn= 0.00D+00
 Coeff-Com:  0.909D-04-0.893D-03-0.326D-02 0.100D-01 0.835D-01-0.524D+00
 Coeff-Com:  0.143D+01
 Coeff:      0.909D-04-0.893D-03-0.326D-02 0.100D-01 0.835D-01-0.524D+00
 Coeff:      0.143D+01
 Gap=     0.709 Goal=   None    Shift=    0.000
 RMSDP=1.57D-06 MaxDP=1.30D-05 DE=-1.77D-08 OVMax= 1.46D-05

 Cycle   8  Pass 1  IDiag  1:
 E= -76.0105999635946     Delta-E=       -0.000000000585 Rises=F Damp=F
 DIIS: error= 8.89D-07 at cycle   8 NSaved=   8.
 NSaved= 8 IEnMin= 8 EnMin= -76.0105999635946     IErMin= 8 ErrMin= 8.89D-07
 ErrMax= 8.89D-07  0.00D+00 EMaxC= 1.00D-01 BMatC= 6.23D-12 BMatP= 2.31D-10
 IDIUse=1 WtCom= 1.00D+00 WtEn= 0.00D+00
 Coeff-Com: -0.113D-04 0.146D-03 0.475D-03-0.243D-02-0.481D-02 0.596D-01
 Coeff-Com: -0.314D+00 0.126D+01
 Coeff:     -0.113D-04 0.146D-03 0.475D-03-0.243D-02-0.481D-02 0.596D-01
 Coeff:     -0.314D+00 0.126D+01
 Gap=     0.709 Goal=   None    Shift=    0.000
 RMSDP=2.69D-07 MaxDP=1.56D-06 DE=-5.85D-10 OVMax= 2.41D-06

 Cycle   9  Pass 1  IDiag  1:
 E= -76.0105999636102     Delta-E=       -0.000000000016 Rises=F Damp=F
 DIIS: error= 9.25D-08 at cycle   9 NSaved=   9.
 NSaved= 9 IEnMin= 9 EnMin= -76.0105999636102     IErMin= 9 ErrMin= 9.25D-08
 ErrMax= 9.25D-08  0.00D+00 EMaxC= 1.00D-01 BMatC= 1.15D-13 BMatP= 6.23D-12
 IDIUse=1 WtCom= 1.00D+00 WtEn= 0.00D+00
 Coeff-Com:  0.850D-06-0.194D-04-0.537D-04 0.448D-03-0.649D-03-0.483D-02
 Coeff-Com:  0.585D-01-0.379D+00 0.133D+01
 Coeff:      0.850D-06-0.194D-04-0.537D-04 0.448D-03-0.649D-03-0.483D-02
 Coeff:      0.585D-01-0.379D+00 0.133D+01
 Gap=     0.709 Goal=   None    Shift=    0.000
 RMSDP=4.91D-08 MaxDP=2.70D-07 DE=-1.55D-11 OVMax= 4.48D-07

 Cycle  10  Pass 1  IDiag  1:
 E= -76.0105999636105     Delta-E=       -0.000000000000 Rises=F Damp=F
 DIIS: error= 1.14D-08 at cycle  10 NSaved=  10.
 NSaved=10 IEnMin=10 EnMin= -76.0105999636105     IErMin=10 ErrMin= 1.14D-08
 ErrMax= 1.14D-08  0.00D+00 EMaxC= 1.00D-01 BMatC= 1.83D-15 BMatP= 1.15D-13
 IDIUse=1 WtCom= 1.00D+00 WtEn= 0.00D+00
 Coeff-Com: -0.871D-08 0.214D-05 0.489D-05-0.689D-04 0.245D-03 0.116D-03
 Coeff-Com: -0.798D-02 0.592D-01-0.261D+00 0.121D+01
 Coeff:     -0.871D-08 0.214D-05 0.489D-05-0.689D-04 0.245D-03 0.116D-03
 Coeff:     -0.798D-02 0.592D-01-0.261D+00 0.121D+01
 Gap=     0.709 Goal=   None    Shift=    0.000
 RMSDP=3.98D-09 MaxDP=2.09D-08 DE=-3.84D-13 OVMax= 3.79D-08

 SCF Done:  E(RHF) =  -76.0105999636     A.U. after   10 cycles
            NFock= 10  Conv=0.40D-08     -V/T= 2.0024
 KE= 7.582886118555D+01 PE=-1.989157179911D+02 EE= 3.786343099518D+01
 Leave Link  502 at Fri Sep  3 00:08:56 2021, MaxMem=  1342177280 cpu:         1.1
 (Enter /gpfs/share/home/1801110325/software/g09e01/l601.exe)
 Copying SCF densities to generalized density rwf, IOpCl= 0 IROHF=0.

 **********************************************************************

            Population analysis using the SCF density.

 **********************************************************************

 Orbital symmetries:
       Occupied  (A1) (A1) (B2) (A1) (B1)
       Virtual   (A1) (B2) (B2) (A1) (B1) (A1) (B2) (A1) (A1) (A2)
                 (B1) (A1) (B2) (A1)
 The electronic state is 1-A1.
 Alpha  occ. eigenvalues --  -20.55996  -1.34271  -0.70812  -0.57120  -0.49800
 Alpha virt. eigenvalues --    0.21117   0.30468   1.02385   1.13223   1.16781
 Alpha virt. eigenvalues --    1.17332   1.38156   1.43387   2.01989   2.03326
 Alpha virt. eigenvalues --    2.06756   2.62473   2.95072   3.97173
          Condensed to atoms (all electrons):
               1          2          3
     1  O    8.334915   0.265856   0.265856
     2  H    0.265856   0.319559  -0.018729
     3  H    0.265856  -0.018729   0.319559
 Mulliken charges:
               1
     1  O   -0.866628
     2  H    0.433314
     3  H    0.433314
 Sum of Mulliken charges =  -0.00000
 Mulliken charges with hydrogens summed into heavy atoms:
               1
     1  O   -0.000000
 Electronic spatial extent (au):  <R**2>=             18.9176
 Charge=             -0.0000 electrons
 Dipole moment (field-independent basis, Debye):
    X=              0.0000    Y=             -0.0000    Z=             -2.2219  Tot=              2.2219
 Quadrupole moment (field-independent basis, Debye-Ang):
   XX=             -7.2225   YY=             -4.1310   ZZ=             -5.9798
   XY=              0.0000   XZ=             -0.0000   YZ=              0.0000
 Traceless Quadrupole moment (field-independent basis, Debye-Ang):
   XX=             -1.4448   YY=              1.6468   ZZ=             -0.2021
   XY=              0.0000   XZ=             -0.0000   YZ=              0.0000
 Octapole moment (field-independent basis, Debye-Ang**2):
  XXX=             -0.0000  YYY=             -0.0000  ZZZ=             -1.4451  XYY=              0.0000
  XXY=              0.0000  XXZ=             -0.3855  XZZ=              0.0000  YZZ=             -0.0000
  YYZ=             -1.3754  XYZ=             -0.0000
 Hexadecapole moment (field-independent basis, Debye-Ang**3):
 XXXX=             -5.2025 YYYY=             -5.4505 ZZZZ=             -6.0508 XXXY=             -0.0000
 XXXZ=              0.0000 YYYX=              0.0000 YYYZ=              0.0000 ZZZX=              0.0000
 ZZZY=             -0.0000 XXYY=             -2.0359 XXZZ=             -1.9254 YYZZ=             -1.5853
 XXYZ=             -0.0000 YYXZ=             -0.0000 ZZXY=              0.0000
 N-N= 9.212825846743D+00 E-N=-1.989157181013D+02  KE= 7.582886118555D+01
 Symmetry A1   KE= 6.774463397429D+01
 Symmetry A2   KE= 6.004855826188D-35
 Symmetry B1   KE= 4.554252329814D+00
 Symmetry B2   KE= 3.529974881448D+00
 No NMR shielding tensors so no spin-rotation constants.
 Leave Link  601 at Fri Sep  3 00:08:56 2021, MaxMem=  1342177280 cpu:         0.6
 (Enter /gpfs/share/home/1801110325/software/g09e01/l701.exe)
 Compute integral first derivatives.
 ... and contract with generalized density number  0.
 Leave Link  701 at Fri Sep  3 00:08:56 2021, MaxMem=  1342177280 cpu:         1.0
 (Enter /gpfs/share/home/1801110325/software/g09e01/l702.exe)
 L702 exits ... SP integral derivatives will be done elsewhere.
 Leave Link  702 at Fri Sep  3 00:08:56 2021, MaxMem=  1342177280 cpu:         0.1
 (Enter /gpfs/share/home/1801110325/software/g09e01/l703.exe)
 Compute integral first derivatives, UseDBF=F ICtDFT=           0.
 Integral derivatives from FoFJK, PRISM(SPDF).
 Calling FoFJK, ICntrl=      2127 FMM=F ISym2X=1 I1Cent= 0 IOpClX= 0 NMat=1 NMatS=1 NMatT=0.
 FoFJK:  IHMeth= 1 ICntrl=    2127 DoSepK=F KAlg= 0 I1Cent=   0 FoldK=F
 IRaf=         0 NMat=   1 IRICut=       1 DoRegI=T DoRafI=F ISym2E= 1.
 FoFCou: FMM=F IPFlag=           0 FMFlag=      100000 FMFlg1=         800
         NFxFlg=           0 DoJE=F BraDBF=F KetDBF=F FulRan=T
         wScrn=  0.000000 ICntrl=    2127 IOpCl=  0 I1Cent=           0 NGrid=           0
         NMat0=    1 NMatS0=      1 NMatT0=    0 NMatD0=    1 NMtDS0=    0 NMtDT0=    0
 Petite list used in FoFCou.
 Leave Link  703 at Fri Sep  3 00:08:56 2021, MaxMem=  1342177280 cpu:         0.5
 (Enter /gpfs/share/home/1801110325/software/g09e01/l716.exe)
 Dipole        = 7.19357468D-17-6.66133815D-16-8.74147404D-01
 ***** Axes restored to original set *****
 -------------------------------------------------------------------
 Center     Atomic                   Forces (Hartrees/Bohr)
 Number     Number              X              Y              Z
 -------------------------------------------------------------------
      1        8           0.007081576    0.010020198    0.000000000
      2        1          -0.008414792   -0.001565493   -0.000000000
      3        1           0.001333216   -0.008454705   -0.000000000
 -------------------------------------------------------------------
 Cartesian Forces:  Max     0.010020198 RMS     0.005745260
 Leave Link  716 at Fri Sep  3 00:08:56 2021, MaxMem=  1342177280 cpu:         0.1
 (Enter /gpfs/share/home/1801110325/software/g09e01/l103.exe)

 GradGradGradGradGradGradGradGradGradGradGradGradGradGradGradGradGradGrad
 Berny optimization.
 FormGI is forming the generalized inverse of G from B-inverse, IUseBI=4.
 Internal  Forces:  Max     0.008474063 RMS     0.007031937
 Search for a local minimum.
 Step number   1 out of a maximum of   20
 All quantities printed in internal units (Hartrees-Bohrs-Radians)
 RMS Force = .70319D-02 SwitMx=.10000D-02 MixMth= 1
 Mixed Optimization -- RFO/linear search
 Second derivative matrix not updated -- first step.
 The second derivative matrix:
                          R1        R2        A1
           R1           0.56491
           R2           0.00000   0.56491
           A1           0.00000   0.00000   0.16000
 ITU=  0
     Eigenvalues ---    0.16000   0.56491   0.56491
 RFO step:  Lambda=-2.83584862D-04 EMin= 1.60000000D-01
 Linear search not attempted -- first point.
 Iteration  1 RMS(Cart)=  0.00957500 RMS(Int)=  0.00007348
 Iteration  2 RMS(Cart)=  0.00008206 RMS(Int)=  0.00000000
 Iteration  3 RMS(Cart)=  0.00000000 RMS(Int)=  0.00000000
 ITry= 1 IFail=0 DXMaxC= 1.02D-02 DCOld= 1.00D+10 DXMaxT= 3.00D-01 DXLimC= 3.00D+00 Rises=F
 ClnCor:  largest displacement from symmetrization is 1.35D-15 for atom     2.
 Variable       Old X    -DE/DX   Delta X   Delta X   Delta X     New X
                                 (Linear)    (Quad)   (Total)
    R1        1.80530  -0.00847   0.00000  -0.01499  -0.01499   1.79031
    R2        1.80530  -0.00847   0.00000  -0.01499  -0.01499   1.79031
    A1        1.82555   0.00217   0.00000   0.01356   0.01356   1.83911
         Item               Value     Threshold  Converged?
 Maximum Force            0.008474     0.000450     NO 
 RMS     Force            0.007032     0.000300     NO 
 Maximum Displacement     0.010235     0.001800     NO 
 RMS     Displacement     0.009585     0.001200     NO 
 Predicted change in Energy=-1.418823D-04
 Lowest energy point so far.  Saving SCF results.
 GradGradGradGradGradGradGradGradGradGradGradGradGradGradGradGradGradGrad

 Leave Link  103 at Fri Sep  3 00:08:57 2021, MaxMem=  1342177280 cpu:         0.8
 (Enter /gpfs/share/home/1801110325/software/g09e01/l202.exe)
                          Input orientation:                          
 ---------------------------------------------------------------------
 Center     Atomic      Atomic             Coordinates (Angstroms)
 Number     Number       Type             X           Y           Z
 ---------------------------------------------------------------------
      1          8           0        0.031511    0.784666    0.000000
      2          1           0        0.978288    0.818778   -0.000000
      3          1           0       -0.252375    1.688525    0.000000
 ---------------------------------------------------------------------
                    Distance matrix (angstroms):
                    1          2          3
     1  O    0.000000
     2  H    0.947392   0.000000
     3  H    0.947392   1.506980   0.000000
 Stoichiometry    H2O
 Framework group  C2V[C2(O),SGV(H2)]
 Deg. of freedom     2
 Full point group                 C2V     NOp   4
 RotChk:  IX=3 Diff= 2.22D-16
 Largest Abelian subgroup         C2V     NOp   4
 Largest concise Abelian subgroup C2      NOp   2
                         Standard orientation:                         
 ---------------------------------------------------------------------
 Center     Atomic      Atomic             Coordinates (Angstroms)
 Number     Number       Type             X           Y           Z
 ---------------------------------------------------------------------
      1          8           0       -0.000000   -0.000000    0.114857
      2          1           0        0.000000   -0.753490   -0.459428
      3          1           0        0.000000    0.753490   -0.459428
 ---------------------------------------------------------------------
 Rotational constants (GHZ):    856.0359813    441.6183306    291.3265710
 Leave Link  202 at Fri Sep  3 00:08:57 2021, MaxMem=  1342177280 cpu:         0.2
 (Enter /gpfs/share/home/1801110325/software/g09e01/l301.exe)
 Standard basis: GTBas1 (6D, 7F)
 Ernie: Thresh=  0.10000D-02 Tol=  0.10000D-05 Strict=F.
 There are    10 symmetry adapted cartesian basis functions of A1  symmetry.
 There are     1 symmetry adapted cartesian basis functions of A2  symmetry.
 There are     3 symmetry adapted cartesian basis functions of B1  symmetry.
 There are     5 symmetry adapted cartesian basis functions of B2  symmetry.
 There are    10 symmetry adapted basis functions of A1  symmetry.
 There are     1 symmetry adapted basis functions of A2  symmetry.
 There are     3 symmetry adapted basis functions of B1  symmetry.
 There are     5 symmetry adapted basis functions of B2  symmetry.
    19 basis functions,    36 primitive gaussians,    19 cartesian basis functions
     5 alpha electrons        5 beta electrons
       nuclear repulsion energy         9.2881474752 Hartrees.
 IExCor=    0 DFT=F Ex=HF Corr=None ExCW=0 ScaHFX=  1.000000
 ScaDFX=  1.000000  1.000000  1.000000  1.000000 ScalE2=  1.000000  1.000000
 IRadAn=      0 IRanWt=     -1 IRanGd=            0 ICorTp=0 IEmpDi=  4
 NAtoms=    3 NActive=    3 NUniq=    2 SFac= 2.25D+00 NAtFMM=   60 NAOKFM=F Big=F
 Integral buffers will be    131072 words long.
 Raffenetti 1 integral format.
 Two-electron integral symmetry is turned on.
 Leave Link  301 at Fri Sep  3 00:08:57 2021, MaxMem=  1342177280 cpu:         0.2
 (Enter /gpfs/share/home/1801110325/software/g09e01/l302.exe)
 NPDir=0 NMtPBC=     1 NCelOv=     1 NCel=       1 NClECP=     1 NCelD=      1
         NCelK=      1 NCelE2=     1 NClLst=     1 CellRange=     0.0.
 One-electron integrals computed using PRISM.
 One-electron integral symmetry used in STVInt
 NBasis=    19 RedAO= T EigKep=  4.08D-02  NBF=    10     1     3     5
 NBsUse=    19 1.00D-06 EigRej= -1.00D+00 NBFU=    10     1     3     5
 Leave Link  302 at Fri Sep  3 00:08:57 2021, MaxMem=  1342177280 cpu:         0.6
 (Enter /gpfs/share/home/1801110325/software/g09e01/l303.exe)
 DipDrv:  MaxL=1.
 Leave Link  303 at Fri Sep  3 00:08:57 2021, MaxMem=  1342177280 cpu:         0.2
 (Enter /gpfs/share/home/1801110325/software/g09e01/l401.exe)
 Initial guess from the checkpoint file:  "H2O_G3.chk"
 B after Tr=    -0.000000    0.000000   -0.000000
         Rot=    1.000000    0.000000    0.000000   -0.000000 Ang=   0.00 deg.
 Guess basis will be translated and rotated to current coordinates.
 JPrj=2 DoOrth=T DoCkMO=T.
 Initial guess orbital symmetries:
       Occupied  (A1) (A1) (B2) (A1) (B1)
       Virtual   (A1) (A1) (A1) (A1) (A1) (A1) (A1) (A2) (B1) (B1)
                 (B2) (B2) (B2) (B2)
 The electronic state of the initial guess is 1-A1.
 Leave Link  401 at Fri Sep  3 00:08:57 2021, MaxMem=  1342177280 cpu:         0.3
 (Enter /gpfs/share/home/1801110325/software/g09e01/l502.exe)
 Closed shell SCF:
 Using DIIS extrapolation, IDIIS=  1040.
 Integral symmetry usage will be decided dynamically.
 Keep R1 ints in memory in symmetry-blocked form, NReq=865582.
 IVT=       20213 IEndB=       20213 NGot=  1342177280 MDV=  1342150698
 LenX=  1342150698 LenY=  1342149816
 Requested convergence on RMS density matrix=1.00D-08 within 128 cycles.
 Requested convergence on MAX density matrix=1.00D-06.
 Requested convergence on             energy=1.00D-06.
 No special actions if energy rises.
 FoFCou: FMM=F IPFlag=           0 FMFlag=           0 FMFlg1=           0
         NFxFlg=           0 DoJE=F BraDBF=F KetDBF=F FulRan=T
         wScrn=  0.000000 ICntrl=     600 IOpCl=  0 I1Cent=           0 NGrid=           0
         NMat0=    1 NMatS0=    190 NMatT0=    0 NMatD0=    1 NMtDS0=    0 NMtDT0=    0
 Petite list used in FoFCou.

 Cycle   1  Pass 1  IDiag  1:
 E= -76.0106887612869    
 DIIS: error= 1.86D-03 at cycle   1 NSaved=   1.
 NSaved= 1 IEnMin= 1 EnMin= -76.0106887612869     IErMin= 1 ErrMin= 1.86D-03
 ErrMax= 1.86D-03  0.00D+00 EMaxC= 1.00D-01 BMatC= 4.63D-05 BMatP= 4.63D-05
 IDIUse=3 WtCom= 9.81D-01 WtEn= 1.86D-02
 Coeff-Com:  0.100D+01
 Coeff-En:   0.100D+01
 Coeff:      0.100D+01
 Gap=     2.204 Goal=   None    Shift=    0.000
 GapD=    2.204 DampG=2.000 DampE=1.000 DampFc=2.0000 IDamp=-1.
 RMSDP=3.80D-04 MaxDP=2.80D-03              OVMax= 2.62D-03

 Cycle   2  Pass 1  IDiag  1:
 E= -76.0107376314803     Delta-E=       -0.000048870193 Rises=F Damp=F
 DIIS: error= 8.74D-04 at cycle   2 NSaved=   2.
 NSaved= 2 IEnMin= 2 EnMin= -76.0107376314803     IErMin= 2 ErrMin= 8.74D-04
 ErrMax= 8.74D-04  0.00D+00 EMaxC= 1.00D-01 BMatC= 9.54D-06 BMatP= 4.63D-05
 IDIUse=3 WtCom= 9.91D-01 WtEn= 8.74D-03
 Coeff-Com:  0.204D+00 0.796D+00
 Coeff-En:   0.000D+00 0.100D+01
 Coeff:      0.203D+00 0.797D+00
 Gap=     0.711 Goal=   None    Shift=    0.000
 RMSDP=1.15D-04 MaxDP=1.03D-03 DE=-4.89D-05 OVMax= 8.37D-04

 Cycle   3  Pass 1  IDiag  1:
 E= -76.0107447470628     Delta-E=       -0.000007115583 Rises=F Damp=F
 DIIS: error= 2.62D-04 at cycle   3 NSaved=   3.
 NSaved= 3 IEnMin= 3 EnMin= -76.0107447470628     IErMin= 3 ErrMin= 2.62D-04
 ErrMax= 2.62D-04  0.00D+00 EMaxC= 1.00D-01 BMatC= 7.57D-07 BMatP= 9.54D-06
 IDIUse=3 WtCom= 9.97D-01 WtEn= 2.62D-03
 Coeff-Com: -0.107D+00 0.602D-01 0.105D+01
 Coeff-En:   0.000D+00 0.000D+00 0.100D+01
 Coeff:     -0.107D+00 0.600D-01 0.105D+01
 Gap=     0.711 Goal=   None    Shift=    0.000
 RMSDP=5.99D-05 MaxDP=3.05D-04 DE=-7.12D-06 OVMax= 6.23D-04

 Cycle   4  Pass 1  IDiag  1:
 E= -76.0107459788683     Delta-E=       -0.000001231806 Rises=F Damp=F
 DIIS: error= 5.23D-05 at cycle   4 NSaved=   4.
 NSaved= 4 IEnMin= 4 EnMin= -76.0107459788683     IErMin= 4 ErrMin= 5.23D-05
 ErrMax= 5.23D-05  0.00D+00 EMaxC= 1.00D-01 BMatC= 2.83D-08 BMatP= 7.57D-07
 IDIUse=1 WtCom= 1.00D+00 WtEn= 0.00D+00
 Coeff-Com:  0.224D-01-0.521D-01-0.250D+00 0.128D+01
 Coeff:      0.224D-01-0.521D-01-0.250D+00 0.128D+01
 Gap=     0.711 Goal=   None    Shift=    0.000
 RMSDP=1.78D-05 MaxDP=9.59D-05 DE=-1.23D-06 OVMax= 1.85D-04

 Cycle   5  Pass 1  IDiag  1:
 E= -76.0107460499766     Delta-E=       -0.000000071108 Rises=F Damp=F
 DIIS: error= 9.85D-06 at cycle   5 NSaved=   5.
 NSaved= 5 IEnMin= 5 EnMin= -76.0107460499766     IErMin= 5 ErrMin= 9.85D-06
 ErrMax= 9.85D-06  0.00D+00 EMaxC= 1.00D-01 BMatC= 1.12D-09 BMatP= 2.83D-08
 IDIUse=1 WtCom= 1.00D+00 WtEn= 0.00D+00
 Coeff-Com:  0.219D-02 0.121D-02-0.156D-01-0.176D+00 0.119D+01
 Coeff:      0.219D-02 0.121D-02-0.156D-01-0.176D+00 0.119D+01
 Gap=     0.711 Goal=   None    Shift=    0.000
 RMSDP=4.42D-06 MaxDP=2.31D-05 DE=-7.11D-08 OVMax= 4.34D-05

 Cycle   6  Pass 1  IDiag  1:
 E= -76.0107460531545     Delta-E=       -0.000000003178 Rises=F Damp=F
 DIIS: error= 2.26D-06 at cycle   6 NSaved=   6.
 NSaved= 6 IEnMin= 6 EnMin= -76.0107460531545     IErMin= 6 ErrMin= 2.26D-06
 ErrMax= 2.26D-06  0.00D+00 EMaxC= 1.00D-01 BMatC= 5.24D-11 BMatP= 1.12D-09
 IDIUse=1 WtCom= 1.00D+00 WtEn= 0.00D+00
 Coeff-Com: -0.164D-02 0.138D-02 0.154D-01 0.199D-01-0.446D+00 0.141D+01
 Coeff:     -0.164D-02 0.138D-02 0.154D-01 0.199D-01-0.446D+00 0.141D+01
 Gap=     0.711 Goal=   None    Shift=    0.000
 RMSDP=8.94D-07 MaxDP=6.14D-06 DE=-3.18D-09 OVMax= 7.39D-06

 Cycle   7  Pass 1  IDiag  1:
 E= -76.0107460532836     Delta-E=       -0.000000000129 Rises=F Damp=F
 DIIS: error= 2.40D-07 at cycle   7 NSaved=   7.
 NSaved= 7 IEnMin= 7 EnMin= -76.0107460532836     IErMin= 7 ErrMin= 2.40D-07
 ErrMax= 2.40D-07  0.00D+00 EMaxC= 1.00D-01 BMatC= 1.04D-12 BMatP= 5.24D-11
 IDIUse=1 WtCom= 1.00D+00 WtEn= 0.00D+00
 Coeff-Com:  0.481D-03-0.420D-03-0.491D-02-0.845D-03 0.113D+00-0.443D+00
 Coeff-Com:  0.134D+01
 Coeff:      0.481D-03-0.420D-03-0.491D-02-0.845D-03 0.113D+00-0.443D+00
 Coeff:      0.134D+01
 Gap=     0.711 Goal=   None    Shift=    0.000
 RMSDP=7.87D-08 MaxDP=5.74D-07 DE=-1.29D-10 OVMax= 7.59D-07

 Cycle   8  Pass 1  IDiag  1:
 E= -76.0107460532857     Delta-E=       -0.000000000002 Rises=F Damp=F
 DIIS: error= 3.57D-08 at cycle   8 NSaved=   8.
 NSaved= 8 IEnMin= 8 EnMin= -76.0107460532857     IErMin= 8 ErrMin= 3.57D-08
 ErrMax= 3.57D-08  0.00D+00 EMaxC= 1.00D-01 BMatC= 1.89D-14 BMatP= 1.04D-12
 IDIUse=1 WtCom= 1.00D+00 WtEn= 0.00D+00
 Coeff-Com: -0.615D-04 0.363D-04 0.688D-03-0.101D-03-0.145D-01 0.625D-01
 Coeff-Com: -0.292D+00 0.124D+01
 Coeff:     -0.615D-04 0.363D-04 0.688D-03-0.101D-03-0.145D-01 0.625D-01
 Coeff:     -0.292D+00 0.124D+01
 Gap=     0.711 Goal=   None    Shift=    0.000
 RMSDP=1.22D-08 MaxDP=7.10D-08 DE=-2.16D-12 OVMax= 1.02D-07

 Cycle   9  Pass 1  IDiag  1:
 E= -76.0107460532857     Delta-E=        0.000000000000 Rises=F Damp=F
 DIIS: error= 5.06D-09 at cycle   9 NSaved=   9.
 NSaved= 9 IEnMin= 8 EnMin= -76.0107460532857     IErMin= 9 ErrMin= 5.06D-09
 ErrMax= 5.06D-09  0.00D+00 EMaxC= 1.00D-01 BMatC= 3.14D-16 BMatP= 1.89D-14
 IDIUse=1 WtCom= 1.00D+00 WtEn= 0.00D+00
 Coeff-Com:  0.130D-04-0.766D-05-0.152D-03 0.717D-04 0.292D-02-0.138D-01
 Coeff-Com:  0.744D-01-0.411D+00 0.135D+01
 Coeff:      0.130D-04-0.766D-05-0.152D-03 0.717D-04 0.292D-02-0.138D-01
 Coeff:      0.744D-01-0.411D+00 0.135D+01
 Gap=     0.711 Goal=   None    Shift=    0.000
 RMSDP=2.48D-09 MaxDP=1.12D-08 DE= 2.84D-14 OVMax= 2.03D-08

 SCF Done:  E(RHF) =  -76.0107460533     A.U. after    9 cycles
            NFock=  9  Conv=0.25D-08     -V/T= 2.0020
 KE= 7.585959241913D+01 PE=-1.990824583732D+02 EE= 3.792397242561D+01
 Leave Link  502 at Fri Sep  3 00:08:57 2021, MaxMem=  1342177280 cpu:         0.7
 (Enter /gpfs/share/home/1801110325/software/g09e01/l701.exe)
 Compute integral first derivatives.
 ... and contract with generalized density number  0.
 Leave Link  701 at Fri Sep  3 00:08:57 2021, MaxMem=  1342177280 cpu:         0.6
 (Enter /gpfs/share/home/1801110325/software/g09e01/l702.exe)
 L702 exits ... SP integral derivatives will be done elsewhere.
 Leave Link  702 at Fri Sep  3 00:08:57 2021, MaxMem=  1342177280 cpu:         0.1
 (Enter /gpfs/share/home/1801110325/software/g09e01/l703.exe)
 Compute integral first derivatives, UseDBF=F ICtDFT=           0.
 Integral derivatives from FoFJK, PRISM(SPDF).
 Calling FoFJK, ICntrl=      2127 FMM=F ISym2X=1 I1Cent= 0 IOpClX= 0 NMat=1 NMatS=1 NMatT=0.
 FoFJK:  IHMeth= 1 ICntrl=    2127 DoSepK=F KAlg= 0 I1Cent=   0 FoldK=F
 IRaf=         0 NMat=   1 IRICut=       1 DoRegI=T DoRafI=F ISym2E= 1.
 FoFCou: FMM=F IPFlag=           0 FMFlag=      100000 FMFlg1=         800
         NFxFlg=           0 DoJE=F BraDBF=F KetDBF=F FulRan=T
         wScrn=  0.000000 ICntrl=    2127 IOpCl=  0 I1Cent=           0 NGrid=           0
         NMat0=    1 NMatS0=      1 NMatT0=    0 NMatD0=    1 NMtDS0=    0 NMtDT0=    0
 Petite list used in FoFCou.
 Leave Link  703 at Fri Sep  3 00:08:58 2021, MaxMem=  1342177280 cpu:         0.7
 (Enter /gpfs/share/home/1801110325/software/g09e01/l716.exe)
 Dipole        = 7.17749530D-17 0.00000000D+00-8.66013075D-01
 ***** Axes restored to original set *****
 -------------------------------------------------------------------
 Center     Atomic                   Forces (Hartrees/Bohr)
 Number     Number              X              Y              Z
 -------------------------------------------------------------------
      1        8           0.000227426    0.000321800    0.000000000
      2        1          -0.000011859   -0.000232883   -0.000000000
      3        1          -0.000215567   -0.000088917   -0.000000000
 -------------------------------------------------------------------
 Cartesian Forces:  Max     0.000321800 RMS     0.000171279
 Leave Link  716 at Fri Sep  3 00:08:58 2021, MaxMem=  1342177280 cpu:         0.1
 (Enter /gpfs/share/home/1801110325/software/g09e01/l103.exe)

 GradGradGradGradGradGradGradGradGradGradGradGradGradGradGradGradGradGrad
 Berny optimization.
 Using GEDIIS/GDIIS optimizer.
 FormGI is forming the generalized inverse of G from B-inverse, IUseBI=4.
 Internal  Forces:  Max     0.000415898 RMS     0.000240687
 Search for a local minimum.
 Step number   2 out of a maximum of   20
 All quantities printed in internal units (Hartrees-Bohrs-Radians)
 RMS Force = .24069D-03 SwitMx=.10000D-02 MixMth= 2
 Mixed Optimization -- En-DIIS/RFO-DIIS
 Update second derivatives using D2CorX and points    1    2
 DE= -1.46D-04 DEPred=-1.42D-04 R= 1.03D+00
 TightC=F SS=  1.41D+00  RLast= 2.52D-02 DXNew= 5.0454D-01 7.5509D-02
 Trust test= 1.03D+00 RLast= 2.52D-02 DXMaxT set to 3.00D-01
 The second derivative matrix:
                          R1        R2        A1
           R1           0.56947
           R2           0.00456   0.56947
           A1           0.01127   0.01127   0.15453
 ITU=  1  0
 Use linear search instead of GDIIS.
     Eigenvalues ---    0.15392   0.56491   0.57464
 RFO step:  Lambda=-9.75059629D-07 EMin= 1.53923691D-01
 Quartic linear search produced a step of  0.02195.
 Iteration  1 RMS(Cart)=  0.00146308 RMS(Int)=  0.00000132
 Iteration  2 RMS(Cart)=  0.00000117 RMS(Int)=  0.00000000
 Iteration  3 RMS(Cart)=  0.00000000 RMS(Int)=  0.00000000
 ITry= 1 IFail=0 DXMaxC= 1.51D-03 DCOld= 1.00D+10 DXMaxT= 3.00D-01 DXLimC= 3.00D+00 Rises=F
 ClnCor:  largest displacement from symmetrization is 4.48D-16 for atom     3.
 Variable       Old X    -DE/DX   Delta X   Delta X   Delta X     New X
                                 (Linear)    (Quad)   (Total)
    R1        1.79031  -0.00002  -0.00033   0.00025  -0.00008   1.79023
    R2        1.79031  -0.00002  -0.00033   0.00025  -0.00008   1.79023
    A1        1.83911   0.00042   0.00030   0.00238   0.00268   1.84179
         Item               Value     Threshold  Converged?
 Maximum Force            0.000416     0.000450     YES
 RMS     Force            0.000241     0.000300     YES
 Maximum Displacement     0.001511     0.001800     YES
 RMS     Displacement     0.001463     0.001200     NO 
 Predicted change in Energy=-5.640776D-07
 Lowest energy point so far.  Saving SCF results.
 GradGradGradGradGradGradGradGradGradGradGradGradGradGradGradGradGradGrad

 Leave Link  103 at Fri Sep  3 00:08:58 2021, MaxMem=  1342177280 cpu:         0.0
 (Enter /gpfs/share/home/1801110325/software/g09e01/l202.exe)
                          Input orientation:                          
 ---------------------------------------------------------------------
 Center     Atomic      Atomic             Coordinates (Angstroms)
 Number     Number       Type             X           Y           Z
 ---------------------------------------------------------------------
      1          8           0        0.031909    0.785231    0.000000
      2          1           0        0.978689    0.818072   -0.000000
      3          1           0       -0.253174    1.688667    0.000000
 ---------------------------------------------------------------------
                    Distance matrix (angstroms):
                    1          2          3
     1  O    0.000000
     2  H    0.947349   0.000000
     3  H    0.947349   1.508450   0.000000
 Stoichiometry    H2O
 Framework group  C2V[C2(O),SGV(H2)]
 Deg. of freedom     2
 Full point group                 C2V     NOp   4
 RotChk:  IX=3 Diff= 6.28D-16
 Largest Abelian subgroup         C2V     NOp   4
 Largest concise Abelian subgroup C2      NOp   2
                         Standard orientation:                         
 ---------------------------------------------------------------------
 Center     Atomic      Atomic             Coordinates (Angstroms)
 Number     Number       Type             X           Y           Z
 ---------------------------------------------------------------------
      1          8           0       -0.000000   -0.000000    0.114650
      2          1           0        0.000000   -0.754225   -0.458599
      3          1           0        0.000000    0.754225   -0.458599
 ---------------------------------------------------------------------
 Rotational constants (GHZ):    859.1350550    440.7580692    291.3091092
 Leave Link  202 at Fri Sep  3 00:08:58 2021, MaxMem=  1342177280 cpu:         0.1
 (Enter /gpfs/share/home/1801110325/software/g09e01/l301.exe)
 Standard basis: GTBas1 (6D, 7F)
 Ernie: Thresh=  0.10000D-02 Tol=  0.10000D-05 Strict=F.
 There are    10 symmetry adapted cartesian basis functions of A1  symmetry.
 There are     1 symmetry adapted cartesian basis functions of A2  symmetry.
 There are     3 symmetry adapted cartesian basis functions of B1  symmetry.
 There are     5 symmetry adapted cartesian basis functions of B2  symmetry.
 There are    10 symmetry adapted basis functions of A1  symmetry.
 There are     1 symmetry adapted basis functions of A2  symmetry.
 There are     3 symmetry adapted basis functions of B1  symmetry.
 There are     5 symmetry adapted basis functions of B2  symmetry.
    19 basis functions,    36 primitive gaussians,    19 cartesian basis functions
     5 alpha electrons        5 beta electrons
       nuclear repulsion energy         9.2882113334 Hartrees.
 IExCor=    0 DFT=F Ex=HF Corr=None ExCW=0 ScaHFX=  1.000000
 ScaDFX=  1.000000  1.000000  1.000000  1.000000 ScalE2=  1.000000  1.000000
 IRadAn=      0 IRanWt=     -1 IRanGd=            0 ICorTp=0 IEmpDi=  4
 NAtoms=    3 NActive=    3 NUniq=    2 SFac= 2.25D+00 NAtFMM=   60 NAOKFM=F Big=F
 Integral buffers will be    131072 words long.
 Raffenetti 1 integral format.
 Two-electron integral symmetry is turned on.
 Leave Link  301 at Fri Sep  3 00:08:58 2021, MaxMem=  1342177280 cpu:         0.2
 (Enter /gpfs/share/home/1801110325/software/g09e01/l302.exe)
 NPDir=0 NMtPBC=     1 NCelOv=     1 NCel=       1 NClECP=     1 NCelD=      1
         NCelK=      1 NCelE2=     1 NClLst=     1 CellRange=     0.0.
 One-electron integrals computed using PRISM.
 One-electron integral symmetry used in STVInt
 NBasis=    19 RedAO= T EigKep=  4.08D-02  NBF=    10     1     3     5
 NBsUse=    19 1.00D-06 EigRej= -1.00D+00 NBFU=    10     1     3     5
 Leave Link  302 at Fri Sep  3 00:08:58 2021, MaxMem=  1342177280 cpu:         0.6
 (Enter /gpfs/share/home/1801110325/software/g09e01/l303.exe)
 DipDrv:  MaxL=1.
 Leave Link  303 at Fri Sep  3 00:08:58 2021, MaxMem=  1342177280 cpu:         0.4
 (Enter /gpfs/share/home/1801110325/software/g09e01/l401.exe)
 Initial guess from the checkpoint file:  "H2O_G3.chk"
 B after Tr=     0.000000   -0.000000    0.000000
         Rot=    1.000000   -0.000000    0.000000   -0.000000 Ang=   0.00 deg.
 Guess basis will be translated and rotated to current coordinates.
 JPrj=2 DoOrth=T DoCkMO=T.
 Initial guess orbital symmetries:
       Occupied  (A1) (A1) (B2) (A1) (B1)
       Virtual   (A1) (A1) (A1) (A1) (A1) (A1) (A1) (A2) (B1) (B1)
                 (B2) (B2) (B2) (B2)
 The electronic state of the initial guess is 1-A1.
 Leave Link  401 at Fri Sep  3 00:08:58 2021, MaxMem=  1342177280 cpu:         0.3
 (Enter /gpfs/share/home/1801110325/software/g09e01/l502.exe)
 Closed shell SCF:
 Using DIIS extrapolation, IDIIS=  1040.
 Integral symmetry usage will be decided dynamically.
 Keep R1 ints in memory in symmetry-blocked form, NReq=865582.
 IVT=       20213 IEndB=       20213 NGot=  1342177280 MDV=  1342150698
 LenX=  1342150698 LenY=  1342149816
 Requested convergence on RMS density matrix=1.00D-08 within 128 cycles.
 Requested convergence on MAX density matrix=1.00D-06.
 Requested convergence on             energy=1.00D-06.
 No special actions if energy rises.
 FoFCou: FMM=F IPFlag=           0 FMFlag=           0 FMFlg1=           0
         NFxFlg=           0 DoJE=F BraDBF=F KetDBF=F FulRan=T
         wScrn=  0.000000 ICntrl=     600 IOpCl=  0 I1Cent=           0 NGrid=           0
         NMat0=    1 NMatS0=    190 NMatT0=    0 NMatD0=    1 NMtDS0=    0 NMtDT0=    0
 Petite list used in FoFCou.

 Cycle   1  Pass 1  IDiag  1:
 E= -76.0107462406482    
 DIIS: error= 1.02D-04 at cycle   1 NSaved=   1.
 NSaved= 1 IEnMin= 1 EnMin= -76.0107462406482     IErMin= 1 ErrMin= 1.02D-04
 ErrMax= 1.02D-04  0.00D+00 EMaxC= 1.00D-01 BMatC= 2.29D-07 BMatP= 2.29D-07
 IDIUse=3 WtCom= 9.99D-01 WtEn= 1.02D-03
 Coeff-Com:  0.100D+01
 Coeff-En:   0.100D+01
 Coeff:      0.100D+01
 Gap=     2.180 Goal=   None    Shift=    0.000
 RMSDP=2.47D-05 MaxDP=1.41D-04              OVMax= 1.67D-04

 Cycle   2  Pass 1  IDiag  1:
 E= -76.0107464756782     Delta-E=       -0.000000235030 Rises=F Damp=F
 DIIS: error= 2.11D-05 at cycle   2 NSaved=   2.
 NSaved= 2 IEnMin= 2 EnMin= -76.0107464756782     IErMin= 2 ErrMin= 2.11D-05
 ErrMax= 2.11D-05  0.00D+00 EMaxC= 1.00D-01 BMatC= 1.03D-08 BMatP= 2.29D-07
 IDIUse=1 WtCom= 1.00D+00 WtEn= 0.00D+00
 Coeff-Com: -0.115D+00 0.112D+01
 Coeff:     -0.115D+00 0.112D+01
 Gap=     0.711 Goal=   None    Shift=    0.000
 RMSDP=6.30D-06 MaxDP=3.91D-05 DE=-2.35D-07 OVMax= 5.27D-05

 Cycle   3  Pass 1  IDiag  1:
 E= -76.0107464895395     Delta-E=       -0.000000013861 Rises=F Damp=F
 DIIS: error= 8.26D-06 at cycle   3 NSaved=   3.
 NSaved= 3 IEnMin= 3 EnMin= -76.0107464895395     IErMin= 3 ErrMin= 8.26D-06
 ErrMax= 8.26D-06  0.00D+00 EMaxC= 1.00D-01 BMatC= 9.40D-10 BMatP= 1.03D-08
 IDIUse=1 WtCom= 1.00D+00 WtEn= 0.00D+00
 Coeff-Com: -0.449D-01 0.154D+00 0.891D+00
 Coeff:     -0.449D-01 0.154D+00 0.891D+00
 Gap=     0.711 Goal=   None    Shift=    0.000
 RMSDP=1.86D-06 MaxDP=1.18D-05 DE=-1.39D-08 OVMax= 1.88D-05

 Cycle   4  Pass 1  IDiag  1:
 E= -76.0107464907307     Delta-E=       -0.000000001191 Rises=F Damp=F
 DIIS: error= 3.64D-06 at cycle   4 NSaved=   4.
 NSaved= 4 IEnMin= 4 EnMin= -76.0107464907307     IErMin= 4 ErrMin= 3.64D-06
 ErrMax= 3.64D-06  0.00D+00 EMaxC= 1.00D-01 BMatC= 1.54D-10 BMatP= 9.40D-10
 IDIUse=1 WtCom= 1.00D+00 WtEn= 0.00D+00
 Coeff-Com:  0.190D-02-0.801D-01 0.182D+00 0.897D+00
 Coeff:      0.190D-02-0.801D-01 0.182D+00 0.897D+00
 Gap=     0.711 Goal=   None    Shift=    0.000
 RMSDP=6.85D-07 MaxDP=4.46D-06 DE=-1.19D-09 OVMax= 6.40D-06

 Cycle   5  Pass 1  IDiag  1:
 E= -76.0107464909190     Delta-E=       -0.000000000188 Rises=F Damp=F
 DIIS: error= 8.40D-07 at cycle   5 NSaved=   5.
 NSaved= 5 IEnMin= 5 EnMin= -76.0107464909190     IErMin= 5 ErrMin= 8.40D-07
 ErrMax= 8.40D-07  0.00D+00 EMaxC= 1.00D-01 BMatC= 6.64D-12 BMatP= 1.54D-10
 IDIUse=1 WtCom= 1.00D+00 WtEn= 0.00D+00
 Coeff-Com:  0.366D-02 0.286D-02-0.966D-01-0.237D+00 0.133D+01
 Coeff:      0.366D-02 0.286D-02-0.966D-01-0.237D+00 0.133D+01
 Gap=     0.711 Goal=   None    Shift=    0.000
 RMSDP=3.47D-07 MaxDP=1.80D-06 DE=-1.88D-10 OVMax= 3.73D-06

 Cycle   6  Pass 1  IDiag  1:
 E= -76.0107464909400     Delta-E=       -0.000000000021 Rises=F Damp=F
 DIIS: error= 1.70D-07 at cycle   6 NSaved=   6.
 NSaved= 6 IEnMin= 6 EnMin= -76.0107464909400     IErMin= 6 ErrMin= 1.70D-07
 ErrMax= 1.70D-07  0.00D+00 EMaxC= 1.00D-01 BMatC= 2.21D-13 BMatP= 6.64D-12
 IDIUse=1 WtCom= 1.00D+00 WtEn= 0.00D+00
 Coeff-Com: -0.132D-02 0.122D-02 0.282D-01 0.508D-01-0.466D+00 0.139D+01
 Coeff:     -0.132D-02 0.122D-02 0.282D-01 0.508D-01-0.466D+00 0.139D+01
 Gap=     0.711 Goal=   None    Shift=    0.000
 RMSDP=6.67D-08 MaxDP=3.93D-07 DE=-2.10D-11 OVMax= 6.23D-07

 Cycle   7  Pass 1  IDiag  1:
 E= -76.0107464909407     Delta-E=       -0.000000000001 Rises=F Damp=F
 DIIS: error= 1.67D-08 at cycle   7 NSaved=   7.
 NSaved= 7 IEnMin= 7 EnMin= -76.0107464909407     IErMin= 7 ErrMin= 1.67D-08
 ErrMax= 1.67D-08  0.00D+00 EMaxC= 1.00D-01 BMatC= 4.47D-15 BMatP= 2.21D-13
 IDIUse=1 WtCom= 1.00D+00 WtEn= 0.00D+00
 Coeff-Com:  0.356D-03-0.314D-03-0.824D-02-0.119D-01 0.134D+00-0.471D+00
 Coeff-Com:  0.136D+01
 Coeff:      0.356D-03-0.314D-03-0.824D-02-0.119D-01 0.134D+00-0.471D+00
 Coeff:      0.136D+01
 Gap=     0.711 Goal=   None    Shift=    0.000
 RMSDP=5.24D-09 MaxDP=4.05D-08 DE=-6.68D-13 OVMax= 4.98D-08

 SCF Done:  E(RHF) =  -76.0107464909     A.U. after    7 cycles
            NFock=  7  Conv=0.52D-08     -V/T= 2.0020
 KE= 7.585948363687D+01 PE=-1.990830136902D+02 EE= 3.792457222898D+01
 Leave Link  502 at Fri Sep  3 00:08:58 2021, MaxMem=  1342177280 cpu:         0.4
 (Enter /gpfs/share/home/1801110325/software/g09e01/l701.exe)
 Compute integral first derivatives.
 ... and contract with generalized density number  0.
 Leave Link  701 at Fri Sep  3 00:08:58 2021, MaxMem=  1342177280 cpu:         0.6
 (Enter /gpfs/share/home/1801110325/software/g09e01/l702.exe)
 L702 exits ... SP integral derivatives will be done elsewhere.
 Leave Link  702 at Fri Sep  3 00:08:58 2021, MaxMem=  1342177280 cpu:         0.1
 (Enter /gpfs/share/home/1801110325/software/g09e01/l703.exe)
 Compute integral first derivatives, UseDBF=F ICtDFT=           0.
 Integral derivatives from FoFJK, PRISM(SPDF).
 Calling FoFJK, ICntrl=      2127 FMM=F ISym2X=1 I1Cent= 0 IOpClX= 0 NMat=1 NMatS=1 NMatT=0.
 FoFJK:  IHMeth= 1 ICntrl=    2127 DoSepK=F KAlg= 0 I1Cent=   0 FoldK=F
 IRaf=         0 NMat=   1 IRICut=       1 DoRegI=T DoRafI=F ISym2E= 1.
 FoFCou: FMM=F IPFlag=           0 FMFlag=      100000 FMFlg1=         800
         NFxFlg=           0 DoJE=F BraDBF=F KetDBF=F FulRan=T
         wScrn=  0.000000 ICntrl=    2127 IOpCl=  0 I1Cent=           0 NGrid=           0
         NMat0=    1 NMatS0=      1 NMatT0=    0 NMatD0=    1 NMtDS0=    0 NMtDT0=    0
 Petite list used in FoFCou.
 Leave Link  703 at Fri Sep  3 00:08:59 2021, MaxMem=  1342177280 cpu:         1.4
 (Enter /gpfs/share/home/1801110325/software/g09e01/l716.exe)
 Dipole        = 7.18656771D-17 4.44089210D-16-8.64933844D-01
 ***** Axes restored to original set *****
 -------------------------------------------------------------------
 Center     Atomic                   Forces (Hartrees/Bohr)
 Number     Number              X              Y              Z
 -------------------------------------------------------------------
      1        8          -0.000014854   -0.000021017    0.000000000
      2        1          -0.000049104    0.000050461   -0.000000000
      3        1           0.000063958   -0.000029444   -0.000000000
 -------------------------------------------------------------------
 Cartesian Forces:  Max     0.000063958 RMS     0.000034282
 Leave Link  716 at Fri Sep  3 00:08:59 2021, MaxMem=  1342177280 cpu:         0.1
 (Enter /gpfs/share/home/1801110325/software/g09e01/l103.exe)

 GradGradGradGradGradGradGradGradGradGradGradGradGradGradGradGradGradGrad
 Berny optimization.
 Using GEDIIS/GDIIS optimizer.
 FormGI is forming the generalized inverse of G from B-inverse, IUseBI=4.
 Internal  Forces:  Max     0.000093330 RMS     0.000066307
 Search for a local minimum.
 Step number   3 out of a maximum of   20
 All quantities printed in internal units (Hartrees-Bohrs-Radians)
 RMS Force = .66307D-04 SwitMx=.10000D-02 MixMth= 2
 Mixed Optimization -- En-DIIS/RFO-DIIS
 Swapping is turned off.
 Update second derivatives using D2CorX and points    1    2    3
 DE= -4.38D-07 DEPred=-5.64D-07 R= 7.76D-01
 Trust test= 7.76D-01 RLast= 2.68D-03 DXMaxT set to 3.00D-01
 The second derivative matrix:
                          R1        R2        A1
           R1           0.56681
           R2           0.00190   0.56681
           A1           0.02735   0.02735   0.19158
 ITU=  0  1  0
     Eigenvalues ---    0.18765   0.56491   0.57264
 En-DIIS/RFO-DIIS IScMMF=        0 using points:     3    2
 RFO step:  Lambda=-2.47456489D-08.
 NNeg= 0 NP= 2 Switch=  2.50D-03 Rises=F DC=  4.38D-07 SmlDif=  1.00D-05
 RMS Error=  0.1285668889D-03 NUsed= 2 EDIIS=F
 DidBck=F Rises=F RFO-DIIS coefs:    0.82179    0.17821
 Iteration  1 RMS(Cart)=  0.00028436 RMS(Int)=  0.00000004
 Iteration  2 RMS(Cart)=  0.00000003 RMS(Int)=  0.00000000
 ITry= 1 IFail=0 DXMaxC= 3.05D-04 DCOld= 1.00D+10 DXMaxT= 3.00D-01 DXLimC= 3.00D+00 Rises=F
 ClnCor:  largest displacement from symmetrization is 5.67D-15 for atom     3.
 Variable       Old X    -DE/DX   Delta X   Delta X   Delta X     New X
                                 (Linear)    (Quad)   (Total)
    R1        1.79023  -0.00005   0.00001  -0.00008  -0.00006   1.79017
    R2        1.79023  -0.00005   0.00001  -0.00008  -0.00006   1.79017
    A1        1.84179  -0.00009  -0.00048   0.00001  -0.00047   1.84132
         Item               Value     Threshold  Converged?
 Maximum Force            0.000093     0.000450     YES
 RMS     Force            0.000066     0.000300     YES
 Maximum Displacement     0.000305     0.001800     YES
 RMS     Displacement     0.000284     0.001200     YES
 Predicted change in Energy=-2.479417D-08
 Optimization completed.
    -- Stationary point found.
                           ----------------------------
                           !   Optimized Parameters   !
                           ! (Angstroms and Degrees)  !
 --------------------------                            --------------------------
 ! Name  Definition              Value          Derivative Info.                !
 --------------------------------------------------------------------------------
 ! R1    R(1,2)                  0.9473         -DE/DX =    0.0                 !
 ! R2    R(1,3)                  0.9473         -DE/DX =    0.0                 !
 ! A1    A(2,1,3)              105.5267         -DE/DX =   -0.0001              !
 --------------------------------------------------------------------------------
 Lowest energy point so far.  Saving SCF results.
 GradGradGradGradGradGradGradGradGradGradGradGradGradGradGradGradGradGrad

 Largest change from initial coordinates is atom    2       0.009 Angstoms.
 Leave Link  103 at Fri Sep  3 00:08:59 2021, MaxMem=  1342177280 cpu:         0.0
 (Enter /gpfs/share/home/1801110325/software/g09e01/l202.exe)
                          Input orientation:                          
 ---------------------------------------------------------------------
 Center     Atomic      Atomic             Coordinates (Angstroms)
 Number     Number       Type             X           Y           Z
 ---------------------------------------------------------------------
      1          8           0        0.031909    0.785231    0.000000
      2          1           0        0.978689    0.818072   -0.000000
      3          1           0       -0.253174    1.688667    0.000000
 ---------------------------------------------------------------------
                    Distance matrix (angstroms):
                    1          2          3
     1  O    0.000000
     2  H    0.947349   0.000000
     3  H    0.947349   1.508450   0.000000
 Stoichiometry    H2O
 Framework group  C2V[C2(O),SGV(H2)]
 Deg. of freedom     2
 Full point group                 C2V     NOp   4
 RotChk:  IX=3 Diff= 3.14D-16
 Largest Abelian subgroup         C2V     NOp   4
 Largest concise Abelian subgroup C2      NOp   2
                         Standard orientation:                         
 ---------------------------------------------------------------------
 Center     Atomic      Atomic             Coordinates (Angstroms)
 Number     Number       Type             X           Y           Z
 ---------------------------------------------------------------------
      1          8           0        0.000000   -0.000000    0.114650
      2          1           0        0.000000   -0.754225   -0.458599
      3          1           0        0.000000    0.754225   -0.458599
 ---------------------------------------------------------------------
 Rotational constants (GHZ):    859.1350550    440.7580692    291.3091092
 Leave Link  202 at Fri Sep  3 00:08:59 2021, MaxMem=  1342177280 cpu:         0.1
 (Enter /gpfs/share/home/1801110325/software/g09e01/l601.exe)
 Copying SCF densities to generalized density rwf, IOpCl= 0 IROHF=0.

 **********************************************************************

            Population analysis using the SCF density.

 **********************************************************************

 Orbital symmetries:
       Occupied  (A1) (A1) (B2) (A1) (B1)
       Virtual   (A1) (B2) (B2) (A1) (B1) (A1) (B2) (A1) (A1) (A2)
                 (B1) (A1) (B2) (A1)
 The electronic state is 1-A1.
 Alpha  occ. eigenvalues --  -20.55787  -1.34609  -0.71430  -0.57074  -0.49820
 Alpha virt. eigenvalues --    0.21302   0.30686   1.03182   1.13336   1.16804
 Alpha virt. eigenvalues --    1.17832   1.38513   1.43110   2.02065   2.03056
 Alpha virt. eigenvalues --    2.06727   2.63562   2.96576   3.97775
          Condensed to atoms (all electrons):
               1          2          3
     1  O    8.332968   0.267920   0.267920
     2  H    0.267920   0.316143  -0.018467
     3  H    0.267920  -0.018467   0.316143
 Mulliken charges:
               1
     1  O   -0.868808
     2  H    0.434404
     3  H    0.434404
 Sum of Mulliken charges =  -0.00000
 Mulliken charges with hydrogens summed into heavy atoms:
               1
     1  O   -0.000000
 Electronic spatial extent (au):  <R**2>=             18.8112
 Charge=             -0.0000 electrons
 Dipole moment (field-independent basis, Debye):
    X=              0.0000    Y=              0.0000    Z=             -2.1984  Tot=              2.1984
 Quadrupole moment (field-independent basis, Debye-Ang):
   XX=             -7.2058   YY=             -4.1042   ZZ=             -6.0017
   XY=              0.0000   XZ=             -0.0000   YZ=              0.0000
 Traceless Quadrupole moment (field-independent basis, Debye-Ang):
   XX=             -1.4352   YY=              1.6663   ZZ=             -0.2311
   XY=              0.0000   XZ=             -0.0000   YZ=              0.0000
 Octapole moment (field-independent basis, Debye-Ang**2):
  XXX=             -0.0000  YYY=              0.0000  ZZZ=             -1.4297  XYY=              0.0000
  XXY=              0.0000  XXZ=             -0.3872  XZZ=              0.0000  YZZ=              0.0000
  YYZ=             -1.3550  XYZ=             -0.0000
 Hexadecapole moment (field-independent basis, Debye-Ang**3):
 XXXX=             -5.1841 YYYY=             -5.3627 ZZZZ=             -5.9892 XXXY=             -0.0000
 XXXZ=              0.0000 YYYX=              0.0000 YYYZ=              0.0000 ZZZX=              0.0000
 ZZZY=              0.0000 XXYY=             -2.0170 XXZZ=             -1.9085 YYZZ=             -1.5812
 XXYZ=              0.0000 YYXZ=             -0.0000 ZZXY=              0.0000
 N-N= 9.288211333432D+00 E-N=-1.990830137533D+02  KE= 7.585948363687D+01
 Symmetry A1   KE= 6.776050189145D+01
 Symmetry A2   KE= 6.077871689994D-35
 Symmetry B1   KE= 4.551564952689D+00
 Symmetry B2   KE= 3.547416792730D+00
 No NMR shielding tensors so no spin-rotation constants.
 Leave Link  601 at Fri Sep  3 00:08:59 2021, MaxMem=  1342177280 cpu:         0.8
 (Enter /gpfs/share/home/1801110325/software/g09e01/l9999.exe)
 1\1\GINC-A4U03N09\FOpt\RHF\GTBas1\H2O1\1801110325\03-Sep-2021\0\\#p G3
  geom=checkpoint\\H2O_G3\\0,1\O,0.0319094182,0.7852306409,0.\H,0.97868
 85294,0.8180719702,0.\H,-0.2531743296,1.6886665794,0.\\Version=EM64L-G
 09RevE.01\State=1-A1\HF=-76.0107465\RMSD=5.243e-09\RMSF=3.428e-05\Dipo
 le=0.4991924,0.7063409,0.\Quadrupole=0.7689708,0.2980628,-1.0670336,-0
 .6649016,0.,0.\PG=C02V [C2(O1),SGV(H2)]\\@


 EDUCATION IS NOT TRAINING BUT RATHER THE PROCESS THAT EQUIPS YOU TO
 ENTERTAIN YOURSELF, A FRIEND, OR AN IDEA.  -- WALLACE STERLING
 Leave Link 9999 at Fri Sep  3 00:08:59 2021, MaxMem=  1342177280 cpu:         0.1
 Job cpu time:       0 days  0 hours  0 minutes 28.6 seconds.
 File lengths (MBytes):  RWF=   1120 Int=      0 D2E=      0 Chk=     32 Scr=     32
 Normal termination of Gaussian 09 at Fri Sep  3 00:08:59 2021.
 (Enter /gpfs/share/home/1801110325/software/g09e01/l1.exe)
 Link1:  Proceeding to internal job step number  2.
 -------------------------------------------------------
 #P Geom=AllCheck Guess=TCheck SCRF=Check HF/GTBas1 Freq
 -------------------------------------------------------
 1/10=4,29=7,30=1,38=1,40=1/1,3;
 2/12=2,40=1/2;
 3/5=33,11=9,14=-4,16=1,25=1,30=1,70=2,71=2,116=-2,140=1/1,2,3;
 4/5=101/1;
 5/5=2,38=6,98=1/2;
 8/6=4,10=90,11=11/1;
 10/13=10,15=4/2;
 11/6=3,8=1,9=11,15=111,16=1/1,2,10;
 10/6=1/2;
 6/7=2,8=2,9=2,10=2,18=1,28=1/1;
 7/8=1,10=1,25=1/1,2,3,16;
 1/10=4,30=1/3;
 99//99;
 Leave Link    1 at Fri Sep  3 00:08:59 2021, MaxMem=  1342177280 cpu:         0.1
 (Enter /gpfs/share/home/1801110325/software/g09e01/l101.exe)
 Structure from the checkpoint file:  "H2O_G3.chk"
 ------
 H2O_G3
 ------
 Charge =  0 Multiplicity = 1
 Redundant internal coordinates found in file.
 O,0,0.0319094182,0.7852306409,0.
 H,0,0.9786885294,0.8180719702,0.
 H,0,-0.2531743296,1.6886665794,0.
 Recover connectivity data from disk.
 NAtoms=      3 NQM=        3 NQMF=       0 NMMI=      0 NMMIF=      0
                NMic=       0 NMicF=      0.
                    Isotopes and Nuclear Properties:
 (Nuclear quadrupole moments (NQMom) in fm**2, nuclear magnetic moments (NMagM)
  in nuclear magnetons)

  Atom         1           2           3
 IAtWgt=          16           1           1
 AtmWgt=  15.9949146   1.0078250   1.0078250
 NucSpn=           0           1           1
 AtZEff=  -5.6000000  -1.0000000  -1.0000000
 NQMom=    0.0000000   0.0000000   0.0000000
 NMagM=    0.0000000   2.7928460   2.7928460
 AtZNuc=   8.0000000   1.0000000   1.0000000
 Leave Link  101 at Fri Sep  3 00:08:59 2021, MaxMem=  1342177280 cpu:         0.9
 (Enter /gpfs/share/home/1801110325/software/g09e01/l103.exe)

 GradGradGradGradGradGradGradGradGradGradGradGradGradGradGradGradGradGrad
 Berny optimization.
 Initialization pass.
                           ----------------------------
                           !    Initial Parameters    !
                           ! (Angstroms and Degrees)  !
 --------------------------                            --------------------------
 ! Name  Definition              Value          Derivative Info.                !
 --------------------------------------------------------------------------------
 ! R1    R(1,2)                  0.9473         calculate D2E/DX2 analytically  !
 ! R2    R(1,3)                  0.9473         calculate D2E/DX2 analytically  !
 ! A1    A(2,1,3)              105.5267         calculate D2E/DX2 analytically  !
 --------------------------------------------------------------------------------
 Trust Radius=3.00D-01 FncErr=1.00D-07 GrdErr=1.00D-07
 Number of steps in this run=      2 maximum allowed number of steps=      2.
 GradGradGradGradGradGradGradGradGradGradGradGradGradGradGradGradGradGrad

 Leave Link  103 at Fri Sep  3 00:09:00 2021, MaxMem=  1342177280 cpu:         0.0
 (Enter /gpfs/share/home/1801110325/software/g09e01/l202.exe)
                          Input orientation:                          
 ---------------------------------------------------------------------
 Center     Atomic      Atomic             Coordinates (Angstroms)
 Number     Number       Type             X           Y           Z
 ---------------------------------------------------------------------
      1          8           0        0.031909    0.785231    0.000000
      2          1           0        0.978689    0.818072   -0.000000
      3          1           0       -0.253174    1.688667    0.000000
 ---------------------------------------------------------------------
                    Distance matrix (angstroms):
                    1          2          3
     1  O    0.000000
     2  H    0.947349   0.000000
     3  H    0.947349   1.508450   0.000000
 Stoichiometry    H2O
 Framework group  C2V[C2(O),SGV(H2)]
 Deg. of freedom     2
 Full point group                 C2V     NOp   4
 RotChk:  IX=3 Diff= 2.36D-16
 Largest Abelian subgroup         C2V     NOp   4
 Largest concise Abelian subgroup C2      NOp   2
                         Standard orientation:                         
 ---------------------------------------------------------------------
 Center     Atomic      Atomic             Coordinates (Angstroms)
 Number     Number       Type             X           Y           Z
 ---------------------------------------------------------------------
      1          8           0        0.000000    0.000000    0.114650
      2          1           0        0.000000   -0.754225   -0.458599
      3          1           0        0.000000    0.754225   -0.458599
 ---------------------------------------------------------------------
 Rotational constants (GHZ):    859.1350550    440.7580692    291.3091092
 Leave Link  202 at Fri Sep  3 00:09:00 2021, MaxMem=  1342177280 cpu:         0.4
 (Enter /gpfs/share/home/1801110325/software/g09e01/l301.exe)
 Standard basis: GTBas1 (6D, 7F)
 Ernie: Thresh=  0.10000D-02 Tol=  0.10000D-05 Strict=F.
 There are    10 symmetry adapted cartesian basis functions of A1  symmetry.
 There are     1 symmetry adapted cartesian basis functions of A2  symmetry.
 There are     3 symmetry adapted cartesian basis functions of B1  symmetry.
 There are     5 symmetry adapted cartesian basis functions of B2  symmetry.
 There are    10 symmetry adapted basis functions of A1  symmetry.
 There are     1 symmetry adapted basis functions of A2  symmetry.
 There are     3 symmetry adapted basis functions of B1  symmetry.
 There are     5 symmetry adapted basis functions of B2  symmetry.
    19 basis functions,    36 primitive gaussians,    19 cartesian basis functions
     5 alpha electrons        5 beta electrons
       nuclear repulsion energy         9.2882113334 Hartrees.
 IExCor=    0 DFT=F Ex=HF Corr=None ExCW=0 ScaHFX=  1.000000
 ScaDFX=  1.000000  1.000000  1.000000  1.000000 ScalE2=  1.000000  1.000000
 IRadAn=      0 IRanWt=     -1 IRanGd=            0 ICorTp=0 IEmpDi=  4
 NAtoms=    3 NActive=    3 NUniq=    2 SFac= 2.25D+00 NAtFMM=   60 NAOKFM=F Big=F
 Integral buffers will be    131072 words long.
 Raffenetti 1 integral format.
 Two-electron integral symmetry is turned on.
 Leave Link  301 at Fri Sep  3 00:09:00 2021, MaxMem=  1342177280 cpu:         0.2
 (Enter /gpfs/share/home/1801110325/software/g09e01/l302.exe)
 NPDir=0 NMtPBC=     1 NCelOv=     1 NCel=       1 NClECP=     1 NCelD=      1
         NCelK=      1 NCelE2=     1 NClLst=     1 CellRange=     0.0.
 One-electron integrals computed using PRISM.
 One-electron integral symmetry used in STVInt
 NBasis=    19 RedAO= T EigKep=  4.08D-02  NBF=    10     1     3     5
 NBsUse=    19 1.00D-06 EigRej= -1.00D+00 NBFU=    10     1     3     5
 Leave Link  302 at Fri Sep  3 00:09:00 2021, MaxMem=  1342177280 cpu:         0.8
 (Enter /gpfs/share/home/1801110325/software/g09e01/l303.exe)
 DipDrv:  MaxL=1.
 Leave Link  303 at Fri Sep  3 00:09:00 2021, MaxMem=  1342177280 cpu:         0.2
 (Enter /gpfs/share/home/1801110325/software/g09e01/l401.exe)
 Initial guess from the checkpoint file:  "H2O_G3.chk"
 B after Tr=     0.000000    0.000000   -0.000000
         Rot=    1.000000    0.000000    0.000000    0.000000 Ang=   0.00 deg.
 Guess basis will be translated and rotated to current coordinates.
 JPrj=2 DoOrth=T DoCkMO=T.
 Initial guess orbital symmetries:
       Occupied  (A1) (A1) (B2) (A1) (B1)
       Virtual   (A1) (B2) (B2) (A1) (B1) (A1) (B2) (A1) (A1) (A2)
                 (B1) (A1) (B2) (A1)
 The electronic state of the initial guess is 1-A1.
 Leave Link  401 at Fri Sep  3 00:09:00 2021, MaxMem=  1342177280 cpu:         0.3
 (Enter /gpfs/share/home/1801110325/software/g09e01/l502.exe)
 Closed shell SCF:
 Using DIIS extrapolation, IDIIS=  1040.
 Integral symmetry usage will be decided dynamically.
 Keep R1 ints in memory in symmetry-blocked form, NReq=865582.
 IVT=       20213 IEndB=       20213 NGot=  1342177280 MDV=  1342150698
 LenX=  1342150698 LenY=  1342149816
 Requested convergence on RMS density matrix=1.00D-08 within 128 cycles.
 Requested convergence on MAX density matrix=1.00D-06.
 Requested convergence on             energy=1.00D-06.
 No special actions if energy rises.
 FoFCou: FMM=F IPFlag=           0 FMFlag=           0 FMFlg1=           0
         NFxFlg=           0 DoJE=F BraDBF=F KetDBF=F FulRan=T
         wScrn=  0.000000 ICntrl=     600 IOpCl=  0 I1Cent=           0 NGrid=           0
         NMat0=    1 NMatS0=    190 NMatT0=    0 NMatD0=    1 NMtDS0=    0 NMtDT0=    0
 Petite list used in FoFCou.

 Cycle   1  Pass 1  IDiag  1:
 E= -76.0107464909405    
 DIIS: error= 2.39D-09 at cycle   1 NSaved=   1.
 NSaved= 1 IEnMin= 1 EnMin= -76.0107464909405     IErMin= 1 ErrMin= 2.39D-09
 ErrMax= 2.39D-09  0.00D+00 EMaxC= 1.00D-01 BMatC= 6.97D-17 BMatP= 6.97D-17
 IDIUse=1 WtCom= 1.00D+00 WtEn= 0.00D+00
 Coeff-Com:  0.100D+01
 Coeff:      0.100D+01
 Gap=     0.711 Goal=   None    Shift=    0.000
 RMSDP=4.37D-10 MaxDP=3.33D-09              OVMax= 4.62D-09

 SCF Done:  E(RHF) =  -76.0107464909     A.U. after    1 cycles
            NFock=  1  Conv=0.44D-09     -V/T= 2.0020
 KE= 7.585948363828D+01 PE=-1.990830137547D+02 EE= 3.792457229202D+01
 Leave Link  502 at Fri Sep  3 00:09:00 2021, MaxMem=  1342177280 cpu:         0.5
 (Enter /gpfs/share/home/1801110325/software/g09e01/l801.exe)
 Range of M.O.s used for correlation:     1    19
 NBasis=    19 NAE=     5 NBE=     5 NFC=     0 NFV=     0
 NROrb=     19 NOA=     5 NOB=     5 NVA=    14 NVB=    14
 Leave Link  801 at Fri Sep  3 00:09:00 2021, MaxMem=  1342177280 cpu:         0.1
 (Enter /gpfs/share/home/1801110325/software/g09e01/l1002.exe)
 Minotr:  Closed shell wavefunction.
          Direct CPHF calculation.
          Differentiating once with respect to electric field.
                with respect to dipole field.
          Electric field/nuclear overlap derivatives assumed to be zero.
          Using symmetry in CPHF.
          Requested convergence is 1.0D-08 RMS, and 1.0D-07 maximum.
          Secondary convergence is 1.0D-12 RMS, and 1.0D-12 maximum.
          NewPWx=F KeepS1=T KeepF1=T KeepIn=T MapXYZ=F SortEE=F KeepMc=T.
          MDV=    1342177233 using IRadAn=       2.
 Keep R1 ints in memory in symmetry-blocked form, NReq=849353.
 FoFCou: FMM=F IPFlag=           0 FMFlag=           0 FMFlg1=           0
         NFxFlg=           0 DoJE=F BraDBF=F KetDBF=F FulRan=T
         wScrn=  0.000000 ICntrl=     600 IOpCl=  0 I1Cent=           0 NGrid=           0
         NMat0=    1 NMatS0=    190 NMatT0=    0 NMatD0=    1 NMtDS0=    0 NMtDT0=    0
 Petite list used in FoFCou.
          Solving linear equations simultaneously, MaxMat=       0.
          There are     3 degrees of freedom in the 1st order CPHF.  IDoFFX=0 NUNeed=     3.
      3 vectors produced by pass  0 Test12= 2.33D-15 3.33D-08 XBig12= 1.15D+00 7.36D-01.
 AX will form     3 AO Fock derivatives at one time.
      3 vectors produced by pass  1 Test12= 2.33D-15 3.33D-08 XBig12= 5.12D-02 1.20D-01.
      3 vectors produced by pass  2 Test12= 2.33D-15 3.33D-08 XBig12= 6.15D-03 3.39D-02.
      3 vectors produced by pass  3 Test12= 2.33D-15 3.33D-08 XBig12= 2.39D-04 7.94D-03.
      3 vectors produced by pass  4 Test12= 2.33D-15 3.33D-08 XBig12= 2.26D-06 9.07D-04.
      3 vectors produced by pass  5 Test12= 2.33D-15 3.33D-08 XBig12= 1.88D-08 6.62D-05.
      3 vectors produced by pass  6 Test12= 2.33D-15 3.33D-08 XBig12= 2.29D-10 7.07D-06.
      2 vectors produced by pass  7 Test12= 2.33D-15 3.33D-08 XBig12= 1.31D-12 5.12D-07.
      1 vectors produced by pass  8 Test12= 2.33D-15 3.33D-08 XBig12= 6.61D-15 4.09D-08.
 InvSVY:  IOpt=1 It=  1 EMax= 6.94D-17
 Solved reduced A of dimension    24 with     3 vectors.
 End of Minotr F.D. properties file   721 does not exist.
 End of Minotr F.D. properties file   722 does not exist.
 End of Minotr F.D. properties file   788 does not exist.
 Leave Link 1002 at Fri Sep  3 00:09:01 2021, MaxMem=  1342177280 cpu:         0.9
 (Enter /gpfs/share/home/1801110325/software/g09e01/l1101.exe)
 Using compressed storage, NAtomX=     3.
 Will process      4 centers per pass.
 Leave Link 1101 at Fri Sep  3 00:09:01 2021, MaxMem=  1342177280 cpu:         0.5
 (Enter /gpfs/share/home/1801110325/software/g09e01/l1102.exe)
 Symmetrizing basis deriv contribution to polar:
 IMax=3 JMax=2 DiffMx= 0.00D+00
 Leave Link 1102 at Fri Sep  3 00:09:01 2021, MaxMem=  1342177280 cpu:         0.5
 (Enter /gpfs/share/home/1801110325/software/g09e01/l1110.exe)
 Forming Gx(P) for the SCF density, NAtomX=     3.
 Integral derivatives from FoFJK, PRISM(SPDF).
 Do as many integral derivatives as possible in FoFJK.
 G2DrvN: MDV=    1342177152.
 G2DrvN: will do     4 centers at a time, making    1 passes.
 PxScal for G2LodP:  IOpCl= 0 ISclPx=1 IMOff=     1 NMtTot=     4 NTT=     190 ScalPx= 1.00D+00
 Calling FoFCou, ICntrl=  3107 FMM=F I1Cent=   0 AccDes= 0.00D+00.
 FoFJK:  IHMeth= 1 ICntrl=    3107 DoSepK=F KAlg= 0 I1Cent=   0 FoldK=F
 IRaf=         0 NMat=   1 IRICut=       1 DoRegI=T DoRafI=F ISym2E= 1.
 FoFCou: FMM=F IPFlag=           0 FMFlag=      100000 FMFlg1=           0
         NFxFlg=           0 DoJE=F BraDBF=F KetDBF=F FulRan=T
         wScrn=  0.000000 ICntrl=    3107 IOpCl=  0 I1Cent=           0 NGrid=           0
         NMat0=    1 NMatS0=      1 NMatT0=    0 NMatD0=    4 NMtDS0=    3 NMtDT0=    0
 Petite list used in FoFCou.
 End of G2Drv F.D. properties file   721 does not exist.
 End of G2Drv F.D. properties file   722 does not exist.
 End of G2Drv F.D. properties file   788 does not exist.
 Leave Link 1110 at Fri Sep  3 00:09:01 2021, MaxMem=  1342177280 cpu:         0.7
 (Enter /gpfs/share/home/1801110325/software/g09e01/l1002.exe)
 Minotr:  Closed shell wavefunction.
          IDoAtm=111
          Direct CPHF calculation.
          Differentiating once with respect to electric field.
                with respect to dipole field.
          Differentiating once with respect to nuclear coordinates.
          Using symmetry in CPHF.
          Requested convergence is 1.0D-08 RMS, and 1.0D-07 maximum.
          Secondary convergence is 1.0D-12 RMS, and 1.0D-12 maximum.
          NewPWx=T KeepS1=F KeepF1=F KeepIn=T MapXYZ=F SortEE=F KeepMc=T.
          MDV=    1342177227 using IRadAn=       2.
 Keep R1 ints in memory in symmetry-blocked form, NReq=849422.
 FoFCou: FMM=F IPFlag=           0 FMFlag=           0 FMFlg1=           0
         NFxFlg=           0 DoJE=F BraDBF=F KetDBF=F FulRan=T
         wScrn=  0.000000 ICntrl=     600 IOpCl=  0 I1Cent=           0 NGrid=           0
         NMat0=    1 NMatS0=    190 NMatT0=    0 NMatD0=    1 NMtDS0=    0 NMtDT0=    0
 Petite list used in FoFCou.
          Solving linear equations simultaneously, MaxMat=       0.
          There are     9 degrees of freedom in the 1st order CPHF.  IDoFFX=4 NUNeed=     9.
 Will reuse    3 saved solutions.
      6 vectors produced by pass  0 Test12= 7.78D-16 1.11D-08 XBig12= 3.61D-02 1.07D-01.
 AX will form     6 AO Fock derivatives at one time.
      6 vectors produced by pass  1 Test12= 7.78D-16 1.11D-08 XBig12= 4.24D-03 3.98D-02.
      6 vectors produced by pass  2 Test12= 7.78D-16 1.11D-08 XBig12= 2.02D-04 8.97D-03.
      6 vectors produced by pass  3 Test12= 7.78D-16 1.11D-08 XBig12= 1.17D-06 5.30D-04.
      6 vectors produced by pass  4 Test12= 7.78D-16 1.11D-08 XBig12= 6.22D-09 3.66D-05.
      6 vectors produced by pass  5 Test12= 7.78D-16 1.11D-08 XBig12= 1.56D-11 1.44D-06.
      2 vectors produced by pass  6 Test12= 7.78D-16 1.11D-08 XBig12= 6.89D-14 1.15D-07.
 InvSVY:  IOpt=1 It=  1 EMax= 1.20D-16
 Solved reduced A of dimension    38 with     6 vectors.
 FullF1:  Do perturbations    1 to     9.
 Isotropic polarizability for W=    0.000000        4.75 Bohr**3.
 FullF1:  Do perturbations    1 to     6.
 End of Minotr F.D. properties file   721 does not exist.
 End of Minotr F.D. properties file   722 does not exist.
 End of Minotr F.D. properties file   788 does not exist.
[...]
                    1          2          3
     1  O    0.000000
     2  H    0.968568   0.000000
     3  H    0.968568   1.526294   0.000000
 Stoichiometry    H2O
 Framework group  C2V[C2(O),SGV(H2)]
 Deg. of freedom     2
 Full point group                 C2V     NOp   4
 RotChk:  IX=3 Diff= 3.14D-16
 Largest Abelian subgroup         C2V     NOp   4
 Largest concise Abelian subgroup C2      NOp   2
                         Standard orientation:                         
 ---------------------------------------------------------------------
 Center     Atomic      Atomic             Coordinates (Angstroms)
 Number     Number       Type             X           Y           Z
 ---------------------------------------------------------------------
      1          8           0       -0.000000   -0.000000    0.119286
      2          1           0        0.000000   -0.763147   -0.477145
      3          1           0        0.000000    0.763147   -0.477145
 ---------------------------------------------------------------------
 Rotational constants (GHZ):    793.6445516    430.5124071    279.1094915
 Leave Link  202 at Fri Sep  3 00:09:17 2021, MaxMem=  1342177280 cpu:         0.2
 (Enter /gpfs/share/home/1801110325/software/g09e01/l301.exe)
 Standard basis: GTlarge (5D, 7F)
 Ernie: Thresh=  0.10000D-02 Tol=  0.10000D-05 Strict=F.
 There are    30 symmetry adapted cartesian basis functions of A1  symmetry.
 There are     6 symmetry adapted cartesian basis functions of A2  symmetry.
 There are    13 symmetry adapted cartesian basis functions of B1  symmetry.
 There are    19 symmetry adapted cartesian basis functions of B2  symmetry.
 There are    26 symmetry adapted basis functions of A1  symmetry.
 There are     6 symmetry adapted basis functions of A2  symmetry.
 There are    12 symmetry adapted basis functions of B1  symmetry.
 There are    18 symmetry adapted basis functions of B2  symmetry.
    62 basis functions,    85 primitive gaussians,    68 cartesian basis functions
     5 alpha electrons        5 beta electrons
       nuclear repulsion energy         9.0883081017 Hartrees.
 IExCor=    0 DFT=F Ex=HF Corr=None ExCW=0 ScaHFX=  1.000000
 ScaDFX=  1.000000  1.000000  1.000000  1.000000 ScalE2=  1.000000  1.000000
 IRadAn=      0 IRanWt=     -1 IRanGd=            0 ICorTp=0 IEmpDi=  4
 NAtoms=    3 NActive=    3 NUniq=    2 SFac= 2.25D+00 NAtFMM=   60 NAOKFM=F Big=F
 Integral buffers will be    131072 words long.
 Raffenetti 1 integral format.
 Two-electron integral symmetry is turned on.
 Leave Link  301 at Fri Sep  3 00:09:17 2021, MaxMem=  1342177280 cpu:         0.2
 (Enter /gpfs/share/home/1801110325/software/g09e01/l302.exe)
 NPDir=0 NMtPBC=     1 NCelOv=     1 NCel=       1 NClECP=     1 NCelD=      1
         NCelK=      1 NCelE2=     1 NClLst=     1 CellRange=     0.0.
 One-electron integrals computed using PRISM.
 One-electron integral symmetry used in STVInt
 NBasis=    62 RedAO= T EigKep=  3.29D-03  NBF=    26     6    12    18
 NBsUse=    62 1.00D-06 EigRej= -1.00D+00 NBFU=    26     6    12    18
 Leave Link  302 at Fri Sep  3 00:09:17 2021, MaxMem=  1342177280 cpu:         0.7
 (Enter /gpfs/share/home/1801110325/software/g09e01/l303.exe)
 DipDrv:  MaxL=1.
 Leave Link  303 at Fri Sep  3 00:09:17 2021, MaxMem=  1342177280 cpu:         0.1
 (Enter /gpfs/share/home/1801110325/software/g09e01/l401.exe)
 Initial guess from the checkpoint file:  "H2O_G3.chk"
 B after Tr=     0.000000   -0.000000   -0.000000
         Rot=    1.000000   -0.000000   -0.000000    0.000000 Ang=   0.00 deg.
 Guess basis will be translated and rotated to current coordinates.
 JPrj=2 DoOrth=T DoCkMO=T.
 Initial guess orbital symmetries:
       Occupied  (A1) (A1) (B2) (A1) (B1)
       Virtual   (A1) (A1) (A1) (A1) (A1) (A1) (A1) (A1) (A1) (A1)
                 (A1) (A1) (A1) (A1) (A1) (A1) (A1) (A1) (A1) (A1)
                 (A1) (A1) (A1) (A2) (A2) (A2) (A2) (A2) (A2) (B1)
                 (B1) (B1) (B1) (B1) (B1) (B1) (B1) (B1) (B1) (B1)
                 (B2) (B2) (B2) (B2) (B2) (B2) (B2) (B2) (B2) (B2)
                 (B2) (B2) (B2) (B2) (B2) (B2) (B2)
 The electronic state of the initial guess is 1-A1.
 Leave Link  401 at Fri Sep  3 00:09:17 2021, MaxMem=  1342177280 cpu:         0.3
 (Enter /gpfs/share/home/1801110325/software/g09e01/l502.exe)
 Closed shell SCF:
 Using DIIS extrapolation, IDIIS=  1040.
 Integral symmetry usage will be decided dynamically.
 Keep R1 ints in memory in symmetry-blocked form, NReq=3905375.
 IVT=       33468 IEndB=       33468 NGot=  1342177280 MDV=  1341641068
 LenX=  1341641068 LenY=  1341636003
 Requested convergence on RMS density matrix=1.00D-08 within 128 cycles.
 Requested convergence on MAX density matrix=1.00D-06.
 Requested convergence on             energy=1.00D-06.
 No special actions if energy rises.
 FoFCou: FMM=F IPFlag=           0 FMFlag=           0 FMFlg1=           0
         NFxFlg=           0 DoJE=F BraDBF=F KetDBF=F FulRan=T
         wScrn=  0.000000 ICntrl=     600 IOpCl=  0 I1Cent=           0 NGrid=           0
         NMat0=    1 NMatS0=   1953 NMatT0=    0 NMatD0=    1 NMtDS0=    0 NMtDT0=    0
 Petite list used in FoFCou.

 Cycle   1  Pass 1  IDiag  1:
 E= -76.0267909148805    
 DIIS: error= 1.15D-01 at cycle   1 NSaved=   1.
 NSaved= 1 IEnMin= 1 EnMin= -76.0267909148805     IErMin= 1 ErrMin= 1.15D-01
 ErrMax= 1.15D-01  0.00D+00 EMaxC= 1.00D-01 BMatC= 2.01D-01 BMatP= 2.01D-01
 IDIUse=3 WtCom= 0.00D+00 WtEn= 1.00D+00
 Coeff-Com:  0.100D+01
 Coeff-En:   0.100D+01
 Coeff:      0.100D+01
 Gap=     0.824 Goal=   None    Shift=    0.000
 GapD=    0.824 DampG=2.000 DampE=0.250 DampFc=0.5000 IDamp=-1.
 Damping current iteration by 5.00D-01
 RMSDP=2.66D-03 MaxDP=4.61D-02              OVMax= 4.17D-02

 Cycle   2  Pass 1  IDiag  1:
 E= -76.0403197728690     Delta-E=       -0.013528857988 Rises=F Damp=T
 DIIS: error= 5.84D-02 at cycle   2 NSaved=   2.
 NSaved= 2 IEnMin= 2 EnMin= -76.0403197728690     IErMin= 2 ErrMin= 5.84D-02
 ErrMax= 5.84D-02  0.00D+00 EMaxC= 1.00D-01 BMatC= 5.21D-02 BMatP= 2.01D-01
 IDIUse=3 WtCom= 4.16D-01 WtEn= 5.84D-01
 Coeff-Com: -0.102D+01 0.202D+01
 Coeff-En:   0.000D+00 0.100D+01
 Coeff:     -0.424D+00 0.142D+01
 Gap=     0.550 Goal=   None    Shift=    0.000
 RMSDP=1.68D-03 MaxDP=2.77D-02 DE=-1.35D-02 OVMax= 1.50D-02

 Cycle   3  Pass 1  IDiag  1:
 E= -76.0557151297210     Delta-E=       -0.015395356852 Rises=F Damp=F
 DIIS: error= 1.98D-03 at cycle   3 NSaved=   3.
 NSaved= 3 IEnMin= 3 EnMin= -76.0557151297210     IErMin= 3 ErrMin= 1.98D-03
 ErrMax= 1.98D-03  0.00D+00 EMaxC= 1.00D-01 BMatC= 1.60D-04 BMatP= 5.21D-02
 IDIUse=3 WtCom= 9.80D-01 WtEn= 1.98D-02
 Coeff-Com: -0.799D-01 0.133D+00 0.946D+00
 Coeff-En:   0.000D+00 0.000D+00 0.100D+01
 Coeff:     -0.783D-01 0.131D+00 0.947D+00
 Gap=     0.556 Goal=   None    Shift=    0.000
 RMSDP=2.56D-04 MaxDP=4.86D-03 DE=-1.54D-02 OVMax= 6.53D-03

 Cycle   4  Pass 1  IDiag  1:
 E= -76.0559435881799     Delta-E=       -0.000228458459 Rises=F Damp=F
 DIIS: error= 1.06D-03 at cycle   4 NSaved=   4.
 NSaved= 4 IEnMin= 4 EnMin= -76.0559435881799     IErMin= 4 ErrMin= 1.06D-03
 ErrMax= 1.06D-03  0.00D+00 EMaxC= 1.00D-01 BMatC= 1.13D-05 BMatP= 1.60D-04
 IDIUse=3 WtCom= 9.89D-01 WtEn= 1.06D-02
 Coeff-Com:  0.784D-01-0.150D+00-0.164D+00 0.124D+01
 Coeff-En:   0.000D+00 0.000D+00 0.000D+00 0.100D+01
 Coeff:      0.775D-01-0.149D+00-0.162D+00 0.123D+01
 Gap=     0.554 Goal=   None    Shift=    0.000
 RMSDP=9.64D-05 MaxDP=1.78D-03 DE=-2.28D-04 OVMax= 3.68D-03

 Cycle   5  Pass 1  IDiag  1:
 E= -76.0559748571715     Delta-E=       -0.000031268992 Rises=F Damp=F
 DIIS: error= 2.31D-04 at cycle   5 NSaved=   5.
 NSaved= 5 IEnMin= 5 EnMin= -76.0559748571715     IErMin= 5 ErrMin= 2.31D-04
 ErrMax= 2.31D-04  0.00D+00 EMaxC= 1.00D-01 BMatC= 7.39D-07 BMatP= 1.13D-05
 IDIUse=3 WtCom= 9.98D-01 WtEn= 2.31D-03
 Coeff-Com: -0.296D-01 0.580D-01 0.468D-02-0.397D+00 0.136D+01
 Coeff-En:   0.000D+00 0.000D+00 0.000D+00 0.000D+00 0.100D+01
 Coeff:     -0.296D-01 0.579D-01 0.467D-02-0.396D+00 0.136D+01
 Gap=     0.554 Goal=   None    Shift=    0.000
 RMSDP=1.98D-05 MaxDP=3.17D-04 DE=-3.13D-05 OVMax= 8.15D-04

 Cycle   6  Pass 1  IDiag  1:
 E= -76.0559767662222     Delta-E=       -0.000001909051 Rises=F Damp=F
 DIIS: error= 5.18D-05 at cycle   6 NSaved=   6.
 NSaved= 6 IEnMin= 6 EnMin= -76.0559767662222     IErMin= 6 ErrMin= 5.18D-05
 ErrMax= 5.18D-05  0.00D+00 EMaxC= 1.00D-01 BMatC= 3.62D-08 BMatP= 7.39D-07
 IDIUse=1 WtCom= 1.00D+00 WtEn= 0.00D+00
 Coeff-Com:  0.344D-02-0.708D-02 0.176D-01 0.410D-02-0.279D+00 0.126D+01
 Coeff:      0.344D-02-0.708D-02 0.176D-01 0.410D-02-0.279D+00 0.126D+01
 Gap=     0.554 Goal=   None    Shift=    0.000
 RMSDP=3.82D-06 MaxDP=7.19D-05 DE=-1.91D-06 OVMax= 1.55D-04

 Cycle   7  Pass 1  IDiag  1:
 E= -76.0559768372290     Delta-E=       -0.000000071007 Rises=F Damp=F
 DIIS: error= 5.72D-06 at cycle   7 NSaved=   7.
 NSaved= 7 IEnMin= 7 EnMin= -76.0559768372290     IErMin= 7 ErrMin= 5.72D-06
 ErrMax= 5.72D-06  0.00D+00 EMaxC= 1.00D-01 BMatC= 6.10D-10 BMatP= 3.62D-08
 IDIUse=1 WtCom= 1.00D+00 WtEn= 0.00D+00
 Coeff-Com:  0.119D-03-0.200D-03-0.162D-02 0.488D-02 0.548D-02-0.161D+00
 Coeff-Com:  0.115D+01
 Coeff:      0.119D-03-0.200D-03-0.162D-02 0.488D-02 0.548D-02-0.161D+00
 Coeff:      0.115D+01
 Gap=     0.554 Goal=   None    Shift=    0.000
 RMSDP=5.30D-07 MaxDP=7.29D-06 DE=-7.10D-08 OVMax= 1.98D-05

 Cycle   8  Pass 1  IDiag  1:
 E= -76.0559768386840     Delta-E=       -0.000000001455 Rises=F Damp=F
 DIIS: error= 1.72D-06 at cycle   8 NSaved=   8.
 NSaved= 8 IEnMin= 8 EnMin= -76.0559768386840     IErMin= 8 ErrMin= 1.72D-06
 ErrMax= 1.72D-06  0.00D+00 EMaxC= 1.00D-01 BMatC= 4.20D-11 BMatP= 6.10D-10
 IDIUse=1 WtCom= 1.00D+00 WtEn= 0.00D+00
 Coeff-Com: -0.305D-03 0.608D-03-0.669D-03-0.205D-02 0.179D-01-0.373D-01
 Coeff-Com: -0.278D+00 0.130D+01
 Coeff:     -0.305D-03 0.608D-03-0.669D-03-0.205D-02 0.179D-01-0.373D-01
 Coeff:     -0.278D+00 0.130D+01
 Gap=     0.554 Goal=   None    Shift=    0.000
 RMSDP=1.56D-07 MaxDP=2.21D-06 DE=-1.45D-09 OVMax= 6.17D-06

 Cycle   9  Pass 1  IDiag  1:
 E= -76.0559768387762     Delta-E=       -0.000000000092 Rises=F Damp=F
 DIIS: error= 3.01D-07 at cycle   9 NSaved=   9.
 NSaved= 9 IEnMin= 9 EnMin= -76.0559768387762     IErMin= 9 ErrMin= 3.01D-07
 ErrMax= 3.01D-07  0.00D+00 EMaxC= 1.00D-01 BMatC= 1.34D-12 BMatP= 4.20D-11
 IDIUse=1 WtCom= 1.00D+00 WtEn= 0.00D+00
 Coeff-Com:  0.132D-03-0.266D-03 0.358D-03 0.694D-03-0.803D-02 0.235D-01
 Coeff-Com:  0.637D-01-0.499D+00 0.142D+01
 Coeff:      0.132D-03-0.266D-03 0.358D-03 0.694D-03-0.803D-02 0.235D-01
 Coeff:      0.637D-01-0.499D+00 0.142D+01
 Gap=     0.554 Goal=   None    Shift=    0.000
 RMSDP=3.57D-08 MaxDP=4.94D-07 DE=-9.22D-11 OVMax= 1.20D-06

 Cycle  10  Pass 1  IDiag  1:
 E= -76.0559768387795     Delta-E=       -0.000000000003 Rises=F Damp=F
 DIIS: error= 3.09D-08 at cycle  10 NSaved=  10.
 NSaved=10 IEnMin=10 EnMin= -76.0559768387795     IErMin=10 ErrMin= 3.09D-08
 ErrMax= 3.09D-08  0.00D+00 EMaxC= 1.00D-01 BMatC= 2.99D-14 BMatP= 1.34D-12
 IDIUse=1 WtCom= 1.00D+00 WtEn= 0.00D+00
 Coeff-Com: -0.148D-04 0.298D-04-0.442D-04-0.465D-04 0.871D-03-0.276D-02
 Coeff-Com: -0.631D-02 0.604D-01-0.294D+00 0.124D+01
 Coeff:     -0.148D-04 0.298D-04-0.442D-04-0.465D-04 0.871D-03-0.276D-02
 Coeff:     -0.631D-02 0.604D-01-0.294D+00 0.124D+01
 Gap=     0.554 Goal=   None    Shift=    0.000
 RMSDP=4.55D-09 MaxDP=5.60D-08 DE=-3.37D-12 OVMax= 1.90D-07

 SCF Done:  E(RHF) =  -76.0559768388     A.U. after   10 cycles
            NFock= 10  Conv=0.45D-08     -V/T= 2.0014
 KE= 7.594962067985D+01 PE=-1.987922154176D+02 EE= 3.769830979725D+01
 Leave Link  502 at Fri Sep  3 00:09:17 2021, MaxMem=  1342177280 cpu:         1.5
 (Enter /gpfs/share/home/1801110325/software/g09e01/l801.exe)
 Range of M.O.s used for correlation:     1    62
 NBasis=    62 NAE=     5 NBE=     5 NFC=     0 NFV=     0
 NROrb=     62 NOA=     5 NOB=     5 NVA=    57 NVB=    57

 **** Warning!!: The largest alpha MO coefficient is  0.10025715D+02

 Leave Link  801 at Fri Sep  3 00:09:17 2021, MaxMem=  1342177280 cpu:         0.1
 (Enter /gpfs/share/home/1801110325/software/g09e01/l906.exe)
 FulOut=F Deriv=F AODrv=F NAtomX=     3
   MMem=       40695  MDisk=           5 MDiskD=           5
  W3Min=       19380 MinDsk=      105583 NBas6D=          68
 NBas2D=        2475    NTT=        2346    LW2=     2000000
    MDV=  1342144445 MDiskM=       98540 NBas2p=        1895
 Fully in-core method, ICMem=    12244285.
 IMap=   1   2   3   4   5
 JobTyp=1 Pass  1 fully in-core, NPsUse=  6.
 Compute canonical integrals.
 FoFCou: FMM=F IPFlag=           0 FMFlag=           0 FMFlg1=           0
         NFxFlg=           0 DoJE=F BraDBF=F KetDBF=F FulRan=T
         wScrn=  0.000000 ICntrl=     600 IOpCl=  1 I1Cent=           0 NGrid=           0
         NMat0=    1 NMatS0=   2475 NMatT0=    0 NMatD0=    1 NMtDS0=    0 NMtDT0=    0
 Symmetry not used in FoFCou.
 Spin components of T(2) and E(2):
     alpha-alpha T2 =       0.8065184117D-02 E2=     -0.3479071221D-01
     alpha-beta  T2 =       0.4678664975D-01 E2=     -0.2360450094D+00
     beta-beta   T2 =       0.8065184117D-02 E2=     -0.3479071221D-01
 The integrals were generated   1 times.
 ANorm=    0.1030978670D+01
 E2 =    -0.3056264339D+00 EUMP2 =    -0.76361603272641D+02
 Leave Link  906 at Fri Sep  3 00:09:18 2021, MaxMem=  1342177280 cpu:         1.9
 (Enter /gpfs/share/home/1801110325/software/g09e01/l601.exe)
 Copying SCF densities to generalized density rwf, IOpCl= 0 IROHF=0.

 **********************************************************************

            Population analysis using the SCF density.

 **********************************************************************

 Orbital symmetries:
       Occupied  (A1) (A1) (B2) (A1) (B1)
       Virtual   (A1) (B2) (A1) (B1) (A1) (B2) (B2) (A1) (B2) (A1)
                 (A1) (A2) (B1) (A1) (B2) (B2) (B1) (A1) (B2) (A1)
                 (B1) (A2) (A1) (B2) (A1) (A1) (B2) (A2) (B2) (B1)
                 (A1) (B2) (A1) (B1) (B1) (A1) (B2) (A1) (B1) (A2)
                 (B2) (B1) (A1) (A2) (A1) (B2) (A1) (B2) (B1) (A2)
                 (A1) (A1) (B2) (B1) (A1) (B2) (A1)
 The electronic state is 1-A1.
 Alpha  occ. eigenvalues --  -20.56821  -1.34857  -0.71169  -0.58434  -0.51019
 Alpha virt. eigenvalues --    0.04343   0.07176   0.23734   0.24583   0.24672
 Alpha virt. eigenvalues --    0.25722   0.31313   0.32563   0.66569   0.71050
 Alpha virt. eigenvalues --    0.78529   0.83840   0.91677   1.05681   1.08541
 Alpha virt. eigenvalues --    1.17608   1.26130   1.49362   1.59319   1.65948
 Alpha virt. eigenvalues --    2.03969   2.05661   2.16712   2.42144   2.50980
 Alpha virt. eigenvalues --    2.75135   3.17035   3.92769   3.96691   3.98454
 Alpha virt. eigenvalues --    4.20490   4.43909   4.57090   5.40876   5.44039
 Alpha virt. eigenvalues --    5.54704   5.63297   5.77894   5.91120   6.05256
 Alpha virt. eigenvalues --    6.13640   7.41438   7.43519   7.44320   7.56684
 Alpha virt. eigenvalues --    7.78464   7.82337   8.05282  44.90567  44.91148
 Alpha virt. eigenvalues --   44.95347  45.03555  45.10893  47.08021  47.45850
 Alpha virt. eigenvalues --   47.82750  51.60049
          Condensed to atoms (all electrons):
               1          2          3
     1  O    7.975016   0.270016   0.270016
     2  H    0.270016   0.481784  -0.009325
     3  H    0.270016  -0.009325   0.481784
 Mulliken charges:
               1
     1  O   -0.515049
     2  H    0.257524
     3  H    0.257524
 Sum of Mulliken charges =   0.00000
 Mulliken charges with hydrogens summed into heavy atoms:
               1
     1  O    0.000000
 Electronic spatial extent (au):  <R**2>=             19.6143
 Charge=              0.0000 electrons
 Dipole moment (field-independent basis, Debye):
    X=              0.0000    Y=             -0.0000    Z=             -2.0826  Tot=              2.0826
 Quadrupole moment (field-independent basis, Debye-Ang):
   XX=             -7.5921   YY=             -4.2259   ZZ=             -6.2354
   XY=              0.0000   XZ=             -0.0000   YZ=              0.0000
 Traceless Quadrupole moment (field-independent basis, Debye-Ang):
   XX=             -1.5743   YY=              1.7919   ZZ=             -0.2176
   XY=              0.0000   XZ=             -0.0000   YZ=              0.0000
 Octapole moment (field-independent basis, Debye-Ang**2):
  XXX=             -0.0000  YYY=             -0.0000  ZZZ=             -1.3275  XYY=              0.0000
  XXY=              0.0000  XXZ=             -0.3420  XZZ=             -0.0000  YZZ=             -0.0000
  YYZ=             -1.4738  XYZ=             -0.0000
 Hexadecapole moment (field-independent basis, Debye-Ang**3):
 XXXX=             -6.6139 YYYY=             -5.9415 ZZZZ=             -7.2500 XXXY=             -0.0000
 XXXZ=              0.0000 YYYX=             -0.0000 YYYZ=              0.0000 ZZZX=              0.0000
 ZZZY=              0.0000 XXYY=             -2.4333 XXZZ=             -2.3738 YYZZ=             -1.8094
 XXYZ=             -0.0000 YYXZ=             -0.0000 ZZXY=              0.0000
 N-N= 9.088308101732D+00 E-N=-1.987922157886D+02  KE= 7.594962067985D+01
 Symmetry A1   KE= 6.791771488325D+01
 Symmetry A2   KE= 3.122735018032D-34
 Symmetry B1   KE= 4.477739273408D+00
 Symmetry B2   KE= 3.554166523192D+00
 Leave Link  601 at Fri Sep  3 00:09:18 2021, MaxMem=  1342177280 cpu:         0.1
 (Enter /gpfs/share/home/1801110325/software/g09e01/l9999.exe)
 1\1\GINC-A4U03N09\SP\RMP2-Full\GTlarge\H2O1\1801110325\03-Sep-2021\0\\
 #P Geom=AllCheck Guess=TCheck SCRF=Check MP2=Full/GTLarge\\H2O_G3\\0,1
 \O,0,0.022989416,0.77260913,0.\H,0,0.9904346379,0.819233414,0.\H,0,-0.
 256000436,1.7001266466,0.\\Version=EM64L-G09RevE.01\State=1-A1\HF=-76.
 0559768\MP2=-76.3616033\RMSD=4.546e-09\PG=C02V [C2(O1),SGV(H2)]\\@


 LAW OF COMPENSATION:
      NO CALCULATION IS EVER A COMPLETE FAILURE; IT 
      CAN ALWAYS SERVE AS A BAD EXAMPLE.

                                           -- ANON
 Diagonal vibrational polarizability:
        0.0000000       0.0000000       0.0000000

 Temperature=              298.150000 Pressure=                      1.000000
 E(ZPE)=                     0.020513 E(Thermal)=                    0.023348
 E(QCISD(T))=              -76.207892 E(Empiric)=                   -0.025544
 DE(Plus)=                  -0.012978 DE(2DF)=                      -0.074489
 E(Delta-G3)=               -0.081653 E(G3-Empiric)=                -0.025544
 G3(0 K)=                  -76.382042 G3 Energy=                   -76.379207
 G3 Enthalpy=              -76.378263 G3 Free Energy=              -76.399639
 1\1\GINC-A4U03N09\Mixed\G3\G3\H2O1\1801110325\03-Sep-2021\0\\#P Geom=A
 llCheck Guess=TCheck SCRF=Check MP2=Full/GTLarge\\H2O_G3\\0,1\O,0,0.02
 2989416,0.77260913,0.\H,0,0.9904346379,0.819233414,0.\H,0,-0.256000436
 ,1.7001266466,0.\\Version=EM64L-G09RevE.01\State=1-A1\MP2/G3Bas1=-76.1
 968478\QCISD(T)/G3Bas1=-76.2078917\MP4/GTBas1=-76.2073266\MP2/GTBas2=-
 76.2097019\MP4/GTBas2=-76.2203045\MP2/GTBas3=-76.2670958\MP4/GTBas3=-7
 6.2818151\MP2/GTLarge=-76.3616033\G3=-76.3820425\FreqCoord=0.060300061
 4,1.4838708625,0.,1.8494532899,1.5459319807,0.,-0.4784301469,3.1911173
 648,0.\PG=C02V [C2(O1),SGV(H2)]\NImag=0\\0.70164275,-0.11850769,0.6177
 1121,0.,0.,-0.00002376,-0.59793644,0.00807312,0.,0.61315529,-0.0645814
 9,-0.06174054,0.,0.00333865,0.05931329,0.,0.,0.00001188,0.,0.,0.000018
 34,-0.10370631,0.11043457,0.,-0.01521885,0.06124284,0.,0.11892516,0.18
 308918,-0.55597067,0.,-0.01141178,0.00242725,0.,-0.17167741,0.55354342
 ,0.,0.,0.00001188,0.,0.,-0.00003022,0.,0.,0.00001834\\0.00001485,0.000
 02102,0.,0.00004910,-0.00005046,0.,-0.00006396,0.00002944,0.\\\@
 Job cpu time:       0 days  0 hours  0 minutes  7.6 seconds.
 File lengths (MBytes):  RWF=   1280 Int=      0 D2E=      0 Chk=     32 Scr=     32
 Normal termination of Gaussian 09 at Fri Sep  3 00:09:18 2021.
