 Entering Gaussian System, Link 0=g09
 AtFile(1): pc-2.gbs
            -H     0
            S    4   1.00
                  0.754230D+02           0.240650D-02
                  0.113500D+02           0.184870D-01
                  0.259930D+01           0.897420D-01
                  0.735130D+00           0.281110D+00
            S    1   1.00
                  0.231670D+00           0.100000D+01
            S    1   1.00
                  0.741470D-01           0.100000D+01
            P    1   1.00
                  0.160000D+01           0.100000D+01
            P    1   1.00
                  0.450000D+00           0.100000D+01
            D    1   1.00
                  0.125000D+01           0.100000D+01
            ****
            -C     0
            S    7   1.00
                  0.785710D+04           0.568250D-03
                  0.117870D+04           0.439150D-02
                  0.268320D+03           0.225040D-01
                  0.759480D+02           0.866530D-01
                  0.245590D+02           0.244050D+00
                  0.862120D+01           0.441480D+00
                  0.312780D+01           0.353320D+00
            S    7   1.00
                  0.117870D+04          -0.594920D-06
                  0.268320D+03          -0.627480D-04
                  0.759480D+02          -0.757730D-03
                  0.245590D+02          -0.733080D-02
                  0.862120D+01          -0.389320D-01
                  0.312780D+01          -0.889080D-01
                  0.822020D+00           0.216890D+00
            S    1   1.00
                  0.330170D+00           0.100000D+01
            S    1   1.00
                  0.114630D+00           0.100000D+01
            P    4   1.00
                  0.337750D+02           0.602940D-02
                  0.767660D+01           0.432280D-01
                  0.223570D+01           0.163010D+00
                  0.764470D+00           0.365040D+00
            P    1   1.00
                  0.262320D+00           0.100000D+01
            P    1   1.00
                  0.846380D-01           0.100000D+01
            D    1   1.00
                  0.140000D+01           0.100000D+01
            D    1   1.00
                  0.450000D+00           0.100000D+01
            F    1   1.00
                  0.950000D+00           0.100000D+01
            ****
            -N     0
            S    7   1.00
                  0.111010D+05           0.545700D-03
                  0.166530D+04           0.421810D-02
                  0.379080D+03           0.216450D-01
                  0.107300D+03           0.837760D-01
                  0.347470D+02           0.238810D+00
                  0.122490D+02           0.439940D+00
                  0.447430D+01           0.363640D+00
            S    7   1.00
                  0.166530D+04          -0.150060D-05
                  0.379080D+03          -0.587530D-04
                  0.107300D+03          -0.774530D-03
                  0.347470D+02          -0.721610D-02
                  0.122490D+02          -0.393380D-01
                  0.447430D+01          -0.906110D-01
                  0.124040D+01           0.198820D+00
            S    1   1.00
                  0.487430D+00           0.100000D+01
            S    1   1.00
                  0.164840D+00           0.100000D+01
            P    4   1.00
                  0.479340D+02           0.617060D-02
                  0.109990D+02           0.442600D-01
                  0.324720D+01           0.168250D+00
                  0.111140D+01           0.368480D+00
            P    1   1.00
                  0.379880D+00           0.100000D+01
            P    1   1.00
                  0.120680D+00           0.100000D+01
            D    1   1.00
                  0.180000D+01           0.100000D+01
            D    1   1.00
                  0.550000D+00           0.100000D+01
            F    1   1.00
                  0.102000D+01           0.100000D+01
            ****
            -O     0
            S    7   1.00
                  0.147820D+05           0.535190D-03
                  0.221730D+04           0.413750D-02
                  0.504740D+03           0.212450D-01
                  0.142870D+03           0.824530D-01
                  0.463000D+02           0.236710D+00
                  0.163370D+02           0.440390D+00
                  0.598280D+01           0.364650D+00
            S    7   1.00
                  0.221730D+04          -0.192750D-05
                  0.504740D+03          -0.579640D-04
                  0.142870D+03          -0.794940D-03
                  0.463000D+02          -0.731250D-02
                  0.163370D+02          -0.405740D-01
                  0.598280D+01          -0.915940D-01
                  0.167180D+01           0.209400D+00
            S    1   1.00
                  0.646620D+00           0.100000D+01
            S    1   1.00
                  0.216690D+00           0.100000D+01
            P    4   1.00
                  0.604240D+02           0.689490D-02
                  0.139350D+02           0.490050D-01
                  0.415310D+01           0.182550D+00
                  0.141580D+01           0.376330D+00
            P    1   1.00
                  0.475490D+00           0.100000D+01
            P    1   1.00
                  0.145290D+00           0.100000D+01
            D    1   1.00
                  0.220000D+01           0.100000D+01
            D    1   1.00
                  0.650000D+00           0.100000D+01
            F    1   1.00
                  0.110000D+01           0.100000D+01
            ****
 Initial command:
 /public3/home/sc51754/softwares/g09e01/l1.exe "./Gau-43922.inp" -scrdir="./"
 Entering Link 1 = /public3/home/sc51754/softwares/g09e01/l1.exe PID=     43923.
  
 Copyright (c) 1988,1990,1992,1993,1995,1998,2003,2009,2015,
            Gaussian, Inc.  All Rights Reserved.
  
 This is part of the Gaussian(R) 09 program.  It is based on
 the Gaussian(R) 03 system (copyright 2003, Gaussian, Inc.),
 the Gaussian(R) 98 system (copyright 1998, Gaussian, Inc.),
 the Gaussian(R) 94 system (copyright 1995, Gaussian, Inc.),
 the Gaussian 92(TM) system (copyright 1992, Gaussian, Inc.),
 the Gaussian 90(TM) system (copyright 1990, Gaussian, Inc.),
 the Gaussian 88(TM) system (copyright 1988, Gaussian, Inc.),
 the Gaussian 86(TM) system (copyright 1986, Carnegie Mellon
 University), and the Gaussian 82(TM) system (copyright 1983,
 Carnegie Mellon University). Gaussian is a federally registered
 trademark of Gaussian, Inc.
  
 This software contains proprietary and confidential information,
 including trade secrets, belonging to Gaussian, Inc.
  
 This software is provided under written license and may be
 used, copied, transmitted, or stored only in accord with that
 written license.
  
 The following legend is applicable only to US Government
 contracts under FAR:
  
                    RESTRICTED RIGHTS LEGEND
  
 Use, reproduction and disclosure by the US Government is
 subject to restrictions as set forth in subparagraphs (a)
 and (c) of the Commercial Computer Software - Restricted
 Rights clause in FAR 52.227-19.
  
 Gaussian, Inc.
 340 Quinnipiac St., Bldg. 40, Wallingford CT 06492
  
  
 ---------------------------------------------------------------
 Warning -- This program may not be used in any manner that
 competes with the business of Gaussian, Inc. or will provide
 assistance to any competitor of Gaussian, Inc.  The licensee
 of this program is prohibited from giving any competitor of
 Gaussian, Inc. access to this program.  By using this program,
 the user acknowledges that Gaussian, Inc. is engaged in the
 business of creating and licensing software in the field of
 computational chemistry and represents and warrants to the
 licensee that it is not a competitor of Gaussian, Inc. and that
 it will not use this program in any manner prohibited above.
 ---------------------------------------------------------------
  

 Cite this work as:
 Gaussian 09, Revision E.01,
 M. J. Frisch, G. W. Trucks, H. B. Schlegel, G. E. Scuseria, 
 M. A. Robb, J. R. Cheeseman, G. Scalmani, V. Barone, B. Mennucci, 
 G. A. Petersson, H. Nakatsuji, M. Caricato, X. Li, H. P. Hratchian, 
 A. F. Izmaylov, J. Bloino, G. Zheng, J. L. Sonnenberg, M. Hada, 
 M. Ehara, K. Toyota, R. Fukuda, J. Hasegawa, M. Ishida, T. Nakajima, 
 Y. Honda, O. Kitao, H. Nakai, T. Vreven, J. A. Montgomery, Jr., 
 J. E. Peralta, F. Ogliaro, M. Bearpark, J. J. Heyd, E. Brothers, 
 K. N. Kudin, V. N. Staroverov, T. Keith, R. Kobayashi, J. Normand, 
 K. Raghavachari, A. Rendell, J. C. Burant, S. S. Iyengar, J. Tomasi, 
 M. Cossi, N. Rega, J. M. Millam, M. Klene, J. E. Knox, J. B. Cross, 
 V. Bakken, C. Adamo, J. Jaramillo, R. Gomperts, R. E. Stratmann, 
 O. Yazyev, A. J. Austin, R. Cammi, C. Pomelli, J. W. Ochterski, 
 R. L. Martin, K. Morokuma, V. G. Zakrzewski, G. A. Voth, 
 P. Salvador, J. J. Dannenberg, S. Dapprich, A. D. Daniels, 
 O. Farkas, J. B. Foresman, J. V. Ortiz, J. Cioslowski, 
 and D. J. Fox, Gaussian, Inc., Wallingford CT, 2013.
 
 ******************************************
 Gaussian 09:  EM64L-G09RevE.01 30-Nov-2015
                26-Aug-2021 
 ******************************************
 %nprocshared=64
 Will use up to   64 processors via shared memory.
 %mem=128GB
 %chk=HY_SVWN_PC2_OPT_FREQ.chk
 --------------------
 #p opt freq SVWN/gen
 --------------------
 1/14=-1,18=20,19=15,26=3,38=1/1,3;
 2/9=110,12=2,17=6,18=5,40=1/2;
 3/5=7,11=2,16=1,25=1,30=1,71=1,74=205/1,2,3;
 4//1;
 5/5=2,38=5/2;
 6/7=2,8=2,9=2,10=2,28=1/1;
 7//1,2,3,16;
 1/14=-1,18=20,19=15,26=3/3(2);
 2/9=110/2;
 99//99;
 2/9=110/2;
 3/5=7,6=1,11=2,16=1,25=1,30=1,71=1,74=205,82=7/1,2,3;
 4/5=5,16=3,69=1/1;
 5/5=2,38=5/2;
 7//1,2,3,16;
 1/14=-1,18=20,19=15,26=3/3(-5);
 2/9=110/2;
 6/7=2,8=2,9=2,10=2,19=2,28=1/1;
 99/9=1/99;
 Leave Link    1 at Thu Aug 26 23:57:00 2021, MaxMem= 17179869184 cpu:         5.5
 (Enter /public3/home/sc51754/softwares/g09e01/l101.exe)
 --------------------
 HY_SVWN_PC2_OPT_FREQ
 --------------------
 Symbolic Z-matrix:
 Charge =  0 Multiplicity = 1
 O                     0.00837   2.23974   0. 
 N                    -1.17143   0.29602   0. 
 C                     0.        0.89831   0. 
 C                     1.21926   0.22535   0. 
 C                    -1.18415  -1.03535   0. 
 C                     1.18363  -1.14867   0. 
 C                    -0.04131  -1.80488   0. 
 H                    -0.91394   2.51588   0. 
 H                     2.14363   0.78426   0. 
 H                    -2.16362  -1.50192   0. 
 H                     2.10659  -1.71377   0. 
 H                    -0.10426  -2.88308   0. 
 
 NAtoms=     12 NQM=       12 NQMF=       0 NMMI=      0 NMMIF=      0
                NMic=       0 NMicF=      0.
                    Isotopes and Nuclear Properties:
 (Nuclear quadrupole moments (NQMom) in fm**2, nuclear magnetic moments (NMagM)
  in nuclear magnetons)

  Atom         1           2           3           4           5           6           7           8           9          10
 IAtWgt=          16          14          12          12          12          12          12           1           1           1
 AtmWgt=  15.9949146  14.0030740  12.0000000  12.0000000  12.0000000  12.0000000  12.0000000   1.0078250   1.0078250   1.0078250
 NucSpn=           0           2           0           0           0           0           0           1           1           1
 AtZEff=   0.0000000   0.0000000   0.0000000   0.0000000   0.0000000   0.0000000   0.0000000   0.0000000   0.0000000   0.0000000
 NQMom=    0.0000000   2.0440000   0.0000000   0.0000000   0.0000000   0.0000000   0.0000000   0.0000000   0.0000000   0.0000000
 NMagM=    0.0000000   0.4037610   0.0000000   0.0000000   0.0000000   0.0000000   0.0000000   2.7928460   2.7928460   2.7928460
 AtZNuc=   8.0000000   7.0000000   6.0000000   6.0000000   6.0000000   6.0000000   6.0000000   1.0000000   1.0000000   1.0000000

  Atom        11          12
 IAtWgt=           1           1
 AtmWgt=   1.0078250   1.0078250
 NucSpn=           1           1
 AtZEff=   0.0000000   0.0000000
 NQMom=    0.0000000   0.0000000
 NMagM=    2.7928460   2.7928460
 AtZNuc=   1.0000000   1.0000000
 Leave Link  101 at Thu Aug 26 23:57:01 2021, MaxMem= 17179869184 cpu:        18.4
 (Enter /public3/home/sc51754/softwares/g09e01/l103.exe)

 GradGradGradGradGradGradGradGradGradGradGradGradGradGradGradGradGradGrad
 Berny optimization.
 Initialization pass.
                           ----------------------------
                           !    Initial Parameters    !
                           ! (Angstroms and Degrees)  !
 --------------------------                            --------------------------
 ! Name  Definition              Value          Derivative Info.                !
 --------------------------------------------------------------------------------
 ! R1    R(1,3)                  1.3415         estimate D2E/DX2                !
 ! R2    R(1,8)                  0.9628         estimate D2E/DX2                !
 ! R3    R(2,3)                  1.3172         estimate D2E/DX2                !
 ! R4    R(2,5)                  1.3314         estimate D2E/DX2                !
 ! R5    R(3,4)                  1.3927         estimate D2E/DX2                !
 ! R6    R(4,6)                  1.3745         estimate D2E/DX2                !
 ! R7    R(4,9)                  1.0802         estimate D2E/DX2                !
 ! R8    R(5,7)                  1.3778         estimate D2E/DX2                !
 ! R9    R(5,10)                 1.0849         estimate D2E/DX2                !
 ! R10   R(6,7)                  1.3896         estimate D2E/DX2                !
 ! R11   R(6,11)                 1.0822         estimate D2E/DX2                !
 ! R12   R(7,12)                 1.08           estimate D2E/DX2                !
 ! A1    A(3,1,8)              106.3104         estimate D2E/DX2                !
 ! A2    A(3,2,5)              117.7571         estimate D2E/DX2                !
 ! A3    A(1,3,2)              117.5674         estimate D2E/DX2                !
 ! A4    A(1,3,4)              118.5383         estimate D2E/DX2                !
 ! A5    A(2,3,4)              123.8942         estimate D2E/DX2                !
 ! A6    A(3,4,6)              117.4104         estimate D2E/DX2                !
 ! A7    A(3,4,9)              119.945          estimate D2E/DX2                !
 ! A8    A(6,4,9)              122.6446         estimate D2E/DX2                !
 ! A9    A(2,5,7)              123.4071         estimate D2E/DX2                !
 ! A10   A(2,5,10)             116.018          estimate D2E/DX2                !
 ! A11   A(7,5,10)             120.5749         estimate D2E/DX2                !
 ! A12   A(4,6,7)              119.6636         estimate D2E/DX2                !
 ! A13   A(4,6,11)             119.9925         estimate D2E/DX2                !
 ! A14   A(7,6,11)             120.3439         estimate D2E/DX2                !
 ! A15   A(5,7,6)              117.8675         estimate D2E/DX2                !
 ! A16   A(5,7,12)             120.6134         estimate D2E/DX2                !
 ! A17   A(6,7,12)             121.519          estimate D2E/DX2                !
 ! D1    D(8,1,3,2)              0.0            estimate D2E/DX2                !
 ! D2    D(8,1,3,4)            180.0            estimate D2E/DX2                !
 ! D3    D(5,2,3,1)            180.0            estimate D2E/DX2                !
 ! D4    D(5,2,3,4)              0.0            estimate D2E/DX2                !
 ! D5    D(3,2,5,7)              0.0            estimate D2E/DX2                !
 ! D6    D(3,2,5,10)           180.0            estimate D2E/DX2                !
 ! D7    D(1,3,4,6)            180.0            estimate D2E/DX2                !
 ! D8    D(1,3,4,9)              0.0            estimate D2E/DX2                !
 ! D9    D(2,3,4,6)              0.0            estimate D2E/DX2                !
 ! D10   D(2,3,4,9)            180.0            estimate D2E/DX2                !
 ! D11   D(3,4,6,7)              0.0            estimate D2E/DX2                !
 ! D12   D(3,4,6,11)           180.0            estimate D2E/DX2                !
 ! D13   D(9,4,6,7)            180.0            estimate D2E/DX2                !
 ! D14   D(9,4,6,11)             0.0            estimate D2E/DX2                !
 ! D15   D(2,5,7,6)              0.0            estimate D2E/DX2                !
 ! D16   D(2,5,7,12)           180.0            estimate D2E/DX2                !
 ! D17   D(10,5,7,6)           180.0            estimate D2E/DX2                !
 ! D18   D(10,5,7,12)            0.0            estimate D2E/DX2                !
 ! D19   D(4,6,7,5)              0.0            estimate D2E/DX2                !
 ! D20   D(4,6,7,12)           180.0            estimate D2E/DX2                !
 ! D21   D(11,6,7,5)           180.0            estimate D2E/DX2                !
 ! D22   D(11,6,7,12)            0.0            estimate D2E/DX2                !
 --------------------------------------------------------------------------------
 Trust Radius=3.00D-01 FncErr=1.00D-07 GrdErr=1.00D-06
 Number of steps in this run=     61 maximum allowed number of steps=    100.
 GradGradGradGradGradGradGradGradGradGradGradGradGradGradGradGradGradGrad

 Leave Link  103 at Thu Aug 26 23:57:01 2021, MaxMem= 17179869184 cpu:         4.3
 (Enter /public3/home/sc51754/softwares/g09e01/l202.exe)
                          Input orientation:                          
 ---------------------------------------------------------------------
 Center     Atomic      Atomic             Coordinates (Angstroms)
 Number     Number       Type             X           Y           Z
 ---------------------------------------------------------------------
      1          8           0        0.008372    2.239736    0.000000
      2          7           0       -1.171427    0.296023    0.000000
      3          6           0        0.000000    0.898309    0.000000
      4          6           0        1.219264    0.225352    0.000000
      5          6           0       -1.184145   -1.035351    0.000000
      6          6           0        1.183632   -1.148671    0.000000
      7          6           0       -0.041314   -1.804878    0.000000
      8          1           0       -0.913944    2.515883    0.000000
      9          1           0        2.143627    0.784264    0.000000
     10          1           0       -2.163617   -1.501920    0.000000
     11          1           0        2.106589   -1.713772    0.000000
     12          1           0       -0.104256   -2.883075    0.000000
 ---------------------------------------------------------------------
                    Distance matrix (angstroms):
                    1          2          3          4          5
     1  O    0.000000
     2  N    2.273752   0.000000
     3  C    1.341453   1.317190   0.000000
     4  C    2.350320   2.391735   1.392651   0.000000
     5  C    3.485440   1.331435   2.267430   2.713991   0.000000
     6  C    3.586438   2.762869   2.364553   1.374485   2.370487
     7  C    4.044919   2.385569   2.703503   2.389747   1.377764
     8  H    0.962769   2.234743   1.857913   3.130033   3.561498
     9  H    2.584127   3.350815   2.146659   1.080199   3.792765
    10  H    4.326376   2.053543   3.231461   3.798335   1.084920
    11  H    4.475795   3.845083   3.355694   2.132498   3.359938
    12  H    5.124049   3.353434   3.782821   3.378465   2.140151
                    6          7          8          9         10
     6  C    0.000000
     7  C    1.389640   0.000000
     8  H    4.222414   4.407999   0.000000
     9  H    2.158200   3.387864   3.513865   0.000000
    10  H    3.365837   2.143818   4.207662   4.876370   0.000000
    11  H    1.082215   2.149834   5.197461   2.498311   4.275458
    12  H    2.160281   1.080033   5.459335   4.301436   2.479628
                   11         12
    11  H    0.000000
    12  H    2.501021   0.000000
 Stoichiometry    C5H5NO
 Framework group  CS[SG(C5H5NO)]
 Deg. of freedom    21
 Full point group                 CS      NOp   2
 Largest Abelian subgroup         CS      NOp   2
 Largest concise Abelian subgroup C1      NOp   1
                         Standard orientation:                         
 ---------------------------------------------------------------------
 Center     Atomic      Atomic             Coordinates (Angstroms)
 Number     Number       Type             X           Y           Z
 ---------------------------------------------------------------------
      1          8           0        0.008372    2.239736    0.000000
      2          7           0       -1.171427    0.296023    0.000000
      3          6           0       -0.000000    0.898309    0.000000
      4          6           0        1.219264    0.225352    0.000000
      5          6           0       -1.184145   -1.035351    0.000000
      6          6           0        1.183632   -1.148671    0.000000
      7          6           0       -0.041314   -1.804878    0.000000
      8          1           0       -0.913944    2.515883    0.000000
      9          1           0        2.143627    0.784264    0.000000
     10          1           0       -2.163617   -1.501920    0.000000
     11          1           0        2.106589   -1.713772    0.000000
     12          1           0       -0.104257   -2.883075    0.000000
 ---------------------------------------------------------------------
 Rotational constants (GHZ):      5.9244098      2.8053779      1.9038502
 Leave Link  202 at Thu Aug 26 23:57:02 2021, MaxMem= 17179869184 cpu:         4.3
 (Enter /public3/home/sc51754/softwares/g09e01/l301.exe)
 General basis read from cards:  (5D, 7F)
 Centers:       8      9     10     11     12
 S 4 1.00
     Exponent=  7.5423000000D+01 Coefficients=  2.4065000000D-03
     Exponent=  1.1350000000D+01 Coefficients=  1.8487000000D-02
     Exponent=  2.5993000000D+00 Coefficients=  8.9742000000D-02
     Exponent=  7.3513000000D-01 Coefficients=  2.8111000000D-01
 S 1 1.00
     Exponent=  2.3167000000D-01 Coefficients=  1.0000000000D+00
 S 1 1.00
     Exponent=  7.4147000000D-02 Coefficients=  1.0000000000D+00
 P 1 1.00
     Exponent=  1.6000000000D+00 Coefficients=  1.0000000000D+00
 P 1 1.00
     Exponent=  4.5000000000D-01 Coefficients=  1.0000000000D+00
 D 1 1.00
     Exponent=  1.2500000000D+00 Coefficients=  1.0000000000D+00
 ****
 Centers:       3      4      5      6      7
 S 7 1.00
     Exponent=  7.8571000000D+03 Coefficients=  5.6825000000D-04
     Exponent=  1.1787000000D+03 Coefficients=  4.3915000000D-03
     Exponent=  2.6832000000D+02 Coefficients=  2.2504000000D-02
     Exponent=  7.5948000000D+01 Coefficients=  8.6653000000D-02
     Exponent=  2.4559000000D+01 Coefficients=  2.4405000000D-01
     Exponent=  8.6212000000D+00 Coefficients=  4.4148000000D-01
     Exponent=  3.1278000000D+00 Coefficients=  3.5332000000D-01
 S 7 1.00
     Exponent=  1.1787000000D+03 Coefficients= -5.9492000000D-07
     Exponent=  2.6832000000D+02 Coefficients= -6.2748000000D-05
     Exponent=  7.5948000000D+01 Coefficients= -7.5773000000D-04
     Exponent=  2.4559000000D+01 Coefficients= -7.3308000000D-03
     Exponent=  8.6212000000D+00 Coefficients= -3.8932000000D-02
     Exponent=  3.1278000000D+00 Coefficients= -8.8908000000D-02
     Exponent=  8.2202000000D-01 Coefficients=  2.1689000000D-01
 S 1 1.00
     Exponent=  3.3017000000D-01 Coefficients=  1.0000000000D+00
 S 1 1.00
     Exponent=  1.1463000000D-01 Coefficients=  1.0000000000D+00
 P 4 1.00
     Exponent=  3.3775000000D+01 Coefficients=  6.0294000000D-03
     Exponent=  7.6766000000D+00 Coefficients=  4.3228000000D-02
     Exponent=  2.2357000000D+00 Coefficients=  1.6301000000D-01
     Exponent=  7.6447000000D-01 Coefficients=  3.6504000000D-01
 P 1 1.00
     Exponent=  2.6232000000D-01 Coefficients=  1.0000000000D+00
 P 1 1.00
     Exponent=  8.4638000000D-02 Coefficients=  1.0000000000D+00
 D 1 1.00
     Exponent=  1.4000000000D+00 Coefficients=  1.0000000000D+00
 D 1 1.00
     Exponent=  4.5000000000D-01 Coefficients=  1.0000000000D+00
 F 1 1.00
     Exponent=  9.5000000000D-01 Coefficients=  1.0000000000D+00
 ****
 Centers:       2
 S 7 1.00
     Exponent=  1.1101000000D+04 Coefficients=  5.4570000000D-04
     Exponent=  1.6653000000D+03 Coefficients=  4.2181000000D-03
     Exponent=  3.7908000000D+02 Coefficients=  2.1645000000D-02
     Exponent=  1.0730000000D+02 Coefficients=  8.3776000000D-02
     Exponent=  3.4747000000D+01 Coefficients=  2.3881000000D-01
     Exponent=  1.2249000000D+01 Coefficients=  4.3994000000D-01
     Exponent=  4.4743000000D+00 Coefficients=  3.6364000000D-01
 S 7 1.00
     Exponent=  1.6653000000D+03 Coefficients= -1.5006000000D-06
     Exponent=  3.7908000000D+02 Coefficients= -5.8753000000D-05
     Exponent=  1.0730000000D+02 Coefficients= -7.7453000000D-04
     Exponent=  3.4747000000D+01 Coefficients= -7.2161000000D-03
     Exponent=  1.2249000000D+01 Coefficients= -3.9338000000D-02
     Exponent=  4.4743000000D+00 Coefficients= -9.0611000000D-02
     Exponent=  1.2404000000D+00 Coefficients=  1.9882000000D-01
 S 1 1.00
     Exponent=  4.8743000000D-01 Coefficients=  1.0000000000D+00
 S 1 1.00
     Exponent=  1.6484000000D-01 Coefficients=  1.0000000000D+00
 P 4 1.00
     Exponent=  4.7934000000D+01 Coefficients=  6.1706000000D-03
     Exponent=  1.0999000000D+01 Coefficients=  4.4260000000D-02
     Exponent=  3.2472000000D+00 Coefficients=  1.6825000000D-01
     Exponent=  1.1114000000D+00 Coefficients=  3.6848000000D-01
 P 1 1.00
     Exponent=  3.7988000000D-01 Coefficients=  1.0000000000D+00
 P 1 1.00
     Exponent=  1.2068000000D-01 Coefficients=  1.0000000000D+00
 D 1 1.00
     Exponent=  1.8000000000D+00 Coefficients=  1.0000000000D+00
 D 1 1.00
     Exponent=  5.5000000000D-01 Coefficients=  1.0000000000D+00
 F 1 1.00
     Exponent=  1.0200000000D+00 Coefficients=  1.0000000000D+00
 ****
 Centers:       1
 S 7 1.00
     Exponent=  1.4782000000D+04 Coefficients=  5.3519000000D-04
     Exponent=  2.2173000000D+03 Coefficients=  4.1375000000D-03
     Exponent=  5.0474000000D+02 Coefficients=  2.1245000000D-02
     Exponent=  1.4287000000D+02 Coefficients=  8.2453000000D-02
     Exponent=  4.6300000000D+01 Coefficients=  2.3671000000D-01
     Exponent=  1.6337000000D+01 Coefficients=  4.4039000000D-01
     Exponent=  5.9828000000D+00 Coefficients=  3.6465000000D-01
 S 7 1.00
     Exponent=  2.2173000000D+03 Coefficients= -1.9275000000D-06
     Exponent=  5.0474000000D+02 Coefficients= -5.7964000000D-05
     Exponent=  1.4287000000D+02 Coefficients= -7.9494000000D-04
     Exponent=  4.6300000000D+01 Coefficients= -7.3125000000D-03
     Exponent=  1.6337000000D+01 Coefficients= -4.0574000000D-02
     Exponent=  5.9828000000D+00 Coefficients= -9.1594000000D-02
     Exponent=  1.6718000000D+00 Coefficients=  2.0940000000D-01
 S 1 1.00
     Exponent=  6.4662000000D-01 Coefficients=  1.0000000000D+00
 S 1 1.00
     Exponent=  2.1669000000D-01 Coefficients=  1.0000000000D+00
 P 4 1.00
     Exponent=  6.0424000000D+01 Coefficients=  6.8949000000D-03
     Exponent=  1.3935000000D+01 Coefficients=  4.9005000000D-02
     Exponent=  4.1531000000D+00 Coefficients=  1.8255000000D-01
     Exponent=  1.4158000000D+00 Coefficients=  3.7633000000D-01
 P 1 1.00
     Exponent=  4.7549000000D-01 Coefficients=  1.0000000000D+00
 P 1 1.00
     Exponent=  1.4529000000D-01 Coefficients=  1.0000000000D+00
 D 1 1.00
     Exponent=  2.2000000000D+00 Coefficients=  1.0000000000D+00
 D 1 1.00
     Exponent=  6.5000000000D-01 Coefficients=  1.0000000000D+00
 F 1 1.00
     Exponent=  1.1000000000D+00 Coefficients=  1.0000000000D+00
 ****
 Ernie: Thresh=  0.10000D-02 Tol=  0.10000D-05 Strict=F.
 Ernie:  7 primitive shells out of 220 were deleted.
 There are   223 symmetry adapted cartesian basis functions of A'  symmetry.
 There are    97 symmetry adapted cartesian basis functions of A"  symmetry.
 There are   190 symmetry adapted basis functions of A'  symmetry.
 There are    90 symmetry adapted basis functions of A"  symmetry.
   280 basis functions,   475 primitive gaussians,   320 cartesian basis functions
    25 alpha electrons       25 beta electrons
       nuclear repulsion energy       277.5236709615 Hartrees.
 IExCor=  205 DFT=T Ex=S Corr=VWN ExCW=0 ScaHFX=  0.000000
 ScaDFX=  1.000000  1.000000  1.000000  1.000000 ScalE2=  1.000000  1.000000
 IRadAn=      0 IRanWt=     -1 IRanGd=            0 ICorTp=0 IEmpDi=  4
 NAtoms=   12 NActive=   12 NUniq=   12 SFac= 1.00D+00 NAtFMM=   60 NAOKFM=F Big=F
 Integral buffers will be    131072 words long.
 Raffenetti 2 integral format.
 Two-electron integral symmetry is turned on.
 Leave Link  301 at Thu Aug 26 23:57:03 2021, MaxMem= 17179869184 cpu:        20.8
 (Enter /public3/home/sc51754/softwares/g09e01/l302.exe)
 NPDir=0 NMtPBC=     1 NCelOv=     1 NCel=       1 NClECP=     1 NCelD=      1
         NCelK=      1 NCelE2=     1 NClLst=     1 CellRange=     0.0.
 One-electron integrals computed using PRISM.
 NBasis=   280 RedAO= T EigKep=  2.16D-04  NBF=   190    90
 NBsUse=   280 1.00D-06 EigRej= -1.00D+00 NBFU=   190    90
 Precomputing XC quadrature grid using
 IXCGrd= 4 IRadAn=           0 IRanWt=          -1 IRanGd=           0 AccXCQ= 0.00D+00.
 Generated NRdTot=       0 NPtTot=           0 NUsed=           0 NTot=          32
 NSgBfM=   320   320   320   320   320 MxSgAt=    12 MxSgA2=    12.
 Leave Link  302 at Thu Aug 26 23:57:05 2021, MaxMem= 17179869184 cpu:       119.4
 (Enter /public3/home/sc51754/softwares/g09e01/l303.exe)
 DipDrv:  MaxL=1.
 Leave Link  303 at Thu Aug 26 23:57:07 2021, MaxMem= 17179869184 cpu:        18.0
 (Enter /public3/home/sc51754/softwares/g09e01/l401.exe)
 ExpMin= 7.41D-02 ExpMax= 1.48D+04 ExpMxC= 5.05D+02 IAcc=2 IRadAn=         4 AccDes= 0.00D+00
 Harris functional with IExCor=  205 and IRadAn=       4 diagonalized for initial guess.
 HarFok:  IExCor=  205 AccDes= 0.00D+00 IRadAn=         4 IDoV= 1 UseB2=F ITyADJ=14
 ICtDFT=  3500011 ScaDFX=  1.000000  1.000000  1.000000  1.000000
 FoFCou: FMM=F IPFlag=           0 FMFlag=      100000 FMFlg1=           0
         NFxFlg=           0 DoJE=T BraDBF=F KetDBF=T FulRan=T
         wScrn=  0.000000 ICntrl=     500 IOpCl=  0 I1Cent=   200000004 NGrid=           0
         NMat0=    1 NMatS0=      1 NMatT0=    0 NMatD0=    1 NMtDS0=    0 NMtDT0=    0
 Petite list used in FoFCou.
 Harris En= -322.057774951280    
 JPrj=0 DoOrth=F DoCkMO=F.
 Initial guess orbital symmetries:
       Occupied  (A') (A') (A') (A') (A') (A') (A') (A') (A') (A')
                 (A') (A') (A') (A') (A') (A') (A') (A") (A') (A')
                 (A') (A") (A") (A') (A")
       Virtual   (A") (A") (A') (A') (A") (A') (A') (A') (A') (A')
                 (A') (A') (A") (A') (A") (A") (A') (A') (A') (A')
                 (A') (A") (A') (A") (A') (A') (A') (A') (A') (A')
                 (A') (A") (A') (A") (A') (A') (A') (A') (A') (A')
                 (A') (A') (A") (A') (A') (A') (A') (A") (A") (A')
                 (A") (A") (A') (A') (A") (A') (A') (A") (A') (A')
                 (A') (A") (A') (A") (A') (A") (A') (A') (A") (A')
                 (A') (A") (A") (A') (A") (A') (A') (A") (A') (A')
                 (A") (A') (A') (A") (A') (A') (A") (A') (A") (A")
                 (A') (A') (A') (A') (A') (A") (A') (A') (A") (A')
                 (A') (A') (A") (A') (A') (A') (A') (A") (A') (A')
                 (A') (A") (A') (A') (A') (A') (A") (A') (A') (A')
                 (A") (A') (A") (A') (A") (A') (A") (A") (A') (A")
                 (A") (A') (A') (A') (A") (A') (A') (A") (A') (A')
                 (A') (A') (A') (A") (A") (A') (A") (A') (A') (A')
                 (A") (A') (A') (A") (A") (A') (A") (A') (A") (A')
                 (A") (A') (A') (A') (A") (A") (A') (A") (A') (A')
                 (A") (A') (A') (A") (A') (A') (A") (A") (A") (A')
                 (A") (A") (A') (A') (A") (A') (A") (A") (A') (A")
                 (A") (A') (A') (A") (A') (A') (A") (A') (A") (A")
                 (A') (A') (A") (A') (A') (A') (A") (A') (A') (A')
                 (A") (A') (A') (A") (A") (A') (A') (A') (A") (A")
                 (A') (A') (A") (A') (A') (A") (A') (A') (A') (A')
                 (A") (A') (A') (A') (A') (A") (A") (A') (A') (A')
                 (A') (A") (A') (A') (A') (A') (A') (A') (A') (A')
                 (A') (A') (A') (A') (A')
 The electronic state of the initial guess is 1-A'.
 Leave Link  401 at Thu Aug 26 23:57:08 2021, MaxMem= 17179869184 cpu:        57.2
 (Enter /public3/home/sc51754/softwares/g09e01/l502.exe)
 Closed shell SCF:
 Using DIIS extrapolation, IDIIS=  1040.
 Integral symmetry usage will be decided dynamically.
 Keep J ints in memory in symmetry-blocked form, NReq=1167802198.
 IVT=      348658 IEndB=      348658 NGot= 17179869184 MDV= 16785904737
 LenX= 16785904737 LenY= 16785801896
 Requested convergence on RMS density matrix=1.00D-08 within 128 cycles.
 Requested convergence on MAX density matrix=1.00D-06.
 Requested convergence on             energy=1.00D-06.
 No special actions if energy rises.
 FoFCou: FMM=F IPFlag=           0 FMFlag=           0 FMFlg1=           0
         NFxFlg=           0 DoJE=F BraDBF=F KetDBF=F FulRan=T
         wScrn=  0.000000 ICntrl=     600 IOpCl=  0 I1Cent=           0 NGrid=           0
         NMat0=    1 NMatS0=  39340 NMatT0=    0 NMatD0=    1 NMtDS0=    0 NMtDT0=    0
 Petite list used in FoFCou.
 Integral accuracy reduced to 1.0D-05 until final iterations.

 Cycle   1  Pass 0  IDiag  1:
 E= -321.732919412138    
 DIIS: error= 2.59D-02 at cycle   1 NSaved=   1.
 NSaved= 1 IEnMin= 1 EnMin= -321.732919412138     IErMin= 1 ErrMin= 2.59D-02
 ErrMax= 2.59D-02  0.00D+00 EMaxC= 1.00D-01 BMatC= 1.74D-01 BMatP= 1.74D-01
 IDIUse=3 WtCom= 7.41D-01 WtEn= 2.59D-01
 Coeff-Com:  0.100D+01
 Coeff-En:   0.100D+01
 Coeff:      0.100D+01
 Gap=     0.152 Goal=   None    Shift=    0.000
 GapD=    0.152 DampG=1.000 DampE=0.500 DampFc=0.5000 IDamp=-1.
 Damping current iteration by 5.00D-01
 RMSDP=3.04D-03 MaxDP=1.12D-01              OVMax= 2.50D-01

 Cycle   2  Pass 0  IDiag  1:
 E= -321.777308590248     Delta-E=       -0.044389178110 Rises=F Damp=T
 DIIS: error= 6.39D-03 at cycle   2 NSaved=   2.
 NSaved= 2 IEnMin= 2 EnMin= -321.777308590248     IErMin= 2 ErrMin= 6.39D-03
 ErrMax= 6.39D-03  0.00D+00 EMaxC= 1.00D-01 BMatC= 1.94D-02 BMatP= 1.74D-01
 IDIUse=3 WtCom= 9.36D-01 WtEn= 6.39D-02
 Coeff-Com:  0.210D+00 0.790D+00
 Coeff-En:   0.358D+00 0.642D+00
 Coeff:      0.220D+00 0.780D+00
 Gap=     0.151 Goal=   None    Shift=    0.000
 RMSDP=7.77D-04 MaxDP=3.18D-02 DE=-4.44D-02 OVMax= 2.16D-01

 Cycle   3  Pass 0  IDiag  1:
 E= -321.888263759290     Delta-E=       -0.110955169042 Rises=F Damp=F
 DIIS: error= 7.66D-03 at cycle   3 NSaved=   3.
 NSaved= 3 IEnMin= 3 EnMin= -321.888263759290     IErMin= 2 ErrMin= 6.39D-03
 ErrMax= 7.66D-03  0.00D+00 EMaxC= 1.00D-01 BMatC= 9.35D-03 BMatP= 1.94D-02
 IDIUse=3 WtCom= 9.23D-01 WtEn= 7.66D-02
 Coeff-Com:  0.799D-01 0.435D+00 0.485D+00
 Coeff-En:   0.000D+00 0.000D+00 0.100D+01
 Coeff:      0.738D-01 0.402D+00 0.525D+00
 Gap=     0.156 Goal=   None    Shift=    0.000
 RMSDP=4.95D-04 MaxDP=2.01D-02 DE=-1.11D-01 OVMax= 8.89D-02

 Cycle   4  Pass 0  IDiag  1:
 E= -321.892562566231     Delta-E=       -0.004298806941 Rises=F Damp=F
 DIIS: error= 7.15D-03 at cycle   4 NSaved=   4.
 NSaved= 4 IEnMin= 4 EnMin= -321.892562566231     IErMin= 2 ErrMin= 6.39D-03
 ErrMax= 7.15D-03  0.00D+00 EMaxC= 1.00D-01 BMatC= 5.64D-03 BMatP= 9.35D-03
 IDIUse=3 WtCom= 9.28D-01 WtEn= 7.15D-02
 Coeff-Com:  0.202D-01 0.177D+00 0.411D+00 0.392D+00
 Coeff-En:   0.000D+00 0.000D+00 0.403D+00 0.597D+00
 Coeff:      0.188D-01 0.165D+00 0.410D+00 0.406D+00
 Gap=     0.153 Goal=   None    Shift=    0.000
 RMSDP=2.32D-04 MaxDP=7.24D-03 DE=-4.30D-03 OVMax= 3.77D-02

 Cycle   5  Pass 0  IDiag  1:
 E= -321.898594061047     Delta-E=       -0.006031494816 Rises=F Damp=F
 DIIS: error= 8.87D-04 at cycle   5 NSaved=   5.
 NSaved= 5 IEnMin= 5 EnMin= -321.898594061047     IErMin= 5 ErrMin= 8.87D-04
 ErrMax= 8.87D-04  0.00D+00 EMaxC= 1.00D-01 BMatC= 2.36D-04 BMatP= 5.64D-03
 IDIUse=3 WtCom= 9.91D-01 WtEn= 8.87D-03
 Coeff-Com:  0.400D-02 0.591D-01 0.199D+00 0.244D+00 0.494D+00
 Coeff-En:   0.000D+00 0.000D+00 0.000D+00 0.000D+00 0.100D+01
 Coeff:      0.397D-02 0.585D-01 0.197D+00 0.242D+00 0.498D+00
 Gap=     0.153 Goal=   None    Shift=    0.000
 RMSDP=4.84D-05 MaxDP=2.65D-03 DE=-6.03D-03 OVMax= 7.91D-03

 Cycle   6  Pass 0  IDiag  1:
 E= -321.898768982475     Delta-E=       -0.000174921428 Rises=F Damp=F
 DIIS: error= 3.77D-04 at cycle   6 NSaved=   6.
 NSaved= 6 IEnMin= 6 EnMin= -321.898768982475     IErMin= 6 ErrMin= 3.77D-04
 ErrMax= 3.77D-04  0.00D+00 EMaxC= 1.00D-01 BMatC= 4.60D-05 BMatP= 2.36D-04
 IDIUse=3 WtCom= 9.96D-01 WtEn= 3.77D-03
 Coeff-Com: -0.604D-03 0.127D-01 0.677D-01 0.991D-01 0.340D+00 0.481D+00
 Coeff-En:   0.000D+00 0.000D+00 0.000D+00 0.000D+00 0.169D+00 0.831D+00
 Coeff:     -0.601D-03 0.126D-01 0.675D-01 0.987D-01 0.339D+00 0.482D+00
 Gap=     0.154 Goal=   None    Shift=    0.000
 RMSDP=1.90D-05 MaxDP=1.03D-03 DE=-1.75D-04 OVMax= 2.03D-03

 Cycle   7  Pass 0  IDiag  1:
 E= -321.898804126510     Delta-E=       -0.000035144035 Rises=F Damp=F
 DIIS: error= 1.30D-04 at cycle   7 NSaved=   7.
 NSaved= 7 IEnMin= 7 EnMin= -321.898804126510     IErMin= 7 ErrMin= 1.30D-04
 ErrMax= 1.30D-04  0.00D+00 EMaxC= 1.00D-01 BMatC= 3.66D-06 BMatP= 4.60D-05
 IDIUse=3 WtCom= 9.99D-01 WtEn= 1.30D-03
 Coeff-Com: -0.443D-03 0.664D-02 0.376D-01 0.555D-01 0.205D+00 0.323D+00
 Coeff-Com:  0.373D+00
 Coeff-En:   0.000D+00 0.000D+00 0.000D+00 0.000D+00 0.000D+00 0.000D+00
 Coeff-En:   0.100D+01
 Coeff:     -0.443D-03 0.663D-02 0.376D-01 0.554D-01 0.205D+00 0.322D+00
 Coeff:      0.374D+00
 Gap=     0.153 Goal=   None    Shift=    0.000
 RMSDP=6.61D-06 MaxDP=2.31D-04 DE=-3.51D-05 OVMax= 1.10D-03

 Initial convergence to 1.0D-05 achieved.  Increase integral accuracy.
 Cycle   8  Pass 1  IDiag  1:
 E= -321.898688983294     Delta-E=        0.000115143217 Rises=F Damp=F
 DIIS: error= 4.22D-05 at cycle   1 NSaved=   1.
 NSaved= 1 IEnMin= 1 EnMin= -321.898688983294     IErMin= 1 ErrMin= 4.22D-05
 ErrMax= 4.22D-05  0.00D+00 EMaxC= 1.00D-01 BMatC= 5.94D-07 BMatP= 5.94D-07
 IDIUse=1 WtCom= 1.00D+00 WtEn= 0.00D+00
 Coeff-Com:  0.100D+01
 Coeff:      0.100D+01
 Gap=     0.154 Goal=   None    Shift=    0.000
 RMSDP=6.61D-06 MaxDP=2.31D-04 DE= 1.15D-04 OVMax= 1.07D-03

 Cycle   9  Pass 1  IDiag  1:
 E= -321.898686796132     Delta-E=        0.000002187161 Rises=F Damp=F
 DIIS: error= 1.08D-04 at cycle   2 NSaved=   2.
 NSaved= 2 IEnMin= 1 EnMin= -321.898688983294     IErMin= 1 ErrMin= 4.22D-05
 ErrMax= 1.08D-04  0.00D+00 EMaxC= 1.00D-01 BMatC= 2.84D-06 BMatP= 5.94D-07
 IDIUse=3 WtCom= 4.91D-01 WtEn= 5.09D-01
 Coeff-Com:  0.702D+00 0.298D+00
 Coeff-En:   0.788D+00 0.212D+00
 Coeff:      0.746D+00 0.254D+00
 Gap=     0.153 Goal=   None    Shift=    0.000
 RMSDP=4.39D-06 MaxDP=1.39D-04 DE= 2.19D-06 OVMax= 7.88D-04

 Cycle  10  Pass 1  IDiag  1:
 E= -321.898689559519     Delta-E=       -0.000002763386 Rises=F Damp=F
 DIIS: error= 9.81D-06 at cycle   3 NSaved=   3.
 NSaved= 3 IEnMin= 3 EnMin= -321.898689559519     IErMin= 3 ErrMin= 9.81D-06
 ErrMax= 9.81D-06  0.00D+00 EMaxC= 1.00D-01 BMatC= 2.53D-08 BMatP= 5.94D-07
 IDIUse=1 WtCom= 1.00D+00 WtEn= 0.00D+00
 Coeff-Com:  0.183D+00 0.491D-01 0.768D+00
 Coeff:      0.183D+00 0.491D-01 0.768D+00
 Gap=     0.153 Goal=   None    Shift=    0.000
 RMSDP=6.79D-07 MaxDP=2.66D-05 DE=-2.76D-06 OVMax= 6.32D-05

 Cycle  11  Pass 1  IDiag  1:
 E= -321.898689557239     Delta-E=        0.000000002280 Rises=F Damp=F
 DIIS: error= 8.17D-06 at cycle   4 NSaved=   4.
 NSaved= 4 IEnMin= 3 EnMin= -321.898689559519     IErMin= 4 ErrMin= 8.17D-06
 ErrMax= 8.17D-06  0.00D+00 EMaxC= 1.00D-01 BMatC= 2.80D-08 BMatP= 2.53D-08
 IDIUse=1 WtCom= 1.00D+00 WtEn= 0.00D+00
 Coeff-Com:  0.255D-01-0.744D-02 0.530D+00 0.452D+00
 Coeff:      0.255D-01-0.744D-02 0.530D+00 0.452D+00
 Gap=     0.153 Goal=   None    Shift=    0.000
 RMSDP=4.32D-07 MaxDP=2.10D-05 DE= 2.28D-09 OVMax= 5.15D-05

 Cycle  12  Pass 1  IDiag  1:
 E= -321.898689578747     Delta-E=       -0.000000021508 Rises=F Damp=F
 DIIS: error= 2.60D-06 at cycle   5 NSaved=   5.
 NSaved= 5 IEnMin= 5 EnMin= -321.898689578747     IErMin= 5 ErrMin= 2.60D-06
 ErrMax= 2.60D-06  0.00D+00 EMaxC= 1.00D-01 BMatC= 1.71D-09 BMatP= 2.53D-08
 IDIUse=1 WtCom= 1.00D+00 WtEn= 0.00D+00
 Coeff-Com:  0.142D-02-0.822D-02 0.247D+00 0.273D+00 0.487D+00
 Coeff:      0.142D-02-0.822D-02 0.247D+00 0.273D+00 0.487D+00
 Gap=     0.153 Goal=   None    Shift=    0.000
 RMSDP=1.31D-07 MaxDP=4.66D-06 DE=-2.15D-08 OVMax= 1.92D-05

 Cycle  13  Pass 1  IDiag  1:
 E= -321.898689579955     Delta-E=       -0.000000001207 Rises=F Damp=F
 DIIS: error= 1.34D-06 at cycle   6 NSaved=   6.
 NSaved= 6 IEnMin= 6 EnMin= -321.898689579955     IErMin= 6 ErrMin= 1.34D-06
 ErrMax= 1.34D-06  0.00D+00 EMaxC= 1.00D-01 BMatC= 2.57D-10 BMatP= 1.71D-09
 IDIUse=1 WtCom= 1.00D+00 WtEn= 0.00D+00
 Coeff-Com: -0.739D-03-0.560D-02 0.145D+00 0.166D+00 0.339D+00 0.357D+00
 Coeff:     -0.739D-03-0.560D-02 0.145D+00 0.166D+00 0.339D+00 0.357D+00
 Gap=     0.153 Goal=   None    Shift=    0.000
 RMSDP=5.40D-08 MaxDP=2.25D-06 DE=-1.21D-09 OVMax= 9.54D-06

 Cycle  14  Pass 1  IDiag  1:
 E= -321.898689580227     Delta-E=       -0.000000000272 Rises=F Damp=F
 DIIS: error= 2.51D-07 at cycle   7 NSaved=   7.
 NSaved= 7 IEnMin= 7 EnMin= -321.898689580227     IErMin= 7 ErrMin= 2.51D-07
 ErrMax= 2.51D-07  0.00D+00 EMaxC= 1.00D-01 BMatC= 1.25D-11 BMatP= 2.57D-10
 IDIUse=1 WtCom= 1.00D+00 WtEn= 0.00D+00
 Coeff-Com: -0.453D-03-0.271D-02 0.669D-01 0.781D-01 0.164D+00 0.229D+00
 Coeff-Com:  0.465D+00
 Coeff:     -0.453D-03-0.271D-02 0.669D-01 0.781D-01 0.164D+00 0.229D+00
 Coeff:      0.465D+00
 Gap=     0.153 Goal=   None    Shift=    0.000
 RMSDP=1.15D-08 MaxDP=5.04D-07 DE=-2.72D-10 OVMax= 1.76D-06

 Cycle  15  Pass 1  IDiag  1:
 E= -321.898689580234     Delta-E=       -0.000000000007 Rises=F Damp=F
 DIIS: error= 6.24D-08 at cycle   8 NSaved=   8.
 NSaved= 8 IEnMin= 8 EnMin= -321.898689580234     IErMin= 8 ErrMin= 6.24D-08
 ErrMax= 6.24D-08  0.00D+00 EMaxC= 1.00D-01 BMatC= 8.66D-13 BMatP= 1.25D-11
 IDIUse=1 WtCom= 1.00D+00 WtEn= 0.00D+00
 Coeff-Com: -0.133D-03-0.620D-03 0.146D-01 0.172D-01 0.365D-01 0.738D-01
 Coeff-Com:  0.259D+00 0.599D+00
 Coeff:     -0.133D-03-0.620D-03 0.146D-01 0.172D-01 0.365D-01 0.738D-01
 Coeff:      0.259D+00 0.599D+00
 Gap=     0.153 Goal=   None    Shift=    0.000
 RMSDP=3.04D-09 MaxDP=1.26D-07 DE=-7.05D-12 OVMax= 3.84D-07

 SCF Done:  E(RS-VWN) =  -321.898689580     A.U. after   15 cycles
            NFock= 15  Conv=0.30D-08     -V/T= 2.0036
 KE= 3.207468548939D+02 PE=-1.308432577954D+03 EE= 3.882633625181D+02
 Leave Link  502 at Thu Aug 26 23:57:16 2021, MaxMem= 17179869184 cpu:       257.1
 (Enter /public3/home/sc51754/softwares/g09e01/l601.exe)
 Copying SCF densities to generalized density rwf, IOpCl= 0 IROHF=0.

 **********************************************************************

            Population analysis using the SCF density.

 **********************************************************************

 Orbital symmetries:
       Occupied  (A') (A') (A') (A') (A') (A') (A') (A') (A') (A')
                 (A') (A') (A') (A') (A') (A') (A") (A') (A') (A')
                 (A') (A") (A") (A') (A")
       Virtual   (A") (A") (A') (A') (A') (A') (A') (A") (A') (A')
                 (A") (A') (A') (A') (A") (A") (A') (A') (A') (A")
                 (A') (A") (A') (A') (A') (A') (A') (A') (A') (A')
                 (A') (A") (A') (A") (A') (A') (A') (A') (A') (A')
                 (A') (A') (A") (A') (A') (A') (A') (A") (A") (A")
                 (A') (A") (A') (A') (A") (A') (A") (A') (A') (A')
                 (A') (A") (A') (A') (A") (A') (A") (A') (A') (A')
                 (A") (A") (A") (A") (A') (A') (A') (A") (A') (A')
                 (A") (A') (A') (A') (A") (A') (A") (A') (A") (A")
                 (A') (A') (A') (A') (A') (A") (A') (A') (A") (A')
                 (A') (A") (A') (A') (A') (A') (A') (A") (A') (A')
                 (A") (A') (A') (A') (A') (A') (A") (A') (A') (A')
                 (A") (A') (A") (A') (A") (A') (A") (A") (A') (A")
                 (A") (A') (A') (A') (A") (A') (A') (A") (A') (A')
                 (A') (A') (A") (A') (A") (A') (A") (A') (A') (A')
                 (A") (A') (A') (A") (A") (A') (A") (A') (A") (A')
                 (A") (A') (A') (A') (A") (A") (A') (A") (A') (A')
                 (A') (A") (A') (A") (A') (A') (A") (A') (A") (A")
                 (A") (A") (A') (A') (A") (A') (A") (A") (A') (A")
                 (A') (A") (A') (A") (A') (A') (A") (A') (A") (A")
                 (A') (A') (A") (A') (A') (A") (A') (A') (A') (A')
                 (A") (A') (A") (A') (A') (A") (A') (A') (A") (A")
                 (A') (A') (A") (A') (A') (A") (A') (A') (A') (A')
                 (A") (A') (A') (A') (A') (A") (A") (A') (A') (A')
                 (A') (A") (A') (A') (A') (A') (A') (A') (A') (A')
                 (A') (A') (A') (A') (A')
 The electronic state is 1-A'.
 Alpha  occ. eigenvalues --  -18.64872 -13.87235  -9.89087  -9.83528  -9.81857
 Alpha  occ. eigenvalues --   -9.80791  -9.80292  -1.01512  -0.88482  -0.75742
 Alpha  occ. eigenvalues --   -0.70970  -0.61400  -0.59592  -0.53122  -0.49341
 Alpha  occ. eigenvalues --   -0.45908  -0.42661  -0.42210  -0.39214  -0.37614
 Alpha  occ. eigenvalues --   -0.35085  -0.34626  -0.29469  -0.25747  -0.24413
 Alpha virt. eigenvalues --   -0.09068  -0.06520  -0.01216  -0.00391   0.01643
 Alpha virt. eigenvalues --    0.03721   0.05571   0.06655   0.08817   0.11287
 Alpha virt. eigenvalues --    0.11501   0.12473   0.13771   0.15374   0.15836
 Alpha virt. eigenvalues --    0.16357   0.17898   0.20699   0.20937   0.22758
 Alpha virt. eigenvalues --    0.22843   0.24758   0.25161   0.25904   0.27079
 Alpha virt. eigenvalues --    0.29089   0.29194   0.30968   0.31444   0.32441
 Alpha virt. eigenvalues --    0.34317   0.36270   0.38875   0.39887   0.40323
 Alpha virt. eigenvalues --    0.43807   0.47378   0.47465   0.49128   0.52447
 Alpha virt. eigenvalues --    0.54211   0.55986   0.57725   0.57912   0.59562
 Alpha virt. eigenvalues --    0.62223   0.66556   0.69046   0.70509   0.74198
 Alpha virt. eigenvalues --    0.74831   0.79246   0.81508   0.84085   0.85512
 Alpha virt. eigenvalues --    0.87699   0.89320   0.89526   0.91789   0.93581
 Alpha virt. eigenvalues --    0.95777   1.01612   1.02692   1.04288   1.06468
 Alpha virt. eigenvalues --    1.07818   1.08671   1.09141   1.12118   1.12759
 Alpha virt. eigenvalues --    1.13770   1.16970   1.18438   1.21412   1.21674
 Alpha virt. eigenvalues --    1.23519   1.27953   1.32944   1.34408   1.36453
 Alpha virt. eigenvalues --    1.40859   1.42723   1.43638   1.46244   1.46931
 Alpha virt. eigenvalues --    1.46942   1.49631   1.53113   1.53938   1.57890
 Alpha virt. eigenvalues --    1.57918   1.59387   1.62563   1.65287   1.66484
 Alpha virt. eigenvalues --    1.69586   1.71815   1.74522   1.77080   1.77732
 Alpha virt. eigenvalues --    1.80536   1.85778   1.86402   1.87669   1.91913
 Alpha virt. eigenvalues --    1.95339   2.01017   2.02227   2.05869   2.09404
 Alpha virt. eigenvalues --    2.12610   2.12886   2.16784   2.18153   2.21069
 Alpha virt. eigenvalues --    2.24729   2.27061   2.49415   2.58549   2.63153
 Alpha virt. eigenvalues --    2.76763   2.83128   2.85761   2.89297   3.05071
 Alpha virt. eigenvalues --    3.06745   3.10680   3.13645   3.15756   3.17033
 Alpha virt. eigenvalues --    3.20979   3.22320   3.25111   3.28911   3.29501
 Alpha virt. eigenvalues --    3.32978   3.37345   3.37604   3.39728   3.47289
 Alpha virt. eigenvalues --    3.47903   3.50058   3.51004   3.52060   3.57866
 Alpha virt. eigenvalues --    3.60553   3.62283   3.68163   3.70563   3.71856
 Alpha virt. eigenvalues --    3.74207   3.77004   3.79942   3.81878   3.86495
 Alpha virt. eigenvalues --    3.86607   3.90735   3.94462   3.95444   3.96170
 Alpha virt. eigenvalues --    3.97044   3.99917   4.02061   4.06130   4.07279
 Alpha virt. eigenvalues --    4.07420   4.09453   4.11119   4.11993   4.14004
 Alpha virt. eigenvalues --    4.16583   4.16923   4.19375   4.20716   4.22269
 Alpha virt. eigenvalues --    4.22539   4.24416   4.27293   4.29194   4.30236
 Alpha virt. eigenvalues --    4.33408   4.34274   4.35504   4.36232   4.36750
 Alpha virt. eigenvalues --    4.39804   4.40618   4.41798   4.45108   4.47042
 Alpha virt. eigenvalues --    4.49466   4.49648   4.54384   4.55520   4.57500
 Alpha virt. eigenvalues --    4.64429   4.66139   4.69755   4.73733   4.76966
 Alpha virt. eigenvalues --    4.79420   4.79585   4.87319   4.88213   4.94091
 Alpha virt. eigenvalues --    4.98275   4.98651   5.01009   5.07627   5.09124
 Alpha virt. eigenvalues --    5.12140   5.13426   5.17963   5.20179   5.23699
 Alpha virt. eigenvalues --    5.24598   5.26026   5.26996   5.29488   5.30461
 Alpha virt. eigenvalues --    5.33481   5.35688   5.43699   5.45824   5.51615
 Alpha virt. eigenvalues --    5.52579   5.54655   5.57161   5.66461   5.68541
 Alpha virt. eigenvalues --    5.72220   5.87862   5.92166   5.95946   5.96915
 Alpha virt. eigenvalues --    5.98070   6.10688   6.13352   6.15619   6.16929
 Alpha virt. eigenvalues --    6.33402   6.33687   6.35246   6.50921   6.55466
 Alpha virt. eigenvalues --    6.78414   7.02730   7.17366   9.11122  11.90477
 Alpha virt. eigenvalues --   12.53540  15.31273  17.21819  18.44667  22.01646
          Condensed to atoms (all electrons):
               1          2          3          4          5          6
     1  O    7.824847  -0.102199   0.318116  -0.059355   0.003557   0.007217
     2  N   -0.102199   6.601060   0.450001  -0.012810   0.514157  -0.036470
     3  C    0.318116   0.450001   4.602504   0.431361  -0.068085  -0.050672
     4  C   -0.059355  -0.012810   0.431361   5.055311  -0.056626   0.461076
     5  C    0.003557   0.514157  -0.068085  -0.056626   4.747557  -0.067507
     6  C    0.007217  -0.036470  -0.050672   0.461076  -0.067507   4.868317
     7  C   -0.000575  -0.043803  -0.069975  -0.028443   0.446077   0.435962
     8  H    0.342753   0.023733  -0.037817   0.015841   0.002406  -0.002673
     9  H    0.004557   0.007962  -0.027930   0.420542  -0.003210  -0.032822
    10  H   -0.000441  -0.035865   0.007218  -0.005805   0.437016   0.009086
    11  H   -0.000277  -0.002322   0.008957  -0.037074   0.008494   0.432255
    12  H    0.000051   0.008701  -0.001618   0.008913  -0.025514  -0.036216
               7          8          9         10         11         12
     1  O   -0.000575   0.342753   0.004557  -0.000441  -0.000277   0.000051
     2  N   -0.043803   0.023733   0.007962  -0.035865  -0.002322   0.008701
     3  C   -0.069975  -0.037817  -0.027930   0.007218   0.008957  -0.001618
     4  C   -0.028443   0.015841   0.420542  -0.005805  -0.037074   0.008913
     5  C    0.446077   0.002406  -0.003210   0.437016   0.008494  -0.025514
     6  C    0.435962  -0.002673  -0.032822   0.009086   0.432255  -0.036216
     7  C    5.133364   0.001924   0.009473  -0.080288  -0.038084   0.422509
     8  H    0.001924   0.445003  -0.000903  -0.000860   0.000106  -0.000057
     9  H    0.009473  -0.000903   0.540937   0.000189  -0.009567   0.000061
    10  H   -0.080288  -0.000860   0.000189   0.574312  -0.000242  -0.004886
    11  H   -0.038084   0.000106  -0.009567  -0.000242   0.550744  -0.008684
    12  H    0.422509  -0.000057   0.000061  -0.004886  -0.008684   0.554855
 Mulliken charges:
               1
     1  O   -0.338250
     2  N   -0.372145
     3  C    0.437939
     4  C   -0.192929
     5  C    0.061677
     6  C    0.012448
     7  C   -0.188142
     8  H    0.210544
     9  H    0.090711
    10  H    0.100566
    11  H    0.095695
    12  H    0.081886
 Sum of Mulliken charges =   0.00000
 Mulliken charges with hydrogens summed into heavy atoms:
               1
     1  O   -0.127706
     2  N   -0.372145
     3  C    0.437939
     4  C   -0.102218
     5  C    0.162243
     6  C    0.108143
     7  C   -0.106256
 Electronic spatial extent (au):  <R**2>=            623.7160
 Charge=              0.0000 electrons
 Dipole moment (field-independent basis, Debye):
    X=              0.5014    Y=             -1.1200    Z=             -0.0000  Tot=              1.2271
 Quadrupole moment (field-independent basis, Debye-Ang):
   XX=            -37.9749   YY=            -36.5123   ZZ=            -43.2301
   XY=             -1.9869   XZ=              0.0000   YZ=              0.0000
 Traceless Quadrupole moment (field-independent basis, Debye-Ang):
   XX=              1.2642   YY=              2.7268   ZZ=             -3.9910
   XY=             -1.9869   XZ=              0.0000   YZ=              0.0000
 Octapole moment (field-independent basis, Debye-Ang**2):
  XXX=              6.6315  YYY=              4.5633  ZZZ=              0.0000  XYY=            -10.7435
  XXY=              0.3533  XXZ=              0.0000  XZZ=             -1.3710  YZZ=              5.4499
  YYZ=             -0.0000  XYZ=              0.0000
 Hexadecapole moment (field-independent basis, Debye-Ang**3):
 XXXX=           -268.2527 YYYY=           -456.4498 ZZZZ=            -47.4909 XXXY=              9.2328
 XXXZ=              0.0000 YYYX=            -29.6035 YYYZ=              0.0000 ZZZX=              0.0000
 ZZZY=              0.0000 XXYY=           -110.6080 XXZZ=            -60.2394 YYZZ=            -97.7383
 XXYZ=              0.0000 YYXZ=              0.0000 ZZXY=              0.7915
 N-N= 2.775236709615D+02 E-N=-1.308432567201D+03  KE= 3.207468548939D+02
 Symmetry A'   KE= 3.089200463242D+02
 Symmetry A"   KE= 1.182680856965D+01
 No NMR shielding tensors so no spin-rotation constants.
 Leave Link  601 at Thu Aug 26 23:57:17 2021, MaxMem= 17179869184 cpu:        75.4
 (Enter /public3/home/sc51754/softwares/g09e01/l701.exe)
 Compute integral first derivatives.
 ... and contract with generalized density number  0.
 Leave Link  701 at Thu Aug 26 23:57:19 2021, MaxMem= 17179869184 cpu:        64.8
 (Enter /public3/home/sc51754/softwares/g09e01/l702.exe)
 L702 exits ... SP integral derivatives will be done elsewhere.
 Leave Link  702 at Thu Aug 26 23:57:19 2021, MaxMem= 17179869184 cpu:         0.9
 (Enter /public3/home/sc51754/softwares/g09e01/l703.exe)
 Compute integral first derivatives, UseDBF=F ICtDFT=           0.
 Integral derivatives from FoFJK, PRISM(SPDF).
 Calling FoFJK, ICntrl=      2527 FMM=F ISym2X=1 I1Cent= 0 IOpClX= 0 NMat=1 NMatS=1 NMatT=0.
 FoFJK:  IHMeth= 1 ICntrl=    2527 DoSepK=F KAlg= 0 I1Cent=   0 FoldK=F
 IRaf=         0 NMat=   1 IRICut=       1 DoRegI=T DoRafI=F ISym2E= 1.
 FoFCou: FMM=F IPFlag=           0 FMFlag=      100000 FMFlg1=         800
         NFxFlg=           0 DoJE=F BraDBF=F KetDBF=F FulRan=T
         wScrn=  0.000000 ICntrl=    2527 IOpCl=  0 I1Cent=           0 NGrid=           0
         NMat0=    1 NMatS0=      1 NMatT0=    0 NMatD0=    1 NMtDS0=    0 NMtDT0=    0
 Petite list used in FoFCou.
 Leave Link  703 at Thu Aug 26 23:57:22 2021, MaxMem= 17179869184 cpu:       176.2
 (Enter /public3/home/sc51754/softwares/g09e01/l716.exe)
 Dipole        = 1.97284662D-01-4.40624139D-01-1.84676394D-32
 ***** Axes restored to original set *****
 -------------------------------------------------------------------
 Center     Atomic                   Forces (Hartrees/Bohr)
 Number     Number              X              Y              Z
 -------------------------------------------------------------------
      1        8           0.013412044   -0.007894398    0.000000000
      2        7           0.001232415   -0.001850145    0.000000000
      3        6           0.001952854    0.003979926   -0.000000000
      4        6          -0.007127760   -0.002751923   -0.000000000
      5        6           0.003700013    0.004328774   -0.000000000
      6        6          -0.006638906    0.001888013   -0.000000000
      7        6           0.002397965    0.008111958   -0.000000000
      8        1          -0.014040412    0.003182088   -0.000000000
      9        1           0.005793880    0.003578955    0.000000000
     10        1          -0.005885154   -0.002529991   -0.000000000
     11        1           0.005695213   -0.003303709    0.000000000
     12        1          -0.000492152   -0.006739549    0.000000000
 -------------------------------------------------------------------
 Cartesian Forces:  Max     0.014040412 RMS     0.004889008
 Leave Link  716 at Thu Aug 26 23:57:22 2021, MaxMem= 17179869184 cpu:         1.3
 (Enter /public3/home/sc51754/softwares/g09e01/l103.exe)

 GradGradGradGradGradGradGradGradGradGradGradGradGradGradGradGradGradGrad
 Berny optimization.
 FormGI is forming the generalized inverse of G from B-inverse, IUseBI=4.
 Internal  Forces:  Max     0.014374102 RMS     0.002895329
 Search for a local minimum.
 Step number   1 out of a maximum of   61
 All quantities printed in internal units (Hartrees-Bohrs-Radians)
 RMS Force = .28953D-02 SwitMx=.10000D-02 MixMth= 1
 Mixed Optimization -- RFO/linear search
 Second derivative matrix not updated -- first step.
 ITU=  0
     Eigenvalues ---    0.02265   0.02291   0.02312   0.02345   0.02366
     Eigenvalues ---    0.02409   0.02454   0.02466   0.02614   0.16000
     Eigenvalues ---    0.16000   0.16000   0.16000   0.16000   0.22000
     Eigenvalues ---    0.22422   0.24442   0.25000   0.35406   0.35728
     Eigenvalues ---    0.35970   0.35990   0.43621   0.45785   0.48169
     Eigenvalues ---    0.49389   0.54882   0.56881   0.57480   0.60970
 RFO step:  Lambda=-9.83941090D-04 EMin= 2.26525640D-02
 Linear search not attempted -- first point.
 Iteration  1 RMS(Cart)=  0.00923646 RMS(Int)=  0.00004991
 Iteration  2 RMS(Cart)=  0.00008297 RMS(Int)=  0.00000078
 Iteration  3 RMS(Cart)=  0.00000001 RMS(Int)=  0.00000078
 ITry= 1 IFail=0 DXMaxC= 3.52D-02 DCOld= 1.00D+10 DXMaxT= 3.00D-01 DXLimC= 3.00D+00 Rises=F
 ClnCor:  largest displacement from symmetrization is 1.83D-12 for atom    11.
 Variable       Old X    -DE/DX   Delta X   Delta X   Delta X     New X
                                 (Linear)    (Quad)   (Total)
    R1        2.53498  -0.00472   0.00000  -0.00829  -0.00829   2.52669
    R2        1.81937   0.01437   0.00000   0.02614   0.02614   1.84551
    R3        2.48913  -0.00040   0.00000  -0.00072  -0.00072   2.48841
    R4        2.51605  -0.00225   0.00000  -0.00386  -0.00386   2.51218
    R5        2.63173  -0.00151   0.00000  -0.00324  -0.00324   2.62848
    R6        2.59740   0.00051   0.00000   0.00110   0.00110   2.59850
    R7        2.04128   0.00681   0.00000   0.01888   0.01888   2.06016
    R8        2.60360   0.00072   0.00000   0.00147   0.00147   2.60507
    R9        2.05020   0.00640   0.00000   0.01803   0.01803   2.06823
   R10        2.62604  -0.00107   0.00000  -0.00214  -0.00214   2.62390
   R11        2.04509   0.00658   0.00000   0.01837   0.01837   2.06346
   R12        2.04097   0.00676   0.00000   0.01872   0.01872   2.05969
    A1        1.85547  -0.00180   0.00000  -0.01115  -0.01115   1.84431
    A2        2.05525   0.00112   0.00000   0.00404   0.00405   2.05930
    A3        2.05194  -0.00170   0.00000  -0.00671  -0.00671   2.04523
    A4        2.06888   0.00167   0.00000   0.00674   0.00674   2.07563
    A5        2.16236   0.00003   0.00000  -0.00004  -0.00004   2.16233
    A6        2.04920  -0.00036   0.00000  -0.00136  -0.00136   2.04784
    A7        2.09344   0.00010   0.00000   0.00020   0.00020   2.09364
    A8        2.14055   0.00025   0.00000   0.00116   0.00116   2.14171
    A9        2.15386  -0.00111   0.00000  -0.00502  -0.00502   2.14884
   A10        2.02490   0.00031   0.00000   0.00101   0.00101   2.02591
   A11        2.10443   0.00079   0.00000   0.00401   0.00401   2.10843
   A12        2.08852  -0.00020   0.00000  -0.00037  -0.00037   2.08815
   A13        2.09426  -0.00007   0.00000  -0.00088  -0.00088   2.09338
   A14        2.10040   0.00027   0.00000   0.00125   0.00125   2.10165
   A15        2.05718   0.00052   0.00000   0.00274   0.00274   2.05992
   A16        2.10510  -0.00035   0.00000  -0.00192  -0.00192   2.10318
   A17        2.12091  -0.00017   0.00000  -0.00082  -0.00082   2.12008
    D1        0.00000   0.00000   0.00000  -0.00000   0.00000   0.00000
    D2        3.14159  -0.00000   0.00000  -0.00000   0.00000   3.14159
    D3        3.14159  -0.00000   0.00000  -0.00000   0.00000   3.14159
    D4        0.00000  -0.00000   0.00000  -0.00000   0.00000   0.00000
    D5       -0.00000   0.00000   0.00000   0.00000   0.00000   0.00000
    D6        3.14159  -0.00000   0.00000  -0.00000   0.00000   3.14159
    D7        3.14159   0.00000   0.00000   0.00000   0.00000   3.14159
    D8        0.00000   0.00000   0.00000   0.00000  -0.00000   0.00000
    D9       -0.00000   0.00000   0.00000   0.00000   0.00000   0.00000
   D10        3.14159   0.00000   0.00000  -0.00000   0.00000   3.14159
   D11        0.00000  -0.00000   0.00000  -0.00000  -0.00000   0.00000
   D12        3.14159  -0.00000   0.00000   0.00000   0.00000   3.14159
   D13        3.14159  -0.00000   0.00000   0.00000   0.00000   3.14159
   D14       -0.00000   0.00000   0.00000   0.00000   0.00000   0.00000
   D15       -0.00000   0.00000   0.00000  -0.00000   0.00000   0.00000
   D16        3.14159   0.00000   0.00000   0.00000   0.00000   3.14159
   D17        3.14159   0.00000   0.00000   0.00000   0.00000   3.14159
   D18       -0.00000   0.00000   0.00000   0.00000   0.00000   0.00000
   D19        0.00000   0.00000   0.00000   0.00000   0.00000   0.00000
   D20        3.14159   0.00000   0.00000  -0.00000   0.00000   3.14159
   D21        3.14159   0.00000   0.00000   0.00000   0.00000   3.14159
   D22       -0.00000   0.00000   0.00000  -0.00000   0.00000   0.00000
         Item               Value     Threshold  Converged?
 Maximum Force            0.014374     0.000450     NO 
 RMS     Force            0.002895     0.000300     NO 
 Maximum Displacement     0.035240     0.001800     NO 
 RMS     Displacement     0.009273     0.001200     NO 
 Predicted change in Energy=-4.931786D-04
 Lowest energy point so far.  Saving SCF results.
 GradGradGradGradGradGradGradGradGradGradGradGradGradGradGradGradGradGrad

 Leave Link  103 at Thu Aug 26 23:57:23 2021, MaxMem= 17179869184 cpu:        56.5
 (Enter /public3/home/sc51754/softwares/g09e01/l202.exe)
                          Input orientation:                          
 ---------------------------------------------------------------------
 Center     Atomic      Atomic             Coordinates (Angstroms)
 Number     Number       Type             X           Y           Z
 ---------------------------------------------------------------------
      1          8           0        0.007484    2.237181   -0.000000
      2          7           0       -1.165521    0.299537   -0.000000
      3          6           0        0.006354    0.900113   -0.000000
      4          6           0        1.223208    0.226346    0.000000
      5          6           0       -1.185341   -1.029706   -0.000000
      6          6           0        1.183836   -1.148157    0.000000
      7          6           0       -0.042124   -1.800055    0.000000
      8          1           0       -0.932592    2.501776   -0.000000
      9          1           0        2.156995    0.788981    0.000000
     10          1           0       -2.175461   -1.496081   -0.000000
     11          1           0        2.114041   -1.720038    0.000000
     12          1           0       -0.108099   -2.887997    0.000000
 ---------------------------------------------------------------------
                    Distance matrix (angstroms):
                    1          2          3          4          5
     1  O    0.000000
     2  N    2.265040   0.000000
     3  C    1.337068   1.316808   0.000000
     4  C    2.349775   2.389850   1.390934   0.000000
     5  C    3.477841   1.329391   2.268113   2.716390   0.000000
     6  C    3.583897   2.759583   2.362599   1.375067   2.372136
     7  C    4.037541   2.381241   2.700603   2.389010   1.378544
     8  H    0.976604   2.214523   1.856595   3.134495   3.540515
     9  H    2.591849   3.358373   2.153511   1.090191   3.805106
    10  H    4.324637   2.060151   3.240688   3.810210   1.094460
    11  H    4.482986   3.851521   3.362668   2.140560   3.370828
    12  H    5.126481   3.358350   3.789839   3.386962   2.147952
                    6          7          8          9         10
     6  C    0.000000
     7  C    1.388506   0.000000
     8  H    4.219156   4.393027   0.000000
     9  H    2.167843   3.396945   3.532594   0.000000
    10  H    3.377266   2.154884   4.186595   4.898130   0.000000
    11  H    1.091938   2.157649   5.206313   2.509387   4.295344
    12  H    2.167058   1.089941   5.452471   4.318660   2.492271
                   11         12
    11  H    0.000000
    12  H    2.510386   0.000000
 Stoichiometry    C5H5NO
 Framework group  CS[SG(C5H5NO)]
 Deg. of freedom    21
 Full point group                 CS      NOp   2
 RotChk:  IX=0 Diff= 7.74D-03
 Largest Abelian subgroup         CS      NOp   2
 Largest concise Abelian subgroup C1      NOp   1
                         Standard orientation:                         
 ---------------------------------------------------------------------
 Center     Atomic      Atomic             Coordinates (Angstroms)
 Number     Number       Type             X           Y           Z
 ---------------------------------------------------------------------
      1          8           0       -0.006189    2.235739    0.000000
      2          7           0       -1.168570    0.291703    0.000000
      3          6           0       -0.000000    0.898685    0.000000
      4          6           0        1.220524    0.231589    0.000000
      5          6           0       -1.181113   -1.037629    0.000000
      6          6           0        1.188677   -1.143109    0.000000
      7          6           0       -0.033696   -1.801708    0.000000
      8          1           0       -0.947700    2.495184    0.000000
      9          1           0        2.151218    0.799327    0.000000
     10          1           0       -2.168664   -1.509417    0.000000
     11          1           0        2.121999   -1.709889    0.000000
     12          1           0       -0.093715   -2.889995    0.000000
 ---------------------------------------------------------------------
 Rotational constants (GHZ):      5.9146658      2.8133402      1.9065027
 Leave Link  202 at Thu Aug 26 23:57:24 2021, MaxMem= 17179869184 cpu:         7.2
 (Enter /public3/home/sc51754/softwares/g09e01/l301.exe)
 Basis read from rwf:  (5D, 7F)
 No pseudopotential information found on rwf file.
 There are   223 symmetry adapted cartesian basis functions of A'  symmetry.
 There are    97 symmetry adapted cartesian basis functions of A"  symmetry.
 There are   190 symmetry adapted basis functions of A'  symmetry.
 There are    90 symmetry adapted basis functions of A"  symmetry.
   280 basis functions,   475 primitive gaussians,   320 cartesian basis functions
    25 alpha electrons       25 beta electrons
       nuclear repulsion energy       277.5226300491 Hartrees.
 IExCor=  205 DFT=T Ex=S Corr=VWN ExCW=0 ScaHFX=  0.000000
 ScaDFX=  1.000000  1.000000  1.000000  1.000000 ScalE2=  1.000000  1.000000
 IRadAn=      0 IRanWt=     -1 IRanGd=            0 ICorTp=0 IEmpDi=  4
 NAtoms=   12 NActive=   12 NUniq=   12 SFac= 1.00D+00 NAtFMM=   60 NAOKFM=F Big=F
 Integral buffers will be    131072 words long.
 Raffenetti 2 integral format.
 Two-electron integral symmetry is turned on.
 No density basis found on file   724.
 Leave Link  301 at Thu Aug 26 23:57:24 2021, MaxMem= 17179869184 cpu:         1.1
 (Enter /public3/home/sc51754/softwares/g09e01/l302.exe)
 NPDir=0 NMtPBC=     1 NCelOv=     1 NCel=       1 NClECP=     1 NCelD=      1
         NCelK=      1 NCelE2=     1 NClLst=     1 CellRange=     0.0.
 One-electron integrals computed using PRISM.
 NBasis=   280 RedAO= T EigKep=  2.18D-04  NBF=   190    90
 NBsUse=   280 1.00D-06 EigRej= -1.00D+00 NBFU=   190    90
 Precomputing XC quadrature grid using
 IXCGrd= 4 IRadAn=           0 IRanWt=          -1 IRanGd=           0 AccXCQ= 0.00D+00.
 Generated NRdTot=       0 NPtTot=           0 NUsed=           0 NTot=          32
 NSgBfM=   320   320   320   320   320 MxSgAt=    12 MxSgA2=    12.
 Leave Link  302 at Thu Aug 26 23:57:25 2021, MaxMem= 17179869184 cpu:        42.5
 (Enter /public3/home/sc51754/softwares/g09e01/l303.exe)
 DipDrv:  MaxL=1.
 Leave Link  303 at Thu Aug 26 23:57:25 2021, MaxMem= 17179869184 cpu:        10.0
 (Enter /public3/home/sc51754/softwares/g09e01/l401.exe)
 Initial guess from the checkpoint file:  "HY_SVWN_PC2_OPT_FREQ.chk"
 B after Tr=    -0.000000    0.000000   -0.000000
         Rot=    0.999997   -0.000000    0.000000   -0.002431 Ang=  -0.28 deg.
 Guess basis will be translated and rotated to current coordinates.
 JPrj=2 DoOrth=T DoCkMO=T.
 Initial guess orbital symmetries:
       Occupied  (A') (A') (A') (A') (A') (A') (A') (A') (A') (A')
                 (A') (A') (A') (A') (A') (A') (A") (A') (A') (A')
                 (A') (A") (A") (A') (A")
       Virtual   (A') (A') (A') (A') (A') (A') (A') (A') (A') (A')
                 (A') (A') (A') (A') (A') (A') (A') (A') (A') (A')
                 (A') (A') (A') (A') (A') (A') (A') (A') (A') (A')
                 (A') (A') (A') (A') (A') (A') (A') (A') (A') (A')
                 (A') (A') (A') (A') (A') (A') (A') (A') (A') (A')
                 (A') (A') (A') (A') (A') (A') (A') (A') (A') (A')
                 (A') (A') (A') (A') (A') (A') (A') (A') (A') (A')
                 (A') (A') (A') (A') (A') (A') (A') (A') (A') (A')
                 (A') (A') (A') (A') (A') (A') (A') (A') (A') (A')
                 (A') (A') (A') (A') (A') (A') (A') (A') (A') (A')
                 (A') (A') (A') (A') (A') (A') (A') (A') (A') (A')
                 (A') (A') (A') (A') (A') (A') (A') (A') (A') (A')
                 (A') (A') (A') (A') (A') (A') (A') (A') (A') (A')
                 (A') (A') (A') (A') (A') (A') (A') (A') (A') (A')
                 (A') (A') (A') (A') (A') (A') (A') (A') (A') (A')
                 (A') (A') (A') (A') (A') (A') (A') (A') (A') (A')
                 (A') (A') (A') (A') (A') (A') (A') (A') (A') (A")
                 (A") (A") (A") (A") (A") (A") (A") (A") (A") (A")
                 (A") (A") (A") (A") (A") (A") (A") (A") (A") (A")
                 (A") (A") (A") (A") (A") (A") (A") (A") (A") (A")
                 (A") (A") (A") (A") (A") (A") (A") (A") (A") (A")
                 (A") (A") (A") (A") (A") (A") (A") (A") (A") (A")
                 (A") (A") (A") (A") (A") (A") (A") (A") (A") (A")
                 (A") (A") (A") (A") (A") (A") (A") (A") (A") (A")
                 (A") (A") (A") (A") (A") (A") (A") (A") (A") (A")
                 (A") (A") (A") (A") (A")
 The electronic state of the initial guess is 1-A'.
 Generating alternative initial guess.
 ExpMin= 7.41D-02 ExpMax= 1.48D+04 ExpMxC= 5.05D+02 IAcc=2 IRadAn=         4 AccDes= 0.00D+00
 Harris functional with IExCor=  205 and IRadAn=       4 diagonalized for initial guess.
 HarFok:  IExCor=  205 AccDes= 0.00D+00 IRadAn=         4 IDoV= 1 UseB2=F ITyADJ=14
 ICtDFT=  3500011 ScaDFX=  1.000000  1.000000  1.000000  1.000000
 FoFCou: FMM=F IPFlag=           0 FMFlag=      100000 FMFlg1=           0
         NFxFlg=           0 DoJE=T BraDBF=F KetDBF=T FulRan=T
         wScrn=  0.000000 ICntrl=     500 IOpCl=  0 I1Cent=   200000004 NGrid=           0
         NMat0=    1 NMatS0=      1 NMatT0=    0 NMatD0=    1 NMtDS0=    0 NMtDT0=    0
 Petite list used in FoFCou.
 Harris En= -322.056006678025    
 Leave Link  401 at Thu Aug 26 23:57:26 2021, MaxMem= 17179869184 cpu:        69.4
 (Enter /public3/home/sc51754/softwares/g09e01/l502.exe)
 Closed shell SCF:
 Using DIIS extrapolation, IDIIS=  1040.
 Integral symmetry usage will be decided dynamically.
 Keep J ints in memory in symmetry-blocked form, NReq=1167802198.
 IVT=      348658 IEndB=      348658 NGot= 17179869184 MDV= 16785904737
 LenX= 16785904737 LenY= 16785801896
 Requested convergence on RMS density matrix=1.00D-08 within 128 cycles.
 Requested convergence on MAX density matrix=1.00D-06.
 Requested convergence on             energy=1.00D-06.
 No special actions if energy rises.
 FoFCou: FMM=F IPFlag=           0 FMFlag=           0 FMFlg1=           0
         NFxFlg=           0 DoJE=F BraDBF=F KetDBF=F FulRan=T
         wScrn=  0.000000 ICntrl=     600 IOpCl=  0 I1Cent=           0 NGrid=           0
         NMat0=    1 NMatS0=  39340 NMatT0=    0 NMatD0=    1 NMtDS0=    0 NMtDT0=    0
 Petite list used in FoFCou.
 Integral accuracy reduced to 1.0D-05 until final iterations.

 Cycle   1  Pass 0  IDiag  1:
 E= -321.899146137511    
 DIIS: error= 1.07D-03 at cycle   1 NSaved=   1.
 NSaved= 1 IEnMin= 1 EnMin= -321.899146137511     IErMin= 1 ErrMin= 1.07D-03
 ErrMax= 1.07D-03  0.00D+00 EMaxC= 1.00D-01 BMatC= 3.08D-04 BMatP= 3.08D-04
 IDIUse=3 WtCom= 9.89D-01 WtEn= 1.07D-02
 Coeff-Com:  0.100D+01
 Coeff-En:   0.100D+01
 Coeff:      0.100D+01
 Gap=     0.521 Goal=   None    Shift=    0.000
 GapD=    0.521 DampG=2.000 DampE=1.000 DampFc=2.0000 IDamp=-1.
 RMSDP=6.63D-05 MaxDP=2.36D-03              OVMax= 3.40D-03

 Cycle   2  Pass 0  IDiag  1:
 E= -321.899324749416     Delta-E=       -0.000178611906 Rises=F Damp=F
 DIIS: error= 2.38D-04 at cycle   2 NSaved=   2.
 NSaved= 2 IEnMin= 2 EnMin= -321.899324749416     IErMin= 2 ErrMin= 2.38D-04
 ErrMax= 2.38D-04  0.00D+00 EMaxC= 1.00D-01 BMatC= 2.23D-05 BMatP= 3.08D-04
 IDIUse=3 WtCom= 9.98D-01 WtEn= 2.38D-03
 Coeff-Com:  0.121D+00 0.879D+00
 Coeff-En:   0.000D+00 0.100D+01
 Coeff:      0.121D+00 0.879D+00
 Gap=     0.153 Goal=   None    Shift=    0.000
 RMSDP=2.76D-05 MaxDP=1.25D-03 DE=-1.79D-04 OVMax= 3.77D-03

 Cycle   3  Pass 0  IDiag  1:
 E= -321.899285216156     Delta-E=        0.000039533261 Rises=F Damp=F
 DIIS: error= 5.04D-04 at cycle   3 NSaved=   3.
 NSaved= 3 IEnMin= 2 EnMin= -321.899324749416     IErMin= 2 ErrMin= 2.38D-04
 ErrMax= 5.04D-04  0.00D+00 EMaxC= 1.00D-01 BMatC= 7.14D-05 BMatP= 2.23D-05
 IDIUse=3 WtCom= 3.08D-01 WtEn= 6.92D-01
 Coeff-Com:  0.368D-01 0.635D+00 0.328D+00
 Coeff-En:   0.000D+00 0.716D+00 0.284D+00
 Coeff:      0.114D-01 0.691D+00 0.298D+00
 Gap=     0.153 Goal=   None    Shift=    0.000
 RMSDP=1.82D-05 MaxDP=8.86D-04 DE= 3.95D-05 OVMax= 2.79D-03

 Cycle   4  Pass 0  IDiag  1:
 E= -321.899341804124     Delta-E=       -0.000056587969 Rises=F Damp=F
 DIIS: error= 6.48D-05 at cycle   4 NSaved=   4.
 NSaved= 4 IEnMin= 4 EnMin= -321.899341804124     IErMin= 4 ErrMin= 6.48D-05
 ErrMax= 6.48D-05  0.00D+00 EMaxC= 1.00D-01 BMatC= 1.47D-06 BMatP= 2.23D-05
 IDIUse=1 WtCom= 1.00D+00 WtEn= 0.00D+00
 Coeff-Com:  0.893D-02 0.300D+00 0.115D+00 0.576D+00
 Coeff:      0.893D-02 0.300D+00 0.115D+00 0.576D+00
 Gap=     0.153 Goal=   None    Shift=    0.000
 RMSDP=4.72D-06 MaxDP=1.70D-04 DE=-5.66D-05 OVMax= 6.10D-04

 Initial convergence to 1.0D-05 achieved.  Increase integral accuracy.
 Cycle   5  Pass 1  IDiag  1:
 E= -321.899213658891     Delta-E=        0.000128145233 Rises=F Damp=F
 DIIS: error= 4.65D-05 at cycle   1 NSaved=   1.
 NSaved= 1 IEnMin= 1 EnMin= -321.899213658891     IErMin= 1 ErrMin= 4.65D-05
 ErrMax= 4.65D-05  0.00D+00 EMaxC= 1.00D-01 BMatC= 8.48D-07 BMatP= 8.48D-07
 IDIUse=1 WtCom= 1.00D+00 WtEn= 0.00D+00
 Coeff-Com:  0.100D+01
 Coeff:      0.100D+01
 Gap=     0.153 Goal=   None    Shift=    0.000
 RMSDP=4.72D-06 MaxDP=1.70D-04 DE= 1.28D-04 OVMax= 1.24D-03

 Cycle   6  Pass 1  IDiag  1:
 E= -321.899210114153     Delta-E=        0.000003544738 Rises=F Damp=F
 DIIS: error= 1.33D-04 at cycle   2 NSaved=   2.
 NSaved= 2 IEnMin= 1 EnMin= -321.899213658891     IErMin= 1 ErrMin= 4.65D-05
 ErrMax= 1.33D-04  0.00D+00 EMaxC= 1.00D-01 BMatC= 4.41D-06 BMatP= 8.48D-07
 IDIUse=3 WtCom= 4.65D-01 WtEn= 5.35D-01
 Coeff-Com:  0.707D+00 0.293D+00
 Coeff-En:   0.794D+00 0.206D+00
 Coeff:      0.754D+00 0.246D+00
 Gap=     0.153 Goal=   None    Shift=    0.000
 RMSDP=5.33D-06 MaxDP=2.15D-04 DE= 3.54D-06 OVMax= 8.94D-04

 Cycle   7  Pass 1  IDiag  1:
 E= -321.899214447576     Delta-E=       -0.000004333423 Rises=F Damp=F
 DIIS: error= 1.82D-05 at cycle   3 NSaved=   3.
 NSaved= 3 IEnMin= 3 EnMin= -321.899214447576     IErMin= 3 ErrMin= 1.82D-05
 ErrMax= 1.82D-05  0.00D+00 EMaxC= 1.00D-01 BMatC= 7.83D-08 BMatP= 8.48D-07
 IDIUse=1 WtCom= 1.00D+00 WtEn= 0.00D+00
 Coeff-Com:  0.266D+00 0.468D-01 0.687D+00
 Coeff:      0.266D+00 0.468D-01 0.687D+00
 Gap=     0.153 Goal=   None    Shift=    0.000
 RMSDP=9.21D-07 MaxDP=5.32D-05 DE=-4.33D-06 OVMax= 1.06D-04

 Cycle   8  Pass 1  IDiag  1:
 E= -321.899214462017     Delta-E=       -0.000000014441 Rises=F Damp=F
 DIIS: error= 1.44D-05 at cycle   4 NSaved=   4.
 NSaved= 4 IEnMin= 4 EnMin= -321.899214462017     IErMin= 4 ErrMin= 1.44D-05
 ErrMax= 1.44D-05  0.00D+00 EMaxC= 1.00D-01 BMatC= 5.69D-08 BMatP= 7.83D-08
 IDIUse=1 WtCom= 1.00D+00 WtEn= 0.00D+00
 Coeff-Com:  0.940D-02-0.473D-01 0.553D+00 0.485D+00
 Coeff:      0.940D-02-0.473D-01 0.553D+00 0.485D+00
 Gap=     0.153 Goal=   None    Shift=    0.000
 RMSDP=5.21D-07 MaxDP=2.79D-05 DE=-1.44D-08 OVMax= 5.02D-05

 Cycle   9  Pass 1  IDiag  1:
 E= -321.899214504880     Delta-E=       -0.000000042863 Rises=F Damp=F
 DIIS: error= 2.13D-06 at cycle   5 NSaved=   5.
 NSaved= 5 IEnMin= 5 EnMin= -321.899214504880     IErMin= 5 ErrMin= 2.13D-06
 ErrMax= 2.13D-06  0.00D+00 EMaxC= 1.00D-01 BMatC= 1.57D-09 BMatP= 5.69D-08
 IDIUse=1 WtCom= 1.00D+00 WtEn= 0.00D+00
 Coeff-Com:  0.109D-02-0.320D-01 0.346D+00 0.316D+00 0.369D+00
 Coeff:      0.109D-02-0.320D-01 0.346D+00 0.316D+00 0.369D+00
 Gap=     0.153 Goal=   None    Shift=    0.000
 RMSDP=1.19D-07 MaxDP=5.43D-06 DE=-4.29D-08 OVMax= 2.17D-05

 Cycle  10  Pass 1  IDiag  1:
 E= -321.899214506310     Delta-E=       -0.000000001430 Rises=F Damp=F
 DIIS: error= 4.30D-07 at cycle   6 NSaved=   6.
 NSaved= 6 IEnMin= 6 EnMin= -321.899214506310     IErMin= 6 ErrMin= 4.30D-07
 ErrMax= 4.30D-07  0.00D+00 EMaxC= 1.00D-01 BMatC= 6.26D-11 BMatP= 1.57D-09
 IDIUse=1 WtCom= 1.00D+00 WtEn= 0.00D+00
 Coeff-Com: -0.501D-03-0.102D-01 0.105D+00 0.983D-01 0.197D+00 0.610D+00
 Coeff:     -0.501D-03-0.102D-01 0.105D+00 0.983D-01 0.197D+00 0.610D+00
 Gap=     0.153 Goal=   None    Shift=    0.000
 RMSDP=2.53D-08 MaxDP=1.59D-06 DE=-1.43D-09 OVMax= 4.47D-06

 Cycle  11  Pass 1  IDiag  1:
 E= -321.899214506354     Delta-E=       -0.000000000044 Rises=F Damp=F
 DIIS: error= 2.06D-07 at cycle   7 NSaved=   7.
 NSaved= 7 IEnMin= 7 EnMin= -321.899214506354     IErMin= 7 ErrMin= 2.06D-07
 ErrMax= 2.06D-07  0.00D+00 EMaxC= 1.00D-01 BMatC= 7.90D-12 BMatP= 6.26D-11
 IDIUse=1 WtCom= 1.00D+00 WtEn= 0.00D+00
 Coeff-Com: -0.247D-03-0.444D-02 0.451D-01 0.426D-01 0.103D+00 0.380D+00
 Coeff-Com:  0.434D+00
 Coeff:     -0.247D-03-0.444D-02 0.451D-01 0.426D-01 0.103D+00 0.380D+00
 Coeff:      0.434D+00
 Gap=     0.153 Goal=   None    Shift=    0.000
 RMSDP=1.04D-08 MaxDP=3.55D-07 DE=-4.40D-11 OVMax= 1.74D-06

 Cycle  12  Pass 1  IDiag  1:
 E= -321.899214506367     Delta-E=       -0.000000000013 Rises=F Damp=F
 DIIS: error= 9.95D-08 at cycle   8 NSaved=   8.
 NSaved= 8 IEnMin= 8 EnMin= -321.899214506367     IErMin= 8 ErrMin= 9.95D-08
 ErrMax= 9.95D-08  0.00D+00 EMaxC= 1.00D-01 BMatC= 1.12D-12 BMatP= 7.90D-12
 IDIUse=1 WtCom= 1.00D+00 WtEn= 0.00D+00
 Coeff-Com: -0.145D-03-0.182D-02 0.183D-01 0.173D-01 0.461D-01 0.182D+00
 Coeff-Com:  0.295D+00 0.443D+00
[...]
     32  0.000000D+00  0.747103D-04 -0.441869D-03  0.000000D+00 -0.301730D-03
     33  0.432076D-02  0.000000D+00  0.000000D+00 -0.425735D-03  0.000000D+00
     34  0.000000D+00 -0.181136D-03 -0.270851D-03  0.000000D+00  0.127339D-03
     35  0.000000D+00  0.210214D-03  0.206020D-03  0.000000D+00  0.295704D-03
     36 -0.298587D-01  0.000000D+00  0.000000D+00  0.000000D+00  0.000000D+00
               26            27            28            29            30 
     26  0.125658D+00
     27  0.000000D+00  0.219023D-01
     28 -0.322476D-04  0.000000D+00  0.286673D+00
     29  0.116580D-03  0.000000D+00  0.105880D+00  0.108171D+00
     30  0.000000D+00 -0.180600D-02  0.000000D+00  0.000000D+00  0.243853D-01
     31  0.194529D-03  0.000000D+00 -0.862297D-03  0.829084D-03  0.000000D+00
     32  0.124441D-02  0.000000D+00 -0.691105D-03  0.386166D-03  0.000000D+00
     33  0.000000D+00 -0.431515D-02  0.000000D+00  0.000000D+00 -0.361994D-03
     34 -0.120819D-02  0.000000D+00  0.612605D-03 -0.619391D-03  0.000000D+00
     35 -0.332106D-03  0.000000D+00  0.143687D-03  0.413603D-03  0.000000D+00
     36  0.000000D+00  0.551129D-03  0.000000D+00  0.000000D+00 -0.308388D-02
               31            32            33            34            35 
     31  0.262771D+00
     32 -0.129485D+00  0.132330D+00
     33  0.000000D+00  0.000000D+00  0.246271D-01
     34  0.109857D-02  0.566949D-03  0.000000D+00  0.517888D-01
     35 -0.759173D-04  0.623166D-03  0.000000D+00  0.178172D-01  0.345451D+00
     36  0.000000D+00  0.000000D+00 -0.337716D-02  0.000000D+00  0.000000D+00
               36 
     36  0.227605D-01
 FormGI is forming the generalized inverse of G from B-inverse, IUseBI=4.
 Leave Link  716 at Thu Aug 26 23:58:32 2021, MaxMem= 17179869184 cpu:        34.9
 (Enter /public3/home/sc51754/softwares/g09e01/l103.exe)

 GradGradGradGradGradGradGradGradGradGradGradGradGradGradGradGradGradGrad
 Berny optimization.
 Red2BG is reusing G-inverse.
 Internal  Forces:  Max     0.000240321 RMS     0.000059200
 Search for a local minimum.
 Step number   1 out of a maximum of    2
 All quantities printed in internal units (Hartrees-Bohrs-Radians)
 Second derivative matrix not updated -- analytic derivatives used.
 ITU=  0
     Eigenvalues ---    0.01272   0.01635   0.01806   0.02037   0.02153
     Eigenvalues ---    0.02605   0.02860   0.03456   0.04194   0.09572
     Eigenvalues ---    0.10097   0.11121   0.12132   0.14153   0.17882
     Eigenvalues ---    0.18994   0.20328   0.23373   0.33025   0.33615
     Eigenvalues ---    0.34288   0.34720   0.34789   0.38835   0.43898
     Eigenvalues ---    0.45556   0.47707   0.49589   0.53024   0.58755
 Angle between quadratic step and forces=  34.18 degrees.
 Linear search not attempted -- first point.
 Iteration  1 RMS(Cart)=  0.00021206 RMS(Int)=  0.00000006
 Iteration  2 RMS(Cart)=  0.00000006 RMS(Int)=  0.00000001
 ITry= 1 IFail=0 DXMaxC= 8.33D-04 DCOld= 1.00D+10 DXMaxT= 3.00D-01 DXLimC= 3.00D+00 Rises=F
 ClnCor:  largest displacement from symmetrization is 6.13D-13 for atom    12.
 Variable       Old X    -DE/DX   Delta X   Delta X   Delta X     New X
                                 (Linear)    (Quad)   (Total)
    R1        2.52403  -0.00003   0.00000  -0.00012  -0.00012   2.52391
    R2        1.85009  -0.00024   0.00000  -0.00051  -0.00051   1.84957
    R3        2.49154   0.00022   0.00000   0.00061   0.00061   2.49215
    R4        2.50936  -0.00010   0.00000  -0.00040  -0.00040   2.50895
    R5        2.62784  -0.00014   0.00000  -0.00049  -0.00049   2.62735
    R6        2.59965   0.00008   0.00000   0.00033   0.00033   2.59997
    R7        2.06059  -0.00005   0.00000  -0.00014  -0.00014   2.06044
    R8        2.60628   0.00010   0.00000   0.00040   0.00040   2.60668
    R9        2.06874  -0.00004   0.00000  -0.00009  -0.00009   2.06865
   R10        2.62153  -0.00003   0.00000  -0.00024  -0.00024   2.62129
   R11        2.06383  -0.00005   0.00000  -0.00014  -0.00014   2.06369
   R12        2.06025  -0.00006   0.00000  -0.00020  -0.00020   2.06005
    A1        1.83686   0.00000   0.00000   0.00014   0.00014   1.83700
    A2        2.06264   0.00000   0.00000   0.00002   0.00002   2.06266
    A3        2.04316   0.00002   0.00000  -0.00013  -0.00013   2.04303
    A4        2.08181   0.00001   0.00000   0.00028   0.00028   2.08209
    A5        2.15821  -0.00002   0.00000  -0.00015  -0.00015   2.15807
    A6        2.04896   0.00000   0.00000   0.00006   0.00006   2.04902
    A7        2.09367   0.00004   0.00000   0.00052   0.00052   2.09418
    A8        2.14056  -0.00005   0.00000  -0.00058  -0.00058   2.13998
    A9        2.14803   0.00002   0.00000   0.00017   0.00017   2.14820
   A10        2.02685   0.00002   0.00000   0.00023   0.00023   2.02708
   A11        2.10830  -0.00004   0.00000  -0.00039  -0.00039   2.10791
   A12        2.08927   0.00004   0.00000   0.00017   0.00017   2.08944
   A13        2.09225  -0.00005   0.00000  -0.00045  -0.00045   2.09180
   A14        2.10167   0.00001   0.00000   0.00027   0.00027   2.10194
   A15        2.05926  -0.00004   0.00000  -0.00028  -0.00028   2.05898
   A16        2.10345   0.00001   0.00000  -0.00002  -0.00002   2.10342
   A17        2.12048   0.00003   0.00000   0.00030   0.00030   2.12078
    D1        0.00000   0.00000   0.00000   0.00000   0.00000   0.00000
    D2        3.14159  -0.00000   0.00000   0.00000   0.00000   3.14159
    D3        3.14159  -0.00000   0.00000   0.00000   0.00000   3.14159
    D4        0.00000  -0.00000   0.00000   0.00000  -0.00000   0.00000
    D5       -0.00000   0.00000   0.00000   0.00000   0.00000   0.00000
    D6        3.14159   0.00000   0.00000   0.00000   0.00000   3.14159
    D7        3.14159   0.00000   0.00000  -0.00000   0.00000   3.14159
    D8       -0.00000  -0.00000   0.00000  -0.00000   0.00000   0.00000
    D9        0.00000   0.00000   0.00000  -0.00000   0.00000   0.00000
   D10        3.14159   0.00000   0.00000  -0.00000   0.00000   3.14159
   D11       -0.00000   0.00000   0.00000  -0.00000   0.00000   0.00000
   D12        3.14159  -0.00000   0.00000   0.00000   0.00000   3.14159
   D13        3.14159   0.00000   0.00000  -0.00000   0.00000   3.14159
   D14        0.00000  -0.00000   0.00000   0.00000   0.00000   0.00000
   D15        0.00000  -0.00000   0.00000  -0.00000  -0.00000   0.00000
   D16        3.14159   0.00000   0.00000  -0.00000   0.00000   3.14159
   D17        3.14159  -0.00000   0.00000  -0.00000   0.00000   3.14159
   D18       -0.00000  -0.00000   0.00000  -0.00000   0.00000   0.00000
   D19       -0.00000  -0.00000   0.00000   0.00000   0.00000   0.00000
   D20        3.14159  -0.00000   0.00000   0.00000   0.00000   3.14159
   D21        3.14159   0.00000   0.00000   0.00000   0.00000   3.14159
   D22       -0.00000  -0.00000   0.00000  -0.00000   0.00000   0.00000
         Item               Value     Threshold  Converged?
 Maximum Force            0.000240     0.000450     YES
 RMS     Force            0.000059     0.000300     YES
 Maximum Displacement     0.000833     0.001800     YES
 RMS     Displacement     0.000212     0.001200     YES
 Predicted change in Energy=-2.987020D-07
 Optimization completed.
    -- Stationary point found.
                           ----------------------------
                           !   Optimized Parameters   !
                           ! (Angstroms and Degrees)  !
 --------------------------                            --------------------------
 ! Name  Definition              Value          Derivative Info.                !
 --------------------------------------------------------------------------------
 ! R1    R(1,3)                  1.3357         -DE/DX =    0.0                 !
 ! R2    R(1,8)                  0.979          -DE/DX =   -0.0002              !
 ! R3    R(2,3)                  1.3185         -DE/DX =    0.0002              !
 ! R4    R(2,5)                  1.3279         -DE/DX =   -0.0001              !
 ! R5    R(3,4)                  1.3906         -DE/DX =   -0.0001              !
 ! R6    R(4,6)                  1.3757         -DE/DX =    0.0001              !
 ! R7    R(4,9)                  1.0904         -DE/DX =    0.0                 !
 ! R8    R(5,7)                  1.3792         -DE/DX =    0.0001              !
 ! R9    R(5,10)                 1.0947         -DE/DX =    0.0                 !
 ! R10   R(6,7)                  1.3873         -DE/DX =    0.0                 !
 ! R11   R(6,11)                 1.0921         -DE/DX =   -0.0001              !
 ! R12   R(7,12)                 1.0902         -DE/DX =   -0.0001              !
 ! A1    A(3,1,8)              105.2444         -DE/DX =    0.0                 !
 ! A2    A(3,2,5)              118.1804         -DE/DX =    0.0                 !
 ! A3    A(1,3,2)              117.0645         -DE/DX =    0.0                 !
 ! A4    A(1,3,4)              119.2789         -DE/DX =    0.0                 !
 ! A5    A(2,3,4)              123.6566         -DE/DX =    0.0                 !
 ! A6    A(3,4,6)              117.3968         -DE/DX =    0.0                 !
 ! A7    A(3,4,9)              119.9582         -DE/DX =    0.0                 !
 ! A8    A(6,4,9)              122.645          -DE/DX =    0.0                 !
 ! A9    A(2,5,7)              123.0732         -DE/DX =    0.0                 !
 ! A10   A(2,5,10)             116.13           -DE/DX =    0.0                 !
 ! A11   A(7,5,10)             120.7969         -DE/DX =    0.0                 !
 ! A12   A(4,6,7)              119.7065         -DE/DX =    0.0                 !
 ! A13   A(4,6,11)             119.8768         -DE/DX =    0.0                 !
 ! A14   A(7,6,11)             120.4167         -DE/DX =    0.0                 !
 ! A15   A(5,7,6)              117.9867         -DE/DX =    0.0                 !
 ! A16   A(5,7,12)             120.5186         -DE/DX =    0.0                 !
 ! A17   A(6,7,12)             121.4948         -DE/DX =    0.0                 !
 ! D1    D(8,1,3,2)              0.0            -DE/DX =    0.0                 !
 ! D2    D(8,1,3,4)            180.0            -DE/DX =    0.0                 !
 ! D3    D(5,2,3,1)            180.0            -DE/DX =    0.0                 !
 ! D4    D(5,2,3,4)              0.0            -DE/DX =    0.0                 !
 ! D5    D(3,2,5,7)              0.0            -DE/DX =    0.0                 !
 ! D6    D(3,2,5,10)           180.0            -DE/DX =    0.0                 !
 ! D7    D(1,3,4,6)            180.0            -DE/DX =    0.0                 !
 ! D8    D(1,3,4,9)              0.0            -DE/DX =    0.0                 !
 ! D9    D(2,3,4,6)              0.0            -DE/DX =    0.0                 !
 ! D10   D(2,3,4,9)            180.0            -DE/DX =    0.0                 !
 ! D11   D(3,4,6,7)              0.0            -DE/DX =    0.0                 !
 ! D12   D(3,4,6,11)           180.0            -DE/DX =    0.0                 !
 ! D13   D(9,4,6,7)            180.0            -DE/DX =    0.0                 !
 ! D14   D(9,4,6,11)             0.0            -DE/DX =    0.0                 !
 ! D15   D(2,5,7,6)              0.0            -DE/DX =    0.0                 !
 ! D16   D(2,5,7,12)           180.0            -DE/DX =    0.0                 !
 ! D17   D(10,5,7,6)           180.0            -DE/DX =    0.0                 !
 ! D18   D(10,5,7,12)            0.0            -DE/DX =    0.0                 !
 ! D19   D(4,6,7,5)              0.0            -DE/DX =    0.0                 !
 ! D20   D(4,6,7,12)           180.0            -DE/DX =    0.0                 !
 ! D21   D(11,6,7,5)           180.0            -DE/DX =    0.0                 !
 ! D22   D(11,6,7,12)            0.0            -DE/DX =    0.0                 !
 --------------------------------------------------------------------------------
 GradGradGradGradGradGradGradGradGradGradGradGradGradGradGradGradGradGrad

 Leave Link  103 at Thu Aug 26 23:58:32 2021, MaxMem= 17179869184 cpu:        38.7
 (Enter /public3/home/sc51754/softwares/g09e01/l9999.exe)
 1\1\GINC-R2613\Freq\RSVWN\Gen\C5H5N1O1\SC51754\26-Aug-2021\0\\#P Geom=
 AllCheck Guess=TCheck SCRF=Check GenChk RSVWN/ChkBas Freq\\HY_SVWN_PC2
 _OPT_FREQ\\0,1\O,0.0060360681,2.2388884033,0.\N,-1.1627587232,0.300135
 9922,0.\C,0.0096848562,0.903234938,0.\C,1.2244820428,0.2264661236,0.\C
 ,-1.1849909506,-1.0275733188,0.\C,1.1830564873,-1.1485829207,0.\C,-0.0
 420335658,-1.7994504958,0.\H,-0.9392381183,2.4937284323,0.\H,2.1599398
 948,0.7867566712,0.\H,-2.1757728606,-1.4931803352,0.\H,2.113230567,-1.
 7208845557,0.\H,-0.1088546975,-2.8876389345,0.\\Version=EM64L-G09RevE.
 01\State=1-A'\HF=-321.899232\RMSD=1.287e-09\RMSF=1.140e-04\ZeroPoint=0
 .0915785\Thermal=0.0968697\Dipole=0.1852892,-0.44415,0.\DipoleDeriv=-0
 .2040044,0.0905958,0.,0.0937353,-1.5367262,0.,0.,0.,-0.3474137,-0.4628
 866,-0.297824,0.,0.169686,-0.792398,0.,0.,0.,-0.2664343,0.2641096,-0.1
 799593,0.,-0.0466084,1.6953246,0.,0.,0.,0.1902367,-0.0531581,0.3899206
 ,0.,-0.0548274,-0.4357112,0.,0.,0.,-0.1436786,0.3950696,0.1337512,0.,-
 0.206941,0.3837592,0.,0.,0.,-0.0267597,0.2182276,0.0661534,0.,0.113175
 1,0.2966412,0.,0.,0.,-0.1083723,-0.420561,-0.1084492,0.,0.0749707,-0.1
 046391,0.,0.,0.,-0.1462002,0.2128257,-0.010619,0.,-0.0881646,0.4071356
 ,0.,0.,0.,0.309627,0.0120322,-0.0448196,0.,-0.0436215,0.0562882,0.,0.,
 0.,0.1500956,-0.0314562,-0.0888716,0.,-0.0549692,0.0203257,0.,0.,0.,0.
 107615,-0.0061224,0.0601846,0.,0.05837,0.0565301,0.,0.,0.,0.1288398,0.
 075924,-0.0100629,0.,-0.0148048,-0.0465301,0.,0.,0.,0.1524448\Polar=75
 .6357341,0.0532212,88.3733558,0.,0.,38.5509339\PG=CS [SG(C5H5N1O1)]\NI
 mag=0\\0.54503188,-0.08621213,0.48326155,0.,0.,0.03719507,-0.00903046,
 -0.03571194,0.,0.47394151,-0.06631457,-0.05510471,0.,0.14302217,0.6527
 8558,0.,0.,0.00862249,0.,0.,0.08682009,-0.10304861,-0.00852591,0.,-0.3
 1093311,-0.07090938,0.,0.72364299,0.03053954,-0.32329648,0.,-0.0954277
 9,-0.16831488,0.,-0.02629044,0.73824436,0.,0.,-0.05148527,0.,0.,-0.069
 51203,0.,0.,0.17938006,-0.00070057,0.01449659,0.,-0.06137236,-0.028132
 79,0.,-0.27283077,0.10789488,0.,0.69755897,0.04964979,-0.04212042,0.,0
 .01448188,0.05448773,0.,0.04756963,-0.14928982,0.,0.03855577,0.7222884
 9,0.,0.,0.00865629,0.,0.,0.01883950,0.,0.,-0.07334653,0.,0.,0.11595160
 ,-0.00354875,0.00181711,0.,-0.10903124,-0.01273822,0.,0.01108393,-0.04
 622714,0.,-0.01347704,0.02240930,0.,0.73145652,0.00823889,0.00045342,0
 .,-0.00033001,-0.36916539,0.,-0.09066065,-0.04643974,0.,0.03032912,-0.
 04467228,0.,0.02443447,0.68716179,0.,0.,0.01010722,0.,0.,-0.06162717,0
 .,0.,-0.00288280,0.,0.,-0.00531021,0.,0.,0.14999504,-0.01057709,0.0036
 0642,0.,-0.01622627,-0.03425758,0.,0.04043463,0.02931704,0.,-0.1197663
 2,0.01726165,0.,-0.05860287,0.02769462,0.,0.70365160,-0.00617538,0.006
 48277,0.,-0.02904431,-0.04522038,0.,0.07359323,-0.03104257,0.,-0.03130
 132,-0.37571861,0.,-0.01548114,0.05915401,0.,-0.02653945,0.69874948,0.
 ,0.,0.00431476,0.,0.,-0.00810754,0.,0.,0.00317272,0.,0.,-0.05495178,0.
 ,0.,0.00863086,0.,0.,0.13479507,0.00815653,-0.00410907,0.,0.03710653,0
 .07304221,0.,-0.06944573,-0.00016812,0.,0.02574606,-0.06497682,0.,-0.2
 8469443,0.07236534,0.,-0.29318601,-0.06535693,0.,0.66142419,-0.0022041
 5,-0.00599185,0.,0.02205832,-0.05142383,0.,0.01287972,0.00468695,0.,-0
 .03304479,-0.02500594,0.,0.12821329,-0.18230245,0.,-0.11850496,-0.1661
 7696,0.,0.00292546,0.73585467,0.,0.,-0.00203317,0.,0.,0.02298172,0.,0.
 ,-0.00942785,0.,0.,0.00777717,0.,0.,-0.06556672,0.,0.,-0.06049882,0.,0
 .,0.11659672,-0.42861787,0.11544417,0.,-0.00138592,-0.00391499,0.,-0.0
 0523978,0.01730901,0.,0.00310575,-0.00241744,0.,-0.00177205,-0.0017390
 4,0.,0.00005316,0.00126397,0.,-0.00080075,-0.00046497,0.,0.43466531,0.
 07304288,-0.06319843,0.,0.00215872,0.00812509,0.,0.05269006,-0.0278226
 2,0.,-0.00202949,-0.00660894,0.,-0.00124961,-0.00187877,0.,0.00228313,
 0.00055007,0.,-0.00113961,0.00116488,0.,-0.12552698,0.08954791,0.,0.,-
 0.01275893,0.,0.,-0.00442081,0.,0.,0.00218963,0.,0.,0.00374633,0.,0.,-
 0.00075714,0.,0.,0.00132798,0.,0.,0.00066938,0.,0.,0.01145691,0.001736
 06,-0.00083786,0.,-0.00504812,0.00304885,0.,-0.01590580,-0.01750861,0.
 ,-0.25835985,-0.11925444,0.,0.00035910,0.00231492,0.,0.00421423,0.0013
 9505,0.,0.00252127,0.00078399,0.,-0.00005401,-0.00008389,0.,0.26983460
 ,-0.00083772,0.00079155,0.,0.00491320,-0.00026984,0.,0.01162884,0.0107
 2502,0.,-0.12046107,-0.12223078,0.,0.00028197,-0.00134023,0.,-0.025847
 45,-0.00973843,0.,0.00135319,-0.00467904,0.,-0.00031018,0.00005493,0.,
 0.13032512,0.12565793,0.,0.,-0.00167055,0.,0.,0.00546047,0.,0.,0.00203
 208,0.,0.,-0.03120002,0.,0.,-0.00029524,0.,0.,0.00150438,0.,0.,0.00851
 793,0.,0.,-0.00068133,0.,0.,0.02190231,-0.00021953,-0.00007635,0.,0.00
 505342,-0.00621694,0.,0.00303823,0.00186673,0.,0.00034279,0.00070948,0
 .,-0.27504106,-0.09366877,0.,-0.00292646,0.00381550,0.,-0.01675029,-0.
 01192940,0.,0.00016815,0.00019951,0.,-0.00008857,-0.00003225,0.,0.2866
 7302,-0.00093176,-0.00076666,0.,-0.02867625,-0.02466096,0.,-0.00126937
 ,-0.00360339,0.,0.00011126,-0.00074846,0.,-0.09303452,-0.08854735,0.,0
 .00310109,-0.00130120,0.,0.01471552,0.01023931,0.,0.00007154,0.0003017
 2,0.,-0.00017711,0.00011658,0.,0.10587991,0.10817062,0.,0.,0.00067480,
 0.,0.,-0.00356292,0.,0.,0.01004710,0.,0.,-0.00088291,0.,0.,-0.03867608
 ,0.,0.,0.00709099,0.,0.,0.00652158,0.,0.,-0.00034599,0.,0.,-0.00180600
 ,0.,0.,0.02438530,-0.00002469,0.00003866,0.,0.00044196,-0.00077221,0.,
 0.00202148,-0.00114281,0.,0.00389229,-0.00205669,0.,-0.00373842,-0.003
 76788,0.,-0.24936429,0.12082593,0.,-0.01695842,0.01548639,0.,0.0000591
 4,-0.00007388,0.,0.00066374,0.00019453,0.,-0.00086230,0.00082908,0.,0.
 26277093,0.00155945,-0.00067944,0.,-0.00054271,-0.00062465,0.,-0.00135
 511,-0.00459066,0.,0.02586716,-0.01137254,0.,-0.00316734,-0.00051327,0
 .,0.12026046,-0.12713762,0.,-0.01278552,0.01077583,0.,0.00007471,-0.00
 044187,0.,-0.00030173,0.00124441,0.,-0.00069111,0.00038617,0.,-0.12948
 522,0.13233047,0.,0.,-0.00019742,0.,0.,-0.00322691,0.,0.,0.00932775,0.
 ,0.,0.00447354,0.,0.,0.00716475,0.,0.,-0.03800951,0.,0.,0.00432076,0.,
 0.,-0.00042574,0.,0.,-0.00431515,0.,0.,-0.00036199,0.,0.,0.02462709,0.
 00084312,0.00007032,0.,-0.00351595,0.00414343,0.,-0.00281747,-0.000162
 29,0.,-0.00413895,-0.00193211,0.,0.00700630,0.02478899,0.,0.00229568,-
 0.02699514,0.,-0.05311895,-0.01619889,0.,-0.00018114,-0.00027085,0.,0.
 00012734,-0.00120819,0.,0.00061260,-0.00061939,0.,0.00109857,0.0005669
 5,0.,0.05178883,-0.00035485,0.00016870,0.,0.00309871,-0.00061377,0.,0.
 00064937,0.00074382,0.,-0.00228532,0.00099156,0.,-0.00525818,-0.011909
 74,0.,0.00162502,-0.00860056,0.,-0.01586563,-0.32714157,0.,0.00021021,
 0.00020602,0.,0.00029570,-0.00033211,0.,0.00014369,0.00041360,0.,-0.00
 007592,0.00062317,0.,0.01781718,0.34545088,0.,0.,-0.00142530,0.,0.,0.0
 0773312,0.,0.,0.00050516,0.,0.,0.00624701,0.,0.,-0.00078250,0.,0.,0.00
 073090,0.,0.,-0.02985870,0.,0.,-0.00000030,0.,0.,0.00055113,0.,0.,-0.0
 0308388,0.,0.,-0.00337716,0.,0.,0.02276053\\0.00021688,-0.00003149,0.,
 0.00019097,0.00021389,0.,-0.00031236,-0.00007786,0.,0.00008102,-0.0002
 0493,0.,0.00011162,-0.00020337,0.,0.00003351,0.00012093,0.,-0.00010365
 ,0.00016471,0.,-0.00024542,0.00005691,0.,0.00001454,0.00007131,0.,-0.0
 0004177,-0.00000388,0.,0.00003681,-0.00004112,0.,0.00001785,-0.0000651
 1,0.\\\@


 THE TEST OF A FIRST RATE INTELLIGENCE IS THE ABILITY TO HOLD TWO OPPOSED
 IDEAS IN THE MIND AT THE SAME TIME, AND STILL RETAIN THE ABILITY TO FUNCTION.
 ONE SHOULD, FOR EXAMPLE, BE ABLE TO SEE THAT THINGS ARE HOPELESS AND YET BE
 DETERMINED TO MAKE THEM OTHERWISE.

                                                       -- F. SCOTT FITZGERALD
 Job cpu time:       0 days  0 hours 30 minutes 16.7 seconds.
 File lengths (MBytes):  RWF=     80 Int=      0 D2E=      0 Chk=      7 Scr=      1
 Normal termination of Gaussian 09 at Thu Aug 26 23:58:33 2021.
