 Entering Gaussian System, Link 0=g09
 AtFile(1): pc-2.gbs
            -H     0
            S    4   1.00
                  0.754230D+02           0.240650D-02
                  0.113500D+02           0.184870D-01
                  0.259930D+01           0.897420D-01
                  0.735130D+00           0.281110D+00
            S    1   1.00
                  0.231670D+00           0.100000D+01
            S    1   1.00
                  0.741470D-01           0.100000D+01
            P    1   1.00
                  0.160000D+01           0.100000D+01
            P    1   1.00
                  0.450000D+00           0.100000D+01
            D    1   1.00
                  0.125000D+01           0.100000D+01
            ****
            -C     0
            S    7   1.00
                  0.785710D+04           0.568250D-03
                  0.117870D+04           0.439150D-02
                  0.268320D+03           0.225040D-01
                  0.759480D+02           0.866530D-01
                  0.245590D+02           0.244050D+00
                  0.862120D+01           0.441480D+00
                  0.312780D+01           0.353320D+00
            S    7   1.00
                  0.117870D+04          -0.594920D-06
                  0.268320D+03          -0.627480D-04
                  0.759480D+02          -0.757730D-03
                  0.245590D+02          -0.733080D-02
                  0.862120D+01          -0.389320D-01
                  0.312780D+01          -0.889080D-01
                  0.822020D+00           0.216890D+00
            S    1   1.00
                  0.330170D+00           0.100000D+01
            S    1   1.00
                  0.114630D+00           0.100000D+01
            P    4   1.00
                  0.337750D+02           0.602940D-02
                  0.767660D+01           0.432280D-01
                  0.223570D+01           0.163010D+00
                  0.764470D+00           0.365040D+00
            P    1   1.00
                  0.262320D+00           0.100000D+01
            P    1   1.00
                  0.846380D-01           0.100000D+01
            D    1   1.00
                  0.140000D+01           0.100000D+01
            D    1   1.00
                  0.450000D+00           0.100000D+01
            F    1   1.00
                  0.950000D+00           0.100000D+01
            ****
            -N     0
            S    7   1.00
                  0.111010D+05           0.545700D-03
                  0.166530D+04           0.421810D-02
                  0.379080D+03           0.216450D-01
                  0.107300D+03           0.837760D-01
                  0.347470D+02           0.238810D+00
                  0.122490D+02           0.439940D+00
                  0.447430D+01           0.363640D+00
            S    7   1.00
                  0.166530D+04          -0.150060D-05
                  0.379080D+03          -0.587530D-04
                  0.107300D+03          -0.774530D-03
                  0.347470D+02          -0.721610D-02
                  0.122490D+02          -0.393380D-01
                  0.447430D+01          -0.906110D-01
                  0.124040D+01           0.198820D+00
            S    1   1.00
                  0.487430D+00           0.100000D+01
            S    1   1.00
                  0.164840D+00           0.100000D+01
            P    4   1.00
                  0.479340D+02           0.617060D-02
                  0.109990D+02           0.442600D-01
                  0.324720D+01           0.168250D+00
                  0.111140D+01           0.368480D+00
            P    1   1.00
                  0.379880D+00           0.100000D+01
            P    1   1.00
                  0.120680D+00           0.100000D+01
            D    1   1.00
                  0.180000D+01           0.100000D+01
            D    1   1.00
                  0.550000D+00           0.100000D+01
            F    1   1.00
                  0.102000D+01           0.100000D+01
            ****
            -O     0
            S    7   1.00
                  0.147820D+05           0.535190D-03
                  0.221730D+04           0.413750D-02
                  0.504740D+03           0.212450D-01
                  0.142870D+03           0.824530D-01
                  0.463000D+02           0.236710D+00
                  0.163370D+02           0.440390D+00
                  0.598280D+01           0.364650D+00
            S    7   1.00
                  0.221730D+04          -0.192750D-05
                  0.504740D+03          -0.579640D-04
                  0.142870D+03          -0.794940D-03
                  0.463000D+02          -0.731250D-02
                  0.163370D+02          -0.405740D-01
                  0.598280D+01          -0.915940D-01
                  0.167180D+01           0.209400D+00
            S    1   1.00
                  0.646620D+00           0.100000D+01
            S    1   1.00
                  0.216690D+00           0.100000D+01
            P    4   1.00
                  0.604240D+02           0.689490D-02
                  0.139350D+02           0.490050D-01
                  0.415310D+01           0.182550D+00
                  0.141580D+01           0.376330D+00
            P    1   1.00
                  0.475490D+00           0.100000D+01
            P    1   1.00
                  0.145290D+00           0.100000D+01
            D    1   1.00
                  0.220000D+01           0.100000D+01
            D    1   1.00
                  0.650000D+00           0.100000D+01
            F    1   1.00
                  0.110000D+01           0.100000D+01
            ****
 Initial command:
 /public3/home/sc51754/softwares/g09e01/l1.exe "./Gau-8882.inp" -scrdir="./"
 Entering Link 1 = /public3/home/sc51754/softwares/g09e01/l1.exe PID=      8883.
  
 Copyright (c) 1988,1990,1992,1993,1995,1998,2003,2009,2015,
            Gaussian, Inc.  All Rights Reserved.
  
 This is part of the Gaussian(R) 09 program.  It is based on
 the Gaussian(R) 03 system (copyright 2003, Gaussian, Inc.),
 the Gaussian(R) 98 system (copyright 1998, Gaussian, Inc.),
 the Gaussian(R) 94 system (copyright 1995, Gaussian, Inc.),
 the Gaussian 92(TM) system (copyright 1992, Gaussian, Inc.),
 the Gaussian 90(TM) system (copyright 1990, Gaussian, Inc.),
 the Gaussian 88(TM) system (copyright 1988, Gaussian, Inc.),
 the Gaussian 86(TM) system (copyright 1986, Carnegie Mellon
 University), and the Gaussian 82(TM) system (copyright 1983,
 Carnegie Mellon University). Gaussian is a federally registered
 trademark of Gaussian, Inc.
  
 This software contains proprietary and confidential information,
 including trade secrets, belonging to Gaussian, Inc.
  
 This software is provided under written license and may be
 used, copied, transmitted, or stored only in accord with that
 written license.
  
 The following legend is applicable only to US Government
 contracts under FAR:
  
                    RESTRICTED RIGHTS LEGEND
  
 Use, reproduction and disclosure by the US Government is
 subject to restrictions as set forth in subparagraphs (a)
 and (c) of the Commercial Computer Software - Restricted
 Rights clause in FAR 52.227-19.
  
 Gaussian, Inc.
 340 Quinnipiac St., Bldg. 40, Wallingford CT 06492
  
  
 ---------------------------------------------------------------
 Warning -- This program may not be used in any manner that
 competes with the business of Gaussian, Inc. or will provide
 assistance to any competitor of Gaussian, Inc.  The licensee
 of this program is prohibited from giving any competitor of
 Gaussian, Inc. access to this program.  By using this program,
 the user acknowledges that Gaussian, Inc. is engaged in the
 business of creating and licensing software in the field of
 computational chemistry and represents and warrants to the
 licensee that it is not a competitor of Gaussian, Inc. and that
 it will not use this program in any manner prohibited above.
 ---------------------------------------------------------------
  

 Cite this work as:
 Gaussian 09, Revision E.01,
 M. J. Frisch, G. W. Trucks, H. B. Schlegel, G. E. Scuseria, 
 M. A. Robb, J. R. Cheeseman, G. Scalmani, V. Barone, B. Mennucci, 
 G. A. Petersson, H. Nakatsuji, M. Caricato, X. Li, H. P. Hratchian, 
 A. F. Izmaylov, J. Bloino, G. Zheng, J. L. Sonnenberg, M. Hada, 
 M. Ehara, K. Toyota, R. Fukuda, J. Hasegawa, M. Ishida, T. Nakajima, 
 Y. Honda, O. Kitao, H. Nakai, T. Vreven, J. A. Montgomery, Jr., 
 J. E. Peralta, F. Ogliaro, M. Bearpark, J. J. Heyd, E. Brothers, 
 K. N. Kudin, V. N. Staroverov, T. Keith, R. Kobayashi, J. Normand, 
 K. Raghavachari, A. Rendell, J. C. Burant, S. S. Iyengar, J. Tomasi, 
 M. Cossi, N. Rega, J. M. Millam, M. Klene, J. E. Knox, J. B. Cross, 
 V. Bakken, C. Adamo, J. Jaramillo, R. Gomperts, R. E. Stratmann, 
 O. Yazyev, A. J. Austin, R. Cammi, C. Pomelli, J. W. Ochterski, 
 R. L. Martin, K. Morokuma, V. G. Zakrzewski, G. A. Voth, 
 P. Salvador, J. J. Dannenberg, S. Dapprich, A. D. Daniels, 
 O. Farkas, J. B. Foresman, J. V. Ortiz, J. Cioslowski, 
 and D. J. Fox, Gaussian, Inc., Wallingford CT, 2013.
 
 ******************************************
 Gaussian 09:  EM64L-G09RevE.01 30-Nov-2015
                26-Aug-2021 
 ******************************************
 %nprocshared=64
 Will use up to   64 processors via shared memory.
 %mem=128GB
 %chk=PY_SVWN_PC2_OPT_FREQ.chk
 --------------------
 #p opt freq SVWN/gen
 --------------------
 1/14=-1,18=20,19=15,26=3,38=1/1,3;
 2/9=110,12=2,17=6,18=5,40=1/2;
 3/5=7,11=2,16=1,25=1,30=1,71=1,74=205/1,2,3;
 4//1;
 5/5=2,38=5/2;
 6/7=2,8=2,9=2,10=2,28=1/1;
 7//1,2,3,16;
 1/14=-1,18=20,19=15,26=3/3(2);
 2/9=110/2;
 99//99;
 2/9=110/2;
 3/5=7,6=1,11=2,16=1,25=1,30=1,71=1,74=205,82=7/1,2,3;
 4/5=5,16=3,69=1/1;
 5/5=2,38=5/2;
 7//1,2,3,16;
 1/14=-1,18=20,19=15,26=3/3(-5);
 2/9=110/2;
 6/7=2,8=2,9=2,10=2,19=2,28=1/1;
 99/9=1/99;
 Leave Link    1 at Thu Aug 26 23:57:09 2021, MaxMem= 17179869184 cpu:         6.7
 (Enter /public3/home/sc51754/softwares/g09e01/l101.exe)
 --------------------
 PY_SVWN_PC2_OPT_FREQ
 --------------------
 Symbolic Z-matrix:
 Charge =  0 Multiplicity = 1
 O                    -0.1303    2.2679    0. 
 N                    -1.13214   0.23327   0. 
 C                     0.        1.06201   0. 
 C                     1.23795   0.32011   0. 
 C                    -1.11441  -1.12189   0. 
 C                     1.25607  -1.03234   0. 
 C                     0.05856  -1.79159   0. 
 H                    -2.00762   0.73274   0. 
 H                     2.14422   0.90837   0. 
 H                    -2.07697  -1.61403   0. 
 H                     2.20675  -1.5513    0. 
 H                     0.072    -2.86964   0. 
 
 NAtoms=     12 NQM=       12 NQMF=       0 NMMI=      0 NMMIF=      0
                NMic=       0 NMicF=      0.
                    Isotopes and Nuclear Properties:
 (Nuclear quadrupole moments (NQMom) in fm**2, nuclear magnetic moments (NMagM)
  in nuclear magnetons)

  Atom         1           2           3           4           5           6           7           8           9          10
 IAtWgt=          16          14          12          12          12          12          12           1           1           1
 AtmWgt=  15.9949146  14.0030740  12.0000000  12.0000000  12.0000000  12.0000000  12.0000000   1.0078250   1.0078250   1.0078250
 NucSpn=           0           2           0           0           0           0           0           1           1           1
 AtZEff=   0.0000000   0.0000000   0.0000000   0.0000000   0.0000000   0.0000000   0.0000000   0.0000000   0.0000000   0.0000000
 NQMom=    0.0000000   2.0440000   0.0000000   0.0000000   0.0000000   0.0000000   0.0000000   0.0000000   0.0000000   0.0000000
 NMagM=    0.0000000   0.4037610   0.0000000   0.0000000   0.0000000   0.0000000   0.0000000   2.7928460   2.7928460   2.7928460
 AtZNuc=   8.0000000   7.0000000   6.0000000   6.0000000   6.0000000   6.0000000   6.0000000   1.0000000   1.0000000   1.0000000

  Atom        11          12
 IAtWgt=           1           1
 AtmWgt=   1.0078250   1.0078250
 NucSpn=           1           1
 AtZEff=   0.0000000   0.0000000
 NQMom=    0.0000000   0.0000000
 NMagM=    2.7928460   2.7928460
 AtZNuc=   1.0000000   1.0000000
 Leave Link  101 at Thu Aug 26 23:57:10 2021, MaxMem= 17179869184 cpu:         6.6
 (Enter /public3/home/sc51754/softwares/g09e01/l103.exe)

 GradGradGradGradGradGradGradGradGradGradGradGradGradGradGradGradGradGrad
 Berny optimization.
 Initialization pass.
                           ----------------------------
                           !    Initial Parameters    !
                           ! (Angstroms and Degrees)  !
 --------------------------                            --------------------------
 ! Name  Definition              Value          Derivative Info.                !
 --------------------------------------------------------------------------------
 ! R1    R(1,3)                  1.2129         estimate D2E/DX2                !
 ! R2    R(2,3)                  1.403          estimate D2E/DX2                !
 ! R3    R(2,5)                  1.3553         estimate D2E/DX2                !
 ! R4    R(2,8)                  1.0079         estimate D2E/DX2                !
 ! R5    R(3,4)                  1.4432         estimate D2E/DX2                !
 ! R6    R(4,6)                  1.3526         estimate D2E/DX2                !
 ! R7    R(4,9)                  1.0805         estimate D2E/DX2                !
 ! R8    R(5,7)                  1.3507         estimate D2E/DX2                !
 ! R9    R(5,10)                 1.0811         estimate D2E/DX2                !
 ! R10   R(6,7)                  1.4179         estimate D2E/DX2                !
 ! R11   R(6,11)                 1.0831         estimate D2E/DX2                !
 ! R12   R(7,12)                 1.0781         estimate D2E/DX2                !
 ! A1    A(3,2,5)              125.4546         estimate D2E/DX2                !
 ! A2    A(3,2,8)              114.0905         estimate D2E/DX2                !
 ! A3    A(5,2,8)              120.4549         estimate D2E/DX2                !
 ! A4    A(1,3,2)              120.0371         estimate D2E/DX2                !
 ! A5    A(1,3,4)              127.1013         estimate D2E/DX2                !
 ! A6    A(2,3,4)              112.8616         estimate D2E/DX2                !
 ! A7    A(3,4,6)              121.7019         estimate D2E/DX2                !
 ! A8    A(3,4,9)              116.0785         estimate D2E/DX2                !
 ! A9    A(6,4,9)              122.2196         estimate D2E/DX2                !
 ! A10   A(2,5,7)              120.4739         estimate D2E/DX2                !
 ! A11   A(2,5,10)             116.3305         estimate D2E/DX2                !
 ! A12   A(7,5,10)             123.1956         estimate D2E/DX2                !
 ! A13   A(4,6,7)              121.6078         estimate D2E/DX2                !
 ! A14   A(4,6,11)             119.3971         estimate D2E/DX2                !
 ! A15   A(7,6,11)             118.9951         estimate D2E/DX2                !
 ! A16   A(5,7,6)              117.9002         estimate D2E/DX2                !
 ! A17   A(5,7,12)             120.4381         estimate D2E/DX2                !
 ! A18   A(6,7,12)             121.6617         estimate D2E/DX2                !
 ! D1    D(5,2,3,1)            180.0            estimate D2E/DX2                !
 ! D2    D(5,2,3,4)              0.0            estimate D2E/DX2                !
 ! D3    D(8,2,3,1)              0.0            estimate D2E/DX2                !
 ! D4    D(8,2,3,4)            180.0            estimate D2E/DX2                !
 ! D5    D(3,2,5,7)              0.0            estimate D2E/DX2                !
 ! D6    D(3,2,5,10)           180.0            estimate D2E/DX2                !
 ! D7    D(8,2,5,7)            180.0            estimate D2E/DX2                !
 ! D8    D(8,2,5,10)             0.0            estimate D2E/DX2                !
 ! D9    D(1,3,4,6)            180.0            estimate D2E/DX2                !
 ! D10   D(1,3,4,9)              0.0            estimate D2E/DX2                !
 ! D11   D(2,3,4,6)              0.0            estimate D2E/DX2                !
 ! D12   D(2,3,4,9)            180.0            estimate D2E/DX2                !
 ! D13   D(3,4,6,7)              0.0            estimate D2E/DX2                !
 ! D14   D(3,4,6,11)           180.0            estimate D2E/DX2                !
 ! D15   D(9,4,6,7)            180.0            estimate D2E/DX2                !
 ! D16   D(9,4,6,11)             0.0            estimate D2E/DX2                !
 ! D17   D(2,5,7,6)              0.0            estimate D2E/DX2                !
 ! D18   D(2,5,7,12)           180.0            estimate D2E/DX2                !
 ! D19   D(10,5,7,6)           180.0            estimate D2E/DX2                !
 ! D20   D(10,5,7,12)            0.0            estimate D2E/DX2                !
 ! D21   D(4,6,7,5)              0.0            estimate D2E/DX2                !
 ! D22   D(4,6,7,12)           180.0            estimate D2E/DX2                !
 ! D23   D(11,6,7,5)           180.0            estimate D2E/DX2                !
 ! D24   D(11,6,7,12)            0.0            estimate D2E/DX2                !
 --------------------------------------------------------------------------------
 Trust Radius=3.00D-01 FncErr=1.00D-07 GrdErr=1.00D-06
 Number of steps in this run=     64 maximum allowed number of steps=    100.
 GradGradGradGradGradGradGradGradGradGradGradGradGradGradGradGradGradGrad

 Leave Link  103 at Thu Aug 26 23:57:10 2021, MaxMem= 17179869184 cpu:         0.8
 (Enter /public3/home/sc51754/softwares/g09e01/l202.exe)
                          Input orientation:                          
 ---------------------------------------------------------------------
 Center     Atomic      Atomic             Coordinates (Angstroms)
 Number     Number       Type             X           Y           Z
 ---------------------------------------------------------------------
      1          8           0       -0.130304    2.267896    0.000000
      2          7           0       -1.132141    0.233271    0.000000
      3          6           0        0.000000    1.062005    0.000000
      4          6           0        1.237945    0.320111    0.000000
      5          6           0       -1.114407   -1.121885    0.000000
      6          6           0        1.256071   -1.032342    0.000000
      7          6           0        0.058564   -1.791590    0.000000
      8          1           0       -2.007624    0.732742    0.000000
      9          1           0        2.144218    0.908369    0.000000
     10          1           0       -2.076968   -1.614034    0.000000
     11          1           0        2.206750   -1.551299    0.000000
     12          1           0        0.071999   -2.869636    0.000000
 ---------------------------------------------------------------------
                    Distance matrix (angstroms):
                    1          2          3          4          5
     1  O    0.000000
     2  N    2.267901   0.000000
     3  C    1.212911   1.403048   0.000000
     4  C    2.380330   2.371676   1.443231   0.000000
     5  C    3.529741   1.355272   2.451791   2.759151   0.000000
     6  C    3.579610   2.702838   2.442131   1.352574   2.372169
     7  C    4.063877   2.349008   2.854196   2.418723   1.350691
     8  H    2.425083   1.007939   2.034445   3.271694   2.058514
     9  H    2.649861   3.345188   2.149715   1.080453   3.839345
    10  H    4.342681   2.074906   3.387474   3.837912   1.081080
    11  H    4.477507   3.785879   3.420395   2.107311   3.348803
    12  H    5.141514   3.328361   3.932300   3.396162   2.112390
                    6          7          8          9         10
     6  C    0.000000
     7  C    1.417914   0.000000
     8  H    3.710421   3.262114   0.000000
     9  H    2.134283   3.411705   4.155555   0.000000
    10  H    3.383418   2.142901   2.347800   4.917411   0.000000
    11  H    1.083101   2.161583   4.793516   2.460463   4.284177
    12  H    2.185790   1.078130   4.159562   4.308992   2.488894
                   11         12
    11  H    0.000000
    12  H    2.509019   0.000000
 Stoichiometry    C5H5NO
 Framework group  CS[SG(C5H5NO)]
 Deg. of freedom    21
 Full point group                 CS      NOp   2
 Largest Abelian subgroup         CS      NOp   2
 Largest concise Abelian subgroup C1      NOp   1
                         Standard orientation:                         
 ---------------------------------------------------------------------
 Center     Atomic      Atomic             Coordinates (Angstroms)
 Number     Number       Type             X           Y           Z
 ---------------------------------------------------------------------
      1          8           0       -0.130304    2.267896    0.000000
      2          7           0       -1.132141    0.233271    0.000000
      3          6           0       -0.000000    1.062005    0.000000
      4          6           0        1.237945    0.320111   -0.000000
      5          6           0       -1.114407   -1.121885    0.000000
      6          6           0        1.256071   -1.032342   -0.000000
      7          6           0        0.058564   -1.791590   -0.000000
      8          1           0       -2.007624    0.732742    0.000000
      9          1           0        2.144218    0.908369   -0.000000
     10          1           0       -2.076968   -1.614034    0.000000
     11          1           0        2.206750   -1.551299   -0.000000
     12          1           0        0.071999   -2.869636   -0.000000
 ---------------------------------------------------------------------
 Rotational constants (GHZ):      5.7341355      2.8228169      1.8916098
 Leave Link  202 at Thu Aug 26 23:57:10 2021, MaxMem= 17179869184 cpu:         5.7
 (Enter /public3/home/sc51754/softwares/g09e01/l301.exe)
 General basis read from cards:  (5D, 7F)
 Centers:       8      9     10     11     12
 S 4 1.00
     Exponent=  7.5423000000D+01 Coefficients=  2.4065000000D-03
     Exponent=  1.1350000000D+01 Coefficients=  1.8487000000D-02
     Exponent=  2.5993000000D+00 Coefficients=  8.9742000000D-02
     Exponent=  7.3513000000D-01 Coefficients=  2.8111000000D-01
 S 1 1.00
     Exponent=  2.3167000000D-01 Coefficients=  1.0000000000D+00
 S 1 1.00
     Exponent=  7.4147000000D-02 Coefficients=  1.0000000000D+00
 P 1 1.00
     Exponent=  1.6000000000D+00 Coefficients=  1.0000000000D+00
 P 1 1.00
     Exponent=  4.5000000000D-01 Coefficients=  1.0000000000D+00
 D 1 1.00
     Exponent=  1.2500000000D+00 Coefficients=  1.0000000000D+00
 ****
 Centers:       3      4      5      6      7
 S 7 1.00
     Exponent=  7.8571000000D+03 Coefficients=  5.6825000000D-04
     Exponent=  1.1787000000D+03 Coefficients=  4.3915000000D-03
     Exponent=  2.6832000000D+02 Coefficients=  2.2504000000D-02
     Exponent=  7.5948000000D+01 Coefficients=  8.6653000000D-02
     Exponent=  2.4559000000D+01 Coefficients=  2.4405000000D-01
     Exponent=  8.6212000000D+00 Coefficients=  4.4148000000D-01
     Exponent=  3.1278000000D+00 Coefficients=  3.5332000000D-01
 S 7 1.00
     Exponent=  1.1787000000D+03 Coefficients= -5.9492000000D-07
     Exponent=  2.6832000000D+02 Coefficients= -6.2748000000D-05
     Exponent=  7.5948000000D+01 Coefficients= -7.5773000000D-04
     Exponent=  2.4559000000D+01 Coefficients= -7.3308000000D-03
     Exponent=  8.6212000000D+00 Coefficients= -3.8932000000D-02
     Exponent=  3.1278000000D+00 Coefficients= -8.8908000000D-02
     Exponent=  8.2202000000D-01 Coefficients=  2.1689000000D-01
 S 1 1.00
     Exponent=  3.3017000000D-01 Coefficients=  1.0000000000D+00
 S 1 1.00
     Exponent=  1.1463000000D-01 Coefficients=  1.0000000000D+00
 P 4 1.00
     Exponent=  3.3775000000D+01 Coefficients=  6.0294000000D-03
     Exponent=  7.6766000000D+00 Coefficients=  4.3228000000D-02
     Exponent=  2.2357000000D+00 Coefficients=  1.6301000000D-01
     Exponent=  7.6447000000D-01 Coefficients=  3.6504000000D-01
 P 1 1.00
     Exponent=  2.6232000000D-01 Coefficients=  1.0000000000D+00
 P 1 1.00
     Exponent=  8.4638000000D-02 Coefficients=  1.0000000000D+00
 D 1 1.00
     Exponent=  1.4000000000D+00 Coefficients=  1.0000000000D+00
 D 1 1.00
     Exponent=  4.5000000000D-01 Coefficients=  1.0000000000D+00
 F 1 1.00
     Exponent=  9.5000000000D-01 Coefficients=  1.0000000000D+00
 ****
 Centers:       2
 S 7 1.00
     Exponent=  1.1101000000D+04 Coefficients=  5.4570000000D-04
     Exponent=  1.6653000000D+03 Coefficients=  4.2181000000D-03
     Exponent=  3.7908000000D+02 Coefficients=  2.1645000000D-02
     Exponent=  1.0730000000D+02 Coefficients=  8.3776000000D-02
     Exponent=  3.4747000000D+01 Coefficients=  2.3881000000D-01
     Exponent=  1.2249000000D+01 Coefficients=  4.3994000000D-01
     Exponent=  4.4743000000D+00 Coefficients=  3.6364000000D-01
 S 7 1.00
     Exponent=  1.6653000000D+03 Coefficients= -1.5006000000D-06
     Exponent=  3.7908000000D+02 Coefficients= -5.8753000000D-05
     Exponent=  1.0730000000D+02 Coefficients= -7.7453000000D-04
     Exponent=  3.4747000000D+01 Coefficients= -7.2161000000D-03
     Exponent=  1.2249000000D+01 Coefficients= -3.9338000000D-02
     Exponent=  4.4743000000D+00 Coefficients= -9.0611000000D-02
     Exponent=  1.2404000000D+00 Coefficients=  1.9882000000D-01
 S 1 1.00
     Exponent=  4.8743000000D-01 Coefficients=  1.0000000000D+00
 S 1 1.00
     Exponent=  1.6484000000D-01 Coefficients=  1.0000000000D+00
 P 4 1.00
     Exponent=  4.7934000000D+01 Coefficients=  6.1706000000D-03
     Exponent=  1.0999000000D+01 Coefficients=  4.4260000000D-02
     Exponent=  3.2472000000D+00 Coefficients=  1.6825000000D-01
     Exponent=  1.1114000000D+00 Coefficients=  3.6848000000D-01
 P 1 1.00
     Exponent=  3.7988000000D-01 Coefficients=  1.0000000000D+00
 P 1 1.00
     Exponent=  1.2068000000D-01 Coefficients=  1.0000000000D+00
 D 1 1.00
     Exponent=  1.8000000000D+00 Coefficients=  1.0000000000D+00
 D 1 1.00
     Exponent=  5.5000000000D-01 Coefficients=  1.0000000000D+00
 F 1 1.00
     Exponent=  1.0200000000D+00 Coefficients=  1.0000000000D+00
 ****
 Centers:       1
 S 7 1.00
     Exponent=  1.4782000000D+04 Coefficients=  5.3519000000D-04
     Exponent=  2.2173000000D+03 Coefficients=  4.1375000000D-03
     Exponent=  5.0474000000D+02 Coefficients=  2.1245000000D-02
     Exponent=  1.4287000000D+02 Coefficients=  8.2453000000D-02
     Exponent=  4.6300000000D+01 Coefficients=  2.3671000000D-01
     Exponent=  1.6337000000D+01 Coefficients=  4.4039000000D-01
     Exponent=  5.9828000000D+00 Coefficients=  3.6465000000D-01
 S 7 1.00
     Exponent=  2.2173000000D+03 Coefficients= -1.9275000000D-06
     Exponent=  5.0474000000D+02 Coefficients= -5.7964000000D-05
     Exponent=  1.4287000000D+02 Coefficients= -7.9494000000D-04
     Exponent=  4.6300000000D+01 Coefficients= -7.3125000000D-03
     Exponent=  1.6337000000D+01 Coefficients= -4.0574000000D-02
     Exponent=  5.9828000000D+00 Coefficients= -9.1594000000D-02
     Exponent=  1.6718000000D+00 Coefficients=  2.0940000000D-01
 S 1 1.00
     Exponent=  6.4662000000D-01 Coefficients=  1.0000000000D+00
 S 1 1.00
     Exponent=  2.1669000000D-01 Coefficients=  1.0000000000D+00
 P 4 1.00
     Exponent=  6.0424000000D+01 Coefficients=  6.8949000000D-03
     Exponent=  1.3935000000D+01 Coefficients=  4.9005000000D-02
     Exponent=  4.1531000000D+00 Coefficients=  1.8255000000D-01
     Exponent=  1.4158000000D+00 Coefficients=  3.7633000000D-01
 P 1 1.00
     Exponent=  4.7549000000D-01 Coefficients=  1.0000000000D+00
 P 1 1.00
     Exponent=  1.4529000000D-01 Coefficients=  1.0000000000D+00
 D 1 1.00
     Exponent=  2.2000000000D+00 Coefficients=  1.0000000000D+00
 D 1 1.00
     Exponent=  6.5000000000D-01 Coefficients=  1.0000000000D+00
 F 1 1.00
     Exponent=  1.1000000000D+00 Coefficients=  1.0000000000D+00
 ****
 Ernie: Thresh=  0.10000D-02 Tol=  0.10000D-05 Strict=F.
 Ernie:  7 primitive shells out of 220 were deleted.
 There are   223 symmetry adapted cartesian basis functions of A'  symmetry.
 There are    97 symmetry adapted cartesian basis functions of A"  symmetry.
 There are   190 symmetry adapted basis functions of A'  symmetry.
 There are    90 symmetry adapted basis functions of A"  symmetry.
   280 basis functions,   475 primitive gaussians,   320 cartesian basis functions
    25 alpha electrons       25 beta electrons
       nuclear repulsion energy       276.8386644497 Hartrees.
 IExCor=  205 DFT=T Ex=S Corr=VWN ExCW=0 ScaHFX=  0.000000
 ScaDFX=  1.000000  1.000000  1.000000  1.000000 ScalE2=  1.000000  1.000000
 IRadAn=      0 IRanWt=     -1 IRanGd=            0 ICorTp=0 IEmpDi=  4
 NAtoms=   12 NActive=   12 NUniq=   12 SFac= 1.00D+00 NAtFMM=   60 NAOKFM=F Big=F
 Integral buffers will be    131072 words long.
 Raffenetti 2 integral format.
 Two-electron integral symmetry is turned on.
 Leave Link  301 at Thu Aug 26 23:57:10 2021, MaxMem= 17179869184 cpu:         3.0
 (Enter /public3/home/sc51754/softwares/g09e01/l302.exe)
 NPDir=0 NMtPBC=     1 NCelOv=     1 NCel=       1 NClECP=     1 NCelD=      1
         NCelK=      1 NCelE2=     1 NClLst=     1 CellRange=     0.0.
 One-electron integrals computed using PRISM.
 NBasis=   280 RedAO= T EigKep=  2.29D-04  NBF=   190    90
 NBsUse=   280 1.00D-06 EigRej= -1.00D+00 NBFU=   190    90
 Precomputing XC quadrature grid using
 IXCGrd= 4 IRadAn=           0 IRanWt=          -1 IRanGd=           0 AccXCQ= 0.00D+00.
 Generated NRdTot=       0 NPtTot=           0 NUsed=           0 NTot=          32
 NSgBfM=   320   320   320   320   320 MxSgAt=    12 MxSgA2=    12.
 Leave Link  302 at Thu Aug 26 23:57:11 2021, MaxMem= 17179869184 cpu:        47.1
 (Enter /public3/home/sc51754/softwares/g09e01/l303.exe)
 DipDrv:  MaxL=1.
 Leave Link  303 at Thu Aug 26 23:57:12 2021, MaxMem= 17179869184 cpu:        11.9
 (Enter /public3/home/sc51754/softwares/g09e01/l401.exe)
 ExpMin= 7.41D-02 ExpMax= 1.48D+04 ExpMxC= 5.05D+02 IAcc=2 IRadAn=         4 AccDes= 0.00D+00
 Harris functional with IExCor=  205 and IRadAn=       4 diagonalized for initial guess.
 HarFok:  IExCor=  205 AccDes= 0.00D+00 IRadAn=         4 IDoV= 1 UseB2=F ITyADJ=14
 ICtDFT=  3500011 ScaDFX=  1.000000  1.000000  1.000000  1.000000
 FoFCou: FMM=F IPFlag=           0 FMFlag=      100000 FMFlg1=           0
         NFxFlg=           0 DoJE=T BraDBF=F KetDBF=T FulRan=T
         wScrn=  0.000000 ICntrl=     500 IOpCl=  0 I1Cent=   200000004 NGrid=           0
         NMat0=    1 NMatS0=      1 NMatT0=    0 NMatD0=    1 NMtDS0=    0 NMtDT0=    0
 Petite list used in FoFCou.
 Harris En= -322.074319524527    
 JPrj=0 DoOrth=F DoCkMO=F.
 Initial guess orbital symmetries:
       Occupied  (A') (A') (A') (A') (A') (A') (A') (A') (A') (A')
                 (A') (A') (A') (A') (A') (A') (A') (A') (A") (A')
                 (A') (A") (A") (A') (A")
       Virtual   (A") (A") (A') (A") (A') (A') (A') (A') (A') (A')
                 (A') (A') (A") (A') (A") (A') (A") (A') (A') (A')
                 (A') (A") (A') (A') (A") (A') (A') (A') (A') (A')
                 (A") (A') (A') (A') (A") (A') (A') (A') (A') (A')
                 (A') (A') (A") (A') (A') (A') (A") (A') (A") (A")
                 (A') (A") (A') (A') (A") (A') (A') (A') (A') (A")
                 (A') (A") (A') (A') (A") (A") (A') (A') (A") (A")
                 (A') (A') (A') (A") (A') (A") (A') (A") (A') (A')
                 (A") (A') (A") (A') (A") (A') (A') (A') (A") (A")
                 (A') (A') (A") (A') (A') (A') (A') (A") (A') (A')
                 (A') (A') (A") (A') (A') (A') (A") (A') (A') (A')
                 (A") (A') (A') (A') (A') (A') (A") (A') (A') (A')
                 (A") (A') (A") (A') (A') (A") (A") (A") (A') (A")
                 (A') (A') (A") (A') (A") (A') (A') (A") (A') (A')
                 (A') (A') (A') (A") (A") (A') (A') (A') (A') (A')
                 (A') (A") (A") (A") (A") (A') (A") (A") (A') (A")
                 (A') (A") (A') (A') (A") (A') (A') (A') (A') (A")
                 (A') (A") (A') (A") (A") (A') (A") (A') (A") (A")
                 (A') (A") (A') (A") (A") (A') (A') (A") (A') (A")
                 (A') (A") (A') (A") (A') (A") (A') (A') (A") (A')
                 (A') (A') (A") (A') (A") (A') (A") (A') (A') (A')
                 (A") (A') (A') (A") (A') (A") (A') (A") (A') (A')
                 (A") (A') (A") (A") (A') (A') (A') (A') (A") (A')
                 (A') (A') (A') (A") (A') (A") (A') (A') (A') (A')
                 (A') (A") (A') (A') (A') (A') (A') (A') (A') (A')
                 (A') (A') (A') (A') (A')
 The electronic state of the initial guess is 1-A'.
 Leave Link  401 at Thu Aug 26 23:57:13 2021, MaxMem= 17179869184 cpu:        49.5
 (Enter /public3/home/sc51754/softwares/g09e01/l502.exe)
 Closed shell SCF:
 Using DIIS extrapolation, IDIIS=  1040.
 Integral symmetry usage will be decided dynamically.
 Keep J ints in memory in symmetry-blocked form, NReq=1167802198.
 IVT=      348658 IEndB=      348658 NGot= 17179869184 MDV= 16785904737
 LenX= 16785904737 LenY= 16785801896
 Requested convergence on RMS density matrix=1.00D-08 within 128 cycles.
 Requested convergence on MAX density matrix=1.00D-06.
 Requested convergence on             energy=1.00D-06.
 No special actions if energy rises.
 FoFCou: FMM=F IPFlag=           0 FMFlag=           0 FMFlg1=           0
         NFxFlg=           0 DoJE=F BraDBF=F KetDBF=F FulRan=T
         wScrn=  0.000000 ICntrl=     600 IOpCl=  0 I1Cent=           0 NGrid=           0
         NMat0=    1 NMatS0=  39340 NMatT0=    0 NMatD0=    1 NMtDS0=    0 NMtDT0=    0
 Petite list used in FoFCou.
 Integral accuracy reduced to 1.0D-05 until final iterations.

 Cycle   1  Pass 0  IDiag  1:
 E= -321.698302797286    
 DIIS: error= 2.69D-02 at cycle   1 NSaved=   1.
 NSaved= 1 IEnMin= 1 EnMin= -321.698302797286     IErMin= 1 ErrMin= 2.69D-02
 ErrMax= 2.69D-02  0.00D+00 EMaxC= 1.00D-01 BMatC= 2.16D-01 BMatP= 2.16D-01
 IDIUse=3 WtCom= 7.31D-01 WtEn= 2.69D-01
 Coeff-Com:  0.100D+01
 Coeff-En:   0.100D+01
 Coeff:      0.100D+01
 Gap=     0.042 Goal=   None    Shift=    0.000
 GapD=    0.042 DampG=0.250 DampE=0.500 DampFc=0.2500 IDamp=-1.
 Damping current iteration by 2.50D-01
 RMSDP=5.63D-03 MaxDP=2.13D-01              OVMax= 5.03D-01

 Cycle   2  Pass 0  IDiag  1:
 E= -321.753132051120     Delta-E=       -0.054829253834 Rises=F Damp=T
 DIIS: error= 1.41D-02 at cycle   2 NSaved=   2.
 NSaved= 2 IEnMin= 2 EnMin= -321.753132051120     IErMin= 2 ErrMin= 1.41D-02
 ErrMax= 1.41D-02  0.00D+00 EMaxC= 1.00D-01 BMatC= 3.14D-02 BMatP= 2.16D-01
 IDIUse=3 WtCom= 8.59D-01 WtEn= 1.41D-01
 Coeff-Com: -0.185D+00 0.118D+01
 Coeff-En:   0.189D+00 0.811D+00
 Coeff:     -0.132D+00 0.113D+01
 Gap=     0.106 Goal=   None    Shift=    0.000
 RMSDP=1.43D-03 MaxDP=4.59D-02 DE=-5.48D-02 OVMax= 4.89D-01

 Cycle   3  Pass 0  IDiag  1:
 E= -321.798011587043     Delta-E=       -0.044879535924 Rises=F Damp=F
 DIIS: error= 2.16D-02 at cycle   3 NSaved=   3.
 NSaved= 3 IEnMin= 3 EnMin= -321.798011587043     IErMin= 2 ErrMin= 1.41D-02
 ErrMax= 2.16D-02  0.00D+00 EMaxC= 1.00D-01 BMatC= 1.06D-01 BMatP= 3.14D-02
 IDIUse=2 WtCom= 0.00D+00 WtEn= 1.00D+00
 Coeff-En:   0.000D+00 0.336D+00 0.664D+00
 Coeff:      0.000D+00 0.336D+00 0.664D+00
 Gap=     0.054 Goal=   None    Shift=    0.000
 RMSDP=2.71D-03 MaxDP=1.23D-01 DE=-4.49D-02 OVMax= 4.92D-01

 Cycle   4  Pass 0  IDiag  1:
 E= -321.506673918405     Delta-E=        0.291337668638 Rises=F Damp=F
 DIIS: error= 4.93D-02 at cycle   4 NSaved=   4.
 NSaved= 4 IEnMin= 3 EnMin= -321.798011587043     IErMin= 2 ErrMin= 1.41D-02
 ErrMax= 4.93D-02  0.00D+00 EMaxC= 1.00D-01 BMatC= 4.41D-01 BMatP= 3.14D-02
 IDIUse=2 WtCom= 0.00D+00 WtEn= 1.00D+00
 EnCoef did     2 forward-backward iterations
 Coeff-En:   0.849D-02 0.000D+00 0.712D+00 0.279D+00
 Coeff:      0.849D-02 0.000D+00 0.712D+00 0.279D+00
 Gap=     0.106 Goal=   None    Shift=    0.000
 RMSDP=1.79D-03 MaxDP=7.86D-02 DE= 2.91D-01 OVMax= 2.92D-01

 Cycle   5  Pass 0  IDiag  1:
 E= -321.876731149134     Delta-E=       -0.370057230728 Rises=F Damp=F
 DIIS: error= 1.15D-02 at cycle   5 NSaved=   5.
 NSaved= 5 IEnMin= 5 EnMin= -321.876731149134     IErMin= 5 ErrMin= 1.15D-02
 ErrMax= 1.15D-02  0.00D+00 EMaxC= 1.00D-01 BMatC= 2.34D-02 BMatP= 3.14D-02
 IDIUse=3 WtCom= 8.85D-01 WtEn= 1.15D-01
 Coeff-Com: -0.163D+00 0.331D+00 0.321D+00-0.423D-02 0.515D+00
 Coeff-En:   0.000D+00 0.000D+00 0.235D+00 0.000D+00 0.765D+00
 Coeff:     -0.144D+00 0.293D+00 0.311D+00-0.375D-02 0.543D+00
 Gap=     0.124 Goal=   None    Shift=    0.000
 RMSDP=4.44D-04 MaxDP=1.87D-02 DE=-3.70D-01 OVMax= 7.36D-02

 Cycle   6  Pass 0  IDiag  1:
 E= -321.898279298179     Delta-E=       -0.021548149045 Rises=F Damp=F
 DIIS: error= 2.89D-03 at cycle   6 NSaved=   6.
 NSaved= 6 IEnMin= 6 EnMin= -321.898279298179     IErMin= 6 ErrMin= 2.89D-03
 ErrMax= 2.89D-03  0.00D+00 EMaxC= 1.00D-01 BMatC= 1.61D-03 BMatP= 2.34D-02
 IDIUse=3 WtCom= 9.71D-01 WtEn= 2.89D-02
 Coeff-Com: -0.130D+00 0.205D+00 0.151D+00-0.387D-01 0.397D+00 0.416D+00
 Coeff-En:   0.000D+00 0.000D+00 0.000D+00 0.000D+00 0.000D+00 0.100D+01
 Coeff:     -0.126D+00 0.199D+00 0.147D+00-0.376D-01 0.385D+00 0.432D+00
 Gap=     0.123 Goal=   None    Shift=    0.000
 RMSDP=1.16D-04 MaxDP=4.86D-03 DE=-2.15D-02 OVMax= 1.81D-02

 Cycle   7  Pass 0  IDiag  1:
 E= -321.899780552579     Delta-E=       -0.001501254401 Rises=F Damp=F
 DIIS: error= 6.81D-04 at cycle   7 NSaved=   7.
 NSaved= 7 IEnMin= 7 EnMin= -321.899780552579     IErMin= 7 ErrMin= 6.81D-04
 ErrMax= 6.81D-04  0.00D+00 EMaxC= 1.00D-01 BMatC= 1.25D-04 BMatP= 1.61D-03
 IDIUse=3 WtCom= 9.93D-01 WtEn= 6.81D-03
 Coeff-Com: -0.708D-01 0.102D+00 0.738D-01-0.211D-01 0.216D+00 0.287D+00
 Coeff-Com:  0.412D+00
 Coeff-En:   0.000D+00 0.000D+00 0.000D+00 0.000D+00 0.000D+00 0.163D-01
 Coeff-En:   0.984D+00
 Coeff:     -0.703D-01 0.102D+00 0.733D-01-0.210D-01 0.215D+00 0.285D+00
 Coeff:      0.416D+00
 Gap=     0.123 Goal=   None    Shift=    0.000
 RMSDP=4.03D-05 MaxDP=1.23D-03 DE=-1.50D-03 OVMax= 7.47D-03

 Cycle   8  Pass 0  IDiag  1:
 E= -321.899889515655     Delta-E=       -0.000108963075 Rises=F Damp=F
 DIIS: error= 2.48D-04 at cycle   8 NSaved=   8.
 NSaved= 8 IEnMin= 8 EnMin= -321.899889515655     IErMin= 8 ErrMin= 2.48D-04
 ErrMax= 2.48D-04  0.00D+00 EMaxC= 1.00D-01 BMatC= 1.36D-05 BMatP= 1.25D-04
 IDIUse=3 WtCom= 9.98D-01 WtEn= 2.48D-03
 Coeff-Com: -0.651D-02 0.525D-02 0.819D-03 0.212D-03 0.106D-01 0.449D-01
 Coeff-Com:  0.261D+00 0.683D+00
 Coeff-En:   0.000D+00 0.000D+00 0.000D+00 0.000D+00 0.000D+00 0.000D+00
 Coeff-En:   0.840D-01 0.916D+00
 Coeff:     -0.649D-02 0.524D-02 0.817D-03 0.212D-03 0.106D-01 0.448D-01
 Coeff:      0.261D+00 0.684D+00
 Gap=     0.123 Goal=   None    Shift=    0.000
 RMSDP=1.41D-05 MaxDP=6.35D-04 DE=-1.09D-04 OVMax= 2.99D-03

 Cycle   9  Pass 0  IDiag  1:
 E= -321.899901925627     Delta-E=       -0.000012409972 Rises=F Damp=F
 DIIS: error= 1.22D-04 at cycle   9 NSaved=   9.
 NSaved= 9 IEnMin= 9 EnMin= -321.899901925627     IErMin= 9 ErrMin= 1.22D-04
 ErrMax= 1.22D-04  0.00D+00 EMaxC= 1.00D-01 BMatC= 1.90D-06 BMatP= 1.36D-05
 IDIUse=3 WtCom= 9.99D-01 WtEn= 1.22D-03
 Coeff-Com: -0.184D-02 0.106D-02-0.175D-02 0.624D-03-0.130D-02 0.160D-01
 Coeff-Com:  0.134D+00 0.425D+00 0.428D+00
 Coeff-En:   0.000D+00 0.000D+00 0.000D+00 0.000D+00 0.000D+00 0.000D+00
 Coeff-En:   0.000D+00 0.111D+00 0.889D+00
 Coeff:     -0.184D-02 0.106D-02-0.174D-02 0.624D-03-0.130D-02 0.160D-01
 Coeff:      0.134D+00 0.425D+00 0.428D+00
 Gap=     0.123 Goal=   None    Shift=    0.000
 RMSDP=5.22D-06 MaxDP=2.52D-04 DE=-1.24D-05 OVMax= 1.00D-03

 Initial convergence to 1.0D-05 achieved.  Increase integral accuracy.
 Cycle  10  Pass 1  IDiag  1:
 E= -321.899839382381     Delta-E=        0.000062543245 Rises=F Damp=F
 DIIS: error= 5.26D-05 at cycle   1 NSaved=   1.
 NSaved= 1 IEnMin= 1 EnMin= -321.899839382381     IErMin= 1 ErrMin= 5.26D-05
 ErrMax= 5.26D-05  0.00D+00 EMaxC= 1.00D-01 BMatC= 4.61D-07 BMatP= 4.61D-07
 IDIUse=1 WtCom= 1.00D+00 WtEn= 0.00D+00
 Coeff-Com:  0.100D+01
 Coeff:      0.100D+01
 Gap=     0.123 Goal=   None    Shift=    0.000
 RMSDP=5.22D-06 MaxDP=2.52D-04 DE= 6.25D-05 OVMax= 9.15D-04

 Cycle  11  Pass 1  IDiag  1:
 E= -321.899837705906     Delta-E=        0.000001676476 Rises=F Damp=F
 DIIS: error= 1.55D-04 at cycle   2 NSaved=   2.
 NSaved= 2 IEnMin= 1 EnMin= -321.899839382381     IErMin= 1 ErrMin= 5.26D-05
 ErrMax= 1.55D-04  0.00D+00 EMaxC= 1.00D-01 BMatC= 1.99D-06 BMatP= 4.61D-07
 IDIUse=3 WtCom= 4.45D-01 WtEn= 5.55D-01
 Coeff-Com:  0.693D+00 0.307D+00
 Coeff-En:   0.775D+00 0.225D+00
 Coeff:      0.738D+00 0.262D+00
 Gap=     0.123 Goal=   None    Shift=    0.000
 RMSDP=3.77D-06 MaxDP=1.83D-04 DE= 1.68D-06 OVMax= 6.58D-04

 Cycle  12  Pass 1  IDiag  1:
 E= -321.899839904035     Delta-E=       -0.000002198130 Rises=F Damp=F
 DIIS: error= 8.25D-06 at cycle   3 NSaved=   3.
 NSaved= 3 IEnMin= 3 EnMin= -321.899839904035     IErMin= 3 ErrMin= 8.25D-06
 ErrMax= 8.25D-06  0.00D+00 EMaxC= 1.00D-01 BMatC= 1.58D-08 BMatP= 4.61D-07
 IDIUse=1 WtCom= 1.00D+00 WtEn= 0.00D+00
 Coeff-Com:  0.136D+00 0.261D-01 0.837D+00
 Coeff:      0.136D+00 0.261D-01 0.837D+00
 Gap=     0.123 Goal=   None    Shift=    0.000
 RMSDP=7.61D-07 MaxDP=2.97D-05 DE=-2.20D-06 OVMax= 8.44D-05

 Cycle  13  Pass 1  IDiag  1:
 E= -321.899839889748     Delta-E=        0.000000014288 Rises=F Damp=F
 DIIS: error= 1.32D-05 at cycle   4 NSaved=   4.
 NSaved= 4 IEnMin= 3 EnMin= -321.899839904035     IErMin= 3 ErrMin= 8.25D-06
 ErrMax= 1.32D-05  0.00D+00 EMaxC= 1.00D-01 BMatC= 3.33D-08 BMatP= 1.58D-08
 IDIUse=1 WtCom= 1.00D+00 WtEn= 0.00D+00
 Coeff-Com:  0.305D-01-0.112D-01 0.620D+00 0.361D+00
 Coeff:      0.305D-01-0.112D-01 0.620D+00 0.361D+00
 Gap=     0.123 Goal=   None    Shift=    0.000
 RMSDP=5.82D-07 MaxDP=3.18D-05 DE= 1.43D-08 OVMax= 9.67D-05

 Cycle  14  Pass 1  IDiag  1:
 E= -321.899839914716     Delta-E=       -0.000000024968 Rises=F Damp=F
 DIIS: error= 4.58D-06 at cycle   5 NSaved=   5.
 NSaved= 5 IEnMin= 5 EnMin= -321.899839914716     IErMin= 5 ErrMin= 4.58D-06
 ErrMax= 4.58D-06  0.00D+00 EMaxC= 1.00D-01 BMatC= 5.18D-09 BMatP= 1.58D-08
 IDIUse=1 WtCom= 1.00D+00 WtEn= 0.00D+00
 Coeff-Com:  0.182D-02-0.143D-01 0.355D+00 0.278D+00 0.379D+00
 Coeff:      0.182D-02-0.143D-01 0.355D+00 0.278D+00 0.379D+00
 Gap=     0.123 Goal=   None    Shift=    0.000
 RMSDP=2.34D-07 MaxDP=1.17D-05 DE=-2.50D-08 OVMax= 3.62D-05

 Cycle  15  Pass 1  IDiag  1:
 E= -321.899839918702     Delta-E=       -0.000000003986 Rises=F Damp=F
 DIIS: error= 7.75D-07 at cycle   6 NSaved=   6.
 NSaved= 6 IEnMin= 6 EnMin= -321.899839918702     IErMin= 6 ErrMin= 7.75D-07
 ErrMax= 7.75D-07  0.00D+00 EMaxC= 1.00D-01 BMatC= 1.83D-10 BMatP= 5.18D-09
 IDIUse=1 WtCom= 1.00D+00 WtEn= 0.00D+00
 Coeff-Com: -0.878D-03-0.767D-02 0.159D+00 0.132D+00 0.231D+00 0.487D+00
 Coeff:     -0.878D-03-0.767D-02 0.159D+00 0.132D+00 0.231D+00 0.487D+00
 Gap=     0.123 Goal=   None    Shift=    0.000
 RMSDP=4.69D-08 MaxDP=2.17D-06 DE=-3.99D-09 OVMax= 6.98D-06

 Cycle  16  Pass 1  IDiag  1:
 E= -321.899839918869     Delta-E=       -0.000000000167 Rises=F Damp=F
 DIIS: error= 1.74D-07 at cycle   7 NSaved=   7.
 NSaved= 7 IEnMin= 7 EnMin= -321.899839918869     IErMin= 7 ErrMin= 1.74D-07
 ErrMax= 1.74D-07  0.00D+00 EMaxC= 1.00D-01 BMatC= 8.57D-12 BMatP= 1.83D-10
 IDIUse=1 WtCom= 1.00D+00 WtEn= 0.00D+00
 Coeff-Com: -0.592D-03-0.415D-02 0.826D-01 0.677D-01 0.121D+00 0.283D+00
 Coeff-Com:  0.451D+00
 Coeff:     -0.592D-03-0.415D-02 0.826D-01 0.677D-01 0.121D+00 0.283D+00
 Coeff:      0.451D+00
 Gap=     0.123 Goal=   None    Shift=    0.000
 RMSDP=1.10D-08 MaxDP=5.58D-07 DE=-1.67D-10 OVMax= 1.93D-06

 Cycle  17  Pass 1  IDiag  1:
 E= -321.899839918877     Delta-E=       -0.000000000007 Rises=F Damp=F
 DIIS: error= 1.09D-07 at cycle   8 NSaved=   8.
 NSaved= 8 IEnMin= 8 EnMin= -321.899839918877     IErMin= 8 ErrMin= 1.09D-07
 ErrMax= 1.09D-07  0.00D+00 EMaxC= 1.00D-01 BMatC= 2.17D-12 BMatP= 8.57D-12
 IDIUse=1 WtCom= 1.00D+00 WtEn= 0.00D+00
 Coeff-Com: -0.249D-03-0.156D-02 0.290D-01 0.235D-01 0.442D-01 0.116D+00
 Coeff-Com:  0.330D+00 0.459D+00
 Coeff:     -0.249D-03-0.156D-02 0.290D-01 0.235D-01 0.442D-01 0.116D+00
 Coeff:      0.330D+00 0.459D+00
 Gap=     0.123 Goal=   None    Shift=    0.000
 RMSDP=5.19D-09 MaxDP=2.04D-07 DE=-7.28D-12 OVMax= 1.14D-06

 SCF Done:  E(RS-VWN) =  -321.899839919     A.U. after   17 cycles
            NFock= 17  Conv=0.52D-08     -V/T= 2.0036
 KE= 3.207556781335D+02 PE=-1.306991844476D+03 EE= 3.874976619740D+02
 Leave Link  502 at Thu Aug 26 23:57:20 2021, MaxMem= 17179869184 cpu:       245.5
 (Enter /public3/home/sc51754/softwares/g09e01/l601.exe)
 Copying SCF densities to generalized density rwf, IOpCl= 0 IROHF=0.

 **********************************************************************

            Population analysis using the SCF density.

 **********************************************************************

 Orbital symmetries:
       Occupied  (A') (A') (A') (A') (A') (A') (A') (A') (A') (A')
                 (A') (A') (A') (A') (A') (A') (A') (A") (A') (A')
                 (A') (A") (A") (A') (A")
       Virtual   (A") (A") (A') (A') (A') (A') (A') (A") (A') (A')
                 (A") (A') (A') (A") (A') (A") (A') (A') (A') (A')
                 (A") (A') (A") (A') (A') (A') (A') (A') (A') (A')
                 (A") (A') (A') (A') (A") (A') (A') (A') (A') (A')
                 (A') (A') (A") (A') (A') (A') (A") (A') (A") (A")
                 (A') (A") (A') (A') (A") (A') (A') (A') (A') (A")
                 (A') (A") (A') (A") (A') (A') (A") (A') (A') (A")
                 (A") (A') (A') (A") (A') (A") (A') (A") (A') (A')
                 (A") (A') (A") (A') (A") (A') (A') (A') (A") (A")
                 (A') (A') (A") (A') (A') (A') (A') (A") (A') (A')
                 (A') (A') (A') (A") (A') (A') (A") (A') (A') (A')
                 (A") (A') (A') (A') (A') (A') (A") (A') (A') (A")
                 (A') (A') (A') (A") (A') (A") (A") (A") (A") (A')
                 (A') (A") (A') (A') (A") (A') (A") (A') (A') (A')
                 (A') (A') (A") (A') (A') (A") (A') (A') (A') (A')
                 (A') (A") (A") (A") (A") (A") (A') (A") (A') (A")
                 (A') (A") (A') (A') (A") (A') (A') (A') (A') (A")
                 (A") (A') (A') (A") (A") (A') (A') (A") (A") (A")
                 (A') (A") (A') (A") (A") (A') (A") (A') (A') (A")
                 (A') (A") (A') (A") (A') (A") (A') (A') (A") (A')
                 (A') (A') (A") (A") (A') (A') (A") (A') (A') (A')
                 (A") (A') (A') (A") (A") (A') (A") (A') (A') (A')
                 (A") (A') (A") (A") (A') (A') (A') (A") (A') (A')
                 (A') (A') (A') (A") (A') (A') (A') (A") (A') (A')
                 (A') (A") (A') (A') (A') (A') (A') (A') (A') (A')
                 (A') (A') (A') (A') (A')
 The electronic state is 1-A'.
 Alpha  occ. eigenvalues --  -18.57103 -13.93392  -9.89101  -9.86095  -9.82327
 Alpha  occ. eigenvalues --   -9.81055  -9.80663  -0.97340  -0.90158  -0.77129
 Alpha  occ. eigenvalues --   -0.71315  -0.61890  -0.60634  -0.53836  -0.48587
 Alpha  occ. eigenvalues --   -0.46279  -0.43877  -0.43065  -0.40151  -0.37060
 Alpha  occ. eigenvalues --   -0.35705  -0.34236  -0.31082  -0.23840  -0.22917
 Alpha virt. eigenvalues --   -0.10658  -0.05619  -0.03051  -0.00119   0.01346
 Alpha virt. eigenvalues --    0.03948   0.04984   0.05512   0.07880   0.10464
 Alpha virt. eigenvalues --    0.10620   0.11319   0.12956   0.14784   0.14784
 Alpha virt. eigenvalues --    0.16306   0.18236   0.18707   0.21270   0.22200
 Alpha virt. eigenvalues --    0.22452   0.23830   0.24234   0.25233   0.26405
 Alpha virt. eigenvalues --    0.26868   0.28835   0.29211   0.32585   0.35210
 Alpha virt. eigenvalues --    0.35465   0.37193   0.39247   0.40972   0.42064
 Alpha virt. eigenvalues --    0.43340   0.44775   0.46504   0.50687   0.52992
 Alpha virt. eigenvalues --    0.54402   0.55655   0.57042   0.58645   0.60650
 Alpha virt. eigenvalues --    0.64369   0.68340   0.68716   0.70548   0.72746
 Alpha virt. eigenvalues --    0.74748   0.76209   0.82589   0.84267   0.84426
 Alpha virt. eigenvalues --    0.87120   0.88611   0.90796   0.92012   0.97865
 Alpha virt. eigenvalues --    1.00721   1.02198   1.02729   1.05403   1.06576
 Alpha virt. eigenvalues --    1.07931   1.09700   1.10447   1.12354   1.14927
 Alpha virt. eigenvalues --    1.15214   1.17331   1.18040   1.18936   1.19524
 Alpha virt. eigenvalues --    1.24652   1.28437   1.30938   1.32458   1.35475
 Alpha virt. eigenvalues --    1.36084   1.38765   1.40741   1.40756   1.45816
 Alpha virt. eigenvalues --    1.48243   1.50428   1.53651   1.56358   1.57245
 Alpha virt. eigenvalues --    1.57807   1.60167   1.61811   1.63129   1.66391
 Alpha virt. eigenvalues --    1.69841   1.71624   1.76039   1.76097   1.80471
 Alpha virt. eigenvalues --    1.82097   1.86822   1.90218   1.90630   1.91395
 Alpha virt. eigenvalues --    1.97141   1.97210   2.04077   2.06255   2.11256
 Alpha virt. eigenvalues --    2.11380   2.14161   2.16285   2.18162   2.21524
 Alpha virt. eigenvalues --    2.25311   2.38620   2.51314   2.54094   2.75650
 Alpha virt. eigenvalues --    2.76019   2.78397   2.82832   2.83872   3.03989
 Alpha virt. eigenvalues --    3.06714   3.10110   3.11291   3.13300   3.13344
 Alpha virt. eigenvalues --    3.16191   3.20770   3.21785   3.24135   3.27505
 Alpha virt. eigenvalues --    3.31318   3.36056   3.38672   3.43370   3.45165
 Alpha virt. eigenvalues --    3.48057   3.51081   3.55134   3.55486   3.56883
 Alpha virt. eigenvalues --    3.57675   3.60196   3.66694   3.74447   3.76208
 Alpha virt. eigenvalues --    3.79963   3.81783   3.83986   3.84973   3.87467
 Alpha virt. eigenvalues --    3.89002   3.90711   3.92122   3.95344   3.96894
 Alpha virt. eigenvalues --    3.98123   4.01483   4.03157   4.03690   4.05627
 Alpha virt. eigenvalues --    4.09121   4.10541   4.11638   4.12567   4.12957
 Alpha virt. eigenvalues --    4.15113   4.15799   4.16212   4.17702   4.20502
 Alpha virt. eigenvalues --    4.21048   4.22489   4.23111   4.24850   4.28888
 Alpha virt. eigenvalues --    4.29952   4.34013   4.35245   4.36238   4.37059
 Alpha virt. eigenvalues --    4.38940   4.40426   4.41150   4.45275   4.46562
 Alpha virt. eigenvalues --    4.47859   4.48616   4.51365   4.52956   4.57401
 Alpha virt. eigenvalues --    4.61412   4.64038   4.66908   4.73261   4.74028
 Alpha virt. eigenvalues --    4.76359   4.81015   4.81341   4.85516   4.86281
 Alpha virt. eigenvalues --    4.91310   4.96896   5.00829   5.05556   5.07050
 Alpha virt. eigenvalues --    5.10707   5.14002   5.19747   5.20361   5.22157
 Alpha virt. eigenvalues --    5.23296   5.27706   5.28579   5.30749   5.34767
 Alpha virt. eigenvalues --    5.36247   5.42919   5.45865   5.46838   5.47332
 Alpha virt. eigenvalues --    5.52783   5.57269   5.61027   5.61033   5.66204
 Alpha virt. eigenvalues --    5.71316   5.79101   5.83493   5.85733   5.93978
 Alpha virt. eigenvalues --    5.97439   5.98592   6.01909   6.07785   6.15377
 Alpha virt. eigenvalues --    6.24607   6.37483   6.39228   6.46362   6.66585
 Alpha virt. eigenvalues --    6.82540   6.84035   7.12689   9.43253  12.15956
 Alpha virt. eigenvalues --   13.03644  14.51471  17.65506  18.10896  22.59075
          Condensed to atoms (all electrons):
               1          2          3          4          5          6
     1  O    7.966035  -0.115075   0.584929  -0.060374   0.007704   0.007204
     2  N   -0.115075   6.462148   0.326378  -0.045345   0.347585  -0.017438
     3  C    0.584929   0.326378   4.512585   0.367476  -0.039612  -0.029253
     4  C   -0.060374  -0.045345   0.367476   5.157316  -0.051905   0.458044
     5  C    0.007704   0.347585  -0.039612  -0.051905   4.765069  -0.080585
     6  C    0.007204  -0.017438  -0.029253   0.458044  -0.080585   4.907581
     7  C    0.001175  -0.048961  -0.029185  -0.058792   0.546539   0.402043
     8  H    0.017122   0.378876  -0.027047   0.017893  -0.025785  -0.005170
     9  H    0.005278   0.006762  -0.042200   0.435250  -0.000263  -0.033584
    10  H   -0.001293  -0.028397   0.002591  -0.006104   0.410232   0.009033
    11  H   -0.000597  -0.002612   0.006769  -0.028234   0.009881   0.414526
    12  H    0.000019   0.006032  -0.000407   0.007455  -0.028681  -0.030309
               7          8          9         10         11         12
     1  O    0.001175   0.017122   0.005278  -0.001293  -0.000597   0.000019
     2  N   -0.048961   0.378876   0.006762  -0.028397  -0.002612   0.006032
     3  C   -0.029185  -0.027047  -0.042200   0.002591   0.006769  -0.000407
     4  C   -0.058792   0.017893   0.435250  -0.006104  -0.028234   0.007455
     5  C    0.546539  -0.025785  -0.000263   0.410232   0.009881  -0.028681
     6  C    0.402043  -0.005170  -0.033584   0.009033   0.414526  -0.030309
     7  C    5.000923   0.010042   0.007655  -0.036371  -0.036564   0.431048
     8  H    0.010042   0.476469  -0.000499  -0.014583   0.000372  -0.000325
     9  H    0.007655  -0.000499   0.534131   0.000323  -0.010576   0.000008
    10  H   -0.036371  -0.014583   0.000323   0.565102  -0.000573  -0.005197
    11  H   -0.036564   0.000372  -0.010576  -0.000573   0.558854  -0.008178
    12  H    0.431048  -0.000325   0.000008  -0.005197  -0.008178   0.541443
 Mulliken charges:
               1
     1  O   -0.412129
     2  N   -0.269953
     3  C    0.366976
     4  C   -0.192681
     5  C    0.139821
     6  C   -0.002093
     7  C   -0.189552
     8  H    0.172635
     9  H    0.097715
    10  H    0.105236
    11  H    0.096933
    12  H    0.087093
 Sum of Mulliken charges =  -0.00000
 Mulliken charges with hydrogens summed into heavy atoms:
               1
     1  O   -0.412129
     2  N   -0.097318
     3  C    0.366976
     4  C   -0.094966
     5  C    0.245057
     6  C    0.094840
     7  C   -0.102459
 Electronic spatial extent (au):  <R**2>=            625.6654
 Charge=             -0.0000 electrons
 Dipole moment (field-independent basis, Debye):
    X=             -1.2193    Y=             -4.0697    Z=             -0.0000  Tot=              4.2485
 Quadrupole moment (field-independent basis, Debye-Ang):
   XX=            -31.5227   YY=            -47.3944   ZZ=            -43.1936
   XY=              0.1846   XZ=              0.0000   YZ=             -0.0000
 Traceless Quadrupole moment (field-independent basis, Debye-Ang):
   XX=              9.1809   YY=             -6.6909   ZZ=             -2.4900
   XY=              0.1846   XZ=              0.0000   YZ=             -0.0000
 Octapole moment (field-independent basis, Debye-Ang**2):
  XXX=            -11.1487  YYY=            -30.0139  ZZZ=              0.0000  XYY=             -0.1208
  XXY=              1.2049  XXZ=              0.0000  XZZ=             -2.1318  YZZ=              5.4449
  YYZ=             -0.0000  XYZ=              0.0000
 Hexadecapole moment (field-independent basis, Debye-Ang**3):
 XXXX=           -238.1396 YYYY=           -538.1115 ZZZZ=            -47.5119 XXXY=              2.8436
 XXXZ=              0.0000 YYYX=              7.9578 YYYZ=             -0.0000 ZZZX=              0.0000
 ZZZY=             -0.0000 XXYY=           -117.4446 XXZZ=            -61.4520 YYZZ=            -96.6213
 XXYZ=             -0.0000 YYXZ=              0.0000 ZZXY=              1.2751
 N-N= 2.768386644497D+02 E-N=-1.306991837711D+03  KE= 3.207556781335D+02
 Symmetry A'   KE= 3.091405426119D+02
 Symmetry A"   KE= 1.161513552161D+01
 No NMR shielding tensors so no spin-rotation constants.
 Leave Link  601 at Thu Aug 26 23:57:21 2021, MaxMem= 17179869184 cpu:        78.0
 (Enter /public3/home/sc51754/softwares/g09e01/l701.exe)
 Compute integral first derivatives.
 ... and contract with generalized density number  0.
 Leave Link  701 at Thu Aug 26 23:57:23 2021, MaxMem= 17179869184 cpu:        99.5
 (Enter /public3/home/sc51754/softwares/g09e01/l702.exe)
 L702 exits ... SP integral derivatives will be done elsewhere.
 Leave Link  702 at Thu Aug 26 23:57:23 2021, MaxMem= 17179869184 cpu:         0.9
 (Enter /public3/home/sc51754/softwares/g09e01/l703.exe)
 Compute integral first derivatives, UseDBF=F ICtDFT=           0.
 Integral derivatives from FoFJK, PRISM(SPDF).
 Calling FoFJK, ICntrl=      2527 FMM=F ISym2X=1 I1Cent= 0 IOpClX= 0 NMat=1 NMatS=1 NMatT=0.
 FoFJK:  IHMeth= 1 ICntrl=    2527 DoSepK=F KAlg= 0 I1Cent=   0 FoldK=F
 IRaf=         0 NMat=   1 IRICut=       1 DoRegI=T DoRafI=F ISym2E= 1.
 FoFCou: FMM=F IPFlag=           0 FMFlag=      100000 FMFlg1=         800
         NFxFlg=           0 DoJE=F BraDBF=F KetDBF=F FulRan=T
         wScrn=  0.000000 ICntrl=    2527 IOpCl=  0 I1Cent=           0 NGrid=           0
         NMat0=    1 NMatS0=      1 NMatT0=    0 NMatD0=    1 NMtDS0=    0 NMtDT0=    0
 Petite list used in FoFCou.
 Leave Link  703 at Thu Aug 26 23:57:25 2021, MaxMem= 17179869184 cpu:       106.8
 (Enter /public3/home/sc51754/softwares/g09e01/l716.exe)
 Dipole        =-4.79707127D-01-1.60115642D+00-3.69013707D-32
 ***** Axes restored to original set *****
 -------------------------------------------------------------------
 Center     Atomic                   Forces (Hartrees/Bohr)
 Number     Number              X              Y              Z
 -------------------------------------------------------------------
      1        8          -0.001462021    0.010617633   -0.000000000
      2        7           0.012201615   -0.010758460    0.000000000
      3        6           0.002688257   -0.014398086    0.000000000
      4        6          -0.010489380    0.002107635   -0.000000000
      5        6           0.002152376    0.011253448   -0.000000000
      6        6          -0.009905597   -0.003846569   -0.000000000
      7        6           0.008177146    0.008629424    0.000000000
      8        1          -0.008731050    0.005596153   -0.000000000
      9        1           0.005503390    0.003853513    0.000000000
     10        1          -0.006036577   -0.002837181   -0.000000000
     11        1           0.005792650   -0.003430491    0.000000000
     12        1           0.000109191   -0.006787018    0.000000000
 -------------------------------------------------------------------
 Cartesian Forces:  Max     0.014398086 RMS     0.006197204
 Leave Link  716 at Thu Aug 26 23:57:25 2021, MaxMem= 17179869184 cpu:         1.7
 (Enter /public3/home/sc51754/softwares/g09e01/l103.exe)

 GradGradGradGradGradGradGradGradGradGradGradGradGradGradGradGradGradGrad
 Berny optimization.
 FormGI is forming the generalized inverse of G from B-inverse, IUseBI=4.
 Internal  Forces:  Max     0.010712867 RMS     0.003192001
 Search for a local minimum.
 Step number   1 out of a maximum of   64
 All quantities printed in internal units (Hartrees-Bohrs-Radians)
 RMS Force = .31920D-02 SwitMx=.10000D-02 MixMth= 1
 Mixed Optimization -- RFO/linear search
 Second derivative matrix not updated -- first step.
 ITU=  0
     Eigenvalues ---    0.01577   0.01761   0.01972   0.02080   0.02183
     Eigenvalues ---    0.02246   0.02365   0.02483   0.02557   0.16000
     Eigenvalues ---    0.16000   0.16000   0.16000   0.16000   0.22000
     Eigenvalues ---    0.22000   0.23415   0.25000   0.35622   0.35864
     Eigenvalues ---    0.35940   0.36221   0.37867   0.40757   0.44267
     Eigenvalues ---    0.46319   0.50118   0.53776   0.54239   0.98595
 RFO step:  Lambda=-1.16951901D-03 EMin= 1.57720798D-02
 Linear search not attempted -- first point.
 Iteration  1 RMS(Cart)=  0.00603510 RMS(Int)=  0.00001333
 Iteration  2 RMS(Cart)=  0.00001647 RMS(Int)=  0.00000068
 Iteration  3 RMS(Cart)=  0.00000000 RMS(Int)=  0.00000068
 ITry= 1 IFail=0 DXMaxC= 1.67D-02 DCOld= 1.00D+10 DXMaxT= 3.00D-01 DXLimC= 3.00D+00 Rises=F
 ClnCor:  largest displacement from symmetrization is 2.64D-10 for atom    11.
 Variable       Old X    -DE/DX   Delta X   Delta X   Delta X     New X
                                 (Linear)    (Quad)   (Total)
    R1        2.29207   0.01071   0.00000   0.01085   0.01085   2.30292
    R2        2.65138  -0.00320   0.00000  -0.00766  -0.00766   2.64372
    R3        2.56109  -0.00661   0.00000  -0.01264  -0.01264   2.54845
    R4        1.90473   0.01036   0.00000   0.02230   0.02230   1.92703
    R5        2.72731  -0.00475   0.00000  -0.01217  -0.01217   2.71514
    R6        2.55600   0.00363   0.00000   0.00706   0.00706   2.56305
    R7        2.04176   0.00671   0.00000   0.01862   0.01862   2.06038
    R8        2.55244   0.00379   0.00000   0.00695   0.00695   2.55938
    R9        2.04295   0.00667   0.00000   0.01853   0.01853   2.06147
   R10        2.67947  -0.00615   0.00000  -0.01373  -0.01373   2.66574
   R11        2.04676   0.00673   0.00000   0.01883   0.01883   2.06559
   R12        2.03737   0.00679   0.00000   0.01868   0.01868   2.05605
    A1        2.18960   0.00114   0.00000   0.00309   0.00309   2.19269
    A2        1.99125  -0.00109   0.00000  -0.00475  -0.00475   1.98650
    A3        2.10233  -0.00006   0.00000   0.00166   0.00166   2.10399
    A4        2.09504  -0.00049   0.00000  -0.00134  -0.00134   2.09370
    A5        2.21834   0.00020   0.00000   0.00143   0.00143   2.21976
    A6        1.96981   0.00029   0.00000  -0.00008  -0.00008   1.96972
    A7        2.12410   0.00015   0.00000   0.00152   0.00152   2.12562
    A8        2.02595  -0.00031   0.00000  -0.00220  -0.00220   2.02375
    A9        2.13313   0.00016   0.00000   0.00068   0.00068   2.13382
   A10        2.10267  -0.00018   0.00000  -0.00163  -0.00163   2.10104
   A11        2.03035  -0.00014   0.00000  -0.00065  -0.00065   2.02970
   A12        2.15017   0.00033   0.00000   0.00227   0.00227   2.15244
   A13        2.12246  -0.00118   0.00000  -0.00319  -0.00319   2.11926
   A14        2.08387   0.00084   0.00000   0.00315   0.00315   2.08702
   A15        2.07686   0.00034   0.00000   0.00005   0.00005   2.07690
   A16        2.05775  -0.00022   0.00000   0.00029   0.00029   2.05804
   A17        2.10204   0.00013   0.00000  -0.00005  -0.00005   2.10200
   A18        2.12340   0.00010   0.00000  -0.00025  -0.00025   2.12315
    D1        3.14159   0.00000   0.00000   0.00000   0.00000   3.14159
    D2       -0.00000  -0.00000   0.00000   0.00000   0.00000   0.00000
    D3        0.00000  -0.00000   0.00000   0.00000  -0.00000   0.00000
    D4        3.14159   0.00000   0.00000   0.00000   0.00000   3.14159
    D5        0.00000  -0.00000   0.00000   0.00000  -0.00000   0.00000
    D6        3.14159   0.00000   0.00000   0.00000   0.00000   3.14159
    D7        3.14159  -0.00000   0.00000  -0.00000   0.00000   3.14159
    D8       -0.00000  -0.00000   0.00000   0.00000   0.00000   0.00000
    D9        3.14159  -0.00000   0.00000  -0.00000   0.00000   3.14159
   D10        0.00000  -0.00000   0.00000  -0.00000   0.00000   0.00000
   D11        0.00000   0.00000   0.00000  -0.00000  -0.00000   0.00000
   D12        3.14159   0.00000   0.00000  -0.00000   0.00000   3.14159
   D13        0.00000  -0.00000   0.00000   0.00000   0.00000   0.00000
   D14        3.14159  -0.00000   0.00000   0.00000   0.00000   3.14159
   D15        3.14159  -0.00000   0.00000   0.00000   0.00000   3.14159
   D16       -0.00000   0.00000   0.00000   0.00000   0.00000   0.00000
   D17       -0.00000   0.00000   0.00000  -0.00000   0.00000   0.00000
   D18        3.14159   0.00000   0.00000  -0.00000   0.00000   3.14159
   D19        3.14159   0.00000   0.00000  -0.00000   0.00000   3.14159
   D20       -0.00000  -0.00000   0.00000  -0.00000   0.00000   0.00000
   D21        0.00000  -0.00000   0.00000  -0.00000  -0.00000   0.00000
   D22        3.14159   0.00000   0.00000  -0.00000   0.00000   3.14159
   D23        3.14159  -0.00000   0.00000  -0.00000   0.00000   3.14159
   D24        0.00000  -0.00000   0.00000  -0.00000   0.00000   0.00000
         Item               Value     Threshold  Converged?
 Maximum Force            0.010713     0.000450     NO 
 RMS     Force            0.003192     0.000300     NO 
 Maximum Displacement     0.016652     0.001800     NO 
 RMS     Displacement     0.006041     0.001200     NO 
 Predicted change in Energy=-5.863693D-04
 Lowest energy point so far.  Saving SCF results.
 GradGradGradGradGradGradGradGradGradGradGradGradGradGradGradGradGradGrad

 Leave Link  103 at Thu Aug 26 23:57:26 2021, MaxMem= 17179869184 cpu:        45.8
 (Enter /public3/home/sc51754/softwares/g09e01/l202.exe)
                          Input orientation:                          
 ---------------------------------------------------------------------
 Center     Atomic      Atomic             Coordinates (Angstroms)
 Number     Number       Type             X           Y           Z
 ---------------------------------------------------------------------
      1          8           0       -0.133570    2.269508   -0.000000
      2          7           0       -1.127902    0.230774   -0.000000
      3          6           0        0.000162    1.058214   -0.000000
      4          6           0        1.233241    0.320732    0.000000
      5          6           0       -1.113110   -1.117729   -0.000000
      6          6           0        1.254686   -1.035407    0.000000
      7          6           0        0.062725   -1.789831    0.000000
      8          1           0       -2.011723    0.739433   -0.000000
      9          1           0        2.145939    0.917181    0.000000
     10          1           0       -2.085770   -1.611656   -0.000000
     11          1           0        2.213724   -1.559843    0.000000
     12          1           0        0.075701   -2.877768    0.000000
 ---------------------------------------------------------------------
                    Distance matrix (angstroms):
                    1          2          3          4          5
     1  O    0.000000
     2  N    2.268289   0.000000
     3  C    1.218654   1.398995   0.000000
     4  C    2.380315   2.362856   1.436790   0.000000
     5  C    3.526028   1.348583   2.444198   2.752187   0.000000
     6  C    3.584650   2.698136   2.440713   1.356308   2.369227
     7  C    4.064082   2.345301   2.848732   2.413418   1.354367
     8  H    2.422517   1.019742   2.036983   3.271865   2.063142
     9  H    2.650463   3.345024   2.150407   1.090306   3.842168
    10  H    4.344481   2.076549   3.388114   3.840567   1.090885
    11  H    4.491516   3.791144   3.428422   2.120827   3.356082
    12  H    5.151529   3.333421   3.936707   3.401515   2.123914
                    6          7          8          9         10
     6  C    0.000000
     7  C    1.410648   0.000000
     8  H    3.717457   3.271163   0.000000
     9  H    2.146376   3.415800   4.161459   0.000000
    10  H    3.389795   2.155870   2.352254   4.929743   0.000000
    11  H    1.093063   2.163260   4.810516   2.477951   4.299806
    12  H    2.187305   1.088015   4.176300   4.322906   2.504994
                   11         12
    11  H    0.000000
    12  H    2.511587   0.000000
 Stoichiometry    C5H5NO
 Framework group  CS[SG(C5H5NO)]
 Deg. of freedom    21
 Full point group                 CS      NOp   2
 RotChk:  IX=0 Diff= 2.10D-04
 Largest Abelian subgroup         CS      NOp   2
 Largest concise Abelian subgroup C1      NOp   1
                         Standard orientation:                         
 ---------------------------------------------------------------------
 Center     Atomic      Atomic             Coordinates (Angstroms)
 Number     Number       Type             X           Y           Z
 ---------------------------------------------------------------------
      1          8           0       -0.133912    2.269594    0.000000
      2          7           0       -1.127941    0.230712    0.000000
      3          6           0       -0.000000    1.058320    0.000000
      4          6           0        1.233189    0.321021   -0.000000
      5          6           0       -1.112948   -1.117788   -0.000000
      6          6           0        1.254836   -1.035114   -0.000000
      7          6           0        0.062987   -1.789716   -0.000000
      8          1           0       -2.011837    0.739239    0.000000
      9          1           0        2.145798    0.917606   -0.000000
     10          1           0       -2.085534   -1.611860    0.000000
     11          1           0        2.213951   -1.559408   -0.000000
     12          1           0        0.076125   -2.877651   -0.000000
 ---------------------------------------------------------------------
 Rotational constants (GHZ):      5.7518681      2.8224175      1.8933558
 Leave Link  202 at Thu Aug 26 23:57:27 2021, MaxMem= 17179869184 cpu:         6.4
 (Enter /public3/home/sc51754/softwares/g09e01/l301.exe)
 Basis read from rwf:  (5D, 7F)
 No pseudopotential information found on rwf file.
 There are   223 symmetry adapted cartesian basis functions of A'  symmetry.
 There are    97 symmetry adapted cartesian basis functions of A"  symmetry.
 There are   190 symmetry adapted basis functions of A'  symmetry.
 There are    90 symmetry adapted basis functions of A"  symmetry.
   280 basis functions,   475 primitive gaussians,   320 cartesian basis functions
    25 alpha electrons       25 beta electrons
       nuclear repulsion energy       276.8433046922 Hartrees.
 IExCor=  205 DFT=T Ex=S Corr=VWN ExCW=0 ScaHFX=  0.000000
 ScaDFX=  1.000000  1.000000  1.000000  1.000000 ScalE2=  1.000000  1.000000
 IRadAn=      0 IRanWt=     -1 IRanGd=            0 ICorTp=0 IEmpDi=  4
 NAtoms=   12 NActive=   12 NUniq=   12 SFac= 1.00D+00 NAtFMM=   60 NAOKFM=F Big=F
 Integral buffers will be    131072 words long.
 Raffenetti 2 integral format.
 Two-electron integral symmetry is turned on.
 No density basis found on file   724.
 Leave Link  301 at Thu Aug 26 23:57:27 2021, MaxMem= 17179869184 cpu:         1.3
 (Enter /public3/home/sc51754/softwares/g09e01/l302.exe)
 NPDir=0 NMtPBC=     1 NCelOv=     1 NCel=       1 NClECP=     1 NCelD=      1
         NCelK=      1 NCelE2=     1 NClLst=     1 CellRange=     0.0.
 One-electron integrals computed using PRISM.
 NBasis=   280 RedAO= T EigKep=  2.30D-04  NBF=   190    90
 NBsUse=   280 1.00D-06 EigRej= -1.00D+00 NBFU=   190    90
 Precomputing XC quadrature grid using
 IXCGrd= 4 IRadAn=           0 IRanWt=          -1 IRanGd=           0 AccXCQ= 0.00D+00.
 Generated NRdTot=       0 NPtTot=           0 NUsed=           0 NTot=          32
 NSgBfM=   320   320   320   320   320 MxSgAt=    12 MxSgA2=    12.
 Leave Link  302 at Thu Aug 26 23:57:28 2021, MaxMem= 17179869184 cpu:        40.7
 (Enter /public3/home/sc51754/softwares/g09e01/l303.exe)
 DipDrv:  MaxL=1.
 Leave Link  303 at Thu Aug 26 23:57:28 2021, MaxMem= 17179869184 cpu:        13.7
 (Enter /public3/home/sc51754/softwares/g09e01/l401.exe)
 Initial guess from the checkpoint file:  "PY_SVWN_PC2_OPT_FREQ.chk"
 B after Tr=     0.000000    0.000000   -0.000000
         Rot=    1.000000    0.000000   -0.000000   -0.000299 Ang=  -0.03 deg.
 Guess basis will be translated and rotated to current coordinates.
 JPrj=2 DoOrth=T DoCkMO=T.
 Initial guess orbital symmetries:
       Occupied  (A') (A') (A') (A') (A') (A') (A') (A') (A') (A')
                 (A') (A') (A') (A') (A') (A') (A') (A") (A') (A')
                 (A') (A") (A") (A') (A")
       Virtual   (A') (A') (A') (A') (A') (A') (A') (A') (A') (A')
                 (A') (A') (A') (A') (A') (A') (A') (A') (A') (A')
                 (A') (A') (A') (A') (A') (A') (A') (A') (A') (A')
                 (A') (A') (A') (A') (A') (A') (A') (A') (A') (A')
                 (A') (A') (A') (A') (A') (A') (A') (A') (A') (A')
                 (A') (A') (A') (A') (A') (A') (A') (A') (A') (A')
                 (A') (A') (A') (A') (A') (A') (A') (A') (A') (A')
                 (A') (A') (A') (A') (A') (A') (A') (A') (A') (A')
                 (A') (A') (A') (A') (A') (A') (A') (A') (A') (A')
                 (A') (A') (A') (A') (A') (A') (A') (A') (A') (A')
                 (A') (A') (A') (A') (A') (A') (A') (A') (A') (A')
                 (A') (A') (A') (A') (A') (A') (A') (A') (A') (A')
                 (A') (A') (A') (A') (A') (A') (A') (A') (A') (A')
                 (A') (A') (A') (A') (A') (A') (A') (A') (A') (A')
                 (A') (A') (A') (A') (A') (A') (A') (A') (A') (A')
                 (A') (A') (A') (A') (A') (A') (A') (A') (A') (A')
                 (A') (A') (A') (A') (A') (A') (A') (A') (A') (A")
                 (A") (A") (A") (A") (A") (A") (A") (A") (A") (A")
                 (A") (A") (A") (A") (A") (A") (A") (A") (A") (A")
                 (A") (A") (A") (A") (A") (A") (A") (A") (A") (A")
                 (A") (A") (A") (A") (A") (A") (A") (A") (A") (A")
                 (A") (A") (A") (A") (A") (A") (A") (A") (A") (A")
                 (A") (A") (A") (A") (A") (A") (A") (A") (A") (A")
                 (A") (A") (A") (A") (A") (A") (A") (A") (A") (A")
                 (A") (A") (A") (A") (A") (A") (A") (A") (A") (A")
                 (A") (A") (A") (A") (A")
 The electronic state of the initial guess is 1-A'.
 Leave Link  401 at Thu Aug 26 23:57:28 2021, MaxMem= 17179869184 cpu:        18.7
 (Enter /public3/home/sc51754/softwares/g09e01/l502.exe)
 Closed shell SCF:
 Using DIIS extrapolation, IDIIS=  1040.
 Integral symmetry usage will be decided dynamically.
 Keep J ints in memory in symmetry-blocked form, NReq=1167802198.
 IVT=      348658 IEndB=      348658 NGot= 17179869184 MDV= 16785904737
 LenX= 16785904737 LenY= 16785801896
 Requested convergence on RMS density matrix=1.00D-08 within 128 cycles.
 Requested convergence on MAX density matrix=1.00D-06.
 Requested convergence on             energy=1.00D-06.
 No special actions if energy rises.
 FoFCou: FMM=F IPFlag=           0 FMFlag=           0 FMFlg1=           0
         NFxFlg=           0 DoJE=F BraDBF=F KetDBF=F FulRan=T
         wScrn=  0.000000 ICntrl=     600 IOpCl=  0 I1Cent=           0 NGrid=           0
         NMat0=    1 NMatS0=  39340 NMatT0=    0 NMatD0=    1 NMtDS0=    0 NMtDT0=    0
 Petite list used in FoFCou.

 Cycle   1  Pass 1  IDiag  1:
 E= -321.900272199987    
 DIIS: error= 9.79D-04 at cycle   1 NSaved=   1.
 NSaved= 1 IEnMin= 1 EnMin= -321.900272199987     IErMin= 1 ErrMin= 9.79D-04
 ErrMax= 9.79D-04  0.00D+00 EMaxC= 1.00D-01 BMatC= 3.11D-04 BMatP= 3.11D-04
 IDIUse=3 WtCom= 9.90D-01 WtEn= 9.79D-03
 Coeff-Com:  0.100D+01
 Coeff-En:   0.100D+01
 Coeff:      0.100D+01
 Gap=     0.500 Goal=   None    Shift=    0.000
 RMSDP=6.68D-05 MaxDP=2.07D-03              OVMax= 8.77D-03

 Cycle   2  Pass 1  IDiag  1:
 E= -321.900464915490     Delta-E=       -0.000192715503 Rises=F Damp=F
 DIIS: error= 3.19D-04 at cycle   2 NSaved=   2.
 NSaved= 2 IEnMin= 2 EnMin= -321.900464915490     IErMin= 2 ErrMin= 3.19D-04
 ErrMax= 3.19D-04  0.00D+00 EMaxC= 1.00D-01 BMatC= 3.18D-05 BMatP= 3.11D-04
 IDIUse=3 WtCom= 9.97D-01 WtEn= 3.19D-03
 Coeff-Com:  0.163D+00 0.837D+00
 Coeff-En:   0.000D+00 0.100D+01
 Coeff:      0.163D+00 0.837D+00
 Gap=     0.121 Goal=   None    Shift=    0.000
 RMSDP=3.35D-05 MaxDP=1.16D-03 DE=-1.93D-04 OVMax= 6.09D-03

 Cycle   3  Pass 1  IDiag  1:
 E= -321.900440942919     Delta-E=        0.000023972572 Rises=F Damp=F
 DIIS: error= 6.66D-04 at cycle   3 NSaved=   3.
 NSaved= 3 IEnMin= 2 EnMin= -321.900464915490     IErMin= 2 ErrMin= 3.19D-04
 ErrMax= 6.66D-04  0.00D+00 EMaxC= 1.00D-01 BMatC= 5.42D-05 BMatP= 3.18D-05
 IDIUse=3 WtCom= 2.79D-01 WtEn= 7.21D-01
 Coeff-Com:  0.567D-01 0.561D+00 0.383D+00
 Coeff-En:   0.000D+00 0.625D+00 0.375D+00
 Coeff:      0.158D-01 0.607D+00 0.377D+00
 Gap=     0.121 Goal=   None    Shift=    0.000
 RMSDP=2.24D-05 MaxDP=9.07D-04 DE= 2.40D-05 OVMax= 4.24D-03

 Cycle   4  Pass 1  IDiag  1:
 E= -321.900490361939     Delta-E=       -0.000049419020 Rises=F Damp=F
 DIIS: error= 1.86D-04 at cycle   4 NSaved=   4.
 NSaved= 4 IEnMin= 4 EnMin= -321.900490361939     IErMin= 4 ErrMin= 1.86D-04
 ErrMax= 1.86D-04  0.00D+00 EMaxC= 1.00D-01 BMatC= 4.27D-06 BMatP= 3.18D-05
 IDIUse=3 WtCom= 9.98D-01 WtEn= 1.86D-03
 Coeff-Com:  0.102D-01 0.263D+00 0.232D+00 0.495D+00
 Coeff-En:   0.000D+00 0.000D+00 0.448D-01 0.955D+00
 Coeff:      0.101D-01 0.262D+00 0.232D+00 0.496D+00
 Gap=     0.121 Goal=   None    Shift=    0.000
 RMSDP=7.09D-06 MaxDP=4.34D-04 DE=-4.94D-05 OVMax= 1.27D-03

 Cycle   5  Pass 1  IDiag  1:
 E= -321.900494179484     Delta-E=       -0.000003817545 Rises=F Damp=F
 DIIS: error= 4.20D-05 at cycle   5 NSaved=   5.
 NSaved= 5 IEnMin= 5 EnMin= -321.900494179484     IErMin= 5 ErrMin= 4.20D-05
 ErrMax= 4.20D-05  0.00D+00 EMaxC= 1.00D-01 BMatC= 5.15D-07 BMatP= 4.27D-06
 IDIUse=1 WtCom= 1.00D+00 WtEn= 0.00D+00
 Coeff-Com:  0.215D-02 0.124D+00 0.119D+00 0.318D+00 0.438D+00
 Coeff:      0.215D-02 0.124D+00 0.119D+00 0.318D+00 0.438D+00
 Gap=     0.121 Goal=   None    Shift=    0.000
 RMSDP=2.30D-06 MaxDP=1.29D-04 DE=-3.82D-06 OVMax= 4.56D-04

 Cycle   6  Pass 1  IDiag  1:
 E= -321.900494667419     Delta-E=       -0.000000487935 Rises=F Damp=F
 DIIS: error= 1.30D-05 at cycle   6 NSaved=   6.
 NSaved= 6 IEnMin= 6 EnMin= -321.900494667419     IErMin= 6 ErrMin= 1.30D-05
 ErrMax= 1.30D-05  0.00D+00 EMaxC= 1.00D-01 BMatC= 3.52D-08 BMatP= 5.15D-07
 IDIUse=1 WtCom= 1.00D+00 WtEn= 0.00D+00
 Coeff-Com:  0.382D-03 0.534D-01 0.522D-01 0.148D+00 0.263D+00 0.483D+00
 Coeff:      0.382D-03 0.534D-01 0.522D-01 0.148D+00 0.263D+00 0.483D+00
 Gap=     0.121 Goal=   None    Shift=    0.000
 RMSDP=8.05D-07 MaxDP=3.67D-05 DE=-4.88D-07 OVMax= 1.65D-04

 Cycle   7  Pass 1  IDiag  1:
 E= -321.900494683168     Delta-E=       -0.000000015749 Rises=F Damp=F
 DIIS: error= 9.65D-06 at cycle   7 NSaved=   7.
 NSaved= 7 IEnMin= 7 EnMin= -321.900494683168     IErMin= 7 ErrMin= 9.65D-06
 ErrMax= 9.65D-06  0.00D+00 EMaxC= 1.00D-01 BMatC= 2.07D-08 BMatP= 3.52D-08
 IDIUse=1 WtCom= 1.00D+00 WtEn= 0.00D+00
 Coeff-Com:  0.889D-05 0.205D-01 0.217D-01 0.673D-01 0.145D+00 0.404D+00
 Coeff-Com:  0.341D+00
 Coeff:      0.889D-05 0.205D-01 0.217D-01 0.673D-01 0.145D+00 0.404D+00
 Coeff:      0.341D+00
 Gap=     0.121 Goal=   None    Shift=    0.000
 RMSDP=4.07D-07 MaxDP=1.89D-05 DE=-1.57D-08 OVMax= 7.39D-05

 Cycle   8  Pass 1  IDiag  1:
 E= -321.900494700750     Delta-E=       -0.000000017582 Rises=F Damp=F
 DIIS: error= 1.36D-06 at cycle   8 NSaved=   8.
 NSaved= 8 IEnMin= 8 EnMin= -321.900494700750     IErMin= 8 ErrMin= 1.36D-06
 ErrMax= 1.36D-06  0.00D+00 EMaxC= 1.00D-01 BMatC= 2.93D-10 BMatP= 2.07D-08
 IDIUse=1 WtCom= 1.00D+00 WtEn= 0.00D+00
 Coeff-Com: -0.203D-05 0.114D-01 0.120D-01 0.376D-01 0.826D-01 0.232D+00
 Coeff-Com:  0.221D+00 0.404D+00
 Coeff:     -0.203D-05 0.114D-01 0.120D-01 0.376D-01 0.826D-01 0.232D+00
 Coeff:      0.221D+00 0.404D+00
 Gap=     0.121 Goal=   None    Shift=    0.000
 RMSDP=7.36D-08 MaxDP=3.00D-06 DE=-1.76D-08 OVMax= 1.29D-05

 Cycle   9  Pass 1  IDiag  1:
 E= -321.900494700964     Delta-E=       -0.000000000215 Rises=F Damp=F
 DIIS: error= 6.19D-07 at cycle   9 NSaved=   9.
 NSaved= 9 IEnMin= 9 EnMin= -321.900494700964     IErMin= 9 ErrMin= 6.19D-07
 ErrMax= 6.19D-07  0.00D+00 EMaxC= 1.00D-01 BMatC= 7.64D-11 BMatP= 2.93D-10
 IDIUse=1 WtCom= 1.00D+00 WtEn= 0.00D+00
 Coeff-Com: -0.717D-05 0.342D-02 0.360D-02 0.118D-01 0.261D-01 0.724D-01
 Coeff-Com:  0.884D-01 0.328D+00 0.467D+00
 Coeff:     -0.717D-05 0.342D-02 0.360D-02 0.118D-01 0.261D-01 0.724D-01
 Coeff:      0.884D-01 0.328D+00 0.467D+00
 Gap=     0.121 Goal=   None    Shift=    0.000
 RMSDP=2.50D-08 MaxDP=9.46D-07 DE=-2.15D-10 OVMax= 4.18D-06

 Cycle  10  Pass 1  IDiag  1:
 E= -321.900494701037     Delta-E=       -0.000000000073 Rises=F Damp=F
 DIIS: error= 1.33D-07 at cycle  10 NSaved=  10.
[...]
     36 -0.257876D-01  0.000000D+00  0.000000D+00  0.162709D-02  0.000000D+00
               26            27            28            29            30 
     26  0.135820D+00
     27  0.000000D+00  0.222604D-01
     28 -0.989221D-04  0.000000D+00  0.284998D+00
     29  0.591614D-04  0.000000D+00  0.117535D+00  0.116235D+00
     30  0.000000D+00 -0.122242D-02  0.000000D+00  0.000000D+00  0.219413D-01
     31  0.227499D-04  0.000000D+00 -0.871915D-03  0.704220D-03  0.000000D+00
     32  0.111998D-02  0.000000D+00 -0.748010D-03  0.488063D-03  0.000000D+00
     33  0.000000D+00 -0.536201D-02  0.000000D+00  0.000000D+00 -0.341424D-03
     34 -0.110822D-02  0.000000D+00  0.803202D-03 -0.409202D-03  0.000000D+00
     35 -0.450070D-03  0.000000D+00  0.533527D-04  0.487860D-03  0.000000D+00
     36  0.000000D+00  0.534068D-03  0.000000D+00  0.000000D+00 -0.437806D-02
               31            32            33            34            35 
     31  0.274674D+00
     32 -0.120048D+00  0.118273D+00
     33  0.000000D+00  0.000000D+00  0.244335D-01
     34  0.101537D-02  0.628623D-03  0.000000D+00  0.510860D-01
     35  0.623615D-04  0.600406D-03  0.000000D+00 -0.383539D-02  0.351394D+00
     36  0.000000D+00  0.000000D+00 -0.216820D-02  0.000000D+00  0.000000D+00
               36 
     36  0.214136D-01
 FormGI is forming the generalized inverse of G from B-inverse, IUseBI=4.
 Leave Link  716 at Thu Aug 26 23:58:35 2021, MaxMem= 17179869184 cpu:         7.1
 (Enter /public3/home/sc51754/softwares/g09e01/l103.exe)

 GradGradGradGradGradGradGradGradGradGradGradGradGradGradGradGradGradGrad
 Berny optimization.
 Red2BG is reusing G-inverse.
 Internal  Forces:  Max     0.000158571 RMS     0.000047340
 Search for a local minimum.
 Step number   1 out of a maximum of    2
 All quantities printed in internal units (Hartrees-Bohrs-Radians)
 Second derivative matrix not updated -- analytic derivatives used.
 ITU=  0
     Eigenvalues ---    0.00754   0.01136   0.01490   0.01618   0.01842
     Eigenvalues ---    0.02085   0.02475   0.03100   0.04391   0.09336
     Eigenvalues ---    0.09959   0.10065   0.11191   0.11669   0.16139
     Eigenvalues ---    0.18513   0.19012   0.22530   0.30879   0.32523
     Eigenvalues ---    0.34034   0.34614   0.34913   0.35268   0.39206
     Eigenvalues ---    0.42905   0.43789   0.50297   0.53867   0.78954
 Angle between quadratic step and forces=  33.20 degrees.
 Linear search not attempted -- first point.
 Iteration  1 RMS(Cart)=  0.00037750 RMS(Int)=  0.00000016
 Iteration  2 RMS(Cart)=  0.00000016 RMS(Int)=  0.00000000
 ITry= 1 IFail=0 DXMaxC= 1.27D-03 DCOld= 1.00D+10 DXMaxT= 3.00D-01 DXLimC= 3.00D+00 Rises=F
 ClnCor:  largest displacement from symmetrization is 4.19D-11 for atom     8.
 Variable       Old X    -DE/DX   Delta X   Delta X   Delta X     New X
                                 (Linear)    (Quad)   (Total)
    R1        2.30889  -0.00008   0.00000  -0.00015  -0.00015   2.30874
    R2        2.64162   0.00016   0.00000   0.00071   0.00071   2.64234
    R3        2.54262  -0.00000   0.00000  -0.00019  -0.00019   2.54244
    R4        1.92886  -0.00013   0.00000  -0.00028  -0.00028   1.92858
    R5        2.70819  -0.00000   0.00000  -0.00014  -0.00014   2.70805
    R6        2.56694   0.00002   0.00000   0.00015   0.00015   2.56710
    R7        2.06069  -0.00010   0.00000  -0.00031  -0.00031   2.06038
    R8        2.56370   0.00001   0.00000   0.00011   0.00011   2.56380
    R9        2.06175  -0.00008   0.00000  -0.00021  -0.00021   2.06154
   R10        2.66081   0.00001   0.00000  -0.00010  -0.00010   2.66071
   R11        2.06599  -0.00008   0.00000  -0.00022  -0.00022   2.06577
   R12        2.05649  -0.00008   0.00000  -0.00024  -0.00024   2.05625
    A1        2.19426  -0.00002   0.00000   0.00001   0.00001   2.19427
    A2        1.97986  -0.00007   0.00000  -0.00092  -0.00092   1.97894
    A3        2.10906   0.00009   0.00000   0.00091   0.00091   2.10998
    A4        2.08946  -0.00006   0.00000  -0.00049  -0.00049   2.08897
    A5        2.22183   0.00006   0.00000   0.00052   0.00052   2.22235
    A6        1.97189   0.00000   0.00000  -0.00003  -0.00003   1.97187
    A7        2.12354  -0.00003   0.00000  -0.00018  -0.00018   2.12336
    A8        2.02611   0.00008   0.00000   0.00087   0.00087   2.02698
    A9        2.13353  -0.00005   0.00000  -0.00069  -0.00069   2.13285
   A10        2.09883  -0.00000   0.00000  -0.00002  -0.00002   2.09881
   A11        2.03348   0.00004   0.00000   0.00044   0.00044   2.03393
   A12        2.15088  -0.00004   0.00000  -0.00042  -0.00042   2.15045
   A13        2.11964   0.00004   0.00000   0.00029   0.00029   2.11993
   A14        2.08475  -0.00005   0.00000  -0.00049  -0.00049   2.08426
   A15        2.07880   0.00001   0.00000   0.00020   0.00020   2.07900
   A16        2.05821   0.00000   0.00000  -0.00007  -0.00007   2.05814
   A17        2.09883  -0.00003   0.00000  -0.00028  -0.00028   2.09855
   A18        2.12615   0.00003   0.00000   0.00035   0.00035   2.12650
    D1        3.14159   0.00000   0.00000   0.00000   0.00000   3.14159
    D2        0.00000   0.00000   0.00000   0.00000   0.00000   0.00000
    D3       -0.00000   0.00000   0.00000   0.00000   0.00000   0.00000
    D4        3.14159   0.00000   0.00000   0.00000   0.00000   3.14159
    D5       -0.00000   0.00000   0.00000  -0.00000   0.00000   0.00000
    D6        3.14159   0.00000   0.00000   0.00000   0.00000   3.14159
    D7        3.14159   0.00000   0.00000  -0.00000   0.00000   3.14159
    D8        0.00000   0.00000   0.00000   0.00000   0.00000   0.00000
    D9        3.14159  -0.00000   0.00000   0.00000   0.00000   3.14159
   D10        0.00000   0.00000   0.00000  -0.00000   0.00000   0.00000
   D11       -0.00000  -0.00000   0.00000  -0.00000   0.00000   0.00000
   D12        3.14159  -0.00000   0.00000  -0.00000   0.00000   3.14159
   D13        0.00000  -0.00000   0.00000  -0.00000   0.00000   0.00000
   D14        3.14159   0.00000   0.00000  -0.00000   0.00000   3.14159
   D15        3.14159  -0.00000   0.00000   0.00000   0.00000   3.14159
   D16       -0.00000  -0.00000   0.00000  -0.00000   0.00000   0.00000
   D17        0.00000  -0.00000   0.00000  -0.00000  -0.00000   0.00000
   D18        3.14159  -0.00000   0.00000  -0.00000   0.00000   3.14159
   D19        3.14159  -0.00000   0.00000  -0.00000   0.00000   3.14159
   D20       -0.00000   0.00000   0.00000  -0.00000   0.00000   0.00000
   D21       -0.00000   0.00000   0.00000   0.00000   0.00000   0.00000
   D22        3.14159  -0.00000   0.00000   0.00000   0.00000   3.14159
   D23        3.14159   0.00000   0.00000   0.00000   0.00000   3.14159
   D24        0.00000  -0.00000   0.00000   0.00000   0.00000   0.00000
         Item               Value     Threshold  Converged?
 Maximum Force            0.000159     0.000450     YES
 RMS     Force            0.000047     0.000300     YES
 Maximum Displacement     0.001271     0.001800     YES
 RMS     Displacement     0.000377     0.001200     YES
 Predicted change in Energy=-3.368404D-07
 Optimization completed.
    -- Stationary point found.
                           ----------------------------
                           !   Optimized Parameters   !
                           ! (Angstroms and Degrees)  !
 --------------------------                            --------------------------
 ! Name  Definition              Value          Derivative Info.                !
 --------------------------------------------------------------------------------
 ! R1    R(1,3)                  1.2218         -DE/DX =   -0.0001              !
 ! R2    R(2,3)                  1.3979         -DE/DX =    0.0002              !
 ! R3    R(2,5)                  1.3455         -DE/DX =    0.0                 !
 ! R4    R(2,8)                  1.0207         -DE/DX =   -0.0001              !
 ! R5    R(3,4)                  1.4331         -DE/DX =    0.0                 !
 ! R6    R(4,6)                  1.3584         -DE/DX =    0.0                 !
 ! R7    R(4,9)                  1.0905         -DE/DX =   -0.0001              !
 ! R8    R(5,7)                  1.3567         -DE/DX =    0.0                 !
 ! R9    R(5,10)                 1.091          -DE/DX =   -0.0001              !
 ! R10   R(6,7)                  1.408          -DE/DX =    0.0                 !
 ! R11   R(6,11)                 1.0933         -DE/DX =   -0.0001              !
 ! R12   R(7,12)                 1.0882         -DE/DX =   -0.0001              !
 ! A1    A(3,2,5)              125.722          -DE/DX =    0.0                 !
 ! A2    A(3,2,8)              113.4375         -DE/DX =   -0.0001              !
 ! A3    A(5,2,8)              120.8404         -DE/DX =    0.0001              !
 ! A4    A(1,3,2)              119.7173         -DE/DX =   -0.0001              !
 ! A5    A(1,3,4)              127.3017         -DE/DX =    0.0001              !
 ! A6    A(2,3,4)              112.9811         -DE/DX =    0.0                 !
 ! A7    A(3,4,6)              121.6699         -DE/DX =    0.0                 !
 ! A8    A(3,4,9)              116.0877         -DE/DX =    0.0001              !
 ! A9    A(6,4,9)              122.2424         -DE/DX =   -0.0001              !
 ! A10   A(2,5,7)              120.2539         -DE/DX =    0.0                 !
 ! A11   A(2,5,10)             116.51           -DE/DX =    0.0                 !
 ! A12   A(7,5,10)             123.2361         -DE/DX =    0.0                 !
 ! A13   A(4,6,7)              121.4464         -DE/DX =    0.0                 !
 ! A14   A(4,6,11)             119.4472         -DE/DX =   -0.0001              !
 ! A15   A(7,6,11)             119.1063         -DE/DX =    0.0                 !
 ! A16   A(5,7,6)              117.9267         -DE/DX =    0.0                 !
 ! A17   A(5,7,12)             120.2542         -DE/DX =    0.0                 !
 ! A18   A(6,7,12)             121.8192         -DE/DX =    0.0                 !
 ! D1    D(5,2,3,1)            180.0            -DE/DX =    0.0                 !
 ! D2    D(5,2,3,4)              0.0            -DE/DX =    0.0                 !
 ! D3    D(8,2,3,1)              0.0            -DE/DX =    0.0                 !
 ! D4    D(8,2,3,4)            180.0            -DE/DX =    0.0                 !
 ! D5    D(3,2,5,7)              0.0            -DE/DX =    0.0                 !
 ! D6    D(3,2,5,10)           180.0            -DE/DX =    0.0                 !
 ! D7    D(8,2,5,7)            180.0            -DE/DX =    0.0                 !
 ! D8    D(8,2,5,10)             0.0            -DE/DX =    0.0                 !
 ! D9    D(1,3,4,6)            180.0            -DE/DX =    0.0                 !
 ! D10   D(1,3,4,9)              0.0            -DE/DX =    0.0                 !
 ! D11   D(2,3,4,6)              0.0            -DE/DX =    0.0                 !
 ! D12   D(2,3,4,9)            180.0            -DE/DX =    0.0                 !
 ! D13   D(3,4,6,7)              0.0            -DE/DX =    0.0                 !
 ! D14   D(3,4,6,11)           180.0            -DE/DX =    0.0                 !
 ! D15   D(9,4,6,7)            180.0            -DE/DX =    0.0                 !
 ! D16   D(9,4,6,11)             0.0            -DE/DX =    0.0                 !
 ! D17   D(2,5,7,6)              0.0            -DE/DX =    0.0                 !
 ! D18   D(2,5,7,12)           180.0            -DE/DX =    0.0                 !
 ! D19   D(10,5,7,6)           180.0            -DE/DX =    0.0                 !
 ! D20   D(10,5,7,12)            0.0            -DE/DX =    0.0                 !
 ! D21   D(4,6,7,5)              0.0            -DE/DX =    0.0                 !
 ! D22   D(4,6,7,12)           180.0            -DE/DX =    0.0                 !
 ! D23   D(11,6,7,5)           180.0            -DE/DX =    0.0                 !
 ! D24   D(11,6,7,12)            0.0            -DE/DX =    0.0                 !
 --------------------------------------------------------------------------------
 GradGradGradGradGradGradGradGradGradGradGradGradGradGradGradGradGradGrad

 Leave Link  103 at Thu Aug 26 23:58:36 2021, MaxMem= 17179869184 cpu:        32.9
 (Enter /public3/home/sc51754/softwares/g09e01/l9999.exe)
 1\1\GINC-S2515\Freq\RSVWN\Gen\C5H5N1O1\SC51754\26-Aug-2021\0\\#P Geom=
 AllCheck Guess=TCheck SCRF=Check GenChk RSVWN/ChkBas Freq\\PY_SVWN_PC2
 _OPT_FREQ\\0,1\O,-0.1377192511,2.2689470093,0.\N,-1.126226188,0.228579
 4289,0.\C,0.0011713688,1.0550556053,0.\C,1.2324858081,0.3217906036,0.\
 C,-1.1139568539,-1.1168630807,0.\C,1.253715797,-1.0364117296,0.\C,0.06
 41039077,-1.7896728721,0.\H,-2.0073413913,0.7438319308,0.\H,2.14559822
 53,0.9179017428,0.\H,-2.0857925514,-1.6127326824,0.\H,2.2140313086,-1.
 5589436856,0.\H,0.0740328202,-2.8778742703,0.\\Version=EM64L-G09RevE.0
 1\State=1-A'\HF=-321.9005358\RMSD=5.449e-09\RMSF=8.884e-05\ZeroPoint=0
 .0916044\Thermal=0.0969712\Dipole=-0.4920191,-1.6386797,0.\DipoleDeriv
 =-0.4186441,0.2419418,0.,0.0691405,-1.6585409,0.,0.,0.,-0.4115615,-0.3
 133852,-0.4953682,0.,0.3546189,-0.7036476,0.,0.,0.,-0.180198,0.3943591
 ,-0.1474425,0.,-0.0563535,2.0099126,0.,0.,0.,0.2238825,-0.093749,0.479
 6236,0.,-0.0187559,-0.5249719,0.,0.,0.,-0.1575955,0.2781433,-0.027721,
 0.,-0.5585115,0.3513285,0.,0.,0.,-0.0353211,0.3120045,0.1891482,0.,0.1
 412586,0.4058888,0.,0.,0.,-0.0971567,-0.5063132,-0.1872859,0.,0.103806
 4,-0.1673016,0.,0.,0.,-0.1984622,0.2478849,-0.0370911,0.,-0.0134398,0.
 1464489,0.,0.,0.,0.2693034,0.0347974,-0.0223961,0.,-0.0377968,0.045125
 8,0.,0.,0.,0.1480504,0.0111804,-0.0415232,0.,-0.0292114,0.0476549,0.,0
 .,0.,0.1456996,-0.0223017,0.0638413,0.,0.0627556,0.0553755,0.,0.,0.,0.
 1284111,0.0760236,-0.015727,0.,-0.0175112,-0.007273,0.,0.,0.,0.1649479
 \Polar=75.1803454,0.0722952,91.7353654,0.,0.,38.2441647\PG=CS [SG(C5H5
 N1O1)]\NImag=0\\0.09337729,-0.06669766,0.75462737,0.,0.,0.03101025,0.0
 1263822,-0.03744560,0.,0.70720655,-0.06574795,-0.07346663,0.,-0.101203
 20,0.76341043,0.,0.,0.01928470,0.,0.,0.07733674,-0.10662447,0.07560326
 ,0.,-0.20289516,0.01251876,0.,0.55359302,0.07390945,-0.62664711,0.,-0.
 03324096,-0.13180044,0.,-0.10791121,0.90431407,0.,0.,-0.06962147,0.,0.
 ,-0.05995767,0.,0.,0.18971881,0.00325528,0.02936134,0.,-0.04690832,-0.
 01465763,0.,-0.22457505,0.06021860,0.,0.63596199,0.04945376,-0.0512230
 6,0.,-0.00590273,0.04281204,0.,0.03715857,-0.12607164,0.,0.05485889,0.
 76134225,0.,0.,0.02178145,0.,0.,0.00537842,0.,0.,-0.07520330,0.,0.,0.1
 1001795,-0.00926608,-0.00300304,0.,-0.13759517,-0.02102725,0.,0.032349
 62,-0.02116537,0.,-0.01160721,0.01943223,0.,0.79665418,0.01355529,-0.0
 0332302,0.,0.02297391,-0.35700461,0.,-0.07058665,-0.02863018,0.,0.0167
 8598,-0.02869103,0.,-0.01910348,0.68799441,0.,0.,0.00457275,0.,0.,-0.0
 4442070,0.,0.,-0.00180585,0.,0.,0.00022742,0.,0.,0.13004183,-0.0124286
 4,0.00567725,0.,-0.00445097,-0.02956975,0.,0.03309087,0.03272117,0.,-0
 .12026462,0.02521750,0.,-0.05870357,0.01344465,0.,0.66873488,-0.005641
 21,0.00988503,0.,-0.00460731,-0.03413762,0.,0.04522750,-0.02277588,0.,
 -0.01030268,-0.42560207,0.,-0.01943288,0.04404608,0.,-0.03105799,0.729
 57390,0.,0.,0.00344273,0.,0.,-0.00546840,0.,0.,0.00121633,0.,0.,-0.051
 91215,0.,0.,0.00820104,0.,0.,0.13246667,0.01046893,-0.00588761,0.,0.00
 753350,0.06329053,0.,-0.04557964,-0.00395753,0.,0.01920398,-0.04949955
 ,0.,-0.34352733,0.10889234,0.,-0.25095394,-0.06437073,0.,0.67914494,-0
 .00274650,-0.00392179,0.,0.03777720,-0.04470185,0.,0.00858280,0.004277
 81,0.,-0.03184456,-0.02826386,0.,0.14481194,-0.18191137,0.,-0.10831950
 ,-0.16629428,0.,-0.04896253,0.74202876,0.,0.,-0.00008953,0.,0.,0.01238
 578,0.,0.,-0.00816171,0.,0.,0.00716708,0.,0.,-0.06083933,0.,0.,-0.0577
 4139,0.,0.,0.10908601,0.00527747,0.00143193,0.,-0.33107233,0.15089539,
 0.,-0.02522316,0.01742147,0.,-0.00388515,-0.00363659,0.,0.00619494,-0.
 00062898,0.,-0.00098692,-0.00263282,0.,0.00460709,-0.00237771,0.,0.344
 81020,0.00559519,-0.00226050,0.,0.14834015,-0.14557118,0.,-0.01656268,
 0.02012307,0.,-0.00275354,-0.00332932,0.,0.02990992,-0.01391695,0.,0.0
 0022772,0.00082191,0.,-0.00409455,-0.00493954,0.,-0.16063226,0.1480772
 4,0.,0.,-0.00475382,0.,0.,-0.01795411,0.,0.,0.00417557,0.,0.,0.0039247
 9,0.,0.,-0.00488571,0.,0.,-0.00052910,0.,0.,0.00543308,0.,0.,0.0168006
 2,0.00302811,0.00061257,0.,-0.00467450,0.00259453,0.,-0.01680664,-0.01
 832296,0.,-0.25011804,-0.12538516,0.,-0.00007068,0.00229432,0.,0.00508
 501,0.00275487,0.,0.00244365,0.00099812,0.,-0.00094776,-0.00087009,0.,
 0.26114578,-0.00203996,0.00023187,0.,0.00336319,-0.00128367,0.,0.01305
 963,0.01071068,0.,-0.12678828,-0.13002765,0.,0.00057092,-0.00076744,0.
 ,-0.02507184,-0.01167157,0.,0.00175392,-0.00433378,0.,0.00082473,0.000
 59215,0.,0.13551207,0.13582032,0.,0.,-0.00232495,0.,0.,0.00439794,0.,0
 .,0.00312101,0.,0.,-0.03162260,0.,0.,-0.00064743,0.,0.,0.00235054,0.,0
 .,0.00894377,0.,0.,-0.00042834,0.,0.,0.02226042,-0.00026014,-0.0001070
 8,0.,0.00410499,0.00150924,0.,0.00264970,0.00178898,0.,0.00047929,0.00
 081579,0.,-0.27454295,-0.11082213,0.,-0.00331724,0.00384556,0.,-0.0150
 0845,-0.01346546,0.,0.00099423,-0.00030596,0.,-0.00002907,-0.00009892,
 0.,0.28499837,-0.00143880,-0.00270282,0.,-0.03278157,-0.01962577,0.,0.
 00625527,-0.00004828,0.,-0.00015614,0.00005121,0.,-0.10490276,-0.10594
 548,0.,0.00263499,-0.00132650,0.,0.01300493,0.01161137,0.,-0.00035479,
 0.00071638,0.,-0.00009078,0.00005916,0.,0.11753464,0.11623482,0.,0.,-0
 .00039397,0.,0.,0.00239960,0.,0.,0.00543706,0.,0.,0.00000506,0.,0.,-0.
 03373611,0.,0.,0.00714100,0.,0.,0.00575877,0.,0.,-0.00261086,0.,0.,-0.
 00122242,0.,0.,0.02194135,-0.00016682,0.00050854,0.,0.00096697,-0.0007
 7637,0.,0.00178750,-0.00135391,0.,0.00265693,-0.00070990,0.,-0.0035087
 3,-0.00367322,0.,-0.26020024,0.11194520,0.,-0.01713688,0.01326339,0.,-
 0.00000196,0.00005445,0.,0.00078604,0.00002275,0.,-0.00087191,0.000704
 22,0.,0.27467374,0.00169910,-0.00132191,0.,0.00013740,-0.00030919,0.,-
 0.00289795,-0.00381221,0.,0.02774348,-0.01154513,0.,-0.00326096,-0.001
 11709,0.,0.11180891,-0.11273436,0.,-0.01474223,0.01037657,0.,0.0000219
 2,-0.00001791,0.,-0.00034278,0.00111998,0.,-0.00074801,0.00048806,0.,-
 0.12004750,0.11827277,0.,0.,-0.00238350,0.,0.,-0.00059722,0.,0.,0.0114
 3651,0.,0.,0.00622476,0.,0.,0.00454521,0.,0.,-0.03883348,0.,0.,0.00384
 510,0.,0.,-0.00079921,0.,0.,-0.00536201,0.,0.,-0.00034142,0.,0.,0.0244
 3347,0.00070086,-0.00005389,0.,-0.00485378,0.00217368,0.,-0.00176658,-
 0.00010772,0.,-0.00419909,-0.00180282,0.,0.00362299,0.02686797,0.,0.00
 439539,-0.02572750,0.,-0.05119585,0.00228281,0.,0.00023335,0.00109165,
 0.,0.00015809,-0.00110822,0.,0.00080320,-0.00040920,0.,0.00101537,0.00
 062862,0.,0.05108605,0.00009929,0.00012258,0.,0.00258952,0.00167848,0.
 ,-0.00044729,0.00036011,0.,-0.00246545,0.00054826,0.,-0.00282927,-0.01
 073332,0.,0.00228689,-0.00978464,0.,0.00457301,-0.33392804,0.,-0.00033
 229,-0.00029535,0.,0.00024528,-0.00045007,0.,0.00005335,0.00048786,0.,
 0.00006236,0.00060041,0.,-0.00383539,0.35139371,0.,0.,-0.00052464,0.,0
 .,0.00721491,0.,0.,-0.00035529,0.,0.,0.00401111,0.,0.,-0.00125312,0.,0
 .,-0.00033379,0.,0.,-0.02578765,0.,0.,0.00162709,0.,0.,0.00053407,0.,0
 .,-0.00437806,0.,0.,-0.00216820,0.,0.,0.02141358\\0.00005052,0.0000895
 3,0.,0.00031201,0.00010406,0.,-0.00015813,-0.00015714,0.,-0.00008395,-
 0.00016084,0.,0.00006634,-0.00000733,0.,-0.00002359,0.00005777,0.,-0.0
 0004203,0.00011557,0.,-0.00015148,-0.00000111,0.,0.00005145,0.00010213
 ,0.,-0.00009280,0.00001016,0.,0.00004807,-0.00007169,0.,0.00002360,-0.
 00008109,0.\\\@


 UNDER MOST GREENE GRASSE LY MOST GREATE SNAKES.
 -- PROVERBS AND REASONS OF THE YEAR 1585
           AS REPRINTED IN PAISLEY MAGAZINE 1828.
 Job cpu time:       0 days  0 hours 30 minutes  1.9 seconds.
 File lengths (MBytes):  RWF=     80 Int=      0 D2E=      0 Chk=      7 Scr=      1
 Normal termination of Gaussian 09 at Thu Aug 26 23:58:36 2021.
