 Entering Gaussian System, Link 0=g09
 AtFile(1): pc-2.gbs
            -H     0
            S    4   1.00
                  0.754230D+02           0.240650D-02
                  0.113500D+02           0.184870D-01
                  0.259930D+01           0.897420D-01
                  0.735130D+00           0.281110D+00
            S    1   1.00
                  0.231670D+00           0.100000D+01
            S    1   1.00
                  0.741470D-01           0.100000D+01
            P    1   1.00
                  0.160000D+01           0.100000D+01
            P    1   1.00
                  0.450000D+00           0.100000D+01
            D    1   1.00
                  0.125000D+01           0.100000D+01
            ****
            -C     0
            S    7   1.00
                  0.785710D+04           0.568250D-03
                  0.117870D+04           0.439150D-02
                  0.268320D+03           0.225040D-01
                  0.759480D+02           0.866530D-01
                  0.245590D+02           0.244050D+00
                  0.862120D+01           0.441480D+00
                  0.312780D+01           0.353320D+00
            S    7   1.00
                  0.117870D+04          -0.594920D-06
                  0.268320D+03          -0.627480D-04
                  0.759480D+02          -0.757730D-03
                  0.245590D+02          -0.733080D-02
                  0.862120D+01          -0.389320D-01
                  0.312780D+01          -0.889080D-01
                  0.822020D+00           0.216890D+00
            S    1   1.00
                  0.330170D+00           0.100000D+01
            S    1   1.00
                  0.114630D+00           0.100000D+01
            P    4   1.00
                  0.337750D+02           0.602940D-02
                  0.767660D+01           0.432280D-01
                  0.223570D+01           0.163010D+00
                  0.764470D+00           0.365040D+00
            P    1   1.00
                  0.262320D+00           0.100000D+01
            P    1   1.00
                  0.846380D-01           0.100000D+01
            D    1   1.00
                  0.140000D+01           0.100000D+01
            D    1   1.00
                  0.450000D+00           0.100000D+01
            F    1   1.00
                  0.950000D+00           0.100000D+01
            ****
            -N     0
            S    7   1.00
                  0.111010D+05           0.545700D-03
                  0.166530D+04           0.421810D-02
                  0.379080D+03           0.216450D-01
                  0.107300D+03           0.837760D-01
                  0.347470D+02           0.238810D+00
                  0.122490D+02           0.439940D+00
                  0.447430D+01           0.363640D+00
            S    7   1.00
                  0.166530D+04          -0.150060D-05
                  0.379080D+03          -0.587530D-04
                  0.107300D+03          -0.774530D-03
                  0.347470D+02          -0.721610D-02
                  0.122490D+02          -0.393380D-01
                  0.447430D+01          -0.906110D-01
                  0.124040D+01           0.198820D+00
            S    1   1.00
                  0.487430D+00           0.100000D+01
            S    1   1.00
                  0.164840D+00           0.100000D+01
            P    4   1.00
                  0.479340D+02           0.617060D-02
                  0.109990D+02           0.442600D-01
                  0.324720D+01           0.168250D+00
                  0.111140D+01           0.368480D+00
            P    1   1.00
                  0.379880D+00           0.100000D+01
            P    1   1.00
                  0.120680D+00           0.100000D+01
            D    1   1.00
                  0.180000D+01           0.100000D+01
            D    1   1.00
                  0.550000D+00           0.100000D+01
            F    1   1.00
                  0.102000D+01           0.100000D+01
            ****
            -O     0
            S    7   1.00
                  0.147820D+05           0.535190D-03
                  0.221730D+04           0.413750D-02
                  0.504740D+03           0.212450D-01
                  0.142870D+03           0.824530D-01
                  0.463000D+02           0.236710D+00
                  0.163370D+02           0.440390D+00
                  0.598280D+01           0.364650D+00
            S    7   1.00
                  0.221730D+04          -0.192750D-05
                  0.504740D+03          -0.579640D-04
                  0.142870D+03          -0.794940D-03
                  0.463000D+02          -0.731250D-02
                  0.163370D+02          -0.405740D-01
                  0.598280D+01          -0.915940D-01
                  0.167180D+01           0.209400D+00
            S    1   1.00
                  0.646620D+00           0.100000D+01
            S    1   1.00
                  0.216690D+00           0.100000D+01
            P    4   1.00
                  0.604240D+02           0.689490D-02
                  0.139350D+02           0.490050D-01
                  0.415310D+01           0.182550D+00
                  0.141580D+01           0.376330D+00
            P    1   1.00
                  0.475490D+00           0.100000D+01
            P    1   1.00
                  0.145290D+00           0.100000D+01
            D    1   1.00
                  0.220000D+01           0.100000D+01
            D    1   1.00
                  0.650000D+00           0.100000D+01
            F    1   1.00
                  0.110000D+01           0.100000D+01
            ****
 Initial command:
 /public3/home/sc51754/softwares/g09e01/l1.exe "./Gau-57587.inp" -scrdir="./"
 Entering Link 1 = /public3/home/sc51754/softwares/g09e01/l1.exe PID=     57588.
  
 Copyright (c) 1988,1990,1992,1993,1995,1998,2003,2009,2015,
            Gaussian, Inc.  All Rights Reserved.
  
 This is part of the Gaussian(R) 09 program.  It is based on
 the Gaussian(R) 03 system (copyright 2003, Gaussian, Inc.),
 the Gaussian(R) 98 system (copyright 1998, Gaussian, Inc.),
 the Gaussian(R) 94 system (copyright 1995, Gaussian, Inc.),
 the Gaussian 92(TM) system (copyright 1992, Gaussian, Inc.),
 the Gaussian 90(TM) system (copyright 1990, Gaussian, Inc.),
 the Gaussian 88(TM) system (copyright 1988, Gaussian, Inc.),
 the Gaussian 86(TM) system (copyright 1986, Carnegie Mellon
 University), and the Gaussian 82(TM) system (copyright 1983,
 Carnegie Mellon University). Gaussian is a federally registered
 trademark of Gaussian, Inc.
  
 This software contains proprietary and confidential information,
 including trade secrets, belonging to Gaussian, Inc.
  
 This software is provided under written license and may be
 used, copied, transmitted, or stored only in accord with that
 written license.
  
 The following legend is applicable only to US Government
 contracts under FAR:
  
                    RESTRICTED RIGHTS LEGEND
  
 Use, reproduction and disclosure by the US Government is
 subject to restrictions as set forth in subparagraphs (a)
 and (c) of the Commercial Computer Software - Restricted
 Rights clause in FAR 52.227-19.
  
 Gaussian, Inc.
 340 Quinnipiac St., Bldg. 40, Wallingford CT 06492
  
  
 ---------------------------------------------------------------
 Warning -- This program may not be used in any manner that
 competes with the business of Gaussian, Inc. or will provide
 assistance to any competitor of Gaussian, Inc.  The licensee
 of this program is prohibited from giving any competitor of
 Gaussian, Inc. access to this program.  By using this program,
 the user acknowledges that Gaussian, Inc. is engaged in the
 business of creating and licensing software in the field of
 computational chemistry and represents and warrants to the
 licensee that it is not a competitor of Gaussian, Inc. and that
 it will not use this program in any manner prohibited above.
 ---------------------------------------------------------------
  

 Cite this work as:
 Gaussian 09, Revision E.01,
 M. J. Frisch, G. W. Trucks, H. B. Schlegel, G. E. Scuseria, 
 M. A. Robb, J. R. Cheeseman, G. Scalmani, V. Barone, B. Mennucci, 
 G. A. Petersson, H. Nakatsuji, M. Caricato, X. Li, H. P. Hratchian, 
 A. F. Izmaylov, J. Bloino, G. Zheng, J. L. Sonnenberg, M. Hada, 
 M. Ehara, K. Toyota, R. Fukuda, J. Hasegawa, M. Ishida, T. Nakajima, 
 Y. Honda, O. Kitao, H. Nakai, T. Vreven, J. A. Montgomery, Jr., 
 J. E. Peralta, F. Ogliaro, M. Bearpark, J. J. Heyd, E. Brothers, 
 K. N. Kudin, V. N. Staroverov, T. Keith, R. Kobayashi, J. Normand, 
 K. Raghavachari, A. Rendell, J. C. Burant, S. S. Iyengar, J. Tomasi, 
 M. Cossi, N. Rega, J. M. Millam, M. Klene, J. E. Knox, J. B. Cross, 
 V. Bakken, C. Adamo, J. Jaramillo, R. Gomperts, R. E. Stratmann, 
 O. Yazyev, A. J. Austin, R. Cammi, C. Pomelli, J. W. Ochterski, 
 R. L. Martin, K. Morokuma, V. G. Zakrzewski, G. A. Voth, 
 P. Salvador, J. J. Dannenberg, S. Dapprich, A. D. Daniels, 
 O. Farkas, J. B. Foresman, J. V. Ortiz, J. Cioslowski, 
 and D. J. Fox, Gaussian, Inc., Wallingford CT, 2013.
 
 ******************************************
 Gaussian 09:  EM64L-G09RevE.01 30-Nov-2015
                28-Aug-2021 
 ******************************************
 %nprocshared=64
 Will use up to   64 processors via shared memory.
 %mem=128GB
 %chk=TST_GAS_SVWN.chk
 -----------------------------------------------
 #p opt=(calcfc,qst3,MaxCycle=200) freq SVWN/gen
 -----------------------------------------------
 1/5=1,6=200,10=4,14=-1,18=20,26=3,27=203,38=1/1,3;
 2/9=110,12=2,17=6,18=5,40=1/2;
 3/5=7,11=2,16=1,25=1,30=1,71=2,74=205,140=1/1,2,3;
 4//1;
 5/5=2,38=5/2;
 8/6=4,10=90,11=11/1;
 11/6=1,8=1,9=11,15=111,16=1/1,2,10;
 10/6=1,13=1/2;
 6/7=2,8=2,9=2,10=2,28=1/1;
 7/10=1,18=20,25=1/1,2,3,16;
 1/5=1,6=200,10=4,14=-1,18=20,26=3,27=203/3(2);
 2/9=110/2;
 99//99;
 2/9=110/2;
 3/5=7,6=1,11=2,16=1,25=1,30=1,71=1,74=205,82=7/1,2,3;
 4/5=5,16=3,69=1/1;
 5/5=2,38=5/2;
 7//1,2,3,16;
 1/5=1,6=200,14=-1,18=20,26=3,27=203/3(-5);
 2/9=110/2;
 6/7=2,8=2,9=2,10=2,19=2,28=1/1;
 99/9=1/99;
 Leave Link    1 at Sat Aug 28 00:50:25 2021, MaxMem= 17179869184 cpu:         4.7
 (Enter /public3/home/sc51754/softwares/g09e01/l101.exe)
 --------------------
 HY_SVWN_PC2_OPT_FREQ
 --------------------
 Symbolic Z-matrix:
 Charge =  0 Multiplicity = 1
 O                    -0.01506   2.23653   0. 
 N                    -1.16725   0.28787   0. 
 C                     0.        0.90096   0. 
 C                     1.22053   0.23459   0. 
 C                    -1.17814  -1.03998   0. 
 C                     1.19085  -1.14076   0. 
 C                    -0.02863  -1.80207   0. 
 H                    -0.96247   2.48329   0. 
 H                     2.15117   0.80285   0. 
 H                    -2.16491  -1.51404   0. 
 H                     2.12588  -1.7051    0. 
 H                    -0.08616  -2.89079   0. 
 
 --------------------
 PY_SVWN_PC2_OPT_FREQ
 --------------------
 Symbolic Z-matrix:
 Charge =  0 Multiplicity = 1
 O                    -0.14069   2.2694    0. 
 N                    -1.12617   0.22757   0. 
 C                     0.        1.05571   0. 
 C                     1.2324    0.32427   0. 
 C                    -1.11191  -1.11786   0. 
 C                     1.25564  -1.0339    0. 
 C                     0.06715  -1.78892   0. 
 H                    -2.00805   0.74151   0. 
 H                     2.14463   0.92174   0. 
 H                    -2.08301  -1.61517   0. 
 H                     2.21673  -1.555     0. 
 H                     0.07869  -2.87711   0. 
 
 ------------
 TST_GAS_SVWN
 ------------
 Symbolic Z-matrix:
 Charge =  0 Multiplicity = 1
 O                     0.22305   2.57488   0. 
 N                    -0.92914   0.62622   0. 
 C                     0.23811   1.23931   0. 
 C                     1.45864   0.57294   0. 
 C                    -0.94003  -0.70163   0. 
 C                     1.42896  -0.80241   0. 
 C                     0.20948  -1.46372   0. 
 H                    -1.20058   2.14494   0. 
 H                     2.38928   1.1412    0. 
 H                    -1.9268   -1.17569   0. 
 H                     2.36399  -1.36675   0. 
 H                     0.15195  -2.55244   0. 
 
 NAtoms=     12 NQM=       12 NQMF=       0 NMMI=      0 NMMIF=      0
                NMic=       0 NMicF=      0.
                    Isotopes and Nuclear Properties:
 (Nuclear quadrupole moments (NQMom) in fm**2, nuclear magnetic moments (NMagM)
  in nuclear magnetons)

  Atom         1           2           3           4           5           6           7           8           9          10
 IAtWgt=          16          14          12          12          12          12          12           1           1           1
 AtmWgt=  15.9949146  14.0030740  12.0000000  12.0000000  12.0000000  12.0000000  12.0000000   1.0078250   1.0078250   1.0078250
 NucSpn=           0           2           0           0           0           0           0           1           1           1
 AtZEff=   0.0000000   0.0000000   0.0000000   0.0000000   0.0000000   0.0000000   0.0000000   0.0000000   0.0000000   0.0000000
 NQMom=    0.0000000   2.0440000   0.0000000   0.0000000   0.0000000   0.0000000   0.0000000   0.0000000   0.0000000   0.0000000
 NMagM=    0.0000000   0.4037610   0.0000000   0.0000000   0.0000000   0.0000000   0.0000000   2.7928460   2.7928460   2.7928460
 AtZNuc=   8.0000000   7.0000000   6.0000000   6.0000000   6.0000000   6.0000000   6.0000000   1.0000000   1.0000000   1.0000000

  Atom        11          12
 IAtWgt=           1           1
 AtmWgt=   1.0078250   1.0078250
 NucSpn=           1           1
 AtZEff=   0.0000000   0.0000000
 NQMom=    0.0000000   0.0000000
 NMagM=    2.7928460   2.7928460
 AtZNuc=   1.0000000   1.0000000
 Leave Link  101 at Sat Aug 28 00:50:29 2021, MaxMem= 17179869184 cpu:        33.1
 (Enter /public3/home/sc51754/softwares/g09e01/l103.exe)

 GradGradGradGradGradGradGradGradGradGradGradGradGradGradGradGradGradGrad
 Berny optimization.
 Initialization pass.
                           ----------------------------
                           !    Initial Parameters    !
                           ! (Angstroms and Degrees)  !
 --------------------------                            --------------------------
 ! Name  Definition        TS        Reactant  Product Derivative Info.         !
 --------------------------------------------------------------------------------
 ! R1    R(1,3)             1.3357    1.3357    1.2218 calculate D2E/DX2 analyti!
 ! R2    R(1,8)             1.4871    0.979     2.4128 calculate D2E/DX2 analyti!
 ! R3    R(2,3)             1.3185    1.3185    1.3979 calculate D2E/DX2 analyti!
 ! R4    R(2,5)             1.3279    1.3279    1.3455 calculate D2E/DX2 analyti!
 ! R5    R(2,8)             1.5428    2.205     1.0207 calculate D2E/DX2 analyti!
 ! R6    R(3,4)             1.3906    1.3906    1.4331 calculate D2E/DX2 analyti!
 ! R7    R(4,6)             1.3757    1.3757    1.3584 calculate D2E/DX2 analyti!
 ! R8    R(4,9)             1.0904    1.0904    1.0905 calculate D2E/DX2 analyti!
 ! R9    R(5,7)             1.3792    1.3792    1.3567 calculate D2E/DX2 analyti!
 ! R10   R(5,10)            1.0947    1.0947    1.091  calculate D2E/DX2 analyti!
 ! R11   R(6,7)             1.3873    1.3873    1.408  calculate D2E/DX2 analyti!
 ! R12   R(6,11)            1.0921    1.0921    1.0933 calculate D2E/DX2 analyti!
 ! R13   R(7,12)            1.0902    1.0902    1.0882 calculate D2E/DX2 analyti!
 ! A1    A(3,1,8)          73.8414  105.2444   57.322  calculate D2E/DX2 analyti!
 ! A2    A(3,2,5)         118.1804  118.1804  125.7221 calculate D2E/DX2 analyti!
 ! A3    A(3,2,8)          72.4231   56.9607  113.4375 calculate D2E/DX2 analyti!
 ! A4    A(5,2,8)         169.3966  175.1411  120.8404 calculate D2E/DX2 analyti!
 ! A5    A(1,3,2)         117.0645  117.0645  119.7173 calculate D2E/DX2 analyti!
 ! A6    A(1,3,4)         119.2789  119.2789  127.3017 calculate D2E/DX2 analyti!
 ! A7    A(2,3,4)         123.6566  123.6566  112.9811 calculate D2E/DX2 analyti!
 ! A8    A(3,4,6)         117.3968  117.3968  121.6699 calculate D2E/DX2 analyti!
 ! A9    A(3,4,9)         119.9581  119.9581  116.0877 calculate D2E/DX2 analyti!
 ! A10   A(6,4,9)         122.645   122.645   122.2423 calculate D2E/DX2 analyti!
 ! A11   A(2,5,7)         123.0732  123.0732  120.2539 calculate D2E/DX2 analyti!
 ! A12   A(2,5,10)        116.13    116.13    116.51   calculate D2E/DX2 analyti!
 ! A13   A(7,5,10)        120.7969  120.7969  123.2361 calculate D2E/DX2 analyti!
 ! A14   A(4,6,7)         119.7065  119.7065  121.4464 calculate D2E/DX2 analyti!
 ! A15   A(4,6,11)        119.8769  119.8769  119.4473 calculate D2E/DX2 analyti!
 ! A16   A(7,6,11)        120.4166  120.4166  119.1063 calculate D2E/DX2 analyti!
 ! A17   A(5,7,6)         117.9866  117.9866  117.9267 calculate D2E/DX2 analyti!
 ! A18   A(5,7,12)        120.5186  120.5186  120.2541 calculate D2E/DX2 analyti!
 ! A19   A(6,7,12)        121.4948  121.4948  121.8192 calculate D2E/DX2 analyti!
 ! D1    D(8,1,3,2)         0.0       0.0       0.0    calculate D2E/DX2 analyti!
 ! D2    D(8,1,3,4)       180.0     180.0     180.0    calculate D2E/DX2 analyti!
 ! D3    D(5,2,3,1)       180.0     180.0     180.0    calculate D2E/DX2 analyti!
 ! D4    D(5,2,3,4)         0.0       0.0       0.0    calculate D2E/DX2 analyti!
 ! D5    D(8,2,3,1)         0.0       0.0       0.0    calculate D2E/DX2 analyti!
 ! D6    D(8,2,3,4)       180.0     180.0     180.0    calculate D2E/DX2 analyti!
 ! D7    D(3,2,5,7)         0.0       0.0       0.0    calculate D2E/DX2 analyti!
 ! D8    D(3,2,5,10)      180.0     180.0     180.0    calculate D2E/DX2 analyti!
 ! D9    D(8,2,5,7)       180.0       0.0     180.0    calculate D2E/DX2 analyti!
 ! D10   D(8,2,5,10)        0.0     180.0       0.0    calculate D2E/DX2 analyti!
 ! D11   D(1,3,4,6)       180.0     180.0     180.0    calculate D2E/DX2 analyti!
 ! D12   D(1,3,4,9)         0.0       0.0       0.0    calculate D2E/DX2 analyti!
 ! D13   D(2,3,4,6)         0.0       0.0       0.0    calculate D2E/DX2 analyti!
 ! D14   D(2,3,4,9)       180.0     180.0     180.0    calculate D2E/DX2 analyti!
 ! D15   D(3,4,6,7)         0.0       0.0       0.0    calculate D2E/DX2 analyti!
 ! D16   D(3,4,6,11)      180.0     180.0     180.0    calculate D2E/DX2 analyti!
 ! D17   D(9,4,6,7)       180.0     180.0     180.0    calculate D2E/DX2 analyti!
 ! D18   D(9,4,6,11)        0.0       0.0       0.0    calculate D2E/DX2 analyti!
 ! D19   D(2,5,7,6)         0.0       0.0       0.0    calculate D2E/DX2 analyti!
 ! D20   D(2,5,7,12)      180.0     180.0     180.0    calculate D2E/DX2 analyti!
 ! D21   D(10,5,7,6)      180.0     180.0     180.0    calculate D2E/DX2 analyti!
 ! D22   D(10,5,7,12)       0.0       0.0       0.0    calculate D2E/DX2 analyti!
 ! D23   D(4,6,7,5)         0.0       0.0       0.0    calculate D2E/DX2 analyti!
 ! D24   D(4,6,7,12)      180.0     180.0     180.0    calculate D2E/DX2 analyti!
 ! D25   D(11,6,7,5)      180.0     180.0     180.0    calculate D2E/DX2 analyti!
 ! D26   D(11,6,7,12)       0.0       0.0       0.0    calculate D2E/DX2 analyti!
 --------------------------------------------------------------------------------
 Trust Radius=3.00D-01 FncErr=1.00D-07 GrdErr=1.00D-06
 Number of steps in this run=    100 maximum allowed number of steps=    100.
 Search for a saddle point of order  1.
 GradGradGradGradGradGradGradGradGradGradGradGradGradGradGradGradGradGrad

 Leave Link  103 at Sat Aug 28 00:50:29 2021, MaxMem= 17179869184 cpu:         2.5
 (Enter /public3/home/sc51754/softwares/g09e01/l202.exe)
                          Input orientation:                          
 ---------------------------------------------------------------------
 Center     Atomic      Atomic             Coordinates (Angstroms)
 Number     Number       Type             X           Y           Z
 ---------------------------------------------------------------------
      1          8           0        0.223052    2.574883    0.000000
      2          7           0       -0.929141    0.626219    0.000000
      3          6           0        0.238109    1.239310    0.000000
      4          6           0        1.458642    0.572941    0.000000
      5          6           0       -0.940032   -0.701632    0.000000
      6          6           0        1.428963   -0.802411    0.000000
      7          6           0        0.209477   -1.463719    0.000000
      8          1           0       -1.200582    2.144940    0.000000
      9          1           0        2.389280    1.141202    0.000000
     10          1           0       -1.926801   -1.175685    0.000000
     11          1           0        2.363991   -1.366747    0.000000
     12          1           0        0.151953   -2.552438    0.000000
 ---------------------------------------------------------------------
                    Distance matrix (angstroms):
                    1          2          3          4          5
     1  O    0.000000
     2  N    2.263811   0.000000
     3  C    1.335658   1.318466   0.000000
     4  C    2.352542   2.388377   1.390593   0.000000
     5  C    3.476825   1.327896   2.270522   2.716279   0.000000
     6  C    3.586131   2.757107   2.363632   1.375672   2.371138
     7  C    4.038625   2.379977   2.703181   2.389225   1.379184
     8  H    1.487140   1.542788   1.700000   3.089119   2.858472
     9  H    2.597688   3.358143   2.153407   1.090416   3.805306
    10  H    4.323035   2.059656   3.243306   3.810370   1.094733
    11  H    4.485540   3.849238   3.363169   2.140572   3.370304
    12  H    5.127814   3.357473   3.792727   3.387540   2.148933
                    6          7          8          9         10
     6  C    0.000000
     7  C    1.387254   0.000000
     8  H    3.949859   3.874363   0.000000
     9  H    2.167911   3.396639   3.727547   0.000000
    10  H    3.376460   2.155608   3.399109   4.898624   0.000000
    11  H    1.092132   2.156695   5.003812   2.508076   4.295044
    12  H    2.166414   1.090238   4.888222   4.318403   2.493324
                   11         12
    11  H    0.000000
    12  H    2.509776   0.000000
 Stoichiometry    C5H5NO
 Framework group  CS[SG(C5H5NO)]
 Deg. of freedom    21
 Full point group                 CS      NOp   2
 Largest Abelian subgroup         CS      NOp   2
 Largest concise Abelian subgroup C1      NOp   1
                         Standard orientation:                         
 ---------------------------------------------------------------------
 Center     Atomic      Atomic             Coordinates (Angstroms)
 Number     Number       Type             X           Y           Z
 ---------------------------------------------------------------------
      1          8           0       -0.028966    2.249887    0.000000
      2          7           0       -1.160802    0.289329    0.000000
      3          6           0       -0.000000    0.914544    0.000000
      4          6           0        1.227407    0.260922    0.000000
      5          6           0       -1.157863   -1.038563    0.000000
      6          6           0        1.212053   -1.114665    0.000000
      7          6           0       -0.000480   -1.788637    0.000000
      8          1           0       -1.448045    1.805141    0.000000
      9          1           0        2.152076    0.838844    0.000000
     10          1           0       -2.139642   -1.522867    0.000000
     11          1           0        2.152908   -1.669232    0.000000
     12          1           0       -0.046662   -2.877896    0.000000
 ---------------------------------------------------------------------
 Rotational constants (GHZ):      5.8426190      2.8577921      1.9191036
 Leave Link  202 at Sat Aug 28 00:50:30 2021, MaxMem= 17179869184 cpu:        13.7
 (Enter /public3/home/sc51754/softwares/g09e01/l301.exe)
 General basis read from cards:  (5D, 7F)
 Centers:       8      9     10     11     12
 S 4 1.00
     Exponent=  7.5423000000D+01 Coefficients=  2.4065000000D-03
     Exponent=  1.1350000000D+01 Coefficients=  1.8487000000D-02
     Exponent=  2.5993000000D+00 Coefficients=  8.9742000000D-02
     Exponent=  7.3513000000D-01 Coefficients=  2.8111000000D-01
 S 1 1.00
     Exponent=  2.3167000000D-01 Coefficients=  1.0000000000D+00
 S 1 1.00
     Exponent=  7.4147000000D-02 Coefficients=  1.0000000000D+00
 P 1 1.00
     Exponent=  1.6000000000D+00 Coefficients=  1.0000000000D+00
 P 1 1.00
     Exponent=  4.5000000000D-01 Coefficients=  1.0000000000D+00
 D 1 1.00
     Exponent=  1.2500000000D+00 Coefficients=  1.0000000000D+00
 ****
 Centers:       3      4      5      6      7
 S 7 1.00
     Exponent=  7.8571000000D+03 Coefficients=  5.6825000000D-04
     Exponent=  1.1787000000D+03 Coefficients=  4.3915000000D-03
     Exponent=  2.6832000000D+02 Coefficients=  2.2504000000D-02
     Exponent=  7.5948000000D+01 Coefficients=  8.6653000000D-02
     Exponent=  2.4559000000D+01 Coefficients=  2.4405000000D-01
     Exponent=  8.6212000000D+00 Coefficients=  4.4148000000D-01
     Exponent=  3.1278000000D+00 Coefficients=  3.5332000000D-01
 S 7 1.00
     Exponent=  1.1787000000D+03 Coefficients= -5.9492000000D-07
     Exponent=  2.6832000000D+02 Coefficients= -6.2748000000D-05
     Exponent=  7.5948000000D+01 Coefficients= -7.5773000000D-04
     Exponent=  2.4559000000D+01 Coefficients= -7.3308000000D-03
     Exponent=  8.6212000000D+00 Coefficients= -3.8932000000D-02
     Exponent=  3.1278000000D+00 Coefficients= -8.8908000000D-02
     Exponent=  8.2202000000D-01 Coefficients=  2.1689000000D-01
 S 1 1.00
     Exponent=  3.3017000000D-01 Coefficients=  1.0000000000D+00
 S 1 1.00
     Exponent=  1.1463000000D-01 Coefficients=  1.0000000000D+00
 P 4 1.00
     Exponent=  3.3775000000D+01 Coefficients=  6.0294000000D-03
     Exponent=  7.6766000000D+00 Coefficients=  4.3228000000D-02
     Exponent=  2.2357000000D+00 Coefficients=  1.6301000000D-01
     Exponent=  7.6447000000D-01 Coefficients=  3.6504000000D-01
 P 1 1.00
     Exponent=  2.6232000000D-01 Coefficients=  1.0000000000D+00
 P 1 1.00
     Exponent=  8.4638000000D-02 Coefficients=  1.0000000000D+00
 D 1 1.00
     Exponent=  1.4000000000D+00 Coefficients=  1.0000000000D+00
 D 1 1.00
     Exponent=  4.5000000000D-01 Coefficients=  1.0000000000D+00
 F 1 1.00
     Exponent=  9.5000000000D-01 Coefficients=  1.0000000000D+00
 ****
 Centers:       2
 S 7 1.00
     Exponent=  1.1101000000D+04 Coefficients=  5.4570000000D-04
     Exponent=  1.6653000000D+03 Coefficients=  4.2181000000D-03
     Exponent=  3.7908000000D+02 Coefficients=  2.1645000000D-02
     Exponent=  1.0730000000D+02 Coefficients=  8.3776000000D-02
     Exponent=  3.4747000000D+01 Coefficients=  2.3881000000D-01
     Exponent=  1.2249000000D+01 Coefficients=  4.3994000000D-01
     Exponent=  4.4743000000D+00 Coefficients=  3.6364000000D-01
 S 7 1.00
     Exponent=  1.6653000000D+03 Coefficients= -1.5006000000D-06
     Exponent=  3.7908000000D+02 Coefficients= -5.8753000000D-05
     Exponent=  1.0730000000D+02 Coefficients= -7.7453000000D-04
     Exponent=  3.4747000000D+01 Coefficients= -7.2161000000D-03
     Exponent=  1.2249000000D+01 Coefficients= -3.9338000000D-02
     Exponent=  4.4743000000D+00 Coefficients= -9.0611000000D-02
     Exponent=  1.2404000000D+00 Coefficients=  1.9882000000D-01
 S 1 1.00
     Exponent=  4.8743000000D-01 Coefficients=  1.0000000000D+00
 S 1 1.00
     Exponent=  1.6484000000D-01 Coefficients=  1.0000000000D+00
 P 4 1.00
     Exponent=  4.7934000000D+01 Coefficients=  6.1706000000D-03
     Exponent=  1.0999000000D+01 Coefficients=  4.4260000000D-02
     Exponent=  3.2472000000D+00 Coefficients=  1.6825000000D-01
     Exponent=  1.1114000000D+00 Coefficients=  3.6848000000D-01
 P 1 1.00
     Exponent=  3.7988000000D-01 Coefficients=  1.0000000000D+00
 P 1 1.00
     Exponent=  1.2068000000D-01 Coefficients=  1.0000000000D+00
 D 1 1.00
     Exponent=  1.8000000000D+00 Coefficients=  1.0000000000D+00
 D 1 1.00
     Exponent=  5.5000000000D-01 Coefficients=  1.0000000000D+00
 F 1 1.00
     Exponent=  1.0200000000D+00 Coefficients=  1.0000000000D+00
 ****
 Centers:       1
 S 7 1.00
     Exponent=  1.4782000000D+04 Coefficients=  5.3519000000D-04
     Exponent=  2.2173000000D+03 Coefficients=  4.1375000000D-03
     Exponent=  5.0474000000D+02 Coefficients=  2.1245000000D-02
     Exponent=  1.4287000000D+02 Coefficients=  8.2453000000D-02
     Exponent=  4.6300000000D+01 Coefficients=  2.3671000000D-01
     Exponent=  1.6337000000D+01 Coefficients=  4.4039000000D-01
     Exponent=  5.9828000000D+00 Coefficients=  3.6465000000D-01
 S 7 1.00
     Exponent=  2.2173000000D+03 Coefficients= -1.9275000000D-06
     Exponent=  5.0474000000D+02 Coefficients= -5.7964000000D-05
     Exponent=  1.4287000000D+02 Coefficients= -7.9494000000D-04
     Exponent=  4.6300000000D+01 Coefficients= -7.3125000000D-03
     Exponent=  1.6337000000D+01 Coefficients= -4.0574000000D-02
     Exponent=  5.9828000000D+00 Coefficients= -9.1594000000D-02
     Exponent=  1.6718000000D+00 Coefficients=  2.0940000000D-01
 S 1 1.00
     Exponent=  6.4662000000D-01 Coefficients=  1.0000000000D+00
 S 1 1.00
     Exponent=  2.1669000000D-01 Coefficients=  1.0000000000D+00
 P 4 1.00
     Exponent=  6.0424000000D+01 Coefficients=  6.8949000000D-03
     Exponent=  1.3935000000D+01 Coefficients=  4.9005000000D-02
     Exponent=  4.1531000000D+00 Coefficients=  1.8255000000D-01
     Exponent=  1.4158000000D+00 Coefficients=  3.7633000000D-01
 P 1 1.00
     Exponent=  4.7549000000D-01 Coefficients=  1.0000000000D+00
 P 1 1.00
     Exponent=  1.4529000000D-01 Coefficients=  1.0000000000D+00
 D 1 1.00
     Exponent=  2.2000000000D+00 Coefficients=  1.0000000000D+00
 D 1 1.00
     Exponent=  6.5000000000D-01 Coefficients=  1.0000000000D+00
 F 1 1.00
     Exponent=  1.1000000000D+00 Coefficients=  1.0000000000D+00
 ****
 Ernie: Thresh=  0.10000D-02 Tol=  0.10000D-05 Strict=F.
 Ernie:  7 primitive shells out of 220 were deleted.
 There are   223 symmetry adapted cartesian basis functions of A'  symmetry.
 There are    97 symmetry adapted cartesian basis functions of A"  symmetry.
 There are   190 symmetry adapted basis functions of A'  symmetry.
 There are    90 symmetry adapted basis functions of A"  symmetry.
   280 basis functions,   475 primitive gaussians,   320 cartesian basis functions
    25 alpha electrons       25 beta electrons
       nuclear repulsion energy       277.3403246951 Hartrees.
 IExCor=  205 DFT=T Ex=S Corr=VWN ExCW=0 ScaHFX=  0.000000
 ScaDFX=  1.000000  1.000000  1.000000  1.000000 ScalE2=  1.000000  1.000000
 IRadAn=      0 IRanWt=     -1 IRanGd=            0 ICorTp=0 IEmpDi=  4
 NAtoms=   12 NActive=   12 NUniq=   12 SFac= 1.00D+00 NAtFMM=   60 NAOKFM=F Big=F
 Integral buffers will be    131072 words long.
 Raffenetti 2 integral format.
 Two-electron integral symmetry is turned on.
 Leave Link  301 at Sat Aug 28 00:50:31 2021, MaxMem= 17179869184 cpu:        19.0
 (Enter /public3/home/sc51754/softwares/g09e01/l302.exe)
 NPDir=0 NMtPBC=     1 NCelOv=     1 NCel=       1 NClECP=     1 NCelD=      1
         NCelK=      1 NCelE2=     1 NClLst=     1 CellRange=     0.0.
 One-electron integrals computed using PRISM.
 NBasis=   280 RedAO= T EigKep=  2.18D-04  NBF=   190    90
 NBsUse=   280 1.00D-06 EigRej= -1.00D+00 NBFU=   190    90
 Precomputing XC quadrature grid using
 IXCGrd= 4 IRadAn=           0 IRanWt=          -1 IRanGd=           0 AccXCQ= 0.00D+00.
 Generated NRdTot=       0 NPtTot=           0 NUsed=           0 NTot=          32
 NSgBfM=   320   320   320   320   320 MxSgAt=    12 MxSgA2=    12.
 Leave Link  302 at Sat Aug 28 00:50:34 2021, MaxMem= 17179869184 cpu:        97.6
 (Enter /public3/home/sc51754/softwares/g09e01/l303.exe)
 DipDrv:  MaxL=1.
 Leave Link  303 at Sat Aug 28 00:50:35 2021, MaxMem= 17179869184 cpu:        38.2
 (Enter /public3/home/sc51754/softwares/g09e01/l401.exe)
 ExpMin= 7.41D-02 ExpMax= 1.48D+04 ExpMxC= 5.05D+02 IAcc=2 IRadAn=         4 AccDes= 0.00D+00
 Harris functional with IExCor=  205 and IRadAn=       4 diagonalized for initial guess.
 HarFok:  IExCor=  205 AccDes= 0.00D+00 IRadAn=         4 IDoV= 1 UseB2=F ITyADJ=14
 ICtDFT=  3500011 ScaDFX=  1.000000  1.000000  1.000000  1.000000
 FoFCou: FMM=F IPFlag=           0 FMFlag=      100000 FMFlg1=           0
         NFxFlg=           0 DoJE=T BraDBF=F KetDBF=T FulRan=T
         wScrn=  0.000000 ICntrl=     500 IOpCl=  0 I1Cent=   200000004 NGrid=           0
         NMat0=    1 NMatS0=      1 NMatT0=    0 NMatD0=    1 NMtDS0=    0 NMtDT0=    0
 Petite list used in FoFCou.
 Harris En= -321.988146354513    
 JPrj=0 DoOrth=F DoCkMO=F.
 Initial guess orbital symmetries:
       Occupied  (A') (A') (A') (A') (A') (A') (A') (A') (A') (A')
                 (A') (A') (A') (A') (A') (A') (A') (A') (A") (A')
                 (A") (A') (A") (A') (A")
       Virtual   (A") (A") (A') (A') (A") (A') (A') (A') (A') (A')
                 (A') (A') (A") (A') (A') (A") (A") (A') (A') (A')
                 (A') (A") (A') (A') (A") (A') (A') (A') (A') (A')
                 (A') (A") (A') (A") (A') (A') (A') (A') (A') (A')
                 (A') (A') (A') (A") (A') (A') (A") (A') (A") (A')
                 (A") (A') (A') (A") (A") (A') (A') (A") (A') (A')
                 (A') (A") (A') (A') (A") (A') (A') (A") (A') (A")
                 (A') (A") (A") (A') (A") (A') (A') (A") (A') (A")
                 (A") (A') (A') (A') (A") (A') (A") (A') (A') (A")
                 (A') (A") (A') (A') (A') (A') (A') (A") (A') (A')
                 (A') (A') (A") (A') (A') (A') (A") (A') (A') (A')
                 (A") (A') (A') (A') (A') (A') (A') (A") (A') (A')
                 (A") (A') (A') (A") (A') (A") (A') (A") (A") (A')
                 (A") (A") (A') (A') (A") (A') (A') (A') (A") (A')
                 (A') (A') (A') (A") (A') (A") (A") (A') (A') (A')
                 (A') (A') (A") (A') (A") (A") (A") (A') (A') (A")
                 (A") (A') (A") (A') (A') (A") (A') (A") (A') (A')
                 (A") (A') (A') (A") (A") (A') (A') (A") (A") (A")
                 (A') (A") (A') (A") (A') (A") (A') (A") (A") (A')
                 (A") (A') (A") (A') (A') (A") (A') (A") (A') (A")
                 (A') (A') (A") (A") (A') (A') (A') (A") (A') (A')
                 (A') (A') (A") (A') (A") (A') (A') (A") (A') (A')
                 (A") (A") (A') (A') (A") (A') (A') (A") (A') (A')
                 (A') (A') (A") (A') (A') (A') (A') (A') (A") (A')
                 (A') (A') (A") (A') (A') (A') (A') (A') (A') (A')
                 (A') (A') (A') (A') (A')
 The electronic state of the initial guess is 1-A'.
 Leave Link  401 at Sat Aug 28 00:50:37 2021, MaxMem= 17179869184 cpu:        63.1
 (Enter /public3/home/sc51754/softwares/g09e01/l502.exe)
 Closed shell SCF:
 Using DIIS extrapolation, IDIIS=  1040.
 Integral symmetry usage will be decided dynamically.
 Keep J ints in memory in symmetry-blocked form, NReq=1167802198.
 IVT=      348658 IEndB=      348658 NGot= 17179869184 MDV= 16785904737
 LenX= 16785904737 LenY= 16785801896
 Requested convergence on RMS density matrix=1.00D-08 within 128 cycles.
 Requested convergence on MAX density matrix=1.00D-06.
 Requested convergence on             energy=1.00D-06.
 No special actions if energy rises.
 FoFCou: FMM=F IPFlag=           0 FMFlag=           0 FMFlg1=           0
         NFxFlg=           0 DoJE=F BraDBF=F KetDBF=F FulRan=T
         wScrn=  0.000000 ICntrl=     600 IOpCl=  0 I1Cent=           0 NGrid=           0
         NMat0=    1 NMatS0=  39340 NMatT0=    0 NMatD0=    1 NMtDS0=    0 NMtDT0=    0
 Petite list used in FoFCou.
 Integral accuracy reduced to 1.0D-05 until final iterations.

 Cycle   1  Pass 0  IDiag  1:
 E= -321.652343986596    
 DIIS: error= 2.37D-02 at cycle   1 NSaved=   1.
 NSaved= 1 IEnMin= 1 EnMin= -321.652343986596     IErMin= 1 ErrMin= 2.37D-02
 ErrMax= 2.37D-02  0.00D+00 EMaxC= 1.00D-01 BMatC= 1.83D-01 BMatP= 1.83D-01
 IDIUse=3 WtCom= 7.63D-01 WtEn= 2.37D-01
 Coeff-Com:  0.100D+01
 Coeff-En:   0.100D+01
 Coeff:      0.100D+01
 Gap=     0.032 Goal=   None    Shift=    0.000
 GapD=    0.032 DampG=0.250 DampE=0.500 DampFc=0.2500 IDamp=-1.
 Damping current iteration by 2.50D-01
 RMSDP=3.79D-03 MaxDP=1.92D-01              OVMax= 3.26D-01

 Cycle   2  Pass 0  IDiag  1:
 E= -321.707146950090     Delta-E=       -0.054802963494 Rises=F Damp=T
 DIIS: error= 1.16D-02 at cycle   2 NSaved=   2.
 NSaved= 2 IEnMin= 2 EnMin= -321.707146950090     IErMin= 2 ErrMin= 1.16D-02
 ErrMax= 1.16D-02  0.00D+00 EMaxC= 1.00D-01 BMatC= 2.90D-02 BMatP= 1.83D-01
 IDIUse=3 WtCom= 8.84D-01 WtEn= 1.16D-01
 Coeff-Com: -0.212D+00 0.121D+01
 Coeff-En:   0.125D+00 0.875D+00
 Coeff:     -0.173D+00 0.117D+01
 Gap=     0.128 Goal=   None    Shift=    0.000
 RMSDP=1.38D-03 MaxDP=4.70D-02 DE=-5.48D-02 OVMax= 3.41D-01

 Cycle   3  Pass 0  IDiag  1:
 E= -321.691238054129     Delta-E=        0.015908895961 Rises=F Damp=F
 DIIS: error= 2.51D-02 at cycle   3 NSaved=   3.
 NSaved= 3 IEnMin= 2 EnMin= -321.707146950090     IErMin= 2 ErrMin= 1.16D-02
 ErrMax= 2.51D-02  0.00D+00 EMaxC= 1.00D-01 BMatC= 1.57D-01 BMatP= 2.90D-02
 IDIUse=2 WtCom= 0.00D+00 WtEn= 1.00D+00
 Coeff-En:   0.000D+00 0.544D+00 0.456D+00
 Coeff:      0.000D+00 0.544D+00 0.456D+00
 Gap=     0.109 Goal=   None    Shift=    0.000
 RMSDP=2.26D-03 MaxDP=9.60D-02 DE= 1.59D-02 OVMax= 3.63D-01

 Cycle   4  Pass 0  IDiag  1:
 E= -321.515779041941     Delta-E=        0.175459012187 Rises=F Damp=F
 DIIS: error= 3.72D-02 at cycle   4 NSaved=   4.
 NSaved= 4 IEnMin= 2 EnMin= -321.707146950090     IErMin= 2 ErrMin= 1.16D-02
 ErrMax= 3.72D-02  0.00D+00 EMaxC= 1.00D-01 BMatC= 3.72D-01 BMatP= 2.90D-02
 IDIUse=2 WtCom= 0.00D+00 WtEn= 1.00D+00
 EnCoef did     2 forward-backward iterations
 Coeff-En:   0.721D-01 0.000D+00 0.577D+00 0.351D+00
 Coeff:      0.721D-01 0.000D+00 0.577D+00 0.351D+00
 Gap=     0.127 Goal=   None    Shift=    0.000
 RMSDP=1.34D-03 MaxDP=6.47D-02 DE= 1.75D-01 OVMax= 2.24D-01

 Cycle   5  Pass 0  IDiag  1:
 E= -321.821359900106     Delta-E=       -0.305580858164 Rises=F Damp=F
 DIIS: error= 7.68D-03 at cycle   5 NSaved=   5.
 NSaved= 5 IEnMin= 5 EnMin= -321.821359900106     IErMin= 5 ErrMin= 7.68D-03
 ErrMax= 7.68D-03  0.00D+00 EMaxC= 1.00D-01 BMatC= 1.38D-02 BMatP= 2.90D-02
 IDIUse=3 WtCom= 9.23D-01 WtEn= 7.68D-02
 Coeff-Com: -0.167D+00 0.403D+00 0.254D+00 0.374D-01 0.473D+00
 Coeff-En:   0.000D+00 0.000D+00 0.104D+00 0.000D+00 0.896D+00
 Coeff:     -0.154D+00 0.372D+00 0.242D+00 0.345D-01 0.505D+00
 Gap=     0.128 Goal=   None    Shift=    0.000
 RMSDP=4.22D-04 MaxDP=2.01D-02 DE=-3.06D-01 OVMax= 4.77D-02

 Cycle   6  Pass 0  IDiag  1:
 E= -321.830669847922     Delta-E=       -0.009309947816 Rises=F Damp=F
 DIIS: error= 5.36D-03 at cycle   6 NSaved=   6.
 NSaved= 6 IEnMin= 6 EnMin= -321.830669847922     IErMin= 6 ErrMin= 5.36D-03
 ErrMax= 5.36D-03  0.00D+00 EMaxC= 1.00D-01 BMatC= 4.19D-03 BMatP= 1.38D-02
 IDIUse=3 WtCom= 9.46D-01 WtEn= 5.36D-02
 Coeff-Com: -0.160D+00 0.250D+00 0.102D+00-0.342D-01 0.457D+00 0.385D+00
 Coeff-En:   0.000D+00 0.000D+00 0.000D+00 0.000D+00 0.230D+00 0.770D+00
 Coeff:     -0.151D+00 0.237D+00 0.968D-01-0.324D-01 0.445D+00 0.405D+00
 Gap=     0.131 Goal=   None    Shift=    0.000
 RMSDP=1.95D-04 MaxDP=7.06D-03 DE=-9.31D-03 OVMax= 3.30D-02

 Cycle   7  Pass 0  IDiag  1:
 E= -321.834842188995     Delta-E=       -0.004172341073 Rises=F Damp=F
 DIIS: error= 5.99D-04 at cycle   7 NSaved=   7.
 NSaved= 7 IEnMin= 7 EnMin= -321.834842188995     IErMin= 7 ErrMin= 5.99D-04
 ErrMax= 5.99D-04  0.00D+00 EMaxC= 1.00D-01 BMatC= 1.35D-04 BMatP= 4.19D-03
 IDIUse=3 WtCom= 9.94D-01 WtEn= 5.99D-03
 Coeff-Com: -0.785D-01 0.115D+00 0.451D-01-0.163D-01 0.240D+00 0.248D+00
 Coeff-Com:  0.447D+00
 Coeff-En:   0.000D+00 0.000D+00 0.000D+00 0.000D+00 0.000D+00 0.000D+00
 Coeff-En:   0.100D+01
 Coeff:     -0.781D-01 0.114D+00 0.449D-01-0.163D-01 0.239D+00 0.247D+00
 Coeff:      0.451D+00
 Gap=     0.130 Goal=   None    Shift=    0.000
 RMSDP=3.94D-05 MaxDP=1.60D-03 DE=-4.17D-03 OVMax= 8.01D-03

 Cycle   8  Pass 0  IDiag  1:
 E= -321.834974868267     Delta-E=       -0.000132679272 Rises=F Damp=F
 DIIS: error= 1.98D-04 at cycle   8 NSaved=   8.
 NSaved= 8 IEnMin= 8 EnMin= -321.834974868267     IErMin= 8 ErrMin= 1.98D-04
 ErrMax= 1.98D-04  0.00D+00 EMaxC= 1.00D-01 BMatC= 9.57D-06 BMatP= 1.35D-04
 IDIUse=3 WtCom= 9.98D-01 WtEn= 1.98D-03
 Coeff-Com: -0.710D-02 0.676D-02 0.940D-03-0.454D-03 0.252D-01 0.410D-01
 Coeff-Com:  0.265D+00 0.668D+00
 Coeff-En:   0.000D+00 0.000D+00 0.000D+00 0.000D+00 0.000D+00 0.000D+00
 Coeff-En:   0.435D-01 0.956D+00
 Coeff:     -0.709D-02 0.675D-02 0.938D-03-0.454D-03 0.252D-01 0.409D-01
 Coeff:      0.265D+00 0.669D+00
 Gap=     0.130 Goal=   None    Shift=    0.000
 RMSDP=9.51D-06 MaxDP=3.81D-04 DE=-1.33D-04 OVMax= 1.32D-03

 Initial convergence to 1.0D-05 achieved.  Increase integral accuracy.
 Cycle   9  Pass 1  IDiag  1:
 E= -321.834878977081     Delta-E=        0.000095891186 Rises=F Damp=F
 DIIS: error= 5.40D-05 at cycle   1 NSaved=   1.
 NSaved= 1 IEnMin= 1 EnMin= -321.834878977081     IErMin= 1 ErrMin= 5.40D-05
 ErrMax= 5.40D-05  0.00D+00 EMaxC= 1.00D-01 BMatC= 5.12D-07 BMatP= 5.12D-07
 IDIUse=1 WtCom= 1.00D+00 WtEn= 0.00D+00
 Coeff-Com:  0.100D+01
 Coeff:      0.100D+01
 Gap=     0.130 Goal=   None    Shift=    0.000
 RMSDP=9.51D-06 MaxDP=3.81D-04 DE= 9.59D-05 OVMax= 4.67D-04

 Cycle  10  Pass 1  IDiag  1:
 E= -321.834878584681     Delta-E=        0.000000392400 Rises=F Damp=F
 DIIS: error= 4.88D-05 at cycle   2 NSaved=   2.
 NSaved= 2 IEnMin= 1 EnMin= -321.834878977081     IErMin= 2 ErrMin= 4.88D-05
 ErrMax= 4.88D-05  0.00D+00 EMaxC= 1.00D-01 BMatC= 9.99D-07 BMatP= 5.12D-07
 IDIUse=1 WtCom= 1.00D+00 WtEn= 0.00D+00
 Coeff-Com:  0.598D+00 0.402D+00
 Coeff:      0.598D+00 0.402D+00
 Gap=     0.130 Goal=   None    Shift=    0.000
 RMSDP=3.33D-06 MaxDP=1.32D-04 DE= 3.92D-07 OVMax= 4.27D-04

 Cycle  11  Pass 1  IDiag  1:
 E= -321.834879362434     Delta-E=       -0.000000777753 Rises=F Damp=F
 DIIS: error= 3.20D-05 at cycle   3 NSaved=   3.
 NSaved= 3 IEnMin= 3 EnMin= -321.834879362434     IErMin= 3 ErrMin= 3.20D-05
 ErrMax= 3.20D-05  0.00D+00 EMaxC= 1.00D-01 BMatC= 1.98D-07 BMatP= 5.12D-07
 IDIUse=1 WtCom= 1.00D+00 WtEn= 0.00D+00
 Coeff-Com:  0.234D+00 0.290D+00 0.476D+00
 Coeff:      0.234D+00 0.290D+00 0.476D+00
 Gap=     0.130 Goal=   None    Shift=    0.000
 RMSDP=1.95D-06 MaxDP=8.74D-05 DE=-7.78D-07 OVMax= 3.32D-04

 Cycle  12  Pass 1  IDiag  1:
 E= -321.834879408857     Delta-E=       -0.000000046423 Rises=F Damp=F
 DIIS: error= 2.37D-05 at cycle   4 NSaved=   4.
 NSaved= 4 IEnMin= 4 EnMin= -321.834879408857     IErMin= 4 ErrMin= 2.37D-05
 ErrMax= 2.37D-05  0.00D+00 EMaxC= 1.00D-01 BMatC= 1.61D-07 BMatP= 1.98D-07
 IDIUse=1 WtCom= 1.00D+00 WtEn= 0.00D+00
 Coeff-Com:  0.569D-01 0.160D+00 0.451D+00 0.332D+00
 Coeff:      0.569D-01 0.160D+00 0.451D+00 0.332D+00
 Gap=     0.130 Goal=   None    Shift=    0.000
 RMSDP=9.68D-07 MaxDP=4.10D-05 DE=-4.64D-08 OVMax= 1.49D-04

 Cycle  13  Pass 1  IDiag  1:
 E= -321.834879544586     Delta-E=       -0.000000135728 Rises=F Damp=F
 DIIS: error= 5.38D-06 at cycle   5 NSaved=   5.
 NSaved= 5 IEnMin= 5 EnMin= -321.834879544586     IErMin= 5 ErrMin= 5.38D-06
 ErrMax= 5.38D-06  0.00D+00 EMaxC= 1.00D-01 BMatC= 4.73D-09 BMatP= 1.61D-07
 IDIUse=1 WtCom= 1.00D+00 WtEn= 0.00D+00
 Coeff-Com:  0.590D-02 0.633D-01 0.229D+00 0.205D+00 0.498D+00
 Coeff:      0.590D-02 0.633D-01 0.229D+00 0.205D+00 0.498D+00
 Gap=     0.130 Goal=   None    Shift=    0.000
 RMSDP=2.52D-07 MaxDP=1.14D-05 DE=-1.36D-07 OVMax= 4.11D-05

 Cycle  14  Pass 1  IDiag  1:
 E= -321.834879548286     Delta-E=       -0.000000003700 Rises=F Damp=F
 DIIS: error= 3.11D-06 at cycle   6 NSaved=   6.
 NSaved= 6 IEnMin= 6 EnMin= -321.834879548286     IErMin= 6 ErrMin= 3.11D-06
 ErrMax= 3.11D-06  0.00D+00 EMaxC= 1.00D-01 BMatC= 1.02D-09 BMatP= 4.73D-09
 IDIUse=1 WtCom= 1.00D+00 WtEn= 0.00D+00
 Coeff-Com:  0.278D-03 0.341D-01 0.131D+00 0.122D+00 0.359D+00 0.352D+00
 Coeff:      0.278D-03 0.341D-01 0.131D+00 0.122D+00 0.359D+00 0.352D+00
 Gap=     0.130 Goal=   None    Shift=    0.000
 RMSDP=8.97D-08 MaxDP=4.09D-06 DE=-3.70D-09 OVMax= 1.82D-05

 Cycle  15  Pass 1  IDiag  1:
 E= -321.834879549328     Delta-E=       -0.000000001042 Rises=F Damp=F
 DIIS: error= 3.80D-07 at cycle   7 NSaved=   7.
 NSaved= 7 IEnMin= 7 EnMin= -321.834879549328     IErMin= 7 ErrMin= 3.80D-07
 ErrMax= 3.80D-07  0.00D+00 EMaxC= 1.00D-01 BMatC= 3.91D-11 BMatP= 1.02D-09
 IDIUse=1 WtCom= 1.00D+00 WtEn= 0.00D+00
 Coeff-Com: -0.449D-03 0.150D-01 0.597D-01 0.553D-01 0.173D+00 0.209D+00
 Coeff-Com:  0.488D+00
 Coeff:     -0.449D-03 0.150D-01 0.597D-01 0.553D-01 0.173D+00 0.209D+00
 Coeff:      0.488D+00
 Gap=     0.130 Goal=   None    Shift=    0.000
 RMSDP=2.13D-08 MaxDP=8.01D-07 DE=-1.04D-09 OVMax= 2.51D-06

 Cycle  16  Pass 1  IDiag  1:
 E= -321.834879549352     Delta-E=       -0.000000000024 Rises=F Damp=F
 DIIS: error= 1.50D-07 at cycle   8 NSaved=   8.
 NSaved= 8 IEnMin= 8 EnMin= -321.834879549352     IErMin= 8 ErrMin= 1.50D-07
 ErrMax= 1.50D-07  0.00D+00 EMaxC= 1.00D-01 BMatC= 4.71D-12 BMatP= 3.91D-11
 IDIUse=1 WtCom= 1.00D+00 WtEn= 0.00D+00
 Coeff-Com: -0.237D-03 0.656D-02 0.261D-01 0.240D-01 0.784D-01 0.102D+00
 Coeff-Com:  0.318D+00 0.445D+00
 Coeff:     -0.237D-03 0.656D-02 0.261D-01 0.240D-01 0.784D-01 0.102D+00
 Coeff:      0.318D+00 0.445D+00
 Gap=     0.130 Goal=   None    Shift=    0.000
 RMSDP=7.64D-09 MaxDP=3.83D-07 DE=-2.41D-11 OVMax= 1.40D-06

 SCF Done:  E(RS-VWN) =  -321.834879549     A.U. after   16 cycles
            NFock= 16  Conv=0.76D-08     -V/T= 2.0043
 KE= 3.204629868164D+02 PE=-1.307696034816D+03 EE= 3.880578437555D+02
 Leave Link  502 at Sat Aug 28 00:50:48 2021, MaxMem= 17179869184 cpu:       354.7
 (Enter /public3/home/sc51754/softwares/g09e01/l801.exe)
 Range of M.O.s used for correlation:     1   280
 NBasis=   280 NAE=    25 NBE=    25 NFC=     0 NFV=     0
 NROrb=    280 NOA=    25 NOB=    25 NVA=   255 NVB=   255

 **** Warning!!: The largest alpha MO coefficient is  0.20154661D+02

 Leave Link  801 at Sat Aug 28 00:50:49 2021, MaxMem= 17179869184 cpu:         3.8
 (Enter /public3/home/sc51754/softwares/g09e01/l1101.exe)
 Using compressed storage, NAtomX=    12.
 Will process     13 centers per pass.
 Leave Link 1101 at Sat Aug 28 00:50:51 2021, MaxMem= 17179869184 cpu:        56.0
 (Enter /public3/home/sc51754/softwares/g09e01/l1102.exe)
 Symmetrizing basis deriv contribution to polar:
 IMax=3 JMax=2 DiffMx= 0.00D+00
 Leave Link 1102 at Sat Aug 28 00:50:52 2021, MaxMem= 17179869184 cpu:         7.8
 (Enter /public3/home/sc51754/softwares/g09e01/l1110.exe)
 Forming Gx(P) for the SCF density, NAtomX=    12.
 Integral derivatives from FoFJK, PRISM(SPDF).
 Do as many integral derivatives as possible in FoFJK.
 G2DrvN: MDV=   17179868984.
 G2DrvN: will do    13 centers at a time, making    1 passes.
 Calling FoFCou, ICntrl=  3507 FMM=F I1Cent=   0 AccDes= 0.00D+00.
 FoFJK:  IHMeth= 1 ICntrl=    3507 DoSepK=F KAlg= 0 I1Cent=   0 FoldK=F
 IRaf=         0 NMat=   1 IRICut=       1 DoRegI=T DoRafI=F ISym2E= 1.
 FoFCou: FMM=F IPFlag=           0 FMFlag=      100000 FMFlg1=           0
         NFxFlg=           0 DoJE=F BraDBF=F KetDBF=F FulRan=T
         wScrn=  0.000000 ICntrl=    3507 IOpCl=  0 I1Cent=           0 NGrid=           0
         NMat0=    1 NMatS0=      1 NMatT0=    0 NMatD0=    1 NMtDS0=    0 NMtDT0=    0
 Petite list used in FoFCou.
 End of G2Drv F.D. properties file   721 does not exist.
 End of G2Drv F.D. properties file   722 does not exist.
 End of G2Drv F.D. properties file   788 does not exist.
 Leave Link 1110 at Sat Aug 28 00:50:56 2021, MaxMem= 17179869184 cpu:       210.8
 (Enter /public3/home/sc51754/softwares/g09e01/l1002.exe)
 Minotr:  Closed shell wavefunction.
          IDoAtm=111111111111
          Direct CPHF calculation.
          Differentiating once with respect to nuclear coordinates.
          Using symmetry in CPHF.
          Requested convergence is 1.0D-08 RMS, and 1.0D-07 maximum.
          Secondary convergence is 1.0D-12 RMS, and 1.0D-12 maximum.
          NewPWx=T KeepS1=F KeepF1=F KeepIn=T MapXYZ=F SortEE=F KeepMc=T.
          MDV=   17179868780 using IRadAn=       2.
 Generate precomputed XC quadrature information.
 Keep J ints in memory in symmetry-blocked form, NReq=1167458725.
 FoFCou: FMM=F IPFlag=           0 FMFlag=           0 FMFlg1=           0
         NFxFlg=           0 DoJE=F BraDBF=F KetDBF=F FulRan=T
         wScrn=  0.000000 ICntrl=     600 IOpCl=  0 I1Cent=           0 NGrid=           0
         NMat0=    1 NMatS0=  39340 NMatT0=    0 NMatD0=    1 NMtDS0=    0 NMtDT0=    0
 Petite list used in FoFCou.
          Solving linear equations simultaneously, MaxMat=       0.
          There are    39 degrees of freedom in the 1st order CPHF.  IDoFFX=6 NUNeed=     0.
     33 vectors produced by pass  0 Test12= 1.63D-14 2.56D-09 XBig12= 1.95D-01 2.02D-01.
 AX will form    33 AO Fock derivatives at one time.
     33 vectors produced by pass  1 Test12= 1.63D-14 2.56D-09 XBig12= 6.32D-02 1.03D-01.
     33 vectors produced by pass  2 Test12= 1.63D-14 2.56D-09 XBig12= 3.90D-04 3.49D-03.
     33 vectors produced by pass  3 Test12= 1.63D-14 2.56D-09 XBig12= 1.30D-06 1.63D-04.
     33 vectors produced by pass  4 Test12= 1.63D-14 2.56D-09 XBig12= 3.34D-09 6.89D-06.
     22 vectors produced by pass  5 Test12= 1.63D-14 2.56D-09 XBig12= 1.48D-12 1.73D-07.
      6 vectors produced by pass  6 Test12= 1.63D-14 2.56D-09 XBig12= 8.77D-16 5.77D-09.
 InvSVY:  IOpt=1 It=  1 EMax= 1.55D-15
 Solved reduced A of dimension   193 with    33 vectors.
 End of Minotr F.D. properties file   721 does not exist.
 End of Minotr F.D. properties file   722 does not exist.
 End of Minotr F.D. properties file   788 does not exist.
 Leave Link 1002 at Sat Aug 28 00:51:07 2021, MaxMem= 17179869184 cpu:       551.7
 (Enter /public3/home/sc51754/softwares/g09e01/l601.exe)
 Copying SCF densities to generalized density rwf, IOpCl= 0 IROHF=0.

 **********************************************************************

            Population analysis using the SCF density.

 **********************************************************************

 Orbital symmetries:
       Occupied  (A') (A') (A') (A') (A') (A') (A') (A') (A') (A')
                 (A') (A') (A') (A') (A') (A') (A") (A') (A') (A')
                 (A") (A') (A") (A') (A")
       Virtual   (A") (A') (A") (A') (A') (A') (A') (A") (A') (A')
                 (A") (A') (A') (A') (A") (A') (A") (A') (A') (A")
                 (A') (A') (A") (A') (A') (A') (A') (A') (A') (A')
                 (A') (A") (A') (A") (A') (A') (A') (A') (A') (A')
                 (A') (A') (A") (A') (A') (A') (A") (A') (A") (A")
                 (A') (A') (A") (A') (A") (A") (A') (A') (A') (A')
                 (A') (A') (A") (A') (A") (A') (A') (A') (A") (A")
                 (A') (A") (A") (A') (A") (A') (A") (A') (A') (A")
                 (A') (A") (A') (A') (A") (A') (A") (A') (A') (A')
                 (A") (A") (A') (A') (A') (A') (A') (A") (A') (A')
                 (A') (A') (A") (A') (A') (A') (A") (A') (A') (A')
                 (A") (A') (A') (A') (A') (A') (A') (A") (A') (A')
                 (A') (A") (A') (A") (A') (A") (A') (A") (A") (A")
                 (A') (A") (A') (A") (A') (A') (A') (A') (A") (A')
                 (A') (A') (A") (A') (A') (A") (A') (A") (A') (A')
                 (A') (A') (A") (A') (A") (A") (A") (A') (A') (A")
                 (A") (A') (A") (A') (A') (A") (A') (A") (A') (A')
                 (A") (A') (A") (A') (A") (A') (A') (A") (A") (A")
                 (A') (A') (A") (A') (A") (A") (A') (A") (A') (A")
                 (A") (A') (A") (A') (A") (A') (A') (A") (A') (A')
                 (A") (A') (A") (A") (A') (A') (A') (A") (A') (A')
                 (A') (A") (A') (A") (A') (A') (A') (A") (A') (A")
                 (A') (A") (A') (A') (A") (A') (A") (A') (A') (A')
                 (A') (A') (A") (A') (A') (A') (A') (A') (A") (A')
                 (A') (A') (A") (A') (A') (A') (A') (A') (A') (A')
                 (A') (A') (A') (A') (A')
 The electronic state is 1-A'.
 Alpha  occ. eigenvalues --  -18.61871 -13.91263  -9.89110  -9.85698  -9.82733
 Alpha  occ. eigenvalues --   -9.81475  -9.81226  -0.97401  -0.89054  -0.77021
 Alpha  occ. eigenvalues --   -0.70966  -0.62816  -0.58830  -0.51420  -0.48937
 Alpha  occ. eigenvalues --   -0.44086  -0.43380  -0.41457  -0.40813  -0.36695
 Alpha  occ. eigenvalues --   -0.33578  -0.32265  -0.30929  -0.29880  -0.23543
 Alpha virt. eigenvalues --   -0.10509  -0.07213  -0.06843  -0.01474   0.00989
 Alpha virt. eigenvalues --    0.02689   0.04925   0.05745   0.07036   0.10238
 Alpha virt. eigenvalues --    0.10841   0.11353   0.12358   0.13422   0.15044
 Alpha virt. eigenvalues --    0.15511   0.16033   0.19650   0.19840   0.22248
 Alpha virt. eigenvalues --    0.22707   0.23968   0.24164   0.25453   0.25774
 Alpha virt. eigenvalues --    0.27450   0.28865   0.30519   0.31083   0.33571
 Alpha virt. eigenvalues --    0.36741   0.36925   0.37913   0.38285   0.39666
 Alpha virt. eigenvalues --    0.43732   0.45838   0.47073   0.49663   0.53023
 Alpha virt. eigenvalues --    0.53403   0.56027   0.57352   0.58459   0.59525
 Alpha virt. eigenvalues --    0.61921   0.63279   0.67248   0.69327   0.72479
 Alpha virt. eigenvalues --    0.73526   0.81783   0.82622   0.82987   0.86048
 Alpha virt. eigenvalues --    0.87336   0.87742   0.88188   0.90041   0.92622
 Alpha virt. eigenvalues --    0.93468   0.99656   1.00668   1.02341   1.05353
 Alpha virt. eigenvalues --    1.08076   1.08419   1.09543   1.10786   1.13514
 Alpha virt. eigenvalues --    1.13545   1.15965   1.17574   1.18426   1.20128
 Alpha virt. eigenvalues --    1.26834   1.31686   1.31813   1.32825   1.39913
 Alpha virt. eigenvalues --    1.40482   1.40964   1.42638   1.45106   1.47622
 Alpha virt. eigenvalues --    1.48510   1.51483   1.52194   1.55483   1.57796
 Alpha virt. eigenvalues --    1.57919   1.59368   1.61067   1.63547   1.66449
 Alpha virt. eigenvalues --    1.68521   1.71678   1.75511   1.76144   1.77468
 Alpha virt. eigenvalues --    1.81901   1.82609   1.87515   1.90425   1.91311
 Alpha virt. eigenvalues --    1.98686   2.01053   2.03051   2.07577   2.09968
 Alpha virt. eigenvalues --    2.10779   2.14712   2.14789   2.16532   2.20413
 Alpha virt. eigenvalues --    2.21473   2.27163   2.28412   2.52593   2.56326
 Alpha virt. eigenvalues --    2.74275   2.75168   2.81586   2.84418   2.91403
 Alpha virt. eigenvalues --    3.03213   3.05473   3.07859   3.12051   3.15337
 Alpha virt. eigenvalues --    3.15821   3.19275   3.24408   3.26306   3.26474
 Alpha virt. eigenvalues --    3.29496   3.30099   3.38040   3.38382   3.45340
 Alpha virt. eigenvalues --    3.46827   3.48134   3.49521   3.49684   3.53517
 Alpha virt. eigenvalues --    3.55615   3.61275   3.61626   3.65676   3.72104
 Alpha virt. eigenvalues --    3.76767   3.77898   3.79474   3.80561   3.82463
 Alpha virt. eigenvalues --    3.85117   3.90765   3.92860   3.94920   3.95961
 Alpha virt. eigenvalues --    3.97791   3.98918   4.01732   4.02770   4.05808
 Alpha virt. eigenvalues --    4.06680   4.07506   4.07791   4.09662   4.11640
 Alpha virt. eigenvalues --    4.14881   4.15744   4.17246   4.17306   4.18529
 Alpha virt. eigenvalues --    4.21421   4.22749   4.22977   4.24547   4.28630
 Alpha virt. eigenvalues --    4.29756   4.31262   4.31564   4.33388   4.34722
 Alpha virt. eigenvalues --    4.35331   4.36670   4.38837   4.43885   4.45032
 Alpha virt. eigenvalues --    4.46639   4.49071   4.49706   4.53540   4.54498
 Alpha virt. eigenvalues --    4.55378   4.59336   4.64839   4.65543   4.72882
 Alpha virt. eigenvalues --    4.72963   4.80251   4.80986   4.82074   4.86175
 Alpha virt. eigenvalues --    4.92229   4.95388   4.98641   5.03989   5.06357
 Alpha virt. eigenvalues --    5.07915   5.12840   5.13861   5.15537   5.17831
 Alpha virt. eigenvalues --    5.20235   5.22606   5.23567   5.25099   5.28761
 Alpha virt. eigenvalues --    5.30185   5.30560   5.33491   5.40771   5.40932
 Alpha virt. eigenvalues --    5.45529   5.51179   5.51561   5.53167   5.58580
 Alpha virt. eigenvalues --    5.62922   5.68398   5.70115   5.75060   5.87747
 Alpha virt. eigenvalues --    5.92212   5.96298   6.01998   6.08121   6.21375
 Alpha virt. eigenvalues --    6.26440   6.34116   6.36730   6.37996   6.50294
 Alpha virt. eigenvalues --    6.70572   6.93697   6.99597   9.26681  11.70559
 Alpha virt. eigenvalues --   12.46275  14.54544  17.25936  18.32169  22.10002
          Condensed to atoms (all electrons):
               1          2          3          4          5          6
     1  O    8.079620  -0.140532   0.377834  -0.058241   0.002118   0.005933
     2  N   -0.140532   6.666615   0.342516  -0.001743   0.469044  -0.034514
     3  C    0.377834   0.342516   4.649599   0.434719  -0.077053  -0.044667
     4  C   -0.058241  -0.001743   0.434719   5.011358  -0.051696   0.465569
     5  C    0.002118   0.469044  -0.077053  -0.051696   4.758972  -0.070507
     6  C    0.005933  -0.034514  -0.044667   0.465569  -0.070507   4.875076
     7  C    0.000053  -0.029170  -0.056436  -0.051788   0.481801   0.428489
     8  H    0.180424   0.103646  -0.051625   0.023617   0.001087  -0.007016
     9  H    0.003980   0.007583  -0.038058   0.432937  -0.002942  -0.031292
    10  H   -0.000685  -0.029086   0.006189  -0.002912   0.423329   0.007594
    11  H   -0.000445  -0.001556   0.009782  -0.032430   0.009114   0.423813
    12  H    0.000052   0.006406  -0.001427   0.008816  -0.028627  -0.033700
               7          8          9         10         11         12
     1  O    0.000053   0.180424   0.003980  -0.000685  -0.000445   0.000052
     2  N   -0.029170   0.103646   0.007583  -0.029086  -0.001556   0.006406
     3  C   -0.056436  -0.051625  -0.038058   0.006189   0.009782  -0.001427
     4  C   -0.051788   0.023617   0.432937  -0.002912  -0.032430   0.008816
     5  C    0.481801   0.001087  -0.002942   0.423329   0.009114  -0.028627
     6  C    0.428489  -0.007016  -0.031292   0.007594   0.423813  -0.033700
     7  C    5.077360   0.004974   0.009147  -0.055515  -0.040848   0.429376
     8  H    0.004974   0.514006  -0.000767  -0.003885   0.000229  -0.000143
     9  H    0.009147  -0.000767   0.527431   0.000220  -0.008285   0.000019
    10  H   -0.055515  -0.003885   0.000220   0.550957  -0.000153  -0.005967
    11  H   -0.040848   0.000229  -0.008285  -0.000153   0.550412  -0.008094
    12  H    0.429376  -0.000143   0.000019  -0.005967  -0.008094   0.541391
 Mulliken charges:
               1
     1  O   -0.450111
     2  N   -0.359209
     3  C    0.448628
     4  C   -0.178206
     5  C    0.085361
     6  C    0.015222
     7  C   -0.197441
     8  H    0.235454
     9  H    0.100027
    10  H    0.109914
    11  H    0.098460
    12  H    0.091901
 Sum of Mulliken charges =  -0.00000
 Mulliken charges with hydrogens summed into heavy atoms:
               1
     1  O   -0.214657
     2  N   -0.359209
     3  C    0.448628
     4  C   -0.078179
     5  C    0.195276
     6  C    0.113681
     7  C   -0.105540
 APT charges:
               1
     1  O   -0.254870
     2  N   -0.365949
     3  C    0.150674
     4  C   -0.568808
     5  C   -0.392075
     6  C   -0.385314
     7  C   -0.550260
     8  H    0.304255
     9  H    0.461644
    10  H    0.512883
    11  H    0.524032
    12  H    0.563789
 Sum of APT charges =  -0.00000
 APT charges with hydrogens summed into heavy atoms:
               1
     1  O    0.049384
     2  N   -0.365949
     3  C    0.150674
     4  C   -0.107165
     5  C    0.120809
     6  C    0.138718
     7  C    0.013529
 Electronic spatial extent (au):  <R**2>=            620.2877
 Charge=             -0.0000 electrons
 Dipole moment (field-independent basis, Debye):
    X=             -0.0423    Y=             -3.1593    Z=             -0.0000  Tot=              3.1596
 Quadrupole moment (field-independent basis, Debye-Ang):
   XX=            -35.3073   YY=            -43.4427   ZZ=            -43.4328
   XY=             -0.8554   XZ=              0.0000   YZ=              0.0000
 Traceless Quadrupole moment (field-independent basis, Debye-Ang):
   XX=              5.4203   YY=             -2.7151   ZZ=             -2.7052
   XY=             -0.8554   XZ=              0.0000   YZ=              0.0000
 Octapole moment (field-independent basis, Debye-Ang**2):
  XXX=              2.1861  YYY=            -21.5679  ZZZ=             -0.0000  XYY=             -4.4029
  XXY=              0.8929  XXZ=             -0.0000  XZZ=             -1.3366  YZZ=              4.4085
  YYZ=             -0.0000  XYZ=             -0.0000
 Hexadecapole moment (field-independent basis, Debye-Ang**3):
 XXXX=           -261.3761 YYYY=           -516.2549 ZZZZ=            -47.4902 XXXY=              9.5007
 XXXZ=             -0.0000 YYYX=             -2.4881 YYYZ=             -0.0000 ZZZX=             -0.0000
 ZZZY=             -0.0000 XXYY=           -110.9340 XXZZ=            -61.0616 YYZZ=            -97.9952
 XXYZ=             -0.0000 YYXZ=             -0.0000 ZZXY=              2.3887
 N-N= 2.773403246951D+02 E-N=-1.307696015489D+03  KE= 3.204629868164D+02
 Symmetry A'   KE= 3.086877314826D+02
 Symmetry A"   KE= 1.177525533386D+01
  Exact polarizability:   0.000   0.000   0.000   0.000   0.000   0.000
 Approx polarizability: 165.332   7.858 208.559   0.000   0.000  64.704
 No NMR shielding tensors so no spin-rotation constants.
 Leave Link  601 at Sat Aug 28 00:51:09 2021, MaxMem= 17179869184 cpu:        72.0
 (Enter /public3/home/sc51754/softwares/g09e01/l701.exe)
 Compute integral second derivatives.
 ... and contract with generalized density number  0.
 Leave Link  701 at Sat Aug 28 00:51:11 2021, MaxMem= 17179869184 cpu:        82.1
 (Enter /public3/home/sc51754/softwares/g09e01/l702.exe)
 L702 exits ... SP integral derivatives will be done elsewhere.
 Leave Link  702 at Sat Aug 28 00:51:12 2021, MaxMem= 17179869184 cpu:         1.7
 (Enter /public3/home/sc51754/softwares/g09e01/l703.exe)
 Compute integral second derivatives, UseDBF=F ICtDFT=           0.
 Integral derivatives from FoFJK, PRISM(SPDF).
 Calling FoFJK, ICntrl=    100547 FMM=F ISym2X=1 I1Cent= 0 IOpClX= 0 NMat=1 NMatS=1 NMatT=0.
 FoFJK:  IHMeth= 1 ICntrl=  100547 DoSepK=F KAlg= 0 I1Cent=   0 FoldK=F
 IRaf=         0 NMat=   1 IRICut=       1 DoRegI=T DoRafI=F ISym2E= 1.
 FoFCou: FMM=F IPFlag=           0 FMFlag=      100000 FMFlg1=         800
         NFxFlg=           0 DoJE=F BraDBF=F KetDBF=F FulRan=T
         wScrn=  0.000000 ICntrl=  100547 IOpCl=  0 I1Cent=           0 NGrid=           0
         NMat0=    1 NMatS0=      1 NMatT0=    0 NMatD0=    1 NMtDS0=    0 NMtDT0=    0
 Petite list used in FoFCou.
 Leave Link  703 at Sat Aug 28 00:51:20 2021, MaxMem= 17179869184 cpu:       437.8
 (Enter /public3/home/sc51754/softwares/g09e01/l716.exe)
 Dipole        =-1.66427609D-02-1.24295279D+00-8.12924464D-33
 Polarizability= 0.00000000D+00 0.00000000D+00 0.00000000D+00
                 0.00000000D+00 0.00000000D+00 0.00000000D+00
 ***** Axes restored to original set *****
 -------------------------------------------------------------------
 Center     Atomic                   Forces (Hartrees/Bohr)
 Number     Number              X              Y              Z
 -------------------------------------------------------------------
      1        8          -0.070336901   -0.055694839   -0.000000000
      2        7           0.003751338    0.019134490   -0.000000000
      3        6           0.042983007    0.051082380   -0.000000000
      4        6           0.004451854   -0.017259823    0.000000000
      5        6          -0.014728248   -0.014034342   -0.000000000
      6        6           0.005571959    0.006682062   -0.000000000
      7        6          -0.006530121    0.003497115   -0.000000000
      8        1           0.036986732    0.005538002    0.000000000
      9        1          -0.001535967    0.000293191   -0.000000000
     10        1           0.000978386    0.000248628    0.000000000
     11        1          -0.000010926   -0.000527395    0.000000000
     12        1          -0.001581112    0.001040529   -0.000000000
 -------------------------------------------------------------------
 Cartesian Forces:  Max     0.070336901 RMS     0.020517290
 Force constants in Cartesian coordinates: 
                1             2             3             4             5 
      1  0.623011D-01
      2  0.119508D-01  0.430125D+00
      3  0.000000D+00  0.000000D+00  0.716617D-01
      4 -0.164175D-01 -0.272683D-01  0.000000D+00  0.520084D+00
      5 -0.944554D-01 -0.516000D-01  0.000000D+00  0.156493D+00  0.643800D+00
      6  0.000000D+00  0.000000D+00  0.192715D-01  0.000000D+00  0.000000D+00
      7 -0.912541D-01  0.414061D-02  0.000000D+00 -0.335310D+00 -0.865325D-01
      8 -0.159438D-01 -0.296756D+00  0.000000D+00 -0.120719D+00 -0.192803D+00
      9  0.000000D+00  0.000000D+00 -0.732830D-01  0.000000D+00  0.000000D+00
     10 -0.375434D-02  0.204539D-01  0.000000D+00 -0.539892D-01 -0.231521D-01
     11  0.528863D-01 -0.480023D-01  0.000000D+00  0.863812D-02  0.556981D-01
     12  0.000000D+00  0.000000D+00  0.138577D-01  0.000000D+00  0.000000D+00
     13  0.635292D-02 -0.180329D-02  0.000000D+00 -0.115761D+00 -0.633090D-02
     14  0.185386D-01 -0.242182D-02  0.000000D+00 -0.288048D-02 -0.364956D+00
     15  0.000000D+00  0.000000D+00  0.613491D-02  0.000000D+00  0.000000D+00
     16 -0.141300D-01  0.515571D-02  0.000000D+00 -0.124146D-01 -0.376902D-01
     17 -0.947133D-02  0.958039D-02  0.000000D+00 -0.214979D-01 -0.449008D-01
     18  0.000000D+00  0.000000D+00  0.473314D-02  0.000000D+00  0.000000D+00
     19  0.124134D-01 -0.618072D-02  0.000000D+00  0.282999D-01  0.730721D-01
     20 -0.631083D-02 -0.551080D-02  0.000000D+00  0.246391D-01 -0.532304D-01
     21  0.000000D+00  0.000000D+00 -0.264749D-02  0.000000D+00  0.000000D+00
     22  0.408460D-01 -0.528326D-02  0.000000D+00 -0.115249D-01  0.158263D-01
     23  0.434386D-01 -0.348335D-01  0.000000D+00  0.731592D-02  0.308606D-01
     24  0.000000D+00  0.000000D+00 -0.371026D-01  0.000000D+00  0.000000D+00
     25  0.249243D-02 -0.984600D-03  0.000000D+00 -0.359928D-02  0.359456D-02
     26 -0.118339D-02  0.645862D-03  0.000000D+00  0.475284D-02 -0.117070D-02
     27  0.000000D+00  0.000000D+00 -0.202366D-02  0.000000D+00  0.000000D+00
     28 -0.617973D-03  0.122117D-03  0.000000D+00  0.394380D-02 -0.430801D-02
     29 -0.414931D-03 -0.109219D-02  0.000000D+00 -0.316881D-01 -0.212914D-01
     30  0.000000D+00  0.000000D+00  0.944028D-03  0.000000D+00  0.000000D+00
     31 -0.836508D-04  0.630936D-04  0.000000D+00  0.585873D-03 -0.873867D-03
     32  0.155064D-02 -0.583533D-03  0.000000D+00 -0.478765D-03 -0.514328D-03
     33  0.000000D+00  0.000000D+00 -0.832084D-03  0.000000D+00  0.000000D+00
     34  0.185174D-02 -0.366086D-03  0.000000D+00 -0.389607D-02  0.435680D-02
     35 -0.585243D-03  0.449230D-03  0.000000D+00  0.269366D-02  0.108467D-03
     36  0.000000D+00  0.000000D+00 -0.714092D-03  0.000000D+00  0.000000D+00
                6             7             8             9            10 
      6  0.895304D-01
      7  0.000000D+00  0.771196D+00
      8  0.000000D+00 -0.226915D-01  0.653323D+00
      9 -0.695590D-01  0.000000D+00  0.000000D+00  0.183337D+00
     10  0.000000D+00 -0.283840D+00  0.963775D-01  0.000000D+00  0.707485D+00
     11  0.000000D+00  0.606532D-01 -0.133522D+00  0.000000D+00  0.340973D-01
     12  0.108985D-01  0.000000D+00  0.000000D+00 -0.739179D-01  0.000000D+00
     13  0.000000D+00  0.177679D-01 -0.325761D-01  0.000000D+00 -0.117937D-01
     14  0.000000D+00 -0.892286D-01 -0.359947D-01  0.000000D+00  0.268803D-01
     15 -0.516234D-01  0.000000D+00  0.000000D+00  0.301807D-02  0.000000D+00
     16  0.000000D+00  0.387898D-01  0.281479D-01  0.000000D+00 -0.122924D+00
     17  0.000000D+00  0.634769D-01 -0.362472D-01  0.000000D+00 -0.255427D-01
     18 -0.594072D-02  0.000000D+00  0.000000D+00  0.290303D-02  0.000000D+00
     19  0.000000D+00 -0.616655D-01  0.373680D-02  0.000000D+00  0.231754D-01
     20  0.000000D+00  0.128757D-01  0.994055D-03  0.000000D+00 -0.334837D-01
     21  0.178110D-01  0.000000D+00  0.000000D+00 -0.907734D-02  0.000000D+00
     22  0.000000D+00 -0.429594D-01  0.781578D-01  0.000000D+00  0.298538D-02
     23  0.000000D+00  0.456497D-01  0.385537D-01  0.000000D+00  0.392516D-02
     24 -0.193406D-01  0.000000D+00  0.000000D+00  0.156099D-01  0.000000D+00
     25  0.000000D+00 -0.155511D-01 -0.157234D-01  0.000000D+00 -0.257348D+00
     26  0.000000D+00  0.122310D-01  0.102000D-01  0.000000D+00 -0.123734D+00
     27  0.473161D-02  0.000000D+00  0.000000D+00  0.201186D-02  0.000000D+00
     28  0.000000D+00  0.315686D-02  0.115645D-02  0.000000D+00  0.207535D-03
     29  0.000000D+00  0.892452D-03 -0.316758D-02  0.000000D+00  0.125162D-03
     30 -0.127073D-02  0.000000D+00  0.000000D+00  0.877150D-02  0.000000D+00
     31  0.000000D+00  0.179939D-02 -0.107593D-02  0.000000D+00  0.395159D-02
     32  0.000000D+00 -0.133692D-02 -0.460733D-02  0.000000D+00  0.263071D-01
     33 -0.185587D-02  0.000000D+00  0.000000D+00  0.104452D-01  0.000000D+00
     34  0.000000D+00 -0.212989D-02  0.115340D-02  0.000000D+00 -0.415544D-02
     35  0.000000D+00 -0.129985D-03  0.278910D-04  0.000000D+00 -0.225379D-02
     36  0.734739D-02  0.000000D+00  0.000000D+00 -0.259680D-03  0.000000D+00
               11            12            13            14            15 
     11  0.719327D+00
     12  0.000000D+00  0.113581D+00
     13  0.192026D-01  0.000000D+00  0.726922D+00
     14 -0.410216D-01  0.000000D+00  0.255139D-01  0.691507D+00
     15  0.000000D+00 -0.175709D-02  0.000000D+00  0.000000D+00  0.137075D+00
     16  0.180248D-01  0.000000D+00 -0.592478D-01  0.270322D-01  0.000000D+00
     17 -0.375718D+00  0.000000D+00 -0.146914D-01  0.554249D-01  0.000000D+00
     18  0.000000D+00 -0.556554D-01  0.000000D+00  0.000000D+00  0.744389D-02
     19 -0.613437D-01  0.000000D+00 -0.284645D+00  0.744670D-01  0.000000D+00
     20 -0.258371D-01  0.000000D+00  0.127610D+00 -0.177051D+00  0.000000D+00
     21  0.000000D+00  0.860292D-02  0.000000D+00  0.000000D+00 -0.630686D-01
     22 -0.672449D-02  0.000000D+00 -0.807200D-02 -0.477581D-02  0.000000D+00
     23 -0.155748D-01  0.000000D+00 -0.139607D-01 -0.173932D-01  0.000000D+00
     24  0.000000D+00  0.641087D-02  0.000000D+00  0.000000D+00 -0.379715D-02
     25 -0.122473D+00  0.000000D+00  0.325749D-04  0.206637D-02  0.000000D+00
     26 -0.124567D+00  0.000000D+00  0.377001D-03 -0.101861D-02  0.000000D+00
     27  0.000000D+00 -0.310308D-01  0.000000D+00  0.000000D+00 -0.317465D-03
     28  0.903220D-03  0.000000D+00 -0.272546D+00 -0.990887D-01  0.000000D+00
     29 -0.593036D-03  0.000000D+00 -0.961069D-01 -0.951442D-01  0.000000D+00
     30  0.000000D+00 -0.101423D-02  0.000000D+00  0.000000D+00 -0.380273D-01
     31 -0.175803D-02  0.000000D+00 -0.379013D-02 -0.329060D-02  0.000000D+00
     32 -0.109229D-01  0.000000D+00 -0.327690D-02 -0.629494D-03  0.000000D+00
     33  0.000000D+00  0.505033D-02  0.000000D+00  0.000000D+00  0.620999D-02
     34 -0.210654D-02  0.000000D+00  0.478036D-02  0.247658D-01  0.000000D+00
     35  0.733912D-03  0.000000D+00 -0.395783D-02 -0.113014D-01  0.000000D+00
     36  0.000000D+00  0.497374D-02  0.000000D+00  0.000000D+00 -0.129095D-02
               16            17            18            19            20 
     16  0.708108D+00
     17 -0.258098D-01  0.694847D+00
     18  0.000000D+00  0.000000D+00  0.134500D+00
     19 -0.292103D+00 -0.684059D-01  0.000000D+00  0.659009D+00
     20 -0.120304D+00 -0.165838D+00  0.000000D+00  0.538518D-02  0.734583D+00
     21  0.000000D+00  0.000000D+00 -0.581350D-01  0.000000D+00  0.000000D+00
     22  0.153521D-02  0.391954D-02  0.000000D+00 -0.230272D-02  0.542786D-03
     23  0.719369D-02  0.794520D-02  0.000000D+00 -0.937441D-02  0.480027D-02
     24  0.000000D+00  0.000000D+00 -0.477066D-03  0.000000D+00  0.000000D+00
     25  0.462628D-02  0.198004D-02  0.000000D+00  0.225743D-02  0.779702D-03
     26 -0.254597D-01 -0.100970D-01  0.000000D+00  0.152660D-02 -0.478879D-02
     27  0.000000D+00  0.000000D+00  0.175372D-02  0.000000D+00  0.000000D+00
     28 -0.298886D-02  0.361237D-02  0.000000D+00 -0.161301D-01 -0.121068D-01
     29  0.308271D-02 -0.132747D-02  0.000000D+00  0.144825D-01  0.104401D-01
     30  0.000000D+00  0.000000D+00  0.743426D-02  0.000000D+00  0.000000D+00
     31 -0.251871D+00  0.119286D+00  0.000000D+00 -0.164875D-01  0.150516D-01
     32  0.119136D+00 -0.124916D+00  0.000000D+00 -0.131644D-01  0.106163D-01
     33  0.000000D+00  0.000000D+00 -0.391157D-01  0.000000D+00  0.000000D+00
     34  0.262004D-02 -0.268559D-01  0.000000D+00 -0.518213D-01 -0.146796D-01
     35  0.149054D-02 -0.875322D-02  0.000000D+00 -0.142010D-01 -0.329178D+00
     36  0.000000D+00  0.000000D+00  0.556329D-03  0.000000D+00  0.000000D+00
               21            22            23            24            25 
     21  0.112022D+00
     22  0.000000D+00  0.213727D-01
     23  0.000000D+00 -0.823338D-01 -0.153149D-01
     24  0.313934D-02  0.000000D+00  0.000000D+00  0.380554D-01
     25  0.000000D+00 -0.137366D-02 -0.127987D-02  0.000000D+00  0.267798D+00
     26  0.000000D+00  0.315209D-03  0.859387D-03  0.000000D+00  0.132235D+00
     27  0.848721D-02  0.000000D+00  0.000000D+00 -0.342103D-03  0.000000D+00
     28  0.000000D+00  0.407532D-03  0.828888D-03  0.000000D+00 -0.506329D-04
     29  0.000000D+00 -0.998126D-04 -0.105781D-03  0.000000D+00 -0.129270D-03
     30  0.596253D-02  0.000000D+00  0.000000D+00 -0.166988D-02  0.000000D+00
     31  0.000000D+00 -0.426423D-05  0.616891D-04  0.000000D+00  0.595148D-03
     32  0.000000D+00  0.909513D-04 -0.600284D-03  0.000000D+00 -0.320247D-03
     33  0.406462D-02  0.000000D+00  0.000000D+00 -0.106102D-02  0.000000D+00
     34  0.000000D+00 -0.909847D-03 -0.146478D-02  0.000000D+00  0.121517D-03
     35  0.000000D+00  0.364594D-03  0.803232D-03  0.000000D+00  0.254666D-03
     36 -0.271616D-01  0.000000D+00  0.000000D+00  0.574960D-03  0.000000D+00
               26            27            28            29            30 
     26  0.129026D+00
     27  0.000000D+00  0.221031D-01
     28 -0.481192D-04  0.000000D+00  0.284684D+00
     29  0.821464D-04  0.000000D+00  0.109531D+00  0.111314D+00
     30  0.000000D+00 -0.149554D-02  0.000000D+00  0.000000D+00  0.244510D-01
     31  0.160876D-03  0.000000D+00 -0.822360D-03  0.777685D-03  0.000000D+00
     32  0.121361D-02  0.000000D+00 -0.694072D-03  0.400822D-03  0.000000D+00
     33  0.000000D+00 -0.439406D-02  0.000000D+00  0.000000D+00 -0.342540D-03
     34 -0.117309D-02  0.000000D+00  0.756767D-03 -0.452212D-03  0.000000D+00
     35 -0.385769D-03  0.000000D+00  0.918331D-04  0.484420D-03  0.000000D+00
     36  0.000000D+00  0.516088D-03  0.000000D+00  0.000000D+00 -0.374311D-02
               31            32            33            34            35 
     31  0.265094D+00
     32 -0.128403D+00  0.129950D+00
     33  0.000000D+00  0.000000D+00  0.247171D-01
     34  0.103249D-02  0.589931D-03  0.000000D+00  0.517496D-01
     35  0.000000D+00  0.592940D-03  0.000000D+00  0.162323D-01  0.346418D+00
     36  0.000000D+00  0.000000D+00 -0.288596D-02  0.000000D+00  0.000000D+00
               36 
     36  0.220869D-01
 FormGI is forming the generalized inverse of G from B-inverse, IUseBI=4.
 Leave Link  716 at Sat Aug 28 00:51:21 2021, MaxMem= 17179869184 cpu:        25.8
 (Enter /public3/home/sc51754/softwares/g09e01/l103.exe)

 GradGradGradGradGradGradGradGradGradGradGradGradGradGradGradGradGradGrad
 Berny optimization.
 Red2BG is reusing G-inverse.
 Internal  Forces:  Max     0.044124309 RMS     0.010319459
 Search for a saddle point.
 Step number   1 out of a maximum of  100
 All quantities printed in internal units (Hartrees-Bohrs-Radians)
 Second derivative matrix not updated -- analytic derivatives used.
 ITU=  0
 LST/QST climbing along tangent vector
     Eigenvalues ---   -0.05536   0.00169   0.00738   0.01478   0.01628
     Eigenvalues ---    0.01949   0.02185   0.02647   0.02894   0.04094
     Eigenvalues ---    0.04234   0.09524   0.09925   0.11087   0.11965
     Eigenvalues ---    0.14093   0.18661   0.18748   0.22642   0.32089
     Eigenvalues ---    0.33234   0.33697   0.34368   0.34849   0.34974
     Eigenvalues ---    0.41964   0.42688   0.47045   0.49987   0.55010
     Eigenvalues --- 1000.000001000.000001000.000001000.000001000.00000
     Eigenvalues --- 1000.000001000.000001000.000001000.000001000.00000
     Eigenvalues --- 1000.000001000.000001000.000001000.000001000.00000
     Eigenvalues --- 1000.000001000.000001000.000001000.000001000.00000
     Eigenvalues --- 1000.000001000.000001000.000001000.000001000.00000
     Eigenvalues --- 1000.000001000.000001000.00000
 Eigenvectors required to have negative eigenvalues:
                          R2        R5        A4        A3        D22
   1                    0.66059  -0.51778  -0.23391   0.19754   0.16813
                          D8        D21       A1        D10       D19
   1                   -0.15369   0.15220  -0.14964  -0.14392  -0.12775
 QST in optimization variable space.
                        Tangent   TS vect  // Eig F  Eigenval
   1         R1        -0.04774  -0.04774  -0.01738  -0.05536
   2         R2         0.66059   0.66059  -0.00040   0.00169
   3         R3         0.02592   0.02592   0.00280   0.00738
   4         R4         0.00843   0.00843  -0.00038   0.01478
   5         R5        -0.51778  -0.51778   0.00043   0.01628
   6         R6         0.02030   0.02030   0.00007   0.01949
   7         R7        -0.00828  -0.00828   0.00026   0.02185
   8         R8         0.00003   0.00003   0.00012   0.02647
   9         R9        -0.01057  -0.01057   0.00018   0.02894
  10         R10       -0.00181  -0.00181  -0.00153   0.04094
  11         R11        0.01080   0.01080  -0.02048   0.04234
  12         R12        0.00056   0.00056  -0.00295   0.09524
  13         R13       -0.00097  -0.00097   0.00372   0.09925
  14         A1        -0.14964  -0.14964  -0.00051   0.11087
  15         A2         0.03636   0.03636   0.00231   0.11965
  16         A3         0.19754   0.19754  -0.02011   0.14093
  17         A4        -0.23391  -0.23391   0.00781   0.18661
  18         A5         0.00670   0.00670  -0.00113   0.18748
  19         A6         0.04061   0.04061  -0.00820   0.22642
  20         A7        -0.04731  -0.04731   0.01670   0.32089
  21         A8         0.01774   0.01774  -0.01135   0.33234
  22         A9        -0.01670  -0.01670  -0.00043   0.33697
  23         A10       -0.00104  -0.00104  -0.00242   0.34368
  24         A11       -0.01376  -0.01376  -0.00193   0.34849
  25         A12        0.00223   0.00223   0.00378   0.34974
  26         A13        0.01153   0.01153   0.00273   0.41964
  27         A14        0.00741   0.00741   0.00422   0.42688
  28         A15       -0.00172  -0.00172  -0.00303   0.47045
  29         A16       -0.00569  -0.00569  -0.00100   0.49987
  30         A17       -0.00044  -0.00044   0.00306   0.55010
  31         A18       -0.00111  -0.00111   0.000001000.00000
  32         A19        0.00155   0.00155  -0.000001000.00000
  33         D1         0.02043   0.02043   0.000001000.00000
  34         D2         0.03093   0.03093   0.000001000.00000
  35         D3        -0.01796  -0.01796   0.000001000.00000
  36         D4        -0.02896  -0.02896  -0.000001000.00000
  37         D5        -0.01984  -0.01984   0.000001000.00000
  38         D6        -0.03084  -0.03084  -0.000001000.00000
[...]
     31  0.255063D+00
     32 -0.132030D+00  0.139791D+00
     33  0.000000D+00  0.000000D+00  0.247587D-01
     34  0.104071D-02  0.487268D-03  0.000000D+00  0.521068D-01
     35 -0.161960D-04  0.577124D-03  0.000000D+00  0.168527D-01  0.348877D+00
     36  0.000000D+00  0.000000D+00 -0.304066D-02  0.000000D+00  0.000000D+00
               36 
     36  0.214661D-01
 FormGI is forming the generalized inverse of G from B-inverse, IUseBI=4.
 Leave Link  716 at Sat Aug 28 00:53:04 2021, MaxMem= 17179869184 cpu:        91.3
 (Enter /public3/home/sc51754/softwares/g09e01/l103.exe)

 GradGradGradGradGradGradGradGradGradGradGradGradGradGradGradGradGradGrad
 Berny optimization.
 Red2BG is reusing G-inverse.
 Internal  Forces:  Max     0.000278109 RMS     0.000051601
 Search for a saddle point.
 Step number   1 out of a maximum of    2
 All quantities printed in internal units (Hartrees-Bohrs-Radians)
 Swapping is turned off.
 Second derivative matrix not updated -- analytic derivatives used.
 ITU=  0
     Eigenvalues ---   -0.07352   0.00199   0.01491   0.01551   0.01911
     Eigenvalues ---    0.02053   0.02322   0.02577   0.03093   0.05065
     Eigenvalues ---    0.09506   0.09974   0.11206   0.11464   0.12467
     Eigenvalues ---    0.14251   0.18175   0.18931   0.25819   0.30116
     Eigenvalues ---    0.34062   0.34408   0.34527   0.35065   0.35300
     Eigenvalues ---    0.41514   0.43709   0.47436   0.52872   0.55824
 Eigenvectors required to have negative eigenvalues:
                          R2        R5        A4        A3        A1
   1                    0.70963  -0.58427  -0.25356   0.20080  -0.15261
                          R1        A7        R3        A2        A6
   1                   -0.10289  -0.06210   0.05988   0.05276   0.03712
 Angle between quadratic step and forces=  44.89 degrees.
 Linear search not attempted -- option 19 set.
 Iteration  1 RMS(Cart)=  0.00030015 RMS(Int)=  0.00000018
 Iteration  2 RMS(Cart)=  0.00000016 RMS(Int)=  0.00000008
 ITry= 1 IFail=0 DXMaxC= 1.77D-03 DCOld= 1.00D+10 DXMaxT= 3.00D-01 DXLimC= 3.00D+00 Rises=F
 ClnCor:  largest displacement from symmetrization is 1.35D-12 for atom    11.
 Variable       Old X    -DE/DX   Delta X   Delta X   Delta X     New X
                                 (Linear)    (Quad)   (Total)
    R1        2.41772   0.00015   0.00000   0.00048   0.00048   2.41820
    R2        2.59948  -0.00008   0.00000  -0.00216  -0.00216   2.59733
    R3        2.55910   0.00010   0.00000   0.00028   0.00028   2.55938
    R4        2.50347   0.00002   0.00000   0.00005   0.00005   2.50352
    R5        2.44222  -0.00028   0.00000  -0.00117  -0.00117   2.44105
    R6        2.64172   0.00002   0.00000  -0.00008  -0.00008   2.64164
    R7        2.59995  -0.00000   0.00000   0.00003   0.00003   2.59997
    R8        2.05833   0.00000   0.00000  -0.00000  -0.00000   2.05833
    R9        2.60215  -0.00001   0.00000  -0.00000  -0.00000   2.60214
   R10        2.06304   0.00000   0.00000   0.00001   0.00001   2.06305
   R11        2.63708   0.00005   0.00000   0.00004   0.00004   2.63712
   R12        2.06496   0.00000   0.00000  -0.00000  -0.00000   2.06496
   R13        2.05769  -0.00000   0.00000   0.00000   0.00000   2.05770
    A1        1.30305  -0.00012   0.00000  -0.00027  -0.00027   1.30278
    A2        2.15795  -0.00001   0.00000  -0.00033  -0.00033   2.15762
    A3        1.30892  -0.00005   0.00000  -0.00058  -0.00058   1.30833
    A4        2.81632   0.00006   0.00000   0.00091   0.00091   2.81723
    A5        1.85263  -0.00007   0.00000  -0.00063  -0.00063   1.85200
    A6        2.33956   0.00005   0.00000   0.00025   0.00025   2.33982
    A7        2.09099   0.00003   0.00000   0.00038   0.00038   2.09137
    A8        2.03759  -0.00003   0.00000  -0.00021  -0.00021   2.03738
    A9        2.10598   0.00000   0.00000  -0.00005  -0.00005   2.10593
   A10        2.13962   0.00003   0.00000   0.00026   0.00026   2.13988
   A11        2.07962  -0.00003   0.00000   0.00000   0.00000   2.07962
   A12        2.05487   0.00002   0.00000   0.00010   0.00010   2.05497
   A13        2.14869   0.00000   0.00000  -0.00010  -0.00010   2.14860
   A14        2.13067   0.00001   0.00000  -0.00001  -0.00001   2.13065
   A15        2.07659   0.00000   0.00000   0.00009   0.00009   2.07667
   A16        2.07593  -0.00001   0.00000  -0.00007  -0.00007   2.07586
   A17        2.06955   0.00004   0.00000   0.00017   0.00017   2.06973
   A18        2.09841  -0.00002   0.00000  -0.00010  -0.00010   2.09831
   A19        2.11523  -0.00001   0.00000  -0.00008  -0.00008   2.11515
    D1       -0.00000   0.00000   0.00000   0.00000   0.00000   0.00000
    D2        3.14159   0.00000   0.00000  -0.00000   0.00000   3.14159
    D3        3.14159  -0.00000   0.00000  -0.00000   0.00000   3.14159
    D4       -0.00000  -0.00000   0.00000   0.00000   0.00000   0.00000
    D5       -0.00000   0.00000   0.00000  -0.00000   0.00000   0.00000
    D6        3.14159  -0.00000   0.00000   0.00000   0.00000   3.14159
    D7        0.00000  -0.00000   0.00000  -0.00000  -0.00000   0.00000
    D8        3.14159   0.00000   0.00000  -0.00000   0.00000   3.14159
    D9        3.14159  -0.00000   0.00000  -0.00000   0.00000   3.14159
   D10       -0.00000   0.00000   0.00000  -0.00000   0.00000   0.00000
   D11        3.14159   0.00000   0.00000   0.00000   0.00000   3.14159
   D12        0.00000   0.00000   0.00000   0.00000   0.00000   0.00000
   D13        0.00000   0.00000   0.00000   0.00000   0.00000   0.00000
   D14        3.14159   0.00000   0.00000  -0.00000   0.00000   3.14159
   D15       -0.00000  -0.00000   0.00000  -0.00000   0.00000   0.00000
   D16        3.14159  -0.00000   0.00000  -0.00000   0.00000   3.14159
   D17        3.14159  -0.00000   0.00000  -0.00000   0.00000   3.14159
   D18        0.00000  -0.00000   0.00000  -0.00000   0.00000   0.00000
   D19       -0.00000   0.00000   0.00000   0.00000   0.00000   0.00000
   D20        3.14159   0.00000   0.00000  -0.00000   0.00000   3.14159
   D21        3.14159   0.00000   0.00000  -0.00000   0.00000   3.14159
   D22        0.00000  -0.00000   0.00000  -0.00000   0.00000   0.00000
   D23        0.00000   0.00000   0.00000   0.00000   0.00000   0.00000
   D24        3.14159  -0.00000   0.00000   0.00000   0.00000   3.14159
   D25        3.14159  -0.00000   0.00000   0.00000   0.00000   3.14159
   D26       -0.00000  -0.00000   0.00000   0.00000   0.00000   0.00000
         Item               Value     Threshold  Converged?
 Maximum Force            0.000278     0.000450     YES
 RMS     Force            0.000052     0.000300     YES
 Maximum Displacement     0.001774     0.001800     YES
 RMS     Displacement     0.000300     0.001200     YES
 Predicted change in Energy=-4.057437D-07
 Optimization completed.
    -- Stationary point found.
                           ----------------------------
                           !   Optimized Parameters   !
                           ! (Angstroms and Degrees)  !
 --------------------------                            --------------------------
 ! Name  Definition              Value          Derivative Info.                !
 --------------------------------------------------------------------------------
 ! R1    R(1,3)                  1.2794         -DE/DX =    0.0002              !
 ! R2    R(1,8)                  1.3756         -DE/DX =   -0.0001              !
 ! R3    R(2,3)                  1.3542         -DE/DX =    0.0001              !
 ! R4    R(2,5)                  1.3248         -DE/DX =    0.0                 !
 ! R5    R(2,8)                  1.2924         -DE/DX =   -0.0003              !
 ! R6    R(3,4)                  1.3979         -DE/DX =    0.0                 !
 ! R7    R(4,6)                  1.3758         -DE/DX =    0.0                 !
 ! R8    R(4,9)                  1.0892         -DE/DX =    0.0                 !
 ! R9    R(5,7)                  1.377          -DE/DX =    0.0                 !
 ! R10   R(5,10)                 1.0917         -DE/DX =    0.0                 !
 ! R11   R(6,7)                  1.3955         -DE/DX =    0.0                 !
 ! R12   R(6,11)                 1.0927         -DE/DX =    0.0                 !
 ! R13   R(7,12)                 1.0889         -DE/DX =    0.0                 !
 ! A1    A(3,1,8)               74.6591         -DE/DX =   -0.0001              !
 ! A2    A(3,2,5)              123.6416         -DE/DX =    0.0                 !
 ! A3    A(3,2,8)               74.9954         -DE/DX =    0.0                 !
 ! A4    A(5,2,8)              161.363          -DE/DX =    0.0001              !
 ! A5    A(1,3,2)              106.148          -DE/DX =   -0.0001              !
 ! A6    A(1,3,4)              134.0471         -DE/DX =    0.0                 !
 ! A7    A(2,3,4)              119.8049         -DE/DX =    0.0                 !
 ! A8    A(3,4,6)              116.7453         -DE/DX =    0.0                 !
 ! A9    A(3,4,9)              120.6636         -DE/DX =    0.0                 !
 ! A10   A(6,4,9)              122.591          -DE/DX =    0.0                 !
 ! A11   A(2,5,7)              119.1534         -DE/DX =    0.0                 !
 ! A12   A(2,5,10)             117.7355         -DE/DX =    0.0                 !
 ! A13   A(7,5,10)             123.1111         -DE/DX =    0.0                 !
 ! A14   A(4,6,7)              122.0782         -DE/DX =    0.0                 !
 ! A15   A(4,6,11)             118.9796         -DE/DX =    0.0                 !
 ! A16   A(7,6,11)             118.9422         -DE/DX =    0.0                 !
 ! A17   A(5,7,6)              118.5766         -DE/DX =    0.0                 !
 ! A18   A(5,7,12)             120.2298         -DE/DX =    0.0                 !
 ! A19   A(6,7,12)             121.1936         -DE/DX =    0.0                 !
 ! D1    D(8,1,3,2)              0.0            -DE/DX =    0.0                 !
 ! D2    D(8,1,3,4)            180.0            -DE/DX =    0.0                 !
 ! D3    D(5,2,3,1)            180.0            -DE/DX =    0.0                 !
 ! D4    D(5,2,3,4)              0.0            -DE/DX =    0.0                 !
 ! D5    D(8,2,3,1)              0.0            -DE/DX =    0.0                 !
 ! D6    D(8,2,3,4)            180.0            -DE/DX =    0.0                 !
 ! D7    D(3,2,5,7)              0.0            -DE/DX =    0.0                 !
 ! D8    D(3,2,5,10)           180.0            -DE/DX =    0.0                 !
 ! D9    D(8,2,5,7)            180.0            -DE/DX =    0.0                 !
 ! D10   D(8,2,5,10)             0.0            -DE/DX =    0.0                 !
 ! D11   D(1,3,4,6)            180.0            -DE/DX =    0.0                 !
 ! D12   D(1,3,4,9)              0.0            -DE/DX =    0.0                 !
 ! D13   D(2,3,4,6)              0.0            -DE/DX =    0.0                 !
 ! D14   D(2,3,4,9)            180.0            -DE/DX =    0.0                 !
 ! D15   D(3,4,6,7)              0.0            -DE/DX =    0.0                 !
 ! D16   D(3,4,6,11)           180.0            -DE/DX =    0.0                 !
 ! D17   D(9,4,6,7)            180.0            -DE/DX =    0.0                 !
 ! D18   D(9,4,6,11)             0.0            -DE/DX =    0.0                 !
 ! D19   D(2,5,7,6)              0.0            -DE/DX =    0.0                 !
 ! D20   D(2,5,7,12)           180.0            -DE/DX =    0.0                 !
 ! D21   D(10,5,7,6)           180.0            -DE/DX =    0.0                 !
 ! D22   D(10,5,7,12)            0.0            -DE/DX =    0.0                 !
 ! D23   D(4,6,7,5)              0.0            -DE/DX =    0.0                 !
 ! D24   D(4,6,7,12)           180.0            -DE/DX =    0.0                 !
 ! D25   D(11,6,7,5)           180.0            -DE/DX =    0.0                 !
 ! D26   D(11,6,7,12)            0.0            -DE/DX =    0.0                 !
 --------------------------------------------------------------------------------
 GradGradGradGradGradGradGradGradGradGradGradGradGradGradGradGradGradGrad

 Leave Link  103 at Sat Aug 28 00:53:05 2021, MaxMem= 17179869184 cpu:        62.9
 (Enter /public3/home/sc51754/softwares/g09e01/l9999.exe)
 1\1\GINC-O1502\Freq\RSVWN\Gen\C5H5N1O1\SC51754\28-Aug-2021\0\\#P Geom=
 AllCheck Guess=TCheck SCRF=Check GenChk RSVWN/ChkBas Freq\\HY_SVWN_PC2
 _OPT_FREQ\\0,1\O,0.0348397411,2.5574039181,0.\N,-0.8582778042,0.650353
 0689,0.\C,0.323821481,1.3110642426,0.\C,1.5221764282,0.5912203447,0.\C
 ,-0.9608235723,-0.6704511558,0.\C,1.4202719085,-0.7808333639,0.\C,0.18
 62009807,-1.432326225,0.\H,-1.1752504513,1.9032453898,0.\H,2.480821070
 2,1.1083343002,0.\H,-1.9635361197,-1.1022053707,0.\H,2.3343460472,-1.3
 796069761,0.\H,0.1223249905,-2.5193362727,0.\\Version=EM64L-G09RevE.01
 \State=1-A'\HF=-321.8560081\RMSD=1.632e-09\RMSF=9.085e-05\ZeroPoint=0.
 0868301\Thermal=0.0919365\Dipole=-0.0197341,-1.3258416,0.\DipoleDeriv=
 -0.469939,0.0122898,0.,0.1833059,-1.5353227,0.,0.,0.,-0.3615031,-0.317
 3282,-0.3716082,0.,0.1475266,-0.9012275,0.,0.,0.,-0.1831905,0.1715458,
 -0.3781824,0.,-0.2497532,1.5462818,0.,0.,0.,0.1914914,-0.0475764,0.468
 1383,0.,-0.0735563,-0.5478775,0.,0.,0.,-0.1650841,0.4111147,0.1105045,
 0.,-0.4437142,0.3737195,0.,0.,0.,0.0020591,0.2968801,0.129483,0.,0.192
 1119,0.4089001,0.,0.,0.,-0.0878203,-0.5401635,-0.1421548,0.,0.0642815,
 -0.1953871,0.,0.,0.,-0.18643,0.3773544,0.1898155,0.,0.1957165,0.691486
 8,0.,0.,0.,0.2149789,0.0282469,-0.0269492,0.,-0.0304844,0.0581986,0.,0
 .,0.,0.1553751,0.0106467,-0.0503142,0.,-0.0301689,0.0659448,0.,0.,0.,0
 .130191,0.0021656,0.0627942,0.,0.063268,0.0542457,0.,0.,0.,0.1282566,0
 .0770529,-0.0038166,0.,-0.0185335,-0.0189623,0.,0.,0.,0.1616759\Polar=
 75.9657885,-0.0484398,91.2000304,0.,0.,38.0902527\PG=CS [SG(C5H5N1O1)]
 \NImag=1\\0.08782900,-0.02651211,0.61982276,0.,0.,0.04990159,-0.009396
 25,-0.04916198,0.,0.47324306,-0.13682457,-0.12137162,0.,0.13245479,0.7
 3508642,0.,0.,0.03510137,0.,0.,0.08882825,-0.10201471,0.06825776,0.,-0
 .25752068,-0.03847603,0.,0.71224028,0.04311546,-0.44120415,0.,-0.08053
 545,-0.17778889,0.,-0.12466886,0.74755488,0.,0.,-0.06844155,0.,0.,-0.0
 7594416,0.,0.,0.18086400,-0.00509445,0.01817322,0.,-0.04947326,-0.0180
 4327,0.,-0.27056780,0.08805673,0.,0.70320880,0.05566880,-0.02434878,0.
 ,0.00988364,0.05600633,0.,0.05603835,-0.14511440,0.,0.04643488,0.69776
 743,0.,0.,0.01229797,0.,0.,0.00671501,0.,0.,-0.07044137,0.,0.,0.110979
 07,0.00891725,-0.00279760,0.,-0.13339793,-0.02332409,0.,0.02358397,-0.
 02390303,0.,-0.00833356,0.01851127,0.,0.75102313,0.02038561,-0.0002224
 4,0.,-0.02053135,-0.37445340,0.,-0.08301032,-0.02511291,0.,0.02316831,
 -0.04176287,0.,0.02737024,0.69055804,0.,0.,0.00612969,0.,0.,-0.0494466
 3,0.,0.,0.00075253,0.,0.,-0.00082658,0.,0.,0.13675564,-0.01756483,0.00
 071984,0.,-0.01426899,-0.03688624,0.,0.03981435,0.02827868,0.,-0.12027
 861,0.00391430,0.,-0.05691237,0.02923895,0.,0.68306117,-0.01549375,0.0
 0553661,0.,-0.01741428,-0.04396696,0.,0.06266077,-0.03699081,0.,-0.041
 15087,-0.37527980,0.,-0.01146101,0.05324194,0.,-0.02485906,0.69781276,
 0.,0.,0.00493512,0.,0.,-0.00589282,0.,0.,0.00149019,0.,0.,-0.05256025,
 0.,0.,0.00680043,0.,0.,0.13599595,0.01789375,-0.00179288,0.,0.02709910
 ,0.07268313,0.,-0.06228660,0.00476550,0.,0.01993759,-0.06211981,0.,-0.
 29163095,0.08066980,0.,-0.27736982,-0.05790763,0.,0.64976438,-0.006358
 21,-0.00663466,0.,0.02888346,-0.05912191,0.,0.01000027,0.00108172,0.,-
 0.03210714,-0.02229052,0.,0.13171714,-0.17983772,0.,-0.11080708,-0.160
 27419,0.,-0.01069663,0.73603518,0.,0.,-0.00257877,0.,0.,0.01761079,0.,
 0.,-0.00896459,0.,0.,0.00791792,0.,0.,-0.06189227,0.,0.,-0.05958740,0.
 ,0.,0.11060086,0.01556405,-0.00704414,0.,-0.03134199,0.04655382,0.,-0.
 07000278,0.07909384,0.,0.00160453,-0.00966078,0.,-0.00709845,-0.006493
 63,0.,0.00278257,0.00455046,0.,-0.00307781,0.00069749,0.,0.09336674,0.
 06726474,-0.03011003,0.,0.02242607,0.00393244,0.,0.03501362,0.07259890
 ,0.,0.00792072,-0.02034479,0.,-0.01742847,-0.01822977,0.,0.00874867,0.
 01195436,0.,-0.01327683,0.00541944,0.,-0.10863924,-0.02615814,0.,0.,-0
 .03384191,0.,0.,-0.02850977,0.,0.,0.02017101,0.,0.,0.00655111,0.,0.,-0
 .00559756,0.,0.,-0.00067246,0.,0.,0.00482005,0.,0.,0.04000518,0.002313
 55,0.00025135,0.,-0.00310577,0.00331822,0.,-0.01618136,-0.01545932,0.,
 -0.27170039,-0.11505232,0.,-0.00021694,0.00215029,0.,0.00321800,0.0009
 3958,0.,0.00267389,0.00066603,0.,-0.00149398,-0.00116435,0.,0.28383333
 ,-0.00213696,0.00018799,0.,0.00456737,-0.00121365,0.,0.01352221,0.0115
 4656,0.,-0.11557662,-0.11217847,0.,0.00038712,-0.00122677,0.,-0.026220
 85,-0.00922366,0.,0.00126724,-0.00441649,0.,0.00069320,0.00082046,0.,0
 .12455297,0.11468912,0.,0.,-0.00212097,0.,0.,0.00561072,0.,0.,0.001886
 81,0.,0.,-0.02989751,0.,0.,-0.00040323,0.,0.,0.00104910,0.,0.,0.008505
 07,0.,0.,-0.00032714,0.,0.,0.02134609,-0.00068204,-0.00018619,0.,0.002
 28447,-0.00463777,0.,0.00320199,0.00142155,0.,0.00008728,0.00067306,0.
 ,-0.28726160,-0.09536732,0.,-0.00251982,0.00348884,0.,-0.01409851,-0.0
 1130578,0.,0.00053629,0.00084031,0.,-0.00006508,-0.00003625,0.,0.29857
 035,0.00021576,-0.00166775,0.,-0.03374369,-0.01664126,0.,0.00228999,-0
 .00123958,0.,-0.00011839,-0.00069784,0.,-0.09179490,-0.09032891,0.,0.0
 0311785,-0.00160319,0.,0.01436178,0.01098567,0.,-0.00009240,-0.0006104
 9,0.,-0.00015926,0.00013746,0.,0.10568769,0.10077168,0.,0.,0.00042096,
 0.,0.,-0.00044492,0.,0.,0.00917843,0.,0.,-0.00068558,0.,0.,-0.03692247
 ,0.,0.,0.00726710,0.,0.,0.00560372,0.,0.,-0.00249489,0.,0.,-0.00172091
 ,0.,0.,0.02366812,0.00002901,0.00002801,0.,0.00053676,-0.00137702,0.,0
 .00169352,-0.00144148,0.,0.00467030,-0.00246004,0.,-0.00411661,-0.0027
 7390,0.,-0.24189242,0.12353322,0.,-0.01691235,0.01549178,0.,0.00001929
 ,0.00011845,0.,0.00065483,0.00013322,0.,-0.00078580,0.00079366,0.,0.25
 506275,0.00167783,-0.00027488,0.,-0.00038471,-0.00026712,0.,-0.0013397
 6,-0.00509192,0.,0.02513000,-0.01262022,0.,-0.00318984,-0.00057271,0.,
 0.12332353,-0.13292064,0.,-0.01269568,0.01029205,0.,-0.00009268,-0.000
 57166,0.,-0.00023489,0.00123144,0.,-0.00065136,0.00042745,0.,-0.132029
 71,0.13979108,0.,0.,-0.00101313,0.,0.,-0.00094308,0.,0.,0.00990729,0.,
 0.,0.00496635,0.,0.,0.00588162,0.,0.,-0.03870239,0.,0.,0.00410222,0.,0
 .,-0.00104243,0.,0.,-0.00450428,0.,0.,-0.00037026,0.,0.,0.02475875,0.0
 0220565,0.00006471,0.,-0.00465852,0.00455903,0.,-0.00196019,0.00127637
 ,0.,-0.00406043,-0.00183134,0.,0.00544405,0.02519331,0.,0.00193076,-0.
 02688626,0.,-0.05199267,-0.01618131,0.,-0.00085847,-0.00182370,0.,0.00
 006990,-0.00115266,0.,0.00073246,-0.00055807,0.,0.00104071,0.00048727,
 0.,0.05210675,-0.00100260,0.00028696,0.,0.00355614,-0.00020038,0.,-0.0
 0028798,-0.00023940,0.,-0.00188756,0.00086394,0.,-0.00408684,-0.012052
 48,0.,0.00143142,-0.00828642,0.,-0.01525800,-0.33123857,0.,0.00043405,
 0.00129929,0.,0.00019168,-0.00035401,0.,0.00007322,0.00046674,0.,-0.00
 001620,0.00057712,0.,0.01685265,0.34887722,0.,0.,-0.00079036,0.,0.,0.0
 0731523,0.,0.,-0.00045857,0.,0.,0.00498386,0.,0.,-0.00123118,0.,0.,-0.
 00012257,0.,0.,-0.02613759,0.,0.,0.00093881,0.,0.,0.00057625,0.,0.,-0.
 00349931,0.,0.,-0.00304066,0.,0.,0.02146609\\0.00013535,-0.00015115,0.
 ,0.00022282,-0.00024952,0.,-0.00011514,0.00011603,0.,-0.00005214,0.000
 01889,0.,0.00000244,0.00004947,0.,-0.00002580,-0.00002437,0.,0.0000284
 0,-0.00001693,0.,-0.00019510,0.00026571,0.,0.00000996,-0.00002049,0.,-
 0.00000540,0.00001577,0.,-0.00000175,-0.00000190,0.,-0.00000365,-0.000
 00152,0.\\\@


 The number of Unix installations has grown to 10,
  with more expected.
                  -- The Unix Programmer's Manual,
                     2nd Edition, June, 1972.
 Job cpu time:       0 days  0 hours 31 minutes 36.9 seconds.
 File lengths (MBytes):  RWF=     81 Int=      0 D2E=      0 Chk=      7 Scr=      1
 Normal termination of Gaussian 09 at Sat Aug 28 00:53:05 2021.
