 Entering Gaussian System, Link 0=g09
 AtFile(1): aug-pc-3.gbs
            -H     0
            S    5   1.00
                  0.774690D+03           0.131630D-02
                  0.116160D+03           0.102260D-01
                  0.264490D+02           0.536290D-01
                  0.750150D+01           0.222850D+00
                  0.245680D+01           0.753740D+00
            S    1   1.00
                  0.887740D+00           0.100000D+01
            S    1   1.00
                  0.340850D+00           0.100000D+01
            S    1   1.00
                  0.134770D+00           0.100000D+01
            S    1   1.00
                  0.522630D-01           0.100000D+01
            S    1   1.00
                  0.188000D-01           0.100000D+01
            P    1   1.00
                  0.650000D+01           0.100000D+01
            P    1   1.00
                  0.155000D+01           0.100000D+01
            P    1   1.00
                  0.550000D+00           0.100000D+01
            P    1   1.00
                  0.200000D+00           0.100000D+01
            P    1   1.00
                  0.563990D-01           0.100000D+01
            D    1   1.00
                  0.195000D+01           0.100000D+01
            D    1   1.00
                  0.650000D+00           0.100000D+01
            D    1   1.00
                  0.751990D-01           0.100000D+01
            F    1   1.00
                  0.220000D+01           0.100000D+01
            F    1   1.00
                  0.939990D-01           0.100000D+01
            ****
            -C     0
            S    9   1.00
                  0.871410D+05           0.281830D-04
                  0.130520D+05           0.218190D-03
                  0.297060D+04           0.115110D-02
                  0.841460D+03           0.478590D-02
                  0.274590D+03           0.171340D-01
                  0.992150D+02           0.511200D-01
                  0.386940D+02           0.128050D+00
                  0.159110D+02           0.227730D+00
                  0.676680D+01           0.247580D+00
            S    9   1.00
                  0.130520D+05           0.259300D-05
                  0.297060D+04          -0.309070D-05
                  0.841460D+03           0.122470D-03
                  0.274590D+03           0.254940D-03
                  0.992150D+02           0.512540D-02
                  0.386940D+02           0.219550D-01
                  0.159110D+02           0.141120D+00
                  0.676680D+01           0.413030D+00
                  0.289840D+01           0.827140D+00
            S    1   1.00
                  0.112460D+01           0.100000D+01
            S    1   1.00
                  0.514460D+00           0.100000D+01
            S    1   1.00
                  0.211760D+00           0.100000D+01
            S    1   1.00
                  0.850170D-01           0.100000D+01
            S    1   1.00
                  0.316050D-01           0.100000D+01
            P    5   1.00
                  0.148240D+03           0.507560D-03
                  0.349120D+02           0.421260D-02
                  0.108940D+02           0.213350D-01
                  0.419340D+01           0.623290D-01
                  0.171340D+01           0.166420D+00
            P    1   1.00
                  0.735660D+00           0.100000D+01
            P    1   1.00
                  0.316370D+00           0.100000D+01
            P    1   1.00
                  0.132420D+00           0.100000D+01
            P    1   1.00
                  0.519010D-01           0.100000D+01
            P    1   1.00
                  0.188730D-01           0.100000D+01
            D    1   1.00
                  0.520000D+01           0.100000D+01
            D    1   1.00
                  0.135000D+01           0.100000D+01
            D    1   1.00
                  0.520000D+00           0.100000D+01
            D    1   1.00
                  0.200000D+00           0.100000D+01
            D    1   1.00
                  0.566190D-01           0.100000D+01
            F    1   1.00
                  0.150000D+01           0.100000D+01
            F    1   1.00
                  0.650000D+00           0.100000D+01
            F    1   1.00
                  0.754920D-01           0.100000D+01
            G    1   1.00
                  0.140000D+01           0.100000D+01
            G    1   1.00
                  0.943650D-01           0.100000D+01
            ****
            -N     0
            S    9   1.00
                  0.124550D+06           0.266720D-04
                  0.186560D+05           0.206840D-03
                  0.424510D+04           0.108930D-02
                  0.120210D+04           0.454630D-02
                  0.392140D+03           0.162370D-01
                  0.141580D+03           0.489570D-01
                  0.551360D+02           0.123170D+00
                  0.226430D+02           0.224250D+00
                  0.965660D+01           0.238760D+00
            S    8   1.00
                  0.186560D+05           0.140880D-05
                  0.120210D+04           0.814390D-04
                  0.392140D+03           0.324390D-03
                  0.141580D+03           0.436210D-02
                  0.551360D+02           0.228380D-01
                  0.226430D+02           0.134620D+00
                  0.965660D+01           0.425010D+00
                  0.416850D+01           0.825170D+00
            S    1   1.00
                  0.166780D+01           0.100000D+01
            S    1   1.00
                  0.745740D+00           0.100000D+01
            S    1   1.00
                  0.305160D+00           0.100000D+01
            S    1   1.00
                  0.120890D+00           0.100000D+01
            S    1   1.00
                  0.444440D-01           0.100000D+01
            P    5   1.00
                  0.218290D+03           0.482810D-03
                  0.514880D+02           0.404200D-02
                  0.161300D+02           0.209460D-01
                  0.613070D+01           0.647570D-01
                  0.250520D+01           0.170420D+00
            P    1   1.00
                  0.107300D+01           0.100000D+01
            P    1   1.00
                  0.458380D+00           0.100000D+01
            P    1   1.00
                  0.189480D+00           0.100000D+01
            P    1   1.00
                  0.733590D-01           0.100000D+01
            P    1   1.00
                  0.263880D-01           0.100000D+01
            D    1   1.00
                  0.600000D+01           0.100000D+01
            D    1   1.00
                  0.165000D+01           0.100000D+01
            D    1   1.00
                  0.650000D+00           0.100000D+01
            D    1   1.00
                  0.250000D+00           0.100000D+01
            D    1   1.00
                  0.791640D-01           0.100000D+01
            F    1   1.00
                  0.180000D+01           0.100000D+01
            F    1   1.00
                  0.770000D+00           0.100000D+01
            F    1   1.00
                  0.105550D+00           0.100000D+01
            G    1   1.00
                  0.150000D+01           0.100000D+01
            G    1   1.00
                  0.131940D+00           0.100000D+01
            ****
            -O     0
            S    9   1.00
                  0.164030D+06           0.265210D-04
                  0.245670D+05           0.205710D-03
                  0.559100D+04           0.108270D-02
                  0.158360D+04           0.451900D-02
                  0.516670D+03           0.161350D-01
                  0.186560D+03           0.487160D-01
                  0.726960D+02           0.122680D+00
                  0.299920D+02           0.221890D+00
                  0.128990D+02           0.239040D+00
            S    8   1.00
                  0.245670D+05           0.133220D-05
                  0.158360D+04           0.802520D-04
                  0.516670D+03           0.345120D-03
                  0.186560D+03           0.444840D-02
                  0.726960D+02           0.236010D-01
                  0.299920D+02           0.138610D+00
                  0.128990D+02           0.428720D+00
                  0.561350D+01           0.848730D+00
            S    1   1.00
                  0.229860D+01           0.100000D+01
            S    1   1.00
                  0.999800D+00           0.100000D+01
            S    1   1.00
                  0.407460D+00           0.100000D+01
            S    1   1.00
                  0.159220D+00           0.100000D+01
            S    1   1.00
                  0.576900D-01           0.100000D+01
            P    5   1.00
                  0.272020D+03           0.549410D-03
                  0.642430D+02           0.458340D-02
                  0.202490D+02           0.235730D-01
                  0.764380D+01           0.743380D-01
                  0.312320D+01           0.187550D+00
            P    1   1.00
                  0.132510D+01           0.100000D+01
            P    1   1.00
                  0.555510D+00           0.100000D+01
            P    1   1.00
                  0.222290D+00           0.100000D+01
            P    1   1.00
                  0.840100D-01           0.100000D+01
            P    1   1.00
                  0.294770D-01           0.100000D+01
            D    1   1.00
                  0.700000D+01           0.100000D+01
            D    1   1.00
                  0.200000D+01           0.100000D+01
            D    1   1.00
                  0.800000D+00           0.100000D+01
            D    1   1.00
                  0.300000D+00           0.100000D+01
            D    1   1.00
                  0.884310D-01           0.100000D+01
            F    1   1.00
                  0.210000D+01           0.100000D+01
            F    1   1.00
                  0.900000D+00           0.100000D+01
            F    1   1.00
                  0.117910D+00           0.100000D+01
            G    1   1.00
                  0.160000D+01           0.100000D+01
            G    1   1.00
                  0.147390D+00           0.100000D+01
            ****
 Initial command:
 /public3/home/sc51754/softwares/g09e01/l1.exe "./Gau-14219.inp" -scrdir="./"
 Entering Link 1 = /public3/home/sc51754/softwares/g09e01/l1.exe PID=     14220.
  
 Copyright (c) 1988,1990,1992,1993,1995,1998,2003,2009,2015,
            Gaussian, Inc.  All Rights Reserved.
  
 This is part of the Gaussian(R) 09 program.  It is based on
 the Gaussian(R) 03 system (copyright 2003, Gaussian, Inc.),
 the Gaussian(R) 98 system (copyright 1998, Gaussian, Inc.),
 the Gaussian(R) 94 system (copyright 1995, Gaussian, Inc.),
 the Gaussian 92(TM) system (copyright 1992, Gaussian, Inc.),
 the Gaussian 90(TM) system (copyright 1990, Gaussian, Inc.),
 the Gaussian 88(TM) system (copyright 1988, Gaussian, Inc.),
 the Gaussian 86(TM) system (copyright 1986, Carnegie Mellon
 University), and the Gaussian 82(TM) system (copyright 1983,
 Carnegie Mellon University). Gaussian is a federally registered
 trademark of Gaussian, Inc.
  
 This software contains proprietary and confidential information,
 including trade secrets, belonging to Gaussian, Inc.
  
 This software is provided under written license and may be
 used, copied, transmitted, or stored only in accord with that
 written license.
  
 The following legend is applicable only to US Government
 contracts under FAR:
  
                    RESTRICTED RIGHTS LEGEND
  
 Use, reproduction and disclosure by the US Government is
 subject to restrictions as set forth in subparagraphs (a)
 and (c) of the Commercial Computer Software - Restricted
 Rights clause in FAR 52.227-19.
  
 Gaussian, Inc.
 340 Quinnipiac St., Bldg. 40, Wallingford CT 06492
  
  
 ---------------------------------------------------------------
 Warning -- This program may not be used in any manner that
 competes with the business of Gaussian, Inc. or will provide
 assistance to any competitor of Gaussian, Inc.  The licensee
 of this program is prohibited from giving any competitor of
 Gaussian, Inc. access to this program.  By using this program,
 the user acknowledges that Gaussian, Inc. is engaged in the
 business of creating and licensing software in the field of
 computational chemistry and represents and warrants to the
 licensee that it is not a competitor of Gaussian, Inc. and that
 it will not use this program in any manner prohibited above.
 ---------------------------------------------------------------
  

 Cite this work as:
 Gaussian 09, Revision E.01,
 M. J. Frisch, G. W. Trucks, H. B. Schlegel, G. E. Scuseria, 
 M. A. Robb, J. R. Cheeseman, G. Scalmani, V. Barone, B. Mennucci, 
 G. A. Petersson, H. Nakatsuji, M. Caricato, X. Li, H. P. Hratchian, 
 A. F. Izmaylov, J. Bloino, G. Zheng, J. L. Sonnenberg, M. Hada, 
 M. Ehara, K. Toyota, R. Fukuda, J. Hasegawa, M. Ishida, T. Nakajima, 
 Y. Honda, O. Kitao, H. Nakai, T. Vreven, J. A. Montgomery, Jr., 
 J. E. Peralta, F. Ogliaro, M. Bearpark, J. J. Heyd, E. Brothers, 
 K. N. Kudin, V. N. Staroverov, T. Keith, R. Kobayashi, J. Normand, 
 K. Raghavachari, A. Rendell, J. C. Burant, S. S. Iyengar, J. Tomasi, 
 M. Cossi, N. Rega, J. M. Millam, M. Klene, J. E. Knox, J. B. Cross, 
 V. Bakken, C. Adamo, J. Jaramillo, R. Gomperts, R. E. Stratmann, 
 O. Yazyev, A. J. Austin, R. Cammi, C. Pomelli, J. W. Ochterski, 
 R. L. Martin, K. Morokuma, V. G. Zakrzewski, G. A. Voth, 
 P. Salvador, J. J. Dannenberg, S. Dapprich, A. D. Daniels, 
 O. Farkas, J. B. Foresman, J. V. Ortiz, J. Cioslowski, 
 and D. J. Fox, Gaussian, Inc., Wallingford CT, 2013.
 
 ******************************************
 Gaussian 09:  EM64L-G09RevE.01 30-Nov-2015
                26-Aug-2021 
 ******************************************
 %nprocshared=64
 Will use up to   64 processors via shared memory.
 %mem=128GB
 %chk=HY_aug-pc-3_B3LYP_OPT_FREQ.chk
 ----------------------------------------------------------
 #p opt freq b3lyp/gen SCF(novaracc,noincfock) int=acc2e=12
 ----------------------------------------------------------
 1/14=-1,18=20,19=15,26=3,38=1/1,3;
 2/9=110,12=2,17=6,18=5,40=1/2;
 3/5=7,11=2,16=1,25=1,30=1,71=1,74=-5/1,2,3;
 4//1;
 5/5=100002,38=1,87=12/2;
 6/7=2,8=2,9=2,10=2,28=1/1;
 7/87=12/1,2,3,16;
 1/14=-1,18=20,19=15,26=3/3(2);
 2/9=110/2;
 99//99;
 2/9=110/2;
 3/5=7,6=1,11=2,16=1,25=1,30=1,71=1,74=-5,82=7/1,2,3;
 4/5=5,16=3,69=1/1;
 5/5=100002,38=1,87=12/2;
 7/87=12/1,2,3,16;
 1/14=-1,18=20,19=15,26=3/3(-5);
 2/9=110/2;
 6/7=2,8=2,9=2,10=2,19=2,28=1/1;
 99/9=1/99;
 Leave Link    1 at Thu Aug 26 21:25:57 2021, MaxMem= 17179869184 cpu:         8.8
 (Enter /public3/home/sc51754/softwares/g09e01/l101.exe)
 --------------------------
 HY_aug-pc-3_B3LYP_OPT_FREQ
 --------------------------
 Symbolic Z-matrix:
 Charge =  0 Multiplicity = 1
 O                     1.95     -0.746     0. 
 N                    -0.398    -1.        0. 
 C                     0.627    -0.202     0. 
 C                     0.428     1.325     0. 
 C                    -1.779    -0.48      0. 
 C                    -0.824     1.828     0. 
 C                    -2.011     0.856     0. 
 H                     1.902    -1.705     0. 
 H                     1.274     1.98      0. 
 H                    -2.604    -1.162     0. 
 H                    -0.986     2.885     0. 
 H                    -3.014     1.229     0. 
 
 NAtoms=     12 NQM=       12 NQMF=       0 NMMI=      0 NMMIF=      0
                NMic=       0 NMicF=      0.
                    Isotopes and Nuclear Properties:
 (Nuclear quadrupole moments (NQMom) in fm**2, nuclear magnetic moments (NMagM)
  in nuclear magnetons)

  Atom         1           2           3           4           5           6           7           8           9          10
 IAtWgt=          16          14          12          12          12          12          12           1           1           1
 AtmWgt=  15.9949146  14.0030740  12.0000000  12.0000000  12.0000000  12.0000000  12.0000000   1.0078250   1.0078250   1.0078250
 NucSpn=           0           2           0           0           0           0           0           1           1           1
 AtZEff=   0.0000000   0.0000000   0.0000000   0.0000000   0.0000000   0.0000000   0.0000000   0.0000000   0.0000000   0.0000000
 NQMom=    0.0000000   2.0440000   0.0000000   0.0000000   0.0000000   0.0000000   0.0000000   0.0000000   0.0000000   0.0000000
 NMagM=    0.0000000   0.4037610   0.0000000   0.0000000   0.0000000   0.0000000   0.0000000   2.7928460   2.7928460   2.7928460
 AtZNuc=   8.0000000   7.0000000   6.0000000   6.0000000   6.0000000   6.0000000   6.0000000   1.0000000   1.0000000   1.0000000

  Atom        11          12
 IAtWgt=           1           1
 AtmWgt=   1.0078250   1.0078250
 NucSpn=           1           1
 AtZEff=   0.0000000   0.0000000
 NQMom=    0.0000000   0.0000000
 NMagM=    2.7928460   2.7928460
 AtZNuc=   1.0000000   1.0000000
 Leave Link  101 at Thu Aug 26 21:25:58 2021, MaxMem= 17179869184 cpu:        20.8
 (Enter /public3/home/sc51754/softwares/g09e01/l103.exe)

 GradGradGradGradGradGradGradGradGradGradGradGradGradGradGradGradGradGrad
 Berny optimization.
 Initialization pass.
                           ----------------------------
                           !    Initial Parameters    !
                           ! (Angstroms and Degrees)  !
 --------------------------                            --------------------------
 ! Name  Definition              Value          Derivative Info.                !
 --------------------------------------------------------------------------------
 ! R1    R(1,3)                  1.4305         estimate D2E/DX2                !
 ! R2    R(1,8)                  0.9602         estimate D2E/DX2                !
 ! R3    R(2,3)                  1.299          estimate D2E/DX2                !
 ! R4    R(2,5)                  1.4757         estimate D2E/DX2                !
 ! R5    R(3,4)                  1.5399         estimate D2E/DX2                !
 ! R6    R(4,6)                  1.3493         estimate D2E/DX2                !
 ! R7    R(4,9)                  1.0699         estimate D2E/DX2                !
 ! R8    R(5,7)                  1.356          estimate D2E/DX2                !
 ! R9    R(5,10)                 1.0704         estimate D2E/DX2                !
 ! R10   R(6,7)                  1.5342         estimate D2E/DX2                !
 ! R11   R(6,11)                 1.0693         estimate D2E/DX2                !
 ! R12   R(7,12)                 1.0701         estimate D2E/DX2                !
 ! A1    A(3,1,8)              109.4864         estimate D2E/DX2                !
 ! A2    A(3,2,5)              121.4646         estimate D2E/DX2                !
 ! A3    A(1,3,2)              119.7461         estimate D2E/DX2                !
 ! A4    A(1,3,4)              119.7768         estimate D2E/DX2                !
 ! A5    A(2,3,4)              120.4771         estimate D2E/DX2                !
 ! A6    A(3,4,6)              119.3131         estimate D2E/DX2                !
 ! A7    A(3,4,9)              120.3232         estimate D2E/DX2                !
 ! A8    A(6,4,9)              120.3637         estimate D2E/DX2                !
 ! A9    A(2,5,7)              120.4846         estimate D2E/DX2                !
 ! A10   A(2,5,10)             119.7873         estimate D2E/DX2                !
 ! A11   A(7,5,10)             119.7281         estimate D2E/DX2                !
 ! A12   A(4,6,7)              118.7988         estimate D2E/DX2                !
 ! A13   A(4,6,11)             120.6017         estimate D2E/DX2                !
 ! A14   A(7,6,11)             120.5995         estimate D2E/DX2                !
 ! A15   A(5,7,6)              119.4617         estimate D2E/DX2                !
 ! A16   A(5,7,12)             120.2507         estimate D2E/DX2                !
 ! A17   A(6,7,12)             120.2876         estimate D2E/DX2                !
 ! D1    D(8,1,3,2)              0.0            estimate D2E/DX2                !
 ! D2    D(8,1,3,4)            180.0            estimate D2E/DX2                !
 ! D3    D(5,2,3,1)            180.0            estimate D2E/DX2                !
 ! D4    D(5,2,3,4)              0.0            estimate D2E/DX2                !
 ! D5    D(3,2,5,7)              0.0            estimate D2E/DX2                !
 ! D6    D(3,2,5,10)           180.0            estimate D2E/DX2                !
 ! D7    D(1,3,4,6)            180.0            estimate D2E/DX2                !
 ! D8    D(1,3,4,9)              0.0            estimate D2E/DX2                !
 ! D9    D(2,3,4,6)              0.0            estimate D2E/DX2                !
 ! D10   D(2,3,4,9)            180.0            estimate D2E/DX2                !
 ! D11   D(3,4,6,7)              0.0            estimate D2E/DX2                !
 ! D12   D(3,4,6,11)           180.0            estimate D2E/DX2                !
 ! D13   D(9,4,6,7)            180.0            estimate D2E/DX2                !
 ! D14   D(9,4,6,11)             0.0            estimate D2E/DX2                !
 ! D15   D(2,5,7,6)              0.0            estimate D2E/DX2                !
 ! D16   D(2,5,7,12)           180.0            estimate D2E/DX2                !
 ! D17   D(10,5,7,6)           180.0            estimate D2E/DX2                !
 ! D18   D(10,5,7,12)            0.0            estimate D2E/DX2                !
 ! D19   D(4,6,7,5)              0.0            estimate D2E/DX2                !
 ! D20   D(4,6,7,12)           180.0            estimate D2E/DX2                !
 ! D21   D(11,6,7,5)           180.0            estimate D2E/DX2                !
 ! D22   D(11,6,7,12)            0.0            estimate D2E/DX2                !
 --------------------------------------------------------------------------------
 Trust Radius=3.00D-01 FncErr=1.00D-07 GrdErr=1.00D-06
 Number of steps in this run=     61 maximum allowed number of steps=    100.
 GradGradGradGradGradGradGradGradGradGradGradGradGradGradGradGradGradGrad

 Leave Link  103 at Thu Aug 26 21:25:58 2021, MaxMem= 17179869184 cpu:         4.1
 (Enter /public3/home/sc51754/softwares/g09e01/l202.exe)
                          Input orientation:                          
 ---------------------------------------------------------------------
 Center     Atomic      Atomic             Coordinates (Angstroms)
 Number     Number       Type             X           Y           Z
 ---------------------------------------------------------------------
      1          8           0        1.950000   -0.746000    0.000000
      2          7           0       -0.398000   -1.000000    0.000000
      3          6           0        0.627000   -0.202000    0.000000
      4          6           0        0.428000    1.325000    0.000000
      5          6           0       -1.779000   -0.480000    0.000000
      6          6           0       -0.824000    1.828000    0.000000
      7          6           0       -2.011000    0.856000    0.000000
      8          1           0        1.902000   -1.705000    0.000000
      9          1           0        1.274000    1.980000    0.000000
     10          1           0       -2.604000   -1.162000    0.000000
     11          1           0       -0.986000    2.885000    0.000000
     12          1           0       -3.014000    1.229000    0.000000
 ---------------------------------------------------------------------
                    Distance matrix (angstroms):
                    1          2          3          4          5
     1  O    0.000000
     2  N    2.361699   0.000000
     3  C    1.430477   1.299011   0.000000
     4  C    2.570122   2.467367   1.539912   0.000000
     5  C    3.738475   1.475656   2.422007   2.851118   0.000000
     6  C    3.784251   2.859906   2.495256   1.349264   2.497777
     7  C    4.272695   2.458964   2.842254   2.483683   1.355994
     8  H    0.960200   2.405624   1.970947   3.369507   3.879483
     9  H    2.808568   3.417014   2.275903   1.069926   3.920766
    10  H    4.572961   2.211940   3.370602   3.921504   1.070397
    11  H    4.669503   3.929245   3.483007   2.105468   3.457177
    12  H    5.342464   3.436844   3.912115   3.443338   2.108532
                    6          7          8          9         10
     6  C    0.000000
     7  C    1.534195   0.000000
     8  H    4.462417   4.676568   0.000000
     9  H    2.103499   3.471974   3.738129   0.000000
    10  H    3.479727   2.103324   4.538599   4.991097   0.000000
    11  H    1.069342   2.273206   5.422974   2.434466   4.358455
    12  H    2.270441   1.070111   5.724981   4.353268   2.425898
                   11         12
    11  H    0.000000
    12  H    2.618228   0.000000
 Stoichiometry    C5H5NO
 Framework group  CS[SG(C5H5NO)]
 Deg. of freedom    21
 Full point group                 CS      NOp   2
 Largest Abelian subgroup         CS      NOp   2
 Largest concise Abelian subgroup C1      NOp   1
                         Standard orientation:                         
 ---------------------------------------------------------------------
 Center     Atomic      Atomic             Coordinates (Angstroms)
 Number     Number       Type             X           Y           Z
 ---------------------------------------------------------------------
      1          8           0        0.069381    2.385746    0.000000
      2          7           0       -1.157776    0.367898    0.000000
      3          6           0        0.000000    0.956952    0.000000
      4          6           0        1.297928    0.128270    0.000000
      5          6           0       -1.273517   -1.103212    0.000000
      6          6           0        1.221582   -1.218833    0.000000
      7          6           0       -0.162523   -1.880652    0.000000
      8          1           0       -0.819219    2.749579    0.000000
      9          1           0        2.250219    0.616001    0.000000
     10          1           0       -2.241334   -1.560464    0.000000
     11          1           0        2.109717   -1.814407    0.000000
     12          1           0       -0.250811   -2.947115    0.000000
 ---------------------------------------------------------------------
 Rotational constants (GHZ):      5.4860096      2.5088307      1.7215440
 Leave Link  202 at Thu Aug 26 21:25:59 2021, MaxMem= 17179869184 cpu:         6.7
 (Enter /public3/home/sc51754/softwares/g09e01/l301.exe)
 General basis read from cards:  (5D, 7F)
 Centers:       8      9     10     11     12
 S 5 1.00
     Exponent=  7.7469000000D+02 Coefficients=  1.3163000000D-03
     Exponent=  1.1616000000D+02 Coefficients=  1.0226000000D-02
     Exponent=  2.6449000000D+01 Coefficients=  5.3629000000D-02
     Exponent=  7.5015000000D+00 Coefficients=  2.2285000000D-01
     Exponent=  2.4568000000D+00 Coefficients=  7.5374000000D-01
 S 1 1.00
     Exponent=  8.8774000000D-01 Coefficients=  1.0000000000D+00
 S 1 1.00
     Exponent=  3.4085000000D-01 Coefficients=  1.0000000000D+00
 S 1 1.00
     Exponent=  1.3477000000D-01 Coefficients=  1.0000000000D+00
 S 1 1.00
     Exponent=  5.2263000000D-02 Coefficients=  1.0000000000D+00
 S 1 1.00
     Exponent=  1.8800000000D-02 Coefficients=  1.0000000000D+00
 P 1 1.00
     Exponent=  6.5000000000D+00 Coefficients=  1.0000000000D+00
 P 1 1.00
     Exponent=  1.5500000000D+00 Coefficients=  1.0000000000D+00
 P 1 1.00
     Exponent=  5.5000000000D-01 Coefficients=  1.0000000000D+00
 P 1 1.00
     Exponent=  2.0000000000D-01 Coefficients=  1.0000000000D+00
 P 1 1.00
     Exponent=  5.6399000000D-02 Coefficients=  1.0000000000D+00
 D 1 1.00
     Exponent=  1.9500000000D+00 Coefficients=  1.0000000000D+00
 D 1 1.00
     Exponent=  6.5000000000D-01 Coefficients=  1.0000000000D+00
 D 1 1.00
     Exponent=  7.5199000000D-02 Coefficients=  1.0000000000D+00
 F 1 1.00
     Exponent=  2.2000000000D+00 Coefficients=  1.0000000000D+00
 F 1 1.00
     Exponent=  9.3999000000D-02 Coefficients=  1.0000000000D+00
 ****
 Centers:       3      4      5      6      7
 S 9 1.00
     Exponent=  8.7141000000D+04 Coefficients=  2.8183000000D-05
     Exponent=  1.3052000000D+04 Coefficients=  2.1819000000D-04
     Exponent=  2.9706000000D+03 Coefficients=  1.1511000000D-03
     Exponent=  8.4146000000D+02 Coefficients=  4.7859000000D-03
     Exponent=  2.7459000000D+02 Coefficients=  1.7134000000D-02
     Exponent=  9.9215000000D+01 Coefficients=  5.1120000000D-02
     Exponent=  3.8694000000D+01 Coefficients=  1.2805000000D-01
     Exponent=  1.5911000000D+01 Coefficients=  2.2773000000D-01
     Exponent=  6.7668000000D+00 Coefficients=  2.4758000000D-01
 S 9 1.00
     Exponent=  1.3052000000D+04 Coefficients=  2.5930000000D-06
     Exponent=  2.9706000000D+03 Coefficients= -3.0907000000D-06
     Exponent=  8.4146000000D+02 Coefficients=  1.2247000000D-04
     Exponent=  2.7459000000D+02 Coefficients=  2.5494000000D-04
     Exponent=  9.9215000000D+01 Coefficients=  5.1254000000D-03
     Exponent=  3.8694000000D+01 Coefficients=  2.1955000000D-02
     Exponent=  1.5911000000D+01 Coefficients=  1.4112000000D-01
     Exponent=  6.7668000000D+00 Coefficients=  4.1303000000D-01
     Exponent=  2.8984000000D+00 Coefficients=  8.2714000000D-01
 S 1 1.00
     Exponent=  1.1246000000D+00 Coefficients=  1.0000000000D+00
 S 1 1.00
     Exponent=  5.1446000000D-01 Coefficients=  1.0000000000D+00
 S 1 1.00
     Exponent=  2.1176000000D-01 Coefficients=  1.0000000000D+00
 S 1 1.00
     Exponent=  8.5017000000D-02 Coefficients=  1.0000000000D+00
 S 1 1.00
     Exponent=  3.1605000000D-02 Coefficients=  1.0000000000D+00
 P 5 1.00
     Exponent=  1.4824000000D+02 Coefficients=  5.0756000000D-04
     Exponent=  3.4912000000D+01 Coefficients=  4.2126000000D-03
     Exponent=  1.0894000000D+01 Coefficients=  2.1335000000D-02
     Exponent=  4.1934000000D+00 Coefficients=  6.2329000000D-02
     Exponent=  1.7134000000D+00 Coefficients=  1.6642000000D-01
 P 1 1.00
     Exponent=  7.3566000000D-01 Coefficients=  1.0000000000D+00
 P 1 1.00
     Exponent=  3.1637000000D-01 Coefficients=  1.0000000000D+00
 P 1 1.00
     Exponent=  1.3242000000D-01 Coefficients=  1.0000000000D+00
 P 1 1.00
     Exponent=  5.1901000000D-02 Coefficients=  1.0000000000D+00
 P 1 1.00
     Exponent=  1.8873000000D-02 Coefficients=  1.0000000000D+00
 D 1 1.00
     Exponent=  5.2000000000D+00 Coefficients=  1.0000000000D+00
 D 1 1.00
     Exponent=  1.3500000000D+00 Coefficients=  1.0000000000D+00
 D 1 1.00
     Exponent=  5.2000000000D-01 Coefficients=  1.0000000000D+00
 D 1 1.00
     Exponent=  2.0000000000D-01 Coefficients=  1.0000000000D+00
 D 1 1.00
     Exponent=  5.6619000000D-02 Coefficients=  1.0000000000D+00
 F 1 1.00
     Exponent=  1.5000000000D+00 Coefficients=  1.0000000000D+00
 F 1 1.00
     Exponent=  6.5000000000D-01 Coefficients=  1.0000000000D+00
 F 1 1.00
     Exponent=  7.5492000000D-02 Coefficients=  1.0000000000D+00
 G 1 1.00
     Exponent=  1.4000000000D+00 Coefficients=  1.0000000000D+00
 G 1 1.00
     Exponent=  9.4365000000D-02 Coefficients=  1.0000000000D+00
 ****
 Centers:       2
 S 9 1.00
     Exponent=  1.2455000000D+05 Coefficients=  2.6672000000D-05
     Exponent=  1.8656000000D+04 Coefficients=  2.0684000000D-04
     Exponent=  4.2451000000D+03 Coefficients=  1.0893000000D-03
     Exponent=  1.2021000000D+03 Coefficients=  4.5463000000D-03
     Exponent=  3.9214000000D+02 Coefficients=  1.6237000000D-02
     Exponent=  1.4158000000D+02 Coefficients=  4.8957000000D-02
     Exponent=  5.5136000000D+01 Coefficients=  1.2317000000D-01
     Exponent=  2.2643000000D+01 Coefficients=  2.2425000000D-01
     Exponent=  9.6566000000D+00 Coefficients=  2.3876000000D-01
 S 8 1.00
     Exponent=  1.8656000000D+04 Coefficients=  1.4088000000D-06
     Exponent=  1.2021000000D+03 Coefficients=  8.1439000000D-05
     Exponent=  3.9214000000D+02 Coefficients=  3.2439000000D-04
     Exponent=  1.4158000000D+02 Coefficients=  4.3621000000D-03
     Exponent=  5.5136000000D+01 Coefficients=  2.2838000000D-02
     Exponent=  2.2643000000D+01 Coefficients=  1.3462000000D-01
     Exponent=  9.6566000000D+00 Coefficients=  4.2501000000D-01
     Exponent=  4.1685000000D+00 Coefficients=  8.2517000000D-01
 S 1 1.00
     Exponent=  1.6678000000D+00 Coefficients=  1.0000000000D+00
 S 1 1.00
     Exponent=  7.4574000000D-01 Coefficients=  1.0000000000D+00
 S 1 1.00
     Exponent=  3.0516000000D-01 Coefficients=  1.0000000000D+00
 S 1 1.00
     Exponent=  1.2089000000D-01 Coefficients=  1.0000000000D+00
 S 1 1.00
     Exponent=  4.4444000000D-02 Coefficients=  1.0000000000D+00
 P 5 1.00
     Exponent=  2.1829000000D+02 Coefficients=  4.8281000000D-04
     Exponent=  5.1488000000D+01 Coefficients=  4.0420000000D-03
     Exponent=  1.6130000000D+01 Coefficients=  2.0946000000D-02
     Exponent=  6.1307000000D+00 Coefficients=  6.4757000000D-02
     Exponent=  2.5052000000D+00 Coefficients=  1.7042000000D-01
 P 1 1.00
     Exponent=  1.0730000000D+00 Coefficients=  1.0000000000D+00
 P 1 1.00
     Exponent=  4.5838000000D-01 Coefficients=  1.0000000000D+00
 P 1 1.00
     Exponent=  1.8948000000D-01 Coefficients=  1.0000000000D+00
 P 1 1.00
     Exponent=  7.3359000000D-02 Coefficients=  1.0000000000D+00
 P 1 1.00
     Exponent=  2.6388000000D-02 Coefficients=  1.0000000000D+00
 D 1 1.00
     Exponent=  6.0000000000D+00 Coefficients=  1.0000000000D+00
 D 1 1.00
     Exponent=  1.6500000000D+00 Coefficients=  1.0000000000D+00
 D 1 1.00
     Exponent=  6.5000000000D-01 Coefficients=  1.0000000000D+00
 D 1 1.00
     Exponent=  2.5000000000D-01 Coefficients=  1.0000000000D+00
 D 1 1.00
     Exponent=  7.9164000000D-02 Coefficients=  1.0000000000D+00
 F 1 1.00
     Exponent=  1.8000000000D+00 Coefficients=  1.0000000000D+00
 F 1 1.00
     Exponent=  7.7000000000D-01 Coefficients=  1.0000000000D+00
 F 1 1.00
     Exponent=  1.0555000000D-01 Coefficients=  1.0000000000D+00
 G 1 1.00
     Exponent=  1.5000000000D+00 Coefficients=  1.0000000000D+00
 G 1 1.00
     Exponent=  1.3194000000D-01 Coefficients=  1.0000000000D+00
 ****
 Centers:       1
 S 9 1.00
     Exponent=  1.6403000000D+05 Coefficients=  2.6521000000D-05
     Exponent=  2.4567000000D+04 Coefficients=  2.0571000000D-04
     Exponent=  5.5910000000D+03 Coefficients=  1.0827000000D-03
     Exponent=  1.5836000000D+03 Coefficients=  4.5190000000D-03
     Exponent=  5.1667000000D+02 Coefficients=  1.6135000000D-02
     Exponent=  1.8656000000D+02 Coefficients=  4.8716000000D-02
     Exponent=  7.2696000000D+01 Coefficients=  1.2268000000D-01
     Exponent=  2.9992000000D+01 Coefficients=  2.2189000000D-01
     Exponent=  1.2899000000D+01 Coefficients=  2.3904000000D-01
 S 8 1.00
     Exponent=  2.4567000000D+04 Coefficients=  1.3322000000D-06
     Exponent=  1.5836000000D+03 Coefficients=  8.0252000000D-05
     Exponent=  5.1667000000D+02 Coefficients=  3.4512000000D-04
     Exponent=  1.8656000000D+02 Coefficients=  4.4484000000D-03
     Exponent=  7.2696000000D+01 Coefficients=  2.3601000000D-02
     Exponent=  2.9992000000D+01 Coefficients=  1.3861000000D-01
     Exponent=  1.2899000000D+01 Coefficients=  4.2872000000D-01
     Exponent=  5.6135000000D+00 Coefficients=  8.4873000000D-01
 S 1 1.00
     Exponent=  2.2986000000D+00 Coefficients=  1.0000000000D+00
 S 1 1.00
     Exponent=  9.9980000000D-01 Coefficients=  1.0000000000D+00
 S 1 1.00
     Exponent=  4.0746000000D-01 Coefficients=  1.0000000000D+00
 S 1 1.00
     Exponent=  1.5922000000D-01 Coefficients=  1.0000000000D+00
 S 1 1.00
     Exponent=  5.7690000000D-02 Coefficients=  1.0000000000D+00
 P 5 1.00
     Exponent=  2.7202000000D+02 Coefficients=  5.4941000000D-04
     Exponent=  6.4243000000D+01 Coefficients=  4.5834000000D-03
     Exponent=  2.0249000000D+01 Coefficients=  2.3573000000D-02
     Exponent=  7.6438000000D+00 Coefficients=  7.4338000000D-02
     Exponent=  3.1232000000D+00 Coefficients=  1.8755000000D-01
 P 1 1.00
     Exponent=  1.3251000000D+00 Coefficients=  1.0000000000D+00
 P 1 1.00
     Exponent=  5.5551000000D-01 Coefficients=  1.0000000000D+00
 P 1 1.00
     Exponent=  2.2229000000D-01 Coefficients=  1.0000000000D+00
 P 1 1.00
     Exponent=  8.4010000000D-02 Coefficients=  1.0000000000D+00
 P 1 1.00
     Exponent=  2.9477000000D-02 Coefficients=  1.0000000000D+00
 D 1 1.00
     Exponent=  7.0000000000D+00 Coefficients=  1.0000000000D+00
 D 1 1.00
     Exponent=  2.0000000000D+00 Coefficients=  1.0000000000D+00
 D 1 1.00
     Exponent=  8.0000000000D-01 Coefficients=  1.0000000000D+00
 D 1 1.00
     Exponent=  3.0000000000D-01 Coefficients=  1.0000000000D+00
 D 1 1.00
     Exponent=  8.8431000000D-02 Coefficients=  1.0000000000D+00
 F 1 1.00
     Exponent=  2.1000000000D+00 Coefficients=  1.0000000000D+00
 F 1 1.00
     Exponent=  9.0000000000D-01 Coefficients=  1.0000000000D+00
 F 1 1.00
     Exponent=  1.1791000000D-01 Coefficients=  1.0000000000D+00
 G 1 1.00
     Exponent=  1.6000000000D+00 Coefficients=  1.0000000000D+00
 G 1 1.00
     Exponent=  1.4739000000D-01 Coefficients=  1.0000000000D+00
 ****
 Ernie: Thresh=  0.10000D-02 Tol=  0.10000D-05 Strict=F.
 Ernie:  5 primitive shells out of 399 were deleted.
 There are   725 symmetry adapted cartesian basis functions of A'  symmetry.
 There are   375 symmetry adapted cartesian basis functions of A"  symmetry.
 There are   557 symmetry adapted basis functions of A'  symmetry.
 There are   316 symmetry adapted basis functions of A"  symmetry.
   873 basis functions,  1309 primitive gaussians,  1100 cartesian basis functions
    25 alpha electrons       25 beta electrons
       nuclear repulsion energy       265.8673490964 Hartrees.
 IExCor=  402 DFT=T Ex+Corr=B3LYP ExCW=0 ScaHFX=  0.200000
 ScaDFX=  0.800000  0.720000  1.000000  0.810000 ScalE2=  1.000000  1.000000
 IRadAn=      0 IRanWt=     -1 IRanGd=            0 ICorTp=0 IEmpDi=  4
 NAtoms=   12 NActive=   12 NUniq=   12 SFac= 1.00D+00 NAtFMM=   60 NAOKFM=F Big=F
 Integral buffers will be    131072 words long.
 Raffenetti 2 integral format.
 Two-electron integral symmetry is turned on.
 Leave Link  301 at Thu Aug 26 21:26:00 2021, MaxMem= 17179869184 cpu:        29.9
 (Enter /public3/home/sc51754/softwares/g09e01/l302.exe)
 NPDir=0 NMtPBC=     1 NCelOv=     1 NCel=       1 NClECP=     1 NCelD=      1
         NCelK=      1 NCelE2=     1 NClLst=     1 CellRange=     0.0.
 One-electron integrals computed using PRISM.
 NBasis=   873 RedAO= T EigKep=  1.01D-06  NBF=   557   316
 NBsUse=   854 1.00D-06 EigRej=  8.90D-07 NBFU=   539   315
 Precomputing XC quadrature grid using
 IXCGrd= 4 IRadAn=           0 IRanWt=          -1 IRanGd=           0 AccXCQ= 0.00D+00.
 Generated NRdTot=       0 NPtTot=           0 NUsed=           0 NTot=          32
 NSgBfM=  1089  1089  1089  1089  1089 MxSgAt=    12 MxSgA2=    12.
 Leave Link  302 at Thu Aug 26 21:26:03 2021, MaxMem= 17179869184 cpu:       134.5
 (Enter /public3/home/sc51754/softwares/g09e01/l303.exe)
 DipDrv:  MaxL=1.
 Leave Link  303 at Thu Aug 26 21:26:05 2021, MaxMem= 17179869184 cpu:        57.7
 (Enter /public3/home/sc51754/softwares/g09e01/l401.exe)
 ExpMin= 1.88D-02 ExpMax= 1.64D+05 ExpMxC= 5.17D+02 IAcc=3 IRadAn=         5 AccDes= 0.00D+00
 Harris functional with IExCor=  402 and IRadAn=       5 diagonalized for initial guess.
 HarFok:  IExCor=  402 AccDes= 0.00D+00 IRadAn=         5 IDoV= 1 UseB2=F ITyADJ=14
 ICtDFT=  3500011 ScaDFX=  1.000000  1.000000  1.000000  1.000000
 FoFCou: FMM=F IPFlag=           0 FMFlag=      100000 FMFlg1=           0
         NFxFlg=           0 DoJE=T BraDBF=F KetDBF=T FulRan=T
         wScrn=  0.000000 ICntrl=     500 IOpCl=  0 I1Cent=   200000004 NGrid=           0
         NMat0=    1 NMatS0=      1 NMatT0=    0 NMatD0=    1 NMtDS0=    0 NMtDT0=    0
 Petite list used in FoFCou.
 Harris En= -323.657283176832    
 JPrj=0 DoOrth=F DoCkMO=F.
 Initial guess orbital symmetries:
       Occupied  (A') (A') (A') (A') (A') (A') (A') (A') (A') (A')
                 (A') (A') (A') (A') (A') (A') (A') (A') (A') (A")
                 (A') (A") (A") (A') (A")
       Virtual   (A") (A") (A') (A') (A') (A") (A') (A') (A") (A')
                 (A') (A") (A") (A') (A') (A') (A') (A') (A') (A")
                 (A') (A') (A") (A') (A') (A") (A') (A') (A") (A')
                 (A') (A') (A") (A') (A') (A") (A') (A') (A') (A")
                 (A') (A') (A") (A') (A') (A") (A") (A") (A') (A')
                 (A') (A") (A') (A') (A') (A') (A") (A') (A') (A")
                 (A') (A') (A') (A") (A') (A') (A') (A") (A') (A')
                 (A") (A') (A") (A') (A") (A') (A") (A') (A') (A")
                 (A') (A') (A") (A") (A') (A") (A') (A') (A") (A')
                 (A") (A") (A') (A') (A") (A') (A') (A") (A') (A')
                 (A") (A') (A") (A') (A') (A") (A') (A") (A') (A")
                 (A') (A') (A') (A") (A') (A") (A') (A') (A') (A')
                 (A") (A') (A') (A") (A') (A") (A') (A') (A') (A")
                 (A') (A") (A") (A') (A") (A') (A') (A') (A") (A')
                 (A') (A") (A") (A') (A') (A") (A') (A") (A") (A')
                 (A") (A') (A') (A') (A") (A") (A") (A') (A') (A')
                 (A') (A") (A") (A') (A') (A") (A") (A') (A") (A')
                 (A') (A") (A') (A") (A') (A") (A') (A') (A") (A')
                 (A") (A') (A") (A') (A") (A') (A") (A') (A') (A")
                 (A') (A') (A") (A') (A') (A") (A') (A') (A') (A")
                 (A') (A') (A") (A') (A') (A') (A') (A") (A") (A")
                 (A') (A') (A") (A') (A') (A") (A') (A') (A") (A")
                 (A') (A") (A') (A") (A') (A") (A') (A") (A') (A')
                 (A") (A') (A') (A') (A") (A') (A") (A") (A') (A')
                 (A") (A") (A') (A') (A") (A') (A") (A') (A") (A')
                 (A") (A') (A") (A") (A') (A') (A') (A") (A') (A")
                 (A') (A") (A') (A') (A") (A') (A") (A') (A") (A')
                 (A") (A') (A') (A') (A') (A") (A') (A") (A') (A")
                 (A') (A') (A") (A") (A') (A') (A') (A") (A') (A")
                 (A') (A") (A') (A') (A") (A') (A") (A') (A') (A")
                 (A') (A') (A") (A') (A") (A') (A") (A') (A') (A")
                 (A') (A') (A') (A') (A") (A') (A") (A') (A") (A")
                 (A') (A') (A') (A") (A') (A') (A") (A') (A") (A')
                 (A') (A') (A") (A') (A') (A') (A') (A") (A') (A')
                 (A') (A") (A') (A") (A') (A') (A') (A') (A") (A')
                 (A") (A') (A') (A') (A') (A') (A') (A") (A') (A')
                 (A') (A") (A') (A") (A') (A") (A') (A") (A') (A')
                 (A") (A") (A') (A') (A") (A') (A") (A') (A") (A')
                 (A') (A") (A') (A") (A') (A") (A") (A') (A') (A")
                 (A') (A") (A') (A") (A') (A') (A') (A") (A") (A')
                 (A') (A') (A") (A') (A") (A') (A') (A") (A") (A')
                 (A') (A') (A") (A") (A') (A") (A') (A') (A') (A")
                 (A') (A') (A") (A') (A") (A') (A") (A') (A') (A")
                 (A') (A') (A') (A") (A') (A") (A') (A") (A') (A")
                 (A') (A') (A') (A") (A') (A') (A") (A') (A') (A")
                 (A') (A') (A') (A') (A") (A") (A') (A') (A') (A")
                 (A") (A') (A") (A') (A') (A") (A') (A') (A") (A')
                 (A') (A') (A') (A') (A") (A') (A") (A') (A') (A")
                 (A') (A') (A") (A') (A') (A") (A') (A') (A') (A')
                 (A") (A') (A') (A') (A") (A') (A') (A") (A') (A')
                 (A') (A") (A') (A") (A') (A') (A") (A') (A") (A')
                 (A') (A') (A') (A') (A") (A') (A") (A') (A") (A')
                 (A") (A") (A") (A") (A') (A") (A') (A') (A') (A")
                 (A') (A") (A") (A') (A') (A") (A') (A") (A') (A')
                 (A") (A') (A") (A") (A') (A') (A') (A') (A') (A")
                 (A') (A") (A') (A") (A') (A") (A') (A') (A') (A')
                 (A') (A') (A') (A") (A') (A") (A") (A') (A') (A")
                 (A') (A') (A") (A') (A') (A') (A") (A") (A') (A')
                 (A") (A') (A') (A") (A") (A') (A") (A') (A") (A')
                 (A") (A") (A') (A') (A') (A') (A") (A') (A') (A')
                 (A') (A') (A") (A") (A') (A") (A') (A") (A') (A')
                 (A") (A') (A") (A') (A") (A') (A") (A') (A") (A')
                 (A') (A") (A") (A') (A") (A') (A") (A") (A") (A')
                 (A") (A') (A") (A') (A") (A') (A") (A") (A') (A")
                 (A') (A") (A') (A") (A") (A') (A') (A") (A') (A')
                 (A") (A') (A') (A") (A') (A') (A') (A') (A') (A')
                 (A") (A') (A") (A') (A') (A') (A') (A') (A") (A')
                 (A") (A') (A') (A") (A') (A') (A") (A') (A') (A')
                 (A') (A") (A") (A") (A') (A") (A') (A') (A") (A')
                 (A") (A') (A") (A') (A') (A') (A") (A') (A') (A')
                 (A") (A") (A') (A") (A') (A") (A') (A") (A') (A')
                 (A") (A') (A") (A') (A") (A') (A") (A') (A') (A')
                 (A') (A") (A') (A") (A') (A') (A') (A') (A") (A')
                 (A") (A') (A") (A') (A") (A') (A') (A') (A") (A')
                 (A") (A") (A') (A') (A') (A') (A') (A') (A') (A")
                 (A') (A') (A') (A') (A') (A") (A") (A') (A') (A")
                 (A") (A') (A') (A') (A') (A') (A') (A") (A') (A')
                 (A') (A') (A") (A") (A") (A") (A") (A") (A") (A")
                 (A") (A") (A') (A') (A') (A') (A') (A') (A') (A')
                 (A') (A') (A') (A') (A') (A') (A') (A") (A") (A')
                 (A") (A") (A") (A") (A') (A') (A") (A') (A') (A')
                 (A') (A') (A') (A') (A') (A') (A') (A") (A") (A')
                 (A') (A') (A') (A') (A') (A') (A') (A') (A')
 The electronic state of the initial guess is 1-A'.
 Leave Link  401 at Thu Aug 26 21:26:09 2021, MaxMem= 17179869184 cpu:       179.4
 (Enter /public3/home/sc51754/softwares/g09e01/l502.exe)
 Closed shell SCF:
 Using DIIS extrapolation, IDIIS=  1040.
 Integral symmetry usage will be decided dynamically.
 IVT=     3726933 IEndB=     3726933 NGot= 17179869184 MDV= 17177369992
 LenX= 17177369992 LenY= 17176158892
 Requested convergence on RMS density matrix=1.00D-08 within 128 cycles.
 Requested convergence on MAX density matrix=1.00D-06.
 Requested convergence on             energy=1.00D-06.
 No special actions if energy rises.

 Cycle   1  Pass 1  IDiag  1:
 FoFJK:  IHMeth= 1 ICntrl=       0 DoSepK=F KAlg= 0 I1Cent=   0 FoldK=F
 IRaf= 960000000 NMat=   1 IRICut=       1 DoRegI=T DoRafI=F ISym2E= 1.
 FoFCou: FMM=F IPFlag=           0 FMFlag=      100000 FMFlg1=           0
         NFxFlg=           0 DoJE=F BraDBF=F KetDBF=F FulRan=T
         wScrn=  0.000000 ICntrl=       0 IOpCl=  0 I1Cent=           0 NGrid=           0
         NMat0=    1 NMatS0=      1 NMatT0=    0 NMatD0=    1 NMtDS0=    0 NMtDT0=    0
 Petite list used in FoFCou.
 E= -323.473163526481    
 DIIS: error= 2.01D-02 at cycle   1 NSaved=   1.
 NSaved= 1 IEnMin= 1 EnMin= -323.473163526481     IErMin= 1 ErrMin= 2.01D-02
 ErrMax= 2.01D-02  0.00D+00 EMaxC= 1.00D-01 BMatC= 2.11D-01 BMatP= 2.11D-01
 IDIUse=3 WtCom= 7.99D-01 WtEn= 2.01D-01
 Coeff-Com:  0.100D+01
 Coeff-En:   0.100D+01
 Coeff:      0.100D+01
 Gap=     0.182 Goal=   None    Shift=    0.000
 GapD=    0.182 DampG=1.000 DampE=0.500 DampFc=0.5000 IDamp=-1.
 Damping current iteration by 5.00D-01
 RMSDP=9.59D-04 MaxDP=7.26D-02              OVMax= 2.15D-01

 Cycle   2  Pass 1  IDiag  1:
 E= -323.536567083805     Delta-E=       -0.063403557324 Rises=F Damp=T
 DIIS: error= 3.76D-03 at cycle   2 NSaved=   2.
 NSaved= 2 IEnMin= 2 EnMin= -323.536567083805     IErMin= 2 ErrMin= 3.76D-03
 ErrMax= 3.76D-03  0.00D+00 EMaxC= 1.00D-01 BMatC= 1.87D-02 BMatP= 2.11D-01
 IDIUse=3 WtCom= 9.62D-01 WtEn= 3.76D-02
 Coeff-Com:  0.104D+00 0.896D+00
 Coeff-En:   0.217D+00 0.783D+00
 Coeff:      0.108D+00 0.892D+00
 Gap=     0.242 Goal=   None    Shift=    0.000
 RMSDP=3.38D-04 MaxDP=2.46D-02 DE=-6.34D-02 OVMax= 1.67D-01

 Cycle   3  Pass 1  IDiag  1:
 E= -323.628170621710     Delta-E=       -0.091603537905 Rises=F Damp=F
 DIIS: error= 4.22D-03 at cycle   3 NSaved=   3.
 NSaved= 3 IEnMin= 3 EnMin= -323.628170621710     IErMin= 2 ErrMin= 3.76D-03
 ErrMax= 4.22D-03  0.00D+00 EMaxC= 1.00D-01 BMatC= 1.08D-02 BMatP= 1.87D-02
 IDIUse=3 WtCom= 9.58D-01 WtEn= 4.22D-02
 Coeff-Com: -0.294D-01 0.419D+00 0.611D+00
 Coeff-En:   0.000D+00 0.000D+00 0.100D+01
 Coeff:     -0.282D-01 0.401D+00 0.627D+00
 Gap=     0.214 Goal=   None    Shift=    0.000
 RMSDP=1.09D-04 MaxDP=1.12D-02 DE=-9.16D-02 OVMax= 4.94D-02

 Cycle   4  Pass 1  IDiag  1:
 E= -323.635064047205     Delta-E=       -0.006893425496 Rises=F Damp=F
 DIIS: error= 3.18D-03 at cycle   4 NSaved=   4.
 NSaved= 4 IEnMin= 4 EnMin= -323.635064047205     IErMin= 4 ErrMin= 3.18D-03
 ErrMax= 3.18D-03  0.00D+00 EMaxC= 1.00D-01 BMatC= 2.85D-03 BMatP= 1.08D-02
 IDIUse=3 WtCom= 9.68D-01 WtEn= 3.18D-02
 Coeff-Com: -0.276D-01 0.135D+00 0.384D+00 0.508D+00
 Coeff-En:   0.000D+00 0.000D+00 0.249D+00 0.751D+00
 Coeff:     -0.267D-01 0.131D+00 0.380D+00 0.515D+00
 Gap=     0.214 Goal=   None    Shift=    0.000
 RMSDP=5.08D-05 MaxDP=3.77D-03 DE=-6.89D-03 OVMax= 2.38D-02

 Cycle   5  Pass 1  IDiag  1:
 E= -323.637827241401     Delta-E=       -0.002763194196 Rises=F Damp=F
 DIIS: error= 9.31D-04 at cycle   5 NSaved=   5.
 NSaved= 5 IEnMin= 5 EnMin= -323.637827241401     IErMin= 5 ErrMin= 9.31D-04
 ErrMax= 9.31D-04  0.00D+00 EMaxC= 1.00D-01 BMatC= 2.26D-04 BMatP= 2.85D-03
 IDIUse=3 WtCom= 9.91D-01 WtEn= 9.31D-03
 Coeff-Com: -0.116D-01 0.306D-01 0.151D+00 0.292D+00 0.538D+00
 Coeff-En:   0.000D+00 0.000D+00 0.000D+00 0.748D-02 0.993D+00
 Coeff:     -0.115D-01 0.304D-01 0.150D+00 0.289D+00 0.542D+00
 Gap=     0.214 Goal=   None    Shift=    0.000
 RMSDP=1.30D-05 MaxDP=1.00D-03 DE=-2.76D-03 OVMax= 7.46D-03

 Cycle   6  Pass 1  IDiag  1:
 E= -323.638024494153     Delta-E=       -0.000197252752 Rises=F Damp=F
 DIIS: error= 2.25D-04 at cycle   6 NSaved=   6.
 NSaved= 6 IEnMin= 6 EnMin= -323.638024494153     IErMin= 6 ErrMin= 2.25D-04
 ErrMax= 2.25D-04  0.00D+00 EMaxC= 1.00D-01 BMatC= 2.95D-05 BMatP= 2.26D-04
 IDIUse=3 WtCom= 9.98D-01 WtEn= 2.25D-03
 Coeff-Com: -0.477D-02 0.768D-02 0.599D-01 0.131D+00 0.334D+00 0.473D+00
 Coeff-En:   0.000D+00 0.000D+00 0.000D+00 0.000D+00 0.784D-01 0.922D+00
 Coeff:     -0.476D-02 0.766D-02 0.597D-01 0.131D+00 0.333D+00 0.474D+00
 Gap=     0.214 Goal=   None    Shift=    0.000
 RMSDP=5.76D-06 MaxDP=3.32D-04 DE=-1.97D-04 OVMax= 1.84D-03

 Cycle   7  Pass 1  IDiag  1:
 E= -323.638051079692     Delta-E=       -0.000026585539 Rises=F Damp=F
 DIIS: error= 4.72D-05 at cycle   7 NSaved=   7.
 NSaved= 7 IEnMin= 7 EnMin= -323.638051079692     IErMin= 7 ErrMin= 4.72D-05
 ErrMax= 4.72D-05  0.00D+00 EMaxC= 1.00D-01 BMatC= 1.47D-06 BMatP= 2.95D-05
 IDIUse=1 WtCom= 1.00D+00 WtEn= 0.00D+00
 Coeff-Com: -0.191D-02 0.240D-02 0.255D-01 0.575D-01 0.157D+00 0.259D+00
 Coeff-Com:  0.500D+00
 Coeff:     -0.191D-02 0.240D-02 0.255D-01 0.575D-01 0.157D+00 0.259D+00
 Coeff:      0.500D+00
 Gap=     0.214 Goal=   None    Shift=    0.000
 RMSDP=1.05D-06 MaxDP=8.83D-05 DE=-2.66D-05 OVMax= 6.39D-04

 Cycle   8  Pass 1  IDiag  1:
 E= -323.638052057313     Delta-E=       -0.000000977621 Rises=F Damp=F
 DIIS: error= 1.91D-05 at cycle   8 NSaved=   8.
 NSaved= 8 IEnMin= 8 EnMin= -323.638052057313     IErMin= 8 ErrMin= 1.91D-05
 ErrMax= 1.91D-05  0.00D+00 EMaxC= 1.00D-01 BMatC= 3.13D-07 BMatP= 1.47D-06
 IDIUse=1 WtCom= 1.00D+00 WtEn= 0.00D+00
 Coeff-Com: -0.143D-03-0.254D-03 0.350D-02 0.861D-02 0.279D-01 0.610D-01
 Coeff-Com:  0.327D+00 0.572D+00
 Coeff:     -0.143D-03-0.254D-03 0.350D-02 0.861D-02 0.279D-01 0.610D-01
 Coeff:      0.327D+00 0.572D+00
 Gap=     0.214 Goal=   None    Shift=    0.000
 RMSDP=4.85D-07 MaxDP=3.31D-05 DE=-9.78D-07 OVMax= 2.11D-04

 Cycle   9  Pass 1  IDiag  1:
 E= -323.638052310908     Delta-E=       -0.000000253595 Rises=F Damp=F
 DIIS: error= 4.99D-06 at cycle   9 NSaved=   9.
 NSaved= 9 IEnMin= 9 EnMin= -323.638052310908     IErMin= 9 ErrMin= 4.99D-06
 ErrMax= 4.99D-06  0.00D+00 EMaxC= 1.00D-01 BMatC= 1.72D-08 BMatP= 3.13D-07
 IDIUse=1 WtCom= 1.00D+00 WtEn= 0.00D+00
 Coeff-Com:  0.362D-04-0.267D-03 0.396D-03 0.116D-02 0.519D-02 0.166D-01
 Coeff-Com:  0.145D+00 0.299D+00 0.533D+00
 Coeff:      0.362D-04-0.267D-03 0.396D-03 0.116D-02 0.519D-02 0.166D-01
 Coeff:      0.145D+00 0.299D+00 0.533D+00
 Gap=     0.214 Goal=   None    Shift=    0.000
 RMSDP=1.39D-07 MaxDP=8.50D-06 DE=-2.54D-07 OVMax= 6.63D-05

 Cycle  10  Pass 1  IDiag  1:
 E= -323.638052324727     Delta-E=       -0.000000013819 Rises=F Damp=F
 DIIS: error= 2.44D-06 at cycle  10 NSaved=  10.
 NSaved=10 IEnMin=10 EnMin= -323.638052324727     IErMin=10 ErrMin= 2.44D-06
 ErrMax= 2.44D-06  0.00D+00 EMaxC= 1.00D-01 BMatC= 2.59D-09 BMatP= 1.72D-08
 IDIUse=1 WtCom= 1.00D+00 WtEn= 0.00D+00
 Coeff-Com:  0.339D-04-0.893D-04-0.211D-03-0.487D-03-0.105D-02 0.231D-03
 Coeff-Com:  0.287D-01 0.648D-01 0.302D+00 0.606D+00
 Coeff:      0.339D-04-0.893D-04-0.211D-03-0.487D-03-0.105D-02 0.231D-03
 Coeff:      0.287D-01 0.648D-01 0.302D+00 0.606D+00
 Gap=     0.214 Goal=   None    Shift=    0.000
 RMSDP=4.75D-08 MaxDP=2.66D-06 DE=-1.38D-08 OVMax= 2.91D-05

 Cycle  11  Pass 1  IDiag  1:
 E= -323.638052327295     Delta-E=       -0.000000002569 Rises=F Damp=F
 DIIS: error= 3.57D-07 at cycle  11 NSaved=  11.
 NSaved=11 IEnMin=11 EnMin= -323.638052327295     IErMin=11 ErrMin= 3.57D-07
 ErrMax= 3.57D-07  0.00D+00 EMaxC= 1.00D-01 BMatC= 7.85D-11 BMatP= 2.59D-09
 IDIUse=1 WtCom= 1.00D+00 WtEn= 0.00D+00
 Coeff-Com:  0.107D-04-0.190D-04-0.108D-03-0.289D-03-0.754D-03-0.905D-03
 Coeff-Com:  0.304D-02 0.531D-02 0.769D-01 0.227D+00 0.690D+00
 Coeff:      0.107D-04-0.190D-04-0.108D-03-0.289D-03-0.754D-03-0.905D-03
 Coeff:      0.304D-02 0.531D-02 0.769D-01 0.227D+00 0.690D+00
 Gap=     0.214 Goal=   None    Shift=    0.000
 RMSDP=1.14D-08 MaxDP=1.03D-06 DE=-2.57D-09 OVMax= 3.57D-06

 Cycle  12  Pass 1  IDiag  1:
 E= -323.638052327364     Delta-E=       -0.000000000068 Rises=F Damp=F
 DIIS: error= 2.47D-07 at cycle  12 NSaved=  12.
 NSaved=12 IEnMin=12 EnMin= -323.638052327364     IErMin=12 ErrMin= 2.47D-07
 ErrMax= 2.47D-07  0.00D+00 EMaxC= 1.00D-01 BMatC= 3.11D-11 BMatP= 7.85D-11
 IDIUse=1 WtCom= 1.00D+00 WtEn= 0.00D+00
 Coeff-Com:  0.764D-06 0.210D-05-0.246D-04-0.897D-04-0.266D-03-0.529D-03
 Coeff-Com: -0.190D-02-0.638D-02 0.351D-02 0.567D-01 0.432D+00 0.517D+00
 Coeff:      0.764D-06 0.210D-05-0.246D-04-0.897D-04-0.266D-03-0.529D-03
 Coeff:     -0.190D-02-0.638D-02 0.351D-02 0.567D-01 0.432D+00 0.517D+00
 Gap=     0.214 Goal=   None    Shift=    0.000
 RMSDP=4.64D-09 MaxDP=4.19D-07 DE=-6.81D-11 OVMax= 2.33D-06

 SCF Done:  E(RB3LYP) =  -323.638052327     A.U. after   12 cycles
            NFock= 12  Conv=0.46D-08     -V/T= 2.0067
 KE= 3.214715852446D+02 PE=-1.286115920780D+03 EE= 3.751389341119D+02
 Leave Link  502 at Thu Aug 26 21:37:46 2021, MaxMem= 17179869184 cpu:     44546.2
 (Enter /public3/home/sc51754/softwares/g09e01/l601.exe)
 Copying SCF densities to generalized density rwf, IOpCl= 0 IROHF=0.

 **********************************************************************

            Population analysis using the SCF density.

 **********************************************************************

 Orbital symmetries:
       Occupied  (A') (A') (A') (A') (A') (A') (A') (A') (A') (A')
                 (A') (A') (A') (A') (A') (A') (A') (A') (A") (A')
                 (A') (A") (A") (A') (A")
       Virtual   (A") (A") (A') (A') (A') (A") (A') (A') (A') (A")
                 (A") (A') (A') (A') (A') (A') (A") (A') (A") (A')
                 (A') (A') (A') (A") (A') (A') (A") (A') (A') (A")
                 (A') (A") (A') (A') (A") (A') (A') (A") (A') (A')
                 (A") (A') (A") (A') (A") (A") (A') (A') (A') (A")
                 (A') (A') (A') (A") (A') (A') (A') (A") (A') (A')
                 (A') (A") (A') (A') (A") (A') (A') (A") (A') (A')
                 (A") (A') (A") (A') (A') (A") (A') (A') (A") (A')
                 (A') (A") (A") (A') (A") (A') (A') (A") (A") (A')
                 (A") (A') (A") (A') (A') (A") (A") (A') (A') (A")
                 (A') (A') (A') (A") (A') (A") (A') (A") (A') (A')
                 (A') (A') (A") (A') (A") (A') (A') (A') (A") (A')
                 (A') (A") (A") (A') (A') (A') (A') (A") (A') (A")
                 (A") (A') (A') (A") (A') (A') (A") (A') (A') (A")
                 (A") (A') (A') (A") (A') (A') (A") (A") (A') (A')
                 (A") (A") (A') (A") (A') (A") (A') (A') (A') (A")
                 (A") (A') (A') (A') (A") (A') (A") (A') (A") (A')
                 (A") (A') (A') (A') (A") (A') (A") (A") (A') (A')
                 (A") (A') (A") (A') (A") (A") (A') (A') (A') (A")
                 (A') (A') (A") (A') (A") (A') (A') (A") (A') (A')
                 (A') (A") (A') (A') (A") (A') (A') (A") (A') (A")
                 (A') (A") (A') (A") (A') (A") (A') (A') (A") (A')
                 (A") (A') (A") (A') (A') (A') (A") (A") (A') (A")
                 (A') (A') (A') (A") (A') (A") (A") (A') (A") (A')
                 (A') (A') (A") (A') (A") (A') (A') (A") (A') (A")
                 (A") (A') (A") (A") (A') (A') (A') (A") (A') (A")
                 (A') (A') (A") (A') (A") (A') (A") (A') (A') (A')
                 (A") (A") (A') (A') (A') (A") (A') (A") (A') (A')
                 (A") (A') (A") (A") (A') (A') (A") (A') (A') (A")
                 (A') (A") (A') (A') (A") (A') (A') (A") (A') (A")
                 (A') (A') (A") (A') (A") (A') (A") (A') (A") (A')
                 (A') (A') (A') (A') (A") (A') (A") (A') (A") (A")
                 (A') (A') (A') (A") (A') (A') (A") (A') (A') (A")
                 (A') (A') (A") (A') (A') (A') (A") (A') (A') (A')
                 (A") (A') (A') (A") (A') (A') (A') (A') (A") (A')
                 (A') (A") (A') (A') (A') (A') (A') (A') (A') (A")
                 (A') (A") (A') (A") (A') (A") (A") (A') (A') (A')
                 (A") (A") (A') (A') (A") (A') (A") (A') (A") (A')
                 (A') (A") (A') (A") (A') (A") (A") (A') (A') (A')
                 (A") (A') (A") (A') (A") (A') (A') (A") (A') (A")
                 (A') (A") (A') (A") (A') (A") (A') (A") (A') (A')
                 (A') (A') (A") (A") (A') (A") (A') (A') (A") (A')
                 (A') (A") (A') (A') (A") (A") (A') (A') (A') (A")
                 (A') (A') (A') (A") (A') (A") (A') (A") (A') (A")
                 (A') (A') (A') (A") (A') (A') (A") (A') (A') (A")
                 (A') (A') (A') (A') (A") (A') (A") (A') (A') (A")
                 (A') (A") (A") (A') (A') (A") (A') (A") (A') (A')
                 (A') (A') (A') (A') (A") (A') (A') (A") (A") (A')
                 (A') (A') (A") (A') (A') (A") (A') (A') (A') (A')
                 (A') (A") (A') (A') (A") (A') (A") (A') (A') (A')
                 (A") (A') (A') (A") (A') (A') (A") (A') (A") (A')
                 (A') (A') (A') (A') (A') (A") (A') (A") (A") (A')
                 (A") (A") (A") (A") (A') (A") (A') (A') (A") (A')
                 (A') (A") (A") (A') (A") (A') (A') (A") (A") (A')
                 (A') (A") (A') (A') (A") (A') (A') (A') (A') (A")
                 (A') (A") (A') (A') (A') (A") (A") (A') (A') (A')
                 (A') (A') (A') (A") (A') (A") (A") (A') (A') (A')
                 (A") (A') (A") (A') (A') (A") (A') (A') (A") (A")
                 (A') (A') (A") (A') (A") (A") (A') (A') (A") (A")
                 (A") (A') (A') (A') (A') (A') (A") (A') (A') (A')
                 (A') (A') (A") (A") (A') (A") (A') (A') (A") (A')
                 (A") (A') (A") (A") (A') (A") (A') (A") (A') (A')
                 (A') (A") (A") (A') (A") (A') (A") (A") (A") (A')
                 (A") (A') (A") (A") (A') (A') (A") (A") (A') (A")
                 (A') (A") (A') (A") (A') (A") (A') (A") (A') (A')
                 (A') (A") (A") (A') (A') (A') (A') (A') (A") (A')
                 (A') (A") (A') (A') (A') (A') (A') (A') (A") (A')
                 (A") (A') (A') (A') (A") (A') (A") (A') (A') (A')
                 (A') (A") (A") (A") (A") (A') (A') (A') (A") (A")
                 (A') (A') (A") (A') (A') (A') (A") (A') (A') (A")
                 (A') (A") (A") (A') (A') (A") (A') (A") (A') (A")
                 (A') (A') (A") (A') (A") (A') (A") (A') (A') (A')
                 (A") (A') (A') (A") (A') (A') (A') (A") (A') (A")
                 (A') (A") (A') (A") (A') (A') (A') (A') (A") (A')
                 (A") (A") (A') (A') (A') (A') (A') (A') (A") (A')
                 (A') (A') (A') (A') (A') (A") (A") (A') (A") (A')
                 (A") (A') (A') (A') (A') (A') (A") (A') (A') (A')
                 (A') (A') (A") (A") (A") (A") (A") (A") (A") (A")
                 (A") (A") (A') (A') (A') (A') (A') (A') (A') (A')
                 (A') (A') (A') (A') (A') (A') (A') (A") (A") (A')
                 (A") (A") (A") (A") (A') (A") (A') (A') (A') (A')
                 (A') (A') (A') (A') (A') (A') (A') (A") (A") (A')
                 (A') (A') (A') (A') (A') (A') (A') (A') (A')
 The electronic state is 1-A'.
 Alpha  occ. eigenvalues --  -19.16663 -14.32620 -10.29528 -10.22753 -10.21249
 Alpha  occ. eigenvalues --  -10.20728 -10.19936  -1.05660  -0.92084  -0.80410
 Alpha  occ. eigenvalues --   -0.76389  -0.64131  -0.62732  -0.55087  -0.52092
 Alpha  occ. eigenvalues --   -0.48723  -0.45512  -0.42899  -0.42420  -0.40881
 Alpha  occ. eigenvalues --   -0.37150  -0.35197  -0.29319  -0.27634  -0.25930
 Alpha virt. eigenvalues --   -0.04532  -0.02684  -0.01318  -0.00379   0.00232
 Alpha virt. eigenvalues --    0.01492   0.01692   0.02283   0.02889   0.03319
 Alpha virt. eigenvalues --    0.03373   0.03912   0.04289   0.04427   0.04582
 Alpha virt. eigenvalues --    0.04749   0.05445   0.05612   0.05740   0.06030
 Alpha virt. eigenvalues --    0.06256   0.06856   0.07086   0.07442   0.07533
 Alpha virt. eigenvalues --    0.08295   0.08417   0.09039   0.09604   0.09794
 Alpha virt. eigenvalues --    0.09871   0.10493   0.10562   0.10696   0.11038
 Alpha virt. eigenvalues --    0.11231   0.11900   0.12153   0.12381   0.12990
 Alpha virt. eigenvalues --    0.13391   0.13659   0.14244   0.14392   0.14453
 Alpha virt. eigenvalues --    0.15215   0.15250   0.15706   0.15768   0.15879
 Alpha virt. eigenvalues --    0.16375   0.16852   0.17088   0.17961   0.17985
 Alpha virt. eigenvalues --    0.18635   0.19064   0.19368   0.19889   0.20287
 Alpha virt. eigenvalues --    0.20411   0.20498   0.20831   0.21295   0.21680
 Alpha virt. eigenvalues --    0.21776   0.21993   0.22115   0.22578   0.22798
 Alpha virt. eigenvalues --    0.23250   0.23586   0.24241   0.24415   0.24533
 Alpha virt. eigenvalues --    0.24727   0.25596   0.26141   0.26315   0.26805
 Alpha virt. eigenvalues --    0.27473   0.27628   0.28012   0.28471   0.28507
 Alpha virt. eigenvalues --    0.28839   0.29504   0.29778   0.30573   0.30629
 Alpha virt. eigenvalues --    0.30698   0.31196   0.31274   0.31523   0.32298
 Alpha virt. eigenvalues --    0.32486   0.33017   0.33050   0.33138   0.33325
 Alpha virt. eigenvalues --    0.33555   0.34185   0.34734   0.34737   0.35032
 Alpha virt. eigenvalues --    0.35499   0.35637   0.35777   0.35931   0.36816
 Alpha virt. eigenvalues --    0.36954   0.37254   0.37751   0.37806   0.37975
 Alpha virt. eigenvalues --    0.38253   0.38561   0.38866   0.38968   0.39484
 Alpha virt. eigenvalues --    0.39728   0.39932   0.40462   0.40520   0.40872
 Alpha virt. eigenvalues --    0.41323   0.42277   0.42592   0.42719   0.43473
 Alpha virt. eigenvalues --    0.43628   0.43635   0.43754   0.44861   0.45005
 Alpha virt. eigenvalues --    0.45414   0.45548   0.46324   0.46743   0.46836
 Alpha virt. eigenvalues --    0.47229   0.47390   0.48178   0.48850   0.48949
 Alpha virt. eigenvalues --    0.49774   0.50023   0.50407   0.50452   0.51519
 Alpha virt. eigenvalues --    0.51880   0.52456   0.52643   0.52777   0.53193
 Alpha virt. eigenvalues --    0.53928   0.53974   0.53980   0.54823   0.55568
 Alpha virt. eigenvalues --    0.56076   0.56167   0.56193   0.56660   0.57043
 Alpha virt. eigenvalues --    0.57312   0.57708   0.58105   0.58375   0.58892
 Alpha virt. eigenvalues --    0.59417   0.59454   0.60036   0.60380   0.61049
 Alpha virt. eigenvalues --    0.61523   0.61859   0.62440   0.62708   0.63004
 Alpha virt. eigenvalues --    0.63333   0.63649   0.63961   0.64273   0.64658
 Alpha virt. eigenvalues --    0.64948   0.65080   0.65746   0.66244   0.66543
 Alpha virt. eigenvalues --    0.66578   0.67223   0.67320   0.67705   0.68387
 Alpha virt. eigenvalues --    0.68539   0.68967   0.68992   0.69495   0.69723
 Alpha virt. eigenvalues --    0.70153   0.70376   0.70630   0.71002   0.71331
 Alpha virt. eigenvalues --    0.71414   0.72383   0.72503   0.72606   0.72647
 Alpha virt. eigenvalues --    0.73523   0.73918   0.74068   0.74145   0.74768
 Alpha virt. eigenvalues --    0.75182   0.75249   0.75541   0.75612   0.75886
 Alpha virt. eigenvalues --    0.76492   0.76773   0.76886   0.77158   0.77893
 Alpha virt. eigenvalues --    0.78315   0.78376   0.79505   0.79692   0.80213
 Alpha virt. eigenvalues --    0.80727   0.81603   0.82100   0.82273   0.82739
 Alpha virt. eigenvalues --    0.82825   0.83264   0.83434   0.84007   0.84186
 Alpha virt. eigenvalues --    0.84326   0.84905   0.84998   0.85349   0.86521
 Alpha virt. eigenvalues --    0.86556   0.87362   0.87732   0.88955   0.89135
 Alpha virt. eigenvalues --    0.89408   0.89478   0.90199   0.90915   0.90936
 Alpha virt. eigenvalues --    0.91618   0.92631   0.93526   0.93712   0.94515
 Alpha virt. eigenvalues --    0.94585   0.95837   0.96116   0.96638   0.97942
 Alpha virt. eigenvalues --    0.97990   0.98206   0.98475   0.98899   0.99122
 Alpha virt. eigenvalues --    0.99928   1.00210   1.00300   1.02052   1.02197
 Alpha virt. eigenvalues --    1.04190   1.04375   1.04640   1.04954   1.05490
 Alpha virt. eigenvalues --    1.06197   1.06831   1.08714   1.09116   1.09193
 Alpha virt. eigenvalues --    1.09851   1.10582   1.10590   1.11746   1.12290
 Alpha virt. eigenvalues --    1.12306   1.12550   1.13150   1.14246   1.14382
 Alpha virt. eigenvalues --    1.15224   1.15737   1.15747   1.17412   1.17443
 Alpha virt. eigenvalues --    1.18245   1.18699   1.19314   1.19651   1.20364
 Alpha virt. eigenvalues --    1.21192   1.22680   1.23357   1.24207   1.24843
 Alpha virt. eigenvalues --    1.25347   1.25457   1.26126   1.26340   1.26768
 Alpha virt. eigenvalues --    1.27530   1.29090   1.29126   1.29583   1.29847
 Alpha virt. eigenvalues --    1.30971   1.31293   1.31558   1.31665   1.33611
 Alpha virt. eigenvalues --    1.34489   1.35668   1.35715   1.36772   1.37343
 Alpha virt. eigenvalues --    1.37640   1.38999   1.40865   1.41166   1.41787
 Alpha virt. eigenvalues --    1.42463   1.44401   1.44756   1.45905   1.48405
 Alpha virt. eigenvalues --    1.50262   1.50800   1.52066   1.52810   1.53464
 Alpha virt. eigenvalues --    1.54499   1.56715   1.58654   1.59900   1.61193
 Alpha virt. eigenvalues --    1.62646   1.62929   1.65528   1.74212   1.75125
 Alpha virt. eigenvalues --    1.78284   1.80101   1.83023   1.83334   1.83704
 Alpha virt. eigenvalues --    1.87690   1.90588   1.90611   1.93172   1.94828
 Alpha virt. eigenvalues --    1.96258   1.96460   1.96709   1.98231   1.98802
 Alpha virt. eigenvalues --    1.99567   2.02727   2.02780   2.03327   2.04356
 Alpha virt. eigenvalues --    2.05570   2.06645   2.07379   2.07859   2.09477
 Alpha virt. eigenvalues --    2.11244   2.12080   2.12490   2.13598   2.14028
 Alpha virt. eigenvalues --    2.15635   2.16958   2.17485   2.19267   2.20750
 Alpha virt. eigenvalues --    2.20950   2.24017   2.24051   2.26420   2.27266
 Alpha virt. eigenvalues --    2.30027   2.30780   2.30826   2.31576   2.32058
 Alpha virt. eigenvalues --    2.33206   2.35592   2.36247   2.36850   2.37705
 Alpha virt. eigenvalues --    2.40562   2.40892   2.41826   2.42017   2.44625
 Alpha virt. eigenvalues --    2.45773   2.46326   2.46584   2.48692   2.49451
 Alpha virt. eigenvalues --    2.51756   2.53106   2.53573   2.54489   2.56055
 Alpha virt. eigenvalues --    2.56492   2.57874   2.57893   2.58863   2.60999
 Alpha virt. eigenvalues --    2.62608   2.63127   2.63585   2.66609   2.68350
 Alpha virt. eigenvalues --    2.68464   2.72247   2.72310   2.73097   2.76167
 Alpha virt. eigenvalues --    2.77644   2.78546   2.78720   2.80050   2.80153
 Alpha virt. eigenvalues --    2.82482   2.87210   2.88303   2.91846   2.91945
 Alpha virt. eigenvalues --    2.93265   2.97199   2.97229   2.98594   2.99858
 Alpha virt. eigenvalues --    3.01106   3.02628   3.06861   3.07650   3.09998
 Alpha virt. eigenvalues --    3.11754   3.12222   3.16787   3.18312   3.18665
 Alpha virt. eigenvalues --    3.20284   3.20594   3.22676   3.24370   3.28086
 Alpha virt. eigenvalues --    3.32745   3.34227   3.35527   3.36264   3.36703
 Alpha virt. eigenvalues --    3.39956   3.41664   3.46377   3.50456   3.51361
 Alpha virt. eigenvalues --    3.52637   3.59733   3.60054   3.62497   3.63277
 Alpha virt. eigenvalues --    3.64831   3.68453   3.70351   3.70538   3.72478
 Alpha virt. eigenvalues --    3.73476   3.73963   3.76950   3.80318   3.82533
 Alpha virt. eigenvalues --    3.86377   3.87363   3.90146   3.91776   3.94751
 Alpha virt. eigenvalues --    3.96696   4.08216   4.09487   4.11707   4.16422
 Alpha virt. eigenvalues --    4.18416   4.18993   4.29166   4.29753   4.30569
 Alpha virt. eigenvalues --    4.31766   4.41257   4.46028   4.48000   4.49966
 Alpha virt. eigenvalues --    4.55715   4.60947   4.64640   4.81708   4.89344
 Alpha virt. eigenvalues --    4.91048   4.91664   4.96689   4.99746   5.03232
 Alpha virt. eigenvalues --    5.03801   5.05211   5.07681   5.11741   5.12560
 Alpha virt. eigenvalues --    5.13399   5.15713   5.16478   5.18910   5.19001
 Alpha virt. eigenvalues --    5.23775   5.27633   5.28285   5.31272   5.31733
 Alpha virt. eigenvalues --    5.33832   5.36062   5.36193   5.37407   5.37810
 Alpha virt. eigenvalues --    5.41024   5.45294   5.46697   5.49639   5.50237
 Alpha virt. eigenvalues --    5.50790   5.53380   5.54936   5.57615   5.60408
 Alpha virt. eigenvalues --    5.62744   5.62747   5.64198   5.69106   5.69726
 Alpha virt. eigenvalues --    5.70441   5.74382   5.77899   5.78580   5.88500
 Alpha virt. eigenvalues --    5.89219   5.96634   5.98768   5.99517   6.03529
 Alpha virt. eigenvalues --    6.07017   6.12107   6.14764   6.15646   6.20879
 Alpha virt. eigenvalues --    6.22541   6.28203   6.31476   6.33401   6.36333
 Alpha virt. eigenvalues --    6.40666   6.41317   6.45797   6.46209   6.47781
 Alpha virt. eigenvalues --    6.48631   6.55713   6.58580   6.59390   6.62400
 Alpha virt. eigenvalues --    6.62849   6.64379   6.67525   6.67962   6.69687
 Alpha virt. eigenvalues --    6.71827   6.72125   6.77394   6.91209   6.93144
 Alpha virt. eigenvalues --    6.96087   7.00314   7.05107   7.05412   7.10387
 Alpha virt. eigenvalues --    7.12423   7.13711   7.16114   7.17918   7.20948
 Alpha virt. eigenvalues --    7.23743   7.23793   7.24690   7.25719   7.28765
 Alpha virt. eigenvalues --    7.31692   7.32782   7.34711   7.41009   7.41184
 Alpha virt. eigenvalues --    7.42383   7.42437   7.45076   7.45715   7.48740
 Alpha virt. eigenvalues --    7.50603   7.52951   7.55481   7.55666   7.56635
 Alpha virt. eigenvalues --    7.58515   7.58863   7.62234   7.65603   7.68730
 Alpha virt. eigenvalues --    7.69301   7.71133   7.72588   7.73339   7.73502
 Alpha virt. eigenvalues --    7.77879   7.78997   7.81147   7.83167   7.84707
 Alpha virt. eigenvalues --    7.86941   7.87898   7.90747   7.93358   7.95031
 Alpha virt. eigenvalues --    7.95289   7.97087   8.02795   8.02963   8.06811
 Alpha virt. eigenvalues --    8.08016   8.08649   8.11532   8.11631   8.13756
 Alpha virt. eigenvalues --    8.14697   8.17393   8.20565   8.23444   8.23870
 Alpha virt. eigenvalues --    8.27429   8.32808   8.33378   8.36029   8.39943
 Alpha virt. eigenvalues --    8.42255   8.44921   8.46818   8.48456   8.52115
 Alpha virt. eigenvalues --    8.54762   8.55624   8.59023   8.65147   8.66272
 Alpha virt. eigenvalues --    8.69330   8.74914   8.81639   8.85434   8.86448
 Alpha virt. eigenvalues --    8.87326   8.88147   8.91287   8.93778   8.95551
 Alpha virt. eigenvalues --    8.96801   9.00198   9.03960   9.08039   9.09387
 Alpha virt. eigenvalues --    9.10039   9.13246   9.15242   9.18312   9.21061
 Alpha virt. eigenvalues --    9.23448   9.24440   9.26232   9.27134   9.29410
 Alpha virt. eigenvalues --    9.29428   9.33710   9.36546   9.36692   9.38561
 Alpha virt. eigenvalues --    9.41244   9.41573   9.43815   9.46677   9.51975
 Alpha virt. eigenvalues --    9.52289   9.53945   9.57987   9.61886   9.63525
 Alpha virt. eigenvalues --    9.64145   9.69965   9.73160   9.74344   9.78732
 Alpha virt. eigenvalues --    9.85030   9.85294   9.90085   9.93621  10.02371
 Alpha virt. eigenvalues --   10.05316  10.10058  10.14828  10.16604  10.17759
 Alpha virt. eigenvalues --   10.20384  10.24409  10.25829  10.28486  10.29511
 Alpha virt. eigenvalues --   10.35763  10.39167  10.49717  10.49847  10.55634
 Alpha virt. eigenvalues --   10.62510  10.65936  10.66167  10.69686  10.73756
 Alpha virt. eigenvalues --   10.82797  10.84174  11.01068  11.03663  11.04545
 Alpha virt. eigenvalues --   11.13127  11.24901  11.31000  11.35342  11.49905
 Alpha virt. eigenvalues --   11.82156  11.85992  11.86817  11.96690  11.98689
 Alpha virt. eigenvalues --   12.01402  12.11509  12.48469  12.56249  12.79258
 Alpha virt. eigenvalues --   12.92295  12.92628  12.99024  13.10587  13.20840
 Alpha virt. eigenvalues --   13.39428  14.70211  16.55230  16.55773  16.56865
 Alpha virt. eigenvalues --   16.64406  16.65325  16.71725  16.75616  16.76971
 Alpha virt. eigenvalues --   16.80807  16.86197  16.89159  16.98751  17.03581
 Alpha virt. eigenvalues --   17.20387  17.24242  17.33372  17.34570  17.47916
 Alpha virt. eigenvalues --   17.70851  17.72658  17.75509  17.81903  17.86562
 Alpha virt. eigenvalues --   17.96063  18.05917  19.13510  19.31871  19.32995
 Alpha virt. eigenvalues --   19.58641  19.61926  19.66233  19.67300  19.70540
 Alpha virt. eigenvalues --   19.74626  19.80632  19.87894  19.95939  20.05208
 Alpha virt. eigenvalues --   20.08513  20.21874  21.71049  21.84491  21.93062
 Alpha virt. eigenvalues --   21.96792  22.05782  22.32162  22.46235  22.55330
 Alpha virt. eigenvalues --   23.14560  24.86056  30.61260  31.75374  32.35114
 Alpha virt. eigenvalues --   33.26621  34.17804  42.79823  56.01120
          Condensed to atoms (all electrons):
               1          2          3          4          5          6
     1  O    8.047045  -0.184234   0.245887  -0.031883   0.033111  -0.063078
     2  N   -0.184234   6.997010   0.532601  -0.153796   0.372254  -0.021523
     3  C    0.245887   0.532601   4.807318   0.280255  -0.160714   0.082850
     4  C   -0.031883  -0.153796   0.280255   5.032766  -0.123341   0.453582
     5  C    0.033111   0.372254  -0.160714  -0.123341   5.050570   0.000538
     6  C   -0.063078  -0.021523   0.082850   0.453582   0.000538   4.717029
     7  C    0.016742  -0.146108  -0.034093   0.046398   0.461030   0.406643
     8  H    0.385984  -0.073439  -0.076021   0.015611   0.038339  -0.033448
     9  H   -0.006798   0.026672  -0.058936   0.357672   0.033959  -0.019562
    10  H    0.011518  -0.137661  -0.023716   0.012577   0.467158   0.011327
    11  H   -0.012986   0.017405  -0.013733   0.055654  -0.016975   0.391767
    12  H   -0.006981   0.039342   0.036863  -0.046887  -0.021809   0.047970
               7          8          9         10         11         12
     1  O    0.016742   0.385984  -0.006798   0.011518  -0.012986  -0.006981
     2  N   -0.146108  -0.073439   0.026672  -0.137661   0.017405   0.039342
     3  C   -0.034093  -0.076021  -0.058936  -0.023716  -0.013733   0.036863
     4  C    0.046398   0.015611   0.357672   0.012577   0.055654  -0.046887
     5  C    0.461030   0.038339   0.033959   0.467158  -0.016975  -0.021809
     6  C    0.406643  -0.033448  -0.019562   0.011327   0.391767   0.047970
     7  C    4.859274  -0.011526  -0.023389  -0.048012   0.004173   0.395784
     8  H   -0.011526   0.552870  -0.006458   0.008574  -0.010472  -0.005400
     9  H   -0.023389  -0.006458   0.716245   0.003359  -0.050479  -0.025000
    10  H   -0.048012   0.008574   0.003359   0.738641  -0.005139  -0.051377
    11  H    0.004173  -0.010472  -0.050479  -0.005139   0.689324  -0.027433
    12  H    0.395784  -0.005400  -0.025000  -0.051377  -0.027433   0.669525
 Mulliken charges:
               1
     1  O   -0.434327
     2  N   -0.268524
     3  C    0.381439
     4  C    0.101393
     5  C   -0.134120
     6  C    0.025905
     7  C    0.073084
     8  H    0.215386
     9  H    0.052716
    10  H    0.012750
    11  H   -0.021106
    12  H   -0.004596
 Sum of Mulliken charges =  -0.00000
 Mulliken charges with hydrogens summed into heavy atoms:
               1
     1  O   -0.218941
     2  N   -0.268524
     3  C    0.381439
     4  C    0.154109
     5  C   -0.121370
     6  C    0.004799
     7  C    0.068487
 Electronic spatial extent (au):  <R**2>=            678.8630
 Charge=              0.0000 electrons
 Dipole moment (field-independent basis, Debye):
    X=              0.5921    Y=             -1.5387    Z=             -0.0000  Tot=              1.6487
 Quadrupole moment (field-independent basis, Debye-Ang):
   XX=            -37.9881   YY=            -36.2903   ZZ=            -43.8442
   XY=             -1.9661   XZ=              0.0000   YZ=             -0.0000
 Traceless Quadrupole moment (field-independent basis, Debye-Ang):
   XX=              1.3861   YY=              3.0838   ZZ=             -4.4700
   XY=             -1.9661   XZ=              0.0000   YZ=             -0.0000
 Octapole moment (field-independent basis, Debye-Ang**2):
  XXX=              6.7339  YYY=              5.7864  ZZZ=              0.0000  XYY=            -12.6895
  XXY=             -1.8722  XXZ=             -0.0000  XZZ=             -0.8492  YZZ=              5.5922
  YYZ=              0.0000  XYZ=              0.0000
 Hexadecapole moment (field-independent basis, Debye-Ang**3):
 XXXX=           -283.0658 YYYY=           -495.2098 ZZZZ=            -49.1842 XXXY=              7.5469
 XXXZ=              0.0000 YYYX=            -39.9200 YYYZ=             -0.0000 ZZZX=              0.0000
 ZZZY=             -0.0000 XXYY=           -121.7532 XXZZ=            -64.2331 YYZZ=           -108.2468
 XXYZ=             -0.0000 YYXZ=              0.0000 ZZXY=             -0.8093
 N-N= 2.658673490964D+02 E-N=-1.286115901989D+03  KE= 3.214715852446D+02
 Symmetry A'   KE= 3.097722572858D+02
 Symmetry A"   KE= 1.169932795883D+01
 No NMR shielding tensors so no spin-rotation constants.
 Leave Link  601 at Thu Aug 26 21:37:50 2021, MaxMem= 17179869184 cpu:       209.6
 (Enter /public3/home/sc51754/softwares/g09e01/l701.exe)
 Compute integral first derivatives.
 ... and contract with generalized density number  0.
 Leave Link  701 at Thu Aug 26 21:37:54 2021, MaxMem= 17179869184 cpu:       167.0
 (Enter /public3/home/sc51754/softwares/g09e01/l702.exe)
 L702 exits ... SP integral derivatives will be done elsewhere.
 Leave Link  702 at Thu Aug 26 21:37:55 2021, MaxMem= 17179869184 cpu:         1.9
 (Enter /public3/home/sc51754/softwares/g09e01/l703.exe)
 Compute integral first derivatives, UseDBF=F ICtDFT=           0.
 Integral derivatives from FoFJK, PRISM(SPDF).
 Calling FoFJK, ICntrl=      2127 FMM=F ISym2X=1 I1Cent= 0 IOpClX= 0 NMat=1 NMatS=1 NMatT=0.
 FoFJK:  IHMeth= 1 ICntrl=    2127 DoSepK=F KAlg= 0 I1Cent=   0 FoldK=F
 IRaf=         0 NMat=   1 IRICut=       1 DoRegI=T DoRafI=F ISym2E= 1.
[...]
     29  0.000000D+00  0.583267D-04  0.609400D-04  0.000000D+00 -0.817266D-04
     30  0.740980D-02  0.000000D+00  0.000000D+00 -0.264988D-03  0.000000D+00
     31  0.000000D+00 -0.403849D-03  0.226660D-03  0.000000D+00  0.116441D-02
     32  0.000000D+00  0.106485D-03  0.117044D-04  0.000000D+00  0.168833D-03
     33  0.530906D-02  0.000000D+00  0.000000D+00 -0.387196D-03  0.000000D+00
     34  0.000000D+00  0.939835D-04  0.361182D-04  0.000000D+00 -0.718290D-03
     35  0.000000D+00 -0.339071D-03 -0.251166D-04  0.000000D+00 -0.987519D-03
     36 -0.331759D-01  0.000000D+00  0.000000D+00 -0.125686D-04  0.000000D+00
               26            27            28            29            30 
     26  0.163002D+00
     27  0.000000D+00  0.240221D-01
     28 -0.216043D-03  0.000000D+00  0.223546D+00
     29  0.598171D-04  0.000000D+00  0.142720D+00  0.193850D+00
     30  0.000000D+00 -0.171190D-02  0.000000D+00  0.000000D+00  0.268261D-01
     31 -0.643139D-03  0.000000D+00  0.290971D-03 -0.128549D-02  0.000000D+00
     32  0.824376D-03  0.000000D+00  0.375939D-03 -0.807455D-03  0.000000D+00
     33  0.000000D+00 -0.468209D-02  0.000000D+00  0.000000D+00 -0.442373D-03
     34  0.640745D-03  0.000000D+00  0.419879D-03  0.453080D-03  0.000000D+00
     35  0.454946D-03  0.000000D+00 -0.591043D-03  0.780610D-03  0.000000D+00
     36  0.000000D+00  0.556793D-03  0.000000D+00  0.000000D+00 -0.349310D-02
               31            32            33            34            35 
     31  0.649426D-01
     32 -0.438763D-01  0.349744D+00
     33  0.000000D+00  0.000000D+00  0.270513D-01
     34  0.934836D-03 -0.166253D-03  0.000000D+00  0.325947D+00
     35  0.804451D-03  0.901122D-03  0.000000D+00 -0.960884D-01  0.908430D-01
     36  0.000000D+00  0.000000D+00 -0.371451D-02  0.000000D+00  0.000000D+00
               36 
     36  0.247938D-01
 FormGI is forming the generalized inverse of G from B-inverse, IUseBI=4.
 Leave Link  716 at Thu Aug 26 23:39:41 2021, MaxMem= 17179869184 cpu:        36.3
 (Enter /public3/home/sc51754/softwares/g09e01/l103.exe)

 GradGradGradGradGradGradGradGradGradGradGradGradGradGradGradGradGradGrad
 Berny optimization.
 Red2BG is reusing G-inverse.
 Internal  Forces:  Max     0.000391424 RMS     0.000087733
 Search for a local minimum.
 Step number   1 out of a maximum of    2
 All quantities printed in internal units (Hartrees-Bohrs-Radians)
 Second derivative matrix not updated -- analytic derivatives used.
 ITU=  0
     Eigenvalues ---    0.01332   0.01612   0.01767   0.02207   0.02365
     Eigenvalues ---    0.02756   0.03092   0.03695   0.04407   0.10481
     Eigenvalues ---    0.11120   0.12137   0.13079   0.15713   0.19204
     Eigenvalues ---    0.20011   0.21684   0.23525   0.31124   0.35003
     Eigenvalues ---    0.35620   0.36018   0.36205   0.37651   0.43314
     Eigenvalues ---    0.44799   0.47376   0.51497   0.51668   0.57234
 Angle between quadratic step and forces=  26.97 degrees.
 Linear search not attempted -- first point.
 Iteration  1 RMS(Cart)=  0.00038631 RMS(Int)=  0.00000006
 Iteration  2 RMS(Cart)=  0.00000007 RMS(Int)=  0.00000001
 ITry= 1 IFail=0 DXMaxC= 1.14D-03 DCOld= 1.00D+10 DXMaxT= 3.00D-01 DXLimC= 3.00D+00 Rises=F
 ClnCor:  largest displacement from symmetrization is 1.80D-15 for atom    12.
 Variable       Old X    -DE/DX   Delta X   Delta X   Delta X     New X
                                 (Linear)    (Quad)   (Total)
    R1        2.55464  -0.00021   0.00000  -0.00047  -0.00047   2.55417
    R2        1.82471  -0.00003   0.00000  -0.00005  -0.00005   1.82467
    R3        2.49870  -0.00005   0.00000  -0.00016  -0.00016   2.49854
    R4        2.52567   0.00029   0.00000   0.00059   0.00059   2.52626
    R5        2.64118  -0.00039   0.00000  -0.00084  -0.00084   2.64034
    R6        2.60979   0.00001   0.00000  -0.00007  -0.00007   2.60972
    R7        2.03940   0.00001   0.00000   0.00005   0.00005   2.03945
    R8        2.61516  -0.00015   0.00000  -0.00030  -0.00030   2.61486
    R9        2.04635   0.00001   0.00000   0.00002   0.00002   2.04637
   R10        2.63482   0.00006   0.00000   0.00019   0.00019   2.63501
   R11        2.04339  -0.00003   0.00000  -0.00009  -0.00009   2.04330
   R12        2.03992   0.00002   0.00000   0.00006   0.00006   2.03998
    A1        1.86412  -0.00002   0.00000   0.00011   0.00011   1.86423
    A2        2.05716   0.00006   0.00000   0.00021   0.00021   2.05737
    A3        2.05076   0.00013   0.00000   0.00047   0.00047   2.05123
    A4        2.07058  -0.00008   0.00000  -0.00021  -0.00021   2.07037
    A5        2.16185  -0.00005   0.00000  -0.00026  -0.00026   2.16159
    A6        2.04958   0.00009   0.00000   0.00035   0.00035   2.04993
    A7        2.09590  -0.00000   0.00000   0.00033   0.00033   2.09623
    A8        2.13771  -0.00008   0.00000  -0.00068  -0.00068   2.13703
    A9        2.15116  -0.00007   0.00000  -0.00009  -0.00009   2.15107
   A10        2.02289   0.00010   0.00000   0.00039   0.00039   2.02327
   A11        2.10914  -0.00004   0.00000  -0.00030  -0.00030   2.10884
   A12        2.08711   0.00005   0.00000   0.00007   0.00007   2.08718
   A13        2.09385  -0.00005   0.00000  -0.00022  -0.00022   2.09363
   A14        2.10223  -0.00001   0.00000   0.00014   0.00014   2.10237
   A15        2.05951  -0.00009   0.00000  -0.00028  -0.00028   2.05923
   A16        2.10411   0.00001   0.00000  -0.00008  -0.00008   2.10403
   A17        2.11957   0.00007   0.00000   0.00036   0.00036   2.11993
    D1       -0.00000  -0.00000   0.00000  -0.00000   0.00000   0.00000
    D2        3.14159   0.00000   0.00000  -0.00000   0.00000   3.14159
    D3        3.14159   0.00000   0.00000   0.00000   0.00000   3.14159
    D4        0.00000   0.00000   0.00000   0.00000   0.00000   0.00000
    D5       -0.00000   0.00000   0.00000  -0.00000   0.00000   0.00000
    D6        3.14159   0.00000   0.00000  -0.00000   0.00000   3.14159
    D7        3.14159  -0.00000   0.00000  -0.00000   0.00000   3.14159
    D8        0.00000  -0.00000   0.00000   0.00000   0.00000   0.00000
    D9       -0.00000  -0.00000   0.00000  -0.00000   0.00000   0.00000
   D10        3.14159  -0.00000   0.00000  -0.00000   0.00000   3.14159
   D11        0.00000  -0.00000   0.00000  -0.00000  -0.00000   0.00000
   D12        3.14159   0.00000   0.00000   0.00000   0.00000   3.14159
   D13        3.14159  -0.00000   0.00000  -0.00000   0.00000   3.14159
   D14       -0.00000  -0.00000   0.00000   0.00000   0.00000   0.00000
   D15        0.00000  -0.00000   0.00000  -0.00000  -0.00000   0.00000
   D16        3.14159  -0.00000   0.00000  -0.00000   0.00000   3.14159
   D17        3.14159  -0.00000   0.00000   0.00000   0.00000   3.14159
   D18       -0.00000  -0.00000   0.00000  -0.00000   0.00000   0.00000
   D19       -0.00000   0.00000   0.00000   0.00000   0.00000   0.00000
   D20        3.14159   0.00000   0.00000   0.00000   0.00000   3.14159
   D21        3.14159   0.00000   0.00000  -0.00000   0.00000   3.14159
   D22        0.00000   0.00000   0.00000   0.00000  -0.00000   0.00000
         Item               Value     Threshold  Converged?
 Maximum Force            0.000391     0.000450     YES
 RMS     Force            0.000088     0.000300     YES
 Maximum Displacement     0.001139     0.001800     YES
 RMS     Displacement     0.000386     0.001200     YES
 Predicted change in Energy=-4.876148D-07
 Optimization completed.
    -- Stationary point found.
                           ----------------------------
                           !   Optimized Parameters   !
                           ! (Angstroms and Degrees)  !
 --------------------------                            --------------------------
 ! Name  Definition              Value          Derivative Info.                !
 --------------------------------------------------------------------------------
 ! R1    R(1,3)                  1.3519         -DE/DX =   -0.0002              !
 ! R2    R(1,8)                  0.9656         -DE/DX =    0.0                 !
 ! R3    R(2,3)                  1.3223         -DE/DX =   -0.0001              !
 ! R4    R(2,5)                  1.3365         -DE/DX =    0.0003              !
 ! R5    R(3,4)                  1.3977         -DE/DX =   -0.0004              !
 ! R6    R(4,6)                  1.381          -DE/DX =    0.0                 !
 ! R7    R(4,9)                  1.0792         -DE/DX =    0.0                 !
 ! R8    R(5,7)                  1.3839         -DE/DX =   -0.0002              !
 ! R9    R(5,10)                 1.0829         -DE/DX =    0.0                 !
 ! R10   R(6,7)                  1.3943         -DE/DX =    0.0001              !
 ! R11   R(6,11)                 1.0813         -DE/DX =    0.0                 !
 ! R12   R(7,12)                 1.0795         -DE/DX =    0.0                 !
 ! A1    A(3,1,8)              106.8063         -DE/DX =    0.0                 !
 ! A2    A(3,2,5)              117.8667         -DE/DX =    0.0001              !
 ! A3    A(1,3,2)              117.4998         -DE/DX =    0.0001              !
 ! A4    A(1,3,4)              118.6352         -DE/DX =   -0.0001              !
 ! A5    A(2,3,4)              123.865          -DE/DX =    0.0                 !
 ! A6    A(3,4,6)              117.4322         -DE/DX =    0.0001              !
 ! A7    A(3,4,9)              120.0862         -DE/DX =    0.0                 !
 ! A8    A(6,4,9)              122.4816         -DE/DX =   -0.0001              !
 ! A9    A(2,5,7)              123.2523         -DE/DX =   -0.0001              !
 ! A10   A(2,5,10)             115.9028         -DE/DX =    0.0001              !
 ! A11   A(7,5,10)             120.8449         -DE/DX =    0.0                 !
 ! A12   A(4,6,7)              119.5826         -DE/DX =    0.0001              !
 ! A13   A(4,6,11)             119.9685         -DE/DX =    0.0                 !
 ! A14   A(7,6,11)             120.4489         -DE/DX =    0.0                 !
 ! A15   A(5,7,6)              118.0012         -DE/DX =   -0.0001              !
 ! A16   A(5,7,12)             120.5565         -DE/DX =    0.0                 !
 ! A17   A(6,7,12)             121.4423         -DE/DX =    0.0001              !
 ! D1    D(8,1,3,2)              0.0            -DE/DX =    0.0                 !
 ! D2    D(8,1,3,4)            180.0            -DE/DX =    0.0                 !
 ! D3    D(5,2,3,1)            180.0            -DE/DX =    0.0                 !
 ! D4    D(5,2,3,4)              0.0            -DE/DX =    0.0                 !
 ! D5    D(3,2,5,7)              0.0            -DE/DX =    0.0                 !
 ! D6    D(3,2,5,10)           180.0            -DE/DX =    0.0                 !
 ! D7    D(1,3,4,6)            180.0            -DE/DX =    0.0                 !
 ! D8    D(1,3,4,9)              0.0            -DE/DX =    0.0                 !
 ! D9    D(2,3,4,6)              0.0            -DE/DX =    0.0                 !
 ! D10   D(2,3,4,9)            180.0            -DE/DX =    0.0                 !
 ! D11   D(3,4,6,7)              0.0            -DE/DX =    0.0                 !
 ! D12   D(3,4,6,11)           180.0            -DE/DX =    0.0                 !
 ! D13   D(9,4,6,7)            180.0            -DE/DX =    0.0                 !
 ! D14   D(9,4,6,11)             0.0            -DE/DX =    0.0                 !
 ! D15   D(2,5,7,6)              0.0            -DE/DX =    0.0                 !
 ! D16   D(2,5,7,12)           180.0            -DE/DX =    0.0                 !
 ! D17   D(10,5,7,6)           180.0            -DE/DX =    0.0                 !
 ! D18   D(10,5,7,12)            0.0            -DE/DX =    0.0                 !
 ! D19   D(4,6,7,5)              0.0            -DE/DX =    0.0                 !
 ! D20   D(4,6,7,12)           180.0            -DE/DX =    0.0                 !
 ! D21   D(11,6,7,5)           180.0            -DE/DX =    0.0                 !
 ! D22   D(11,6,7,12)            0.0            -DE/DX =    0.0                 !
 --------------------------------------------------------------------------------
 GradGradGradGradGradGradGradGradGradGradGradGradGradGradGradGradGradGrad

 Leave Link  103 at Thu Aug 26 23:39:41 2021, MaxMem= 17179869184 cpu:        27.9
 (Enter /public3/home/sc51754/softwares/g09e01/l9999.exe)
 1\1\GINC-T1910\Freq\RB3LYP\Gen\C5H5N1O1\SC51754\26-Aug-2021\0\\#P Geom
 =AllCheck Guess=TCheck SCRF=Check GenChk RB3LYP/ChkBas Freq\\HY_aug-pc
 -3_B3LYP_OPT_FREQ\\0,1\O,1.829673217,-0.6546678944,0.\N,-0.4329944327,
 -0.9816887872,0.\C,0.5820022176,-0.1342561854,0.\C,0.4360556509,1.2557
 556222,0.\C,-1.6697865011,-0.4750883511,0.\C,-0.8494327733,1.760525601
 7,0.\C,-1.933318049,0.8834685931,0.\H,1.7315067417,-1.6152624182,0.\H,
 1.3082638561,1.8913163386,0.\H,-2.4767616879,-1.1971840891,0.\H,-1.009
 8239717,2.8298794209,0.\H,-2.9503842674,1.2452021489,0.\\Version=EM64L
 -G09RevE.01\State=1-A'\HF=-323.6754041\RMSD=2.645e-09\RMSF=1.164e-04\Z
 eroPoint=0.0933919\Thermal=0.0985845\Dipole=-0.3571557,0.379607,0.\Dip
 oleDeriv=-1.3058157,0.5576076,0.,0.5822201,-0.4947944,0.,0.,0.,-0.3612
 217,-0.7767416,0.3031579,0.,-0.1399261,-0.4793076,0.,0.,0.,-0.2748587,
 1.4609231,-0.5672872,0.,-0.7093677,0.594081,0.,0.,0.,0.2006918,-0.2664
 694,0.0525589,0.,0.5057909,-0.2184674,0.,0.,0.,-0.1390706,0.3515581,-0
 .1755842,0.,0.1620222,0.4577034,0.,0.,0.,-0.0151141,0.4023351,0.054918
 5,0.,0.0216369,0.214352,0.,0.,0.,-0.0888703,-0.1331257,-0.0478605,0.,-
 0.2536778,-0.3607577,0.,0.,0.,-0.1466459,0.3187456,-0.1238241,0.,-0.08
 48373,0.2682017,0.,0.,0.,0.3082809,-0.0043218,-0.0562488,0.,-0.0602169
 ,0.031432,0.,0.,0.,0.1454395,-0.0539009,-0.0610066,0.,-0.0913737,0.010
 4796,0.,0.,0.,0.1045175,0.0764987,0.0214463,0.,0.0232484,-0.0739655,0.
 ,0.,0.,0.1206295,-0.0696856,0.0421223,0.,0.0444811,0.051043,0.,0.,0.,0
 .1462221\Polar=87.5280659,-4.1903283,79.3889435,0.,0.,43.1340681\PG=CS
  [SG(C5H5N1O1)]\NImag=0\\0.40419581,-0.03160643,0.63908554,0.,0.,0.035
 07957,-0.08282617,-0.03424302,0.,0.68558629,-0.00190905,0.02145985,0.,
 0.02971389,0.40764905,0.,0.,0.00701216,0.,0.,0.09062867,-0.25500354,0.
 09392229,0.,-0.23747448,-0.10890355,0.,0.69240485,0.04767725,-0.143325
 62,0.,-0.07498778,-0.23211861,0.,-0.01780436,0.71795363,0.,0.,-0.05067
 530,0.,0.,-0.07235051,0.,0.,0.18543812,-0.01348625,0.05676012,0.,0.039
 18970,-0.02553400,0.,-0.12371713,-0.03137792,0.,0.75638505,0.02060075,
 -0.02967766,0.,-0.07768283,-0.04001476,0.,0.03944398,-0.28851512,0.,0.
 03596478,0.67016570,0.,0.,0.00888345,0.,0.,0.02010468,0.,0.,-0.0774096
 1,0.,0.,0.12603937,0.00407481,0.00499660,0.,-0.30454344,0.08893760,0.,
 -0.09221107,-0.05846052,0.,-0.02593697,0.03972086,0.,0.70582666,-0.001
 81513,-0.00814216,0.,0.06474697,-0.15282868,0.,-0.00214084,0.06458774,
 0.,0.02960993,-0.04510716,0.,0.05631722,0.70970721,0.,0.,0.01027531,0.
 ,0.,-0.06454505,0.,0.,-0.00292679,0.,0.,-0.00543288,0.,0.,0.16037351,0
 .00411555,-0.01273315,0.,-0.07528337,-0.01065589,0.,0.02150751,0.09637
 916,0.,-0.32842106,0.04670194,0.,0.05517971,-0.06834225,0.,0.66744159,
 -0.00231986,-0.00737894,0.,-0.01569095,0.00091056,0.,0.04223290,-0.005
 79953,0.,0.10594990,-0.16359999,0.,-0.01725833,-0.04664580,0.,-0.02305
 003,0.74222222,0.,0.,0.00441150,0.,0.,-0.00790162,0.,0.,0.00357344,0.,
 0.,-0.06049687,0.,0.,0.00881922,0.,0.,0.14647156,-0.00679388,0.0044008
 7,0.,0.00106353,0.04085718,0.,-0.00334554,-0.01973230,0.,-0.05481545,0
 .00279213,0.,-0.13857343,0.06091605,0.,-0.24516962,-0.12447448,0.,0.74
 151350,0.00140078,0.00873421,0.,0.10184187,-0.00785355,0.,-0.03276840,
 -0.07394375,0.,-0.03678619,0.06358732,0.,-0.00642763,-0.32652527,0.,-0
 .06172286,-0.20721264,0.,-0.03728708,0.66301637,0.,0.,-0.00151218,0.,0
 .,0.02311315,0.,0.,-0.00909824,0.,0.,0.00822566,0.,0.,-0.07052449,0.,0
 .,-0.06554824,0.,0.,0.12676979,-0.05367396,-0.08264090,0.,0.00566785,-
 0.00082971,0.,-0.00027135,0.05276896,0.,-0.00710605,0.00186034,0.,-0.0
 0253257,-0.00011450,0.,0.00175811,0.00170944,0.,0.00014786,-0.00159741
 ,0.,0.05598871,-0.03287180,-0.48271159,0.,-0.00672759,0.00142881,0.,0.
 01009186,-0.02930410,0.,0.00185874,0.00296182,0.,-0.00071492,-0.000326
 44,0.,0.00034731,-0.00103580,0.,-0.00090746,0.00010206,0.,0.02906071,0
 .50865668,0.,0.,-0.01046675,0.,0.,-0.00332280,0.,0.,0.00083325,0.,0.,0
 .00330548,0.,0.,-0.00069195,0.,0.,0.00143536,0.,0.,0.00053400,0.,0.,0.
 00967166,0.00075811,-0.00005530,0.,0.00194369,0.00211994,0.,0.00509410
 ,0.00310162,0.,-0.24101219,-0.13594652,0.,-0.00027777,0.00062906,0.,-0
 .01758634,-0.01870899,0.,-0.00312102,0.00378311,0.,0.00002292,-0.00025
 882,0.,0.25370258,0.00000447,0.00183368,0.,0.00007352,-0.00753742,0.,-
 0.02828797,-0.01069416,0.,-0.13427779,-0.16014568,0.,0.00249785,-0.000
 75679,0.,0.01094365,0.01243910,0.,0.00307106,0.00033900,0.,-0.00004267
 ,0.00018105,0.,0.14623630,0.16300208,0.,0.,-0.00188076,0.,0.,0.0057317
 5,0.,0.,0.00229204,0.,0.,-0.03439900,0.,0.,-0.00021035,0.,0.,0.0024173
 2,0.,0.,0.00849759,0.,0.,-0.00063350,0.,0.,0.02402210,-0.00141942,-0.0
 0061708,0.,-0.03392550,-0.01483330,0.,-0.00255727,0.00186428,0.,-0.000
 23007,0.00028864,0.,-0.19544095,-0.13533625,0.,0.00075501,0.00155758,0
 .,0.00822357,0.00492822,0.,0.00030834,-0.00014081,0.,0.00002978,-0.000
 21604,0.,0.22354567,0.00033860,0.00019765,0.,0.01092514,0.01432347,0.,
 0.00425081,0.00159905,0.,0.00100788,-0.00006500,0.,-0.13669088,-0.1902
 1347,0.,0.00242131,-0.00553234,0.,-0.02411693,-0.01425373,0.,0.0000583
 3,0.00006094,0.,-0.00008173,0.00005982,0.,0.14271986,0.19385045,0.,0.,
 0.00051877,0.,0.,-0.00334060,0.,0.,0.01026906,0.,0.,-0.00067930,0.,0.,
 -0.04253553,0.,0.,0.00744408,0.,0.,0.00740980,0.,0.,-0.00026499,0.,0.,
 -0.00171190,0.,0.,0.02682607,0.00000136,0.00175999,0.,-0.00088491,0.00
 005594,0.,-0.00495570,0.00137723,0.,0.00059275,0.03011080,0.,-0.003925
 64,-0.00343983,0.,-0.06687572,0.03979974,0.,0.00911885,-0.02489000,0.,
 -0.00040385,0.00022666,0.,0.00116441,-0.00064314,0.,0.00029097,-0.0012
 8549,0.,0.06494264,0.00013221,-0.00078914,0.,-0.00007210,0.00069172,0.
 ,0.00161990,0.00192234,0.,0.00003611,-0.00739116,0.,-0.00413224,-0.000
 73239,0.,0.04038419,-0.32979225,0.,0.00542329,-0.01458323,0.,0.0001064
 9,0.00001170,0.,0.00016883,0.00082438,0.,0.00037594,-0.00080745,0.,-0.
 04387635,0.34974436,0.,0.,-0.00025178,0.,0.,-0.00309611,0.,0.,0.009529
 76,0.,0.,0.00547207,0.,0.,0.00738642,0.,0.,-0.04217461,0.,0.,0.0053090
 6,0.,0.,-0.00038720,0.,0.,-0.00468209,0.,0.,-0.00044237,0.,0.,0.027051
 34,0.00005759,0.00005601,0.,0.00148680,0.00098095,0.,0.00052963,-0.000
 80563,0.,-0.00144233,-0.00385488,0.,-0.00163934,-0.00103043,0.,-0.0174
 2137,0.01025307,0.,-0.30824836,0.08952559,0.,0.00009398,0.00003612,0.,
 -0.00071829,0.00064074,0.,0.00041988,0.00045308,0.,0.00093484,-0.00016
 625,0.,0.32594697,0.00036819,0.00071419,0.,0.00210286,-0.00611045,0.,-
 0.00165663,-0.00236188,0.,-0.00321156,-0.00219831,0.,0.03121439,-0.003
 01677,0.,-0.02067338,0.01142541,0.,0.08905768,-0.09140678,0.,-0.000339
 07,-0.00002512,0.,-0.00098752,0.00045495,0.,-0.00059104,0.00078061,0.,
 0.00080445,0.00090112,0.,-0.09608838,0.09084303,0.,0.,-0.00139400,0.,0
 .,0.00796627,0.,0.,0.00052477,0.,0.,0.00638696,0.,0.,0.00001259,0.,0.,
 0.00154886,0.,0.,-0.03317591,0.,0.,-0.00001257,0.,0.,0.00055679,0.,0.,
 -0.00349310,0.,0.,-0.00371451,0.,0.,0.02479382\\0.00014476,-0.00013446
 ,0.,-0.00028548,-0.00008221,0.,-0.00015383,-0.00012180,0.,-0.00003140,
 0.00045532,0.,0.00024558,-0.00013653,0.,-0.00008078,-0.00002814,0.,0.0
 0006800,0.00010824,0.,0.00000587,-0.00003515,0.,0.00001840,-0.00003976
 ,0.,0.00005541,-0.00003957,0.,-0.00001968,0.00003063,0.,0.00003314,0.0
 0002343,0.\\\@


 KNOWLEDGE IS EXPERIMENT'S DAUGHTER.
 -- LEONARDO DA VINCI, IN "PENSIERI" CA. 1492
 Job cpu time:       2 days  6 hours  5 minutes  3.7 seconds.
 File lengths (MBytes):  RWF=    509 Int=      0 D2E=      0 Chk=     56 Scr=      1
 Normal termination of Gaussian 09 at Thu Aug 26 23:39:42 2021.
