 Entering Gaussian System, Link 0=g09
 AtFile(1): aug-pc-2.gbs
            -H     0
            S    4   1.00
                  0.754230D+02           0.240650D-02
                  0.113500D+02           0.184870D-01
                  0.259930D+01           0.897420D-01
                  0.735130D+00           0.281110D+00
            S    1   1.00
                  0.231670D+00           0.100000D+01
            S    1   1.00
                  0.741470D-01           0.100000D+01
            S    1   1.00
                  0.223340D-01           0.100000D+01
            P    1   1.00
                  0.160000D+01           0.100000D+01
            P    1   1.00
                  0.450000D+00           0.100000D+01
            P    1   1.00
                  0.670010D-01           0.100000D+01
            D    1   1.00
                  0.125000D+01           0.100000D+01
            D    1   1.00
                  0.893340D-01           0.100000D+01
            ****
            -C     0
            S    7   1.00
                  0.785710D+04           0.568250D-03
                  0.117870D+04           0.439150D-02
                  0.268320D+03           0.225040D-01
                  0.759480D+02           0.866530D-01
                  0.245590D+02           0.244050D+00
                  0.862120D+01           0.441480D+00
                  0.312780D+01           0.353320D+00
            S    7   1.00
                  0.117870D+04          -0.594920D-06
                  0.268320D+03          -0.627480D-04
                  0.759480D+02          -0.757730D-03
                  0.245590D+02          -0.733080D-02
                  0.862120D+01          -0.389320D-01
                  0.312780D+01          -0.889080D-01
                  0.822020D+00           0.216890D+00
            S    1   1.00
                  0.330170D+00           0.100000D+01
            S    1   1.00
                  0.114630D+00           0.100000D+01
            S    1   1.00
                  0.372170D-01           0.100000D+01
            P    4   1.00
                  0.337750D+02           0.602940D-02
                  0.767660D+01           0.432280D-01
                  0.223570D+01           0.163010D+00
                  0.764470D+00           0.365040D+00
            P    1   1.00
                  0.262320D+00           0.100000D+01
            P    1   1.00
                  0.846380D-01           0.100000D+01
            P    1   1.00
                  0.264490D-01           0.100000D+01
            D    1   1.00
                  0.140000D+01           0.100000D+01
            D    1   1.00
                  0.450000D+00           0.100000D+01
            D    1   1.00
                  0.793480D-01           0.100000D+01
            F    1   1.00
                  0.950000D+00           0.100000D+01
            F    1   1.00
                  0.105800D+00           0.100000D+01
            ****
            -N     0
            S    7   1.00
                  0.111010D+05           0.545700D-03
                  0.166530D+04           0.421810D-02
                  0.379080D+03           0.216450D-01
                  0.107300D+03           0.837760D-01
                  0.347470D+02           0.238810D+00
                  0.122490D+02           0.439940D+00
                  0.447430D+01           0.363640D+00
            S    7   1.00
                  0.166530D+04          -0.150060D-05
                  0.379080D+03          -0.587530D-04
                  0.107300D+03          -0.774530D-03
                  0.347470D+02          -0.721610D-02
                  0.122490D+02          -0.393380D-01
                  0.447430D+01          -0.906110D-01
                  0.124040D+01           0.198820D+00
            S    1   1.00
                  0.487430D+00           0.100000D+01
            S    1   1.00
                  0.164840D+00           0.100000D+01
            S    1   1.00
                  0.521650D-01           0.100000D+01
            P    4   1.00
                  0.479340D+02           0.617060D-02
                  0.109990D+02           0.442600D-01
                  0.324720D+01           0.168250D+00
                  0.111140D+01           0.368480D+00
            P    1   1.00
                  0.379880D+00           0.100000D+01
            P    1   1.00
                  0.120680D+00           0.100000D+01
            P    1   1.00
                  0.360230D-01           0.100000D+01
            D    1   1.00
                  0.180000D+01           0.100000D+01
            D    1   1.00
                  0.550000D+00           0.100000D+01
            D    1   1.00
                  0.108070D+00           0.100000D+01
            F    1   1.00
                  0.102000D+01           0.100000D+01
            F    1   1.00
                  0.144090D+00           0.100000D+01
            ****
            -O     0
            S    7   1.00
                  0.147820D+05           0.535190D-03
                  0.221730D+04           0.413750D-02
                  0.504740D+03           0.212450D-01
                  0.142870D+03           0.824530D-01
                  0.463000D+02           0.236710D+00
                  0.163370D+02           0.440390D+00
                  0.598280D+01           0.364650D+00
            S    7   1.00
                  0.221730D+04          -0.192750D-05
                  0.504740D+03          -0.579640D-04
                  0.142870D+03          -0.794940D-03
                  0.463000D+02          -0.731250D-02
                  0.163370D+02          -0.405740D-01
                  0.598280D+01          -0.915940D-01
                  0.167180D+01           0.209400D+00
            S    1   1.00
                  0.646620D+00           0.100000D+01
            S    1   1.00
                  0.216690D+00           0.100000D+01
            S    1   1.00
                  0.681410D-01           0.100000D+01
            P    4   1.00
                  0.604240D+02           0.689490D-02
                  0.139350D+02           0.490050D-01
                  0.415310D+01           0.182550D+00
                  0.141580D+01           0.376330D+00
            P    1   1.00
                  0.475490D+00           0.100000D+01
            P    1   1.00
                  0.145290D+00           0.100000D+01
            P    1   1.00
                  0.418710D-01           0.100000D+01
            D    1   1.00
                  0.220000D+01           0.100000D+01
            D    1   1.00
                  0.650000D+00           0.100000D+01
            D    1   1.00
                  0.125610D+00           0.100000D+01
            F    1   1.00
                  0.110000D+01           0.100000D+01
            F    1   1.00
                  0.167480D+00           0.100000D+01
            ****
 Initial command:
 /public3/home/sc51754/softwares/g09e01/l1.exe "./Gau-12808.inp" -scrdir="./"
 Entering Link 1 = /public3/home/sc51754/softwares/g09e01/l1.exe PID=     12810.
  
 Copyright (c) 1988,1990,1992,1993,1995,1998,2003,2009,2015,
            Gaussian, Inc.  All Rights Reserved.
  
 This is part of the Gaussian(R) 09 program.  It is based on
 the Gaussian(R) 03 system (copyright 2003, Gaussian, Inc.),
 the Gaussian(R) 98 system (copyright 1998, Gaussian, Inc.),
 the Gaussian(R) 94 system (copyright 1995, Gaussian, Inc.),
 the Gaussian 92(TM) system (copyright 1992, Gaussian, Inc.),
 the Gaussian 90(TM) system (copyright 1990, Gaussian, Inc.),
 the Gaussian 88(TM) system (copyright 1988, Gaussian, Inc.),
 the Gaussian 86(TM) system (copyright 1986, Carnegie Mellon
 University), and the Gaussian 82(TM) system (copyright 1983,
 Carnegie Mellon University). Gaussian is a federally registered
 trademark of Gaussian, Inc.
  
 This software contains proprietary and confidential information,
 including trade secrets, belonging to Gaussian, Inc.
  
 This software is provided under written license and may be
 used, copied, transmitted, or stored only in accord with that
 written license.
  
 The following legend is applicable only to US Government
 contracts under FAR:
  
                    RESTRICTED RIGHTS LEGEND
  
 Use, reproduction and disclosure by the US Government is
 subject to restrictions as set forth in subparagraphs (a)
 and (c) of the Commercial Computer Software - Restricted
 Rights clause in FAR 52.227-19.
  
 Gaussian, Inc.
 340 Quinnipiac St., Bldg. 40, Wallingford CT 06492
  
  
 ---------------------------------------------------------------
 Warning -- This program may not be used in any manner that
 competes with the business of Gaussian, Inc. or will provide
 assistance to any competitor of Gaussian, Inc.  The licensee
 of this program is prohibited from giving any competitor of
 Gaussian, Inc. access to this program.  By using this program,
 the user acknowledges that Gaussian, Inc. is engaged in the
 business of creating and licensing software in the field of
 computational chemistry and represents and warrants to the
 licensee that it is not a competitor of Gaussian, Inc. and that
 it will not use this program in any manner prohibited above.
 ---------------------------------------------------------------
  

 Cite this work as:
 Gaussian 09, Revision E.01,
 M. J. Frisch, G. W. Trucks, H. B. Schlegel, G. E. Scuseria, 
 M. A. Robb, J. R. Cheeseman, G. Scalmani, V. Barone, B. Mennucci, 
 G. A. Petersson, H. Nakatsuji, M. Caricato, X. Li, H. P. Hratchian, 
 A. F. Izmaylov, J. Bloino, G. Zheng, J. L. Sonnenberg, M. Hada, 
 M. Ehara, K. Toyota, R. Fukuda, J. Hasegawa, M. Ishida, T. Nakajima, 
 Y. Honda, O. Kitao, H. Nakai, T. Vreven, J. A. Montgomery, Jr., 
 J. E. Peralta, F. Ogliaro, M. Bearpark, J. J. Heyd, E. Brothers, 
 K. N. Kudin, V. N. Staroverov, T. Keith, R. Kobayashi, J. Normand, 
 K. Raghavachari, A. Rendell, J. C. Burant, S. S. Iyengar, J. Tomasi, 
 M. Cossi, N. Rega, J. M. Millam, M. Klene, J. E. Knox, J. B. Cross, 
 V. Bakken, C. Adamo, J. Jaramillo, R. Gomperts, R. E. Stratmann, 
 O. Yazyev, A. J. Austin, R. Cammi, C. Pomelli, J. W. Ochterski, 
 R. L. Martin, K. Morokuma, V. G. Zakrzewski, G. A. Voth, 
 P. Salvador, J. J. Dannenberg, S. Dapprich, A. D. Daniels, 
 O. Farkas, J. B. Foresman, J. V. Ortiz, J. Cioslowski, 
 and D. J. Fox, Gaussian, Inc., Wallingford CT, 2013.
 
 ******************************************
 Gaussian 09:  EM64L-G09RevE.01 30-Nov-2015
                26-Aug-2021 
 ******************************************
 %nprocshared=64
 Will use up to   64 processors via shared memory.
 %mem=128GB
 %chk=HY_aug-pc-2_B3LYP_OPT_FREQ.chk
 --------------------
 # opt freq b3lyp/gen
 --------------------
 1/14=-1,18=20,19=15,26=3,38=1/1,3;
 2/9=110,12=2,17=6,18=5,40=1/2;
 3/5=7,11=2,16=1,25=1,30=1,71=1,74=-5/1,2,3;
 4//1;
 5/5=2,38=5/2;
 6/7=2,8=2,9=2,10=2,28=1/1;
 7//1,2,3,16;
 1/14=-1,18=20,19=15,26=3/3(2);
 2/9=110/2;
 99//99;
 2/9=110/2;
 3/5=7,6=1,11=2,16=1,25=1,30=1,71=1,74=-5,82=7/1,2,3;
 4/5=5,16=3,69=1/1;
 5/5=2,38=5/2;
 7//1,2,3,16;
 1/14=-1,18=20,19=15,26=3/3(-5);
 2/9=110/2;
 6/7=2,8=2,9=2,10=2,19=2,28=1/1;
 99/9=1/99;
 --------------------------
 HY_aug-pc-2_B3LYP_OPT_FREQ
 --------------------------
 Symbolic Z-matrix:
 Charge =  0 Multiplicity = 1
 O                     1.95     -0.746     0. 
 N                    -0.398    -1.        0. 
 C                     0.627    -0.202     0. 
 C                     0.428     1.325     0. 
 C                    -1.779    -0.48      0. 
 C                    -0.824     1.828     0. 
 C                    -2.011     0.856     0. 
 H                     1.902    -1.705     0. 
 H                     1.274     1.98      0. 
 H                    -2.604    -1.162     0. 
 H                    -0.986     2.885     0. 
 H                    -3.014     1.229     0. 
 

 GradGradGradGradGradGradGradGradGradGradGradGradGradGradGradGradGradGrad
 Berny optimization.
 Initialization pass.
                           ----------------------------
                           !    Initial Parameters    !
                           ! (Angstroms and Degrees)  !
 --------------------------                            --------------------------
 ! Name  Definition              Value          Derivative Info.                !
 --------------------------------------------------------------------------------
 ! R1    R(1,3)                  1.4305         estimate D2E/DX2                !
 ! R2    R(1,8)                  0.9602         estimate D2E/DX2                !
 ! R3    R(2,3)                  1.299          estimate D2E/DX2                !
 ! R4    R(2,5)                  1.4757         estimate D2E/DX2                !
 ! R5    R(3,4)                  1.5399         estimate D2E/DX2                !
 ! R6    R(4,6)                  1.3493         estimate D2E/DX2                !
 ! R7    R(4,9)                  1.0699         estimate D2E/DX2                !
 ! R8    R(5,7)                  1.356          estimate D2E/DX2                !
 ! R9    R(5,10)                 1.0704         estimate D2E/DX2                !
 ! R10   R(6,7)                  1.5342         estimate D2E/DX2                !
 ! R11   R(6,11)                 1.0693         estimate D2E/DX2                !
 ! R12   R(7,12)                 1.0701         estimate D2E/DX2                !
 ! A1    A(3,1,8)              109.4864         estimate D2E/DX2                !
 ! A2    A(3,2,5)              121.4646         estimate D2E/DX2                !
 ! A3    A(1,3,2)              119.7461         estimate D2E/DX2                !
 ! A4    A(1,3,4)              119.7768         estimate D2E/DX2                !
 ! A5    A(2,3,4)              120.4771         estimate D2E/DX2                !
 ! A6    A(3,4,6)              119.3131         estimate D2E/DX2                !
 ! A7    A(3,4,9)              120.3232         estimate D2E/DX2                !
 ! A8    A(6,4,9)              120.3637         estimate D2E/DX2                !
 ! A9    A(2,5,7)              120.4846         estimate D2E/DX2                !
 ! A10   A(2,5,10)             119.7873         estimate D2E/DX2                !
 ! A11   A(7,5,10)             119.7281         estimate D2E/DX2                !
 ! A12   A(4,6,7)              118.7988         estimate D2E/DX2                !
 ! A13   A(4,6,11)             120.6017         estimate D2E/DX2                !
 ! A14   A(7,6,11)             120.5995         estimate D2E/DX2                !
 ! A15   A(5,7,6)              119.4617         estimate D2E/DX2                !
 ! A16   A(5,7,12)             120.2507         estimate D2E/DX2                !
 ! A17   A(6,7,12)             120.2876         estimate D2E/DX2                !
 ! D1    D(8,1,3,2)              0.0            estimate D2E/DX2                !
 ! D2    D(8,1,3,4)            180.0            estimate D2E/DX2                !
 ! D3    D(5,2,3,1)            180.0            estimate D2E/DX2                !
 ! D4    D(5,2,3,4)              0.0            estimate D2E/DX2                !
 ! D5    D(3,2,5,7)              0.0            estimate D2E/DX2                !
 ! D6    D(3,2,5,10)           180.0            estimate D2E/DX2                !
 ! D7    D(1,3,4,6)            180.0            estimate D2E/DX2                !
 ! D8    D(1,3,4,9)              0.0            estimate D2E/DX2                !
 ! D9    D(2,3,4,6)              0.0            estimate D2E/DX2                !
 ! D10   D(2,3,4,9)            180.0            estimate D2E/DX2                !
 ! D11   D(3,4,6,7)              0.0            estimate D2E/DX2                !
 ! D12   D(3,4,6,11)           180.0            estimate D2E/DX2                !
 ! D13   D(9,4,6,7)            180.0            estimate D2E/DX2                !
 ! D14   D(9,4,6,11)             0.0            estimate D2E/DX2                !
 ! D15   D(2,5,7,6)              0.0            estimate D2E/DX2                !
 ! D16   D(2,5,7,12)           180.0            estimate D2E/DX2                !
 ! D17   D(10,5,7,6)           180.0            estimate D2E/DX2                !
 ! D18   D(10,5,7,12)            0.0            estimate D2E/DX2                !
 ! D19   D(4,6,7,5)              0.0            estimate D2E/DX2                !
 ! D20   D(4,6,7,12)           180.0            estimate D2E/DX2                !
 ! D21   D(11,6,7,5)           180.0            estimate D2E/DX2                !
 ! D22   D(11,6,7,12)            0.0            estimate D2E/DX2                !
 --------------------------------------------------------------------------------
 Trust Radius=3.00D-01 FncErr=1.00D-07 GrdErr=1.00D-06
 Number of steps in this run=     61 maximum allowed number of steps=    100.
 GradGradGradGradGradGradGradGradGradGradGradGradGradGradGradGradGradGrad

                          Input orientation:                          
 ---------------------------------------------------------------------
 Center     Atomic      Atomic             Coordinates (Angstroms)
 Number     Number       Type             X           Y           Z
 ---------------------------------------------------------------------
      1          8           0        1.950000   -0.746000    0.000000
      2          7           0       -0.398000   -1.000000    0.000000
      3          6           0        0.627000   -0.202000    0.000000
      4          6           0        0.428000    1.325000    0.000000
      5          6           0       -1.779000   -0.480000    0.000000
      6          6           0       -0.824000    1.828000    0.000000
      7          6           0       -2.011000    0.856000    0.000000
      8          1           0        1.902000   -1.705000    0.000000
      9          1           0        1.274000    1.980000    0.000000
     10          1           0       -2.604000   -1.162000    0.000000
     11          1           0       -0.986000    2.885000    0.000000
     12          1           0       -3.014000    1.229000    0.000000
 ---------------------------------------------------------------------
                    Distance matrix (angstroms):
                    1          2          3          4          5
     1  O    0.000000
     2  N    2.361699   0.000000
     3  C    1.430477   1.299011   0.000000
     4  C    2.570122   2.467367   1.539912   0.000000
     5  C    3.738475   1.475656   2.422007   2.851118   0.000000
     6  C    3.784251   2.859906   2.495256   1.349264   2.497777
     7  C    4.272695   2.458964   2.842254   2.483683   1.355994
     8  H    0.960200   2.405624   1.970947   3.369507   3.879483
     9  H    2.808568   3.417014   2.275903   1.069926   3.920766
    10  H    4.572961   2.211940   3.370602   3.921504   1.070397
    11  H    4.669503   3.929245   3.483007   2.105468   3.457177
    12  H    5.342464   3.436844   3.912115   3.443338   2.108532
                    6          7          8          9         10
     6  C    0.000000
     7  C    1.534195   0.000000
     8  H    4.462417   4.676568   0.000000
     9  H    2.103499   3.471974   3.738129   0.000000
    10  H    3.479727   2.103324   4.538599   4.991097   0.000000
    11  H    1.069342   2.273206   5.422974   2.434466   4.358455
    12  H    2.270441   1.070111   5.724981   4.353268   2.425898
                   11         12
    11  H    0.000000
    12  H    2.618228   0.000000
 Stoichiometry    C5H5NO
 Framework group  CS[SG(C5H5NO)]
 Deg. of freedom    21
 Full point group                 CS      NOp   2
 Largest Abelian subgroup         CS      NOp   2
 Largest concise Abelian subgroup C1      NOp   1
                         Standard orientation:                         
 ---------------------------------------------------------------------
 Center     Atomic      Atomic             Coordinates (Angstroms)
 Number     Number       Type             X           Y           Z
 ---------------------------------------------------------------------
      1          8           0        0.069381    2.385746    0.000000
      2          7           0       -1.157776    0.367898    0.000000
      3          6           0        0.000000    0.956952    0.000000
      4          6           0        1.297928    0.128270    0.000000
      5          6           0       -1.273517   -1.103212    0.000000
      6          6           0        1.221582   -1.218833    0.000000
      7          6           0       -0.162523   -1.880652    0.000000
      8          1           0       -0.819219    2.749579    0.000000
      9          1           0        2.250219    0.616001    0.000000
     10          1           0       -2.241334   -1.560464    0.000000
     11          1           0        2.109717   -1.814407    0.000000
     12          1           0       -0.250811   -2.947115    0.000000
 ---------------------------------------------------------------------
 Rotational constants (GHZ):      5.4860096      2.5088307      1.7215440
 General basis read from cards:  (5D, 7F)
 There are   349 symmetry adapted cartesian basis functions of A'  symmetry.
 There are   161 symmetry adapted cartesian basis functions of A"  symmetry.
 There are   290 symmetry adapted basis functions of A'  symmetry.
 There are   147 symmetry adapted basis functions of A"  symmetry.
   437 basis functions,   665 primitive gaussians,   510 cartesian basis functions
    25 alpha electrons       25 beta electrons
       nuclear repulsion energy       265.8673490964 Hartrees.
 NAtoms=   12 NActive=   12 NUniq=   12 SFac= 1.00D+00 NAtFMM=   60 NAOKFM=F Big=F
 Integral buffers will be    131072 words long.
 Raffenetti 2 integral format.
 Two-electron integral symmetry is turned on.
 One-electron integrals computed using PRISM.
 NBasis=   437 RedAO= T EigKep=  1.27D-06  NBF=   290   147
 NBsUse=   434 1.00D-06 EigRej=  7.73D-07 NBFU=   287   147
 ExpMin= 2.23D-02 ExpMax= 1.48D+04 ExpMxC= 5.05D+02 IAcc=3 IRadAn=         5 AccDes= 0.00D+00
 Harris functional with IExCor=  402 and IRadAn=       5 diagonalized for initial guess.
 HarFok:  IExCor=  402 AccDes= 0.00D+00 IRadAn=         5 IDoV= 1 UseB2=F ITyADJ=14
 ICtDFT=  3500011 ScaDFX=  1.000000  1.000000  1.000000  1.000000
 FoFCou: FMM=F IPFlag=           0 FMFlag=      100000 FMFlg1=           0
         NFxFlg=           0 DoJE=T BraDBF=F KetDBF=T FulRan=T
         wScrn=  0.000000 ICntrl=     500 IOpCl=  0 I1Cent=   200000004 NGrid=           0
         NMat0=    1 NMatS0=      1 NMatT0=    0 NMatD0=    1 NMtDS0=    0 NMtDT0=    0
 Petite list used in FoFCou.
 Initial guess orbital symmetries:
       Occupied  (A') (A') (A') (A') (A') (A') (A') (A') (A') (A')
                 (A') (A') (A') (A') (A') (A') (A') (A') (A') (A")
                 (A') (A") (A") (A') (A")
       Virtual   (A") (A") (A') (A') (A') (A") (A') (A') (A") (A')
                 (A') (A') (A") (A") (A') (A') (A') (A') (A') (A')
                 (A') (A") (A') (A") (A') (A') (A') (A") (A') (A")
                 (A') (A') (A') (A') (A") (A') (A') (A") (A') (A')
                 (A') (A') (A') (A") (A") (A') (A') (A") (A') (A')
                 (A") (A') (A') (A') (A") (A') (A") (A') (A') (A")
                 (A') (A') (A") (A') (A') (A') (A') (A") (A') (A")
                 (A') (A") (A') (A') (A') (A') (A") (A") (A') (A")
                 (A') (A') (A') (A") (A') (A") (A") (A') (A") (A')
                 (A') (A') (A") (A') (A") (A') (A") (A') (A') (A")
                 (A') (A") (A') (A") (A') (A") (A') (A') (A') (A")
                 (A') (A") (A') (A') (A') (A') (A') (A') (A") (A')
                 (A') (A") (A") (A") (A') (A') (A') (A") (A') (A")
                 (A') (A') (A') (A') (A') (A") (A') (A') (A") (A')
                 (A") (A') (A") (A") (A') (A') (A") (A') (A") (A')
                 (A") (A') (A') (A") (A") (A') (A") (A') (A') (A')
                 (A") (A") (A') (A") (A') (A") (A') (A') (A") (A')
                 (A') (A") (A') (A') (A") (A') (A') (A') (A") (A')
                 (A') (A") (A') (A') (A') (A") (A') (A') (A') (A')
                 (A") (A') (A') (A') (A') (A") (A') (A') (A") (A')
                 (A') (A") (A') (A") (A') (A") (A") (A') (A") (A')
                 (A') (A") (A') (A") (A') (A") (A') (A') (A") (A')
                 (A') (A") (A') (A") (A') (A") (A') (A') (A') (A")
                 (A') (A') (A") (A') (A') (A') (A") (A") (A") (A')
                 (A') (A") (A') (A') (A') (A') (A") (A') (A') (A")
                 (A') (A") (A') (A') (A") (A') (A') (A') (A') (A')
                 (A") (A') (A') (A') (A') (A') (A') (A') (A') (A")
                 (A') (A') (A') (A') (A") (A") (A') (A') (A') (A")
                 (A") (A") (A') (A") (A') (A") (A") (A') (A") (A')
                 (A') (A') (A') (A') (A') (A") (A") (A') (A") (A')
                 (A') (A') (A') (A') (A") (A") (A') (A") (A") (A')
                 (A') (A") (A') (A') (A") (A') (A") (A") (A') (A')
                 (A") (A') (A") (A') (A") (A') (A") (A') (A') (A")
                 (A") (A') (A') (A") (A") (A') (A') (A') (A") (A')
                 (A") (A') (A') (A") (A") (A") (A') (A") (A") (A')
                 (A") (A') (A') (A") (A') (A") (A') (A") (A') (A')
                 (A') (A") (A') (A') (A") (A') (A') (A") (A') (A')
                 (A") (A') (A') (A") (A') (A') (A") (A') (A') (A")
                 (A') (A') (A") (A') (A') (A') (A') (A') (A") (A')
                 (A') (A') (A") (A') (A') (A') (A") (A') (A') (A')
                 (A') (A') (A') (A') (A') (A') (A') (A') (A')
 The electronic state of the initial guess is 1-A'.
 Keep R1 ints in memory in symmetry-blocked form, NReq=6897690747.
 Requested convergence on RMS density matrix=1.00D-08 within 128 cycles.
 Requested convergence on MAX density matrix=1.00D-06.
 Requested convergence on             energy=1.00D-06.
 No special actions if energy rises.
 SCF Done:  E(RB3LYP) =  -323.623729454     A.U. after   13 cycles
            NFock= 13  Conv=0.73D-08     -V/T= 2.0063

 **********************************************************************

            Population analysis using the SCF density.

 **********************************************************************

 Orbital symmetries:
       Occupied  (A') (A') (A') (A') (A') (A') (A') (A') (A') (A')
                 (A') (A') (A') (A') (A') (A') (A') (A') (A") (A')
                 (A') (A") (A") (A') (A")
       Virtual   (A") (A") (A') (A') (A') (A') (A") (A') (A') (A")
                 (A") (A') (A') (A') (A') (A') (A') (A") (A') (A")
                 (A') (A') (A') (A") (A') (A') (A") (A") (A') (A')
                 (A') (A') (A") (A') (A') (A') (A") (A') (A') (A')
                 (A') (A') (A") (A') (A") (A') (A") (A') (A") (A')
                 (A') (A') (A") (A') (A') (A") (A') (A') (A") (A')
                 (A') (A") (A') (A') (A") (A') (A') (A") (A') (A')
                 (A") (A') (A') (A') (A') (A") (A") (A') (A") (A')
                 (A') (A") (A') (A") (A') (A") (A") (A') (A') (A")
                 (A') (A') (A") (A') (A") (A') (A') (A") (A') (A')
                 (A') (A") (A') (A") (A') (A') (A") (A') (A') (A")
                 (A") (A') (A') (A') (A') (A') (A") (A') (A') (A')
                 (A') (A") (A") (A") (A') (A') (A') (A") (A') (A")
                 (A') (A') (A') (A") (A') (A') (A') (A") (A') (A")
                 (A') (A") (A') (A") (A') (A') (A") (A") (A') (A')
                 (A") (A') (A') (A") (A") (A') (A") (A') (A') (A")
                 (A') (A') (A") (A") (A') (A") (A') (A") (A') (A')
                 (A') (A') (A") (A') (A") (A') (A') (A') (A") (A')
                 (A') (A") (A') (A') (A') (A") (A') (A') (A') (A')
                 (A") (A') (A') (A') (A') (A') (A") (A') (A") (A')
                 (A') (A") (A') (A") (A") (A') (A") (A") (A') (A')
                 (A") (A') (A') (A") (A') (A") (A') (A') (A') (A")
                 (A') (A') (A") (A') (A") (A') (A') (A") (A") (A')
                 (A') (A') (A") (A') (A') (A') (A") (A") (A") (A')
                 (A') (A') (A") (A') (A') (A') (A") (A') (A') (A")
                 (A') (A') (A") (A') (A') (A") (A') (A') (A') (A')
                 (A") (A') (A') (A') (A') (A') (A') (A') (A') (A')
                 (A") (A') (A') (A') (A") (A") (A') (A') (A') (A")
                 (A") (A") (A') (A") (A') (A") (A") (A') (A") (A')
                 (A') (A') (A') (A') (A") (A') (A") (A') (A") (A')
                 (A') (A') (A') (A") (A') (A") (A') (A") (A") (A')
                 (A") (A') (A') (A') (A") (A') (A") (A") (A') (A')
                 (A') (A") (A') (A") (A") (A') (A") (A') (A') (A")
                 (A") (A') (A') (A") (A") (A') (A') (A") (A') (A')
                 (A") (A') (A') (A") (A") (A") (A") (A') (A") (A")
                 (A') (A') (A') (A") (A') (A") (A') (A") (A') (A')
                 (A') (A") (A') (A') (A") (A') (A") (A') (A') (A')
                 (A") (A') (A') (A") (A') (A') (A") (A') (A') (A")
                 (A') (A") (A') (A') (A') (A') (A') (A') (A") (A')
                 (A') (A') (A') (A") (A') (A') (A") (A') (A') (A')
                 (A') (A') (A') (A') (A') (A') (A') (A') (A')
 The electronic state is 1-A'.
 Alpha  occ. eigenvalues --  -19.16532 -14.32508 -10.29505 -10.22711 -10.21177
 Alpha  occ. eigenvalues --  -10.20654 -10.19862  -1.05707  -0.92125  -0.80435
 Alpha  occ. eigenvalues --   -0.76412  -0.64151  -0.62752  -0.55100  -0.52100
 Alpha  occ. eigenvalues --   -0.48729  -0.45519  -0.42904  -0.42427  -0.40882
 Alpha  occ. eigenvalues --   -0.37155  -0.35201  -0.29324  -0.27630  -0.25934
 Alpha virt. eigenvalues --   -0.04531  -0.02682  -0.01241  -0.00305   0.00271
 Alpha virt. eigenvalues --    0.01790   0.02341   0.02560   0.03705   0.04594
 Alpha virt. eigenvalues --    0.04805   0.05060   0.05359   0.05406   0.05707
 Alpha virt. eigenvalues --    0.05807   0.06942   0.07495   0.07525   0.07639
 Alpha virt. eigenvalues --    0.07685   0.07938   0.08967   0.10319   0.10553
 Alpha virt. eigenvalues --    0.11292   0.11435   0.11849   0.12522   0.12690
 Alpha virt. eigenvalues --    0.13241   0.14175   0.14350   0.14480   0.14802
 Alpha virt. eigenvalues --    0.15124   0.15300   0.15956   0.16320   0.16692
 Alpha virt. eigenvalues --    0.17336   0.17519   0.17908   0.18310   0.18482
 Alpha virt. eigenvalues --    0.19329   0.19390   0.20427   0.21044   0.21388
 Alpha virt. eigenvalues --    0.22328   0.22780   0.23510   0.23543   0.24050
 Alpha virt. eigenvalues --    0.24328   0.24480   0.25708   0.26481   0.26688
 Alpha virt. eigenvalues --    0.27292   0.27298   0.28063   0.28732   0.29299
 Alpha virt. eigenvalues --    0.29496   0.29905   0.30241   0.30441   0.30781
 Alpha virt. eigenvalues --    0.31377   0.31715   0.32441   0.33324   0.33961
 Alpha virt. eigenvalues --    0.34100   0.34768   0.34861   0.35863   0.36411
 Alpha virt. eigenvalues --    0.37142   0.37410   0.37639   0.38851   0.39084
 Alpha virt. eigenvalues --    0.39325   0.39472   0.39604   0.39884   0.40312
 Alpha virt. eigenvalues --    0.41304   0.42120   0.42631   0.42854   0.43020
 Alpha virt. eigenvalues --    0.43436   0.44033   0.44907   0.45297   0.46185
 Alpha virt. eigenvalues --    0.46355   0.46519   0.47026   0.47761   0.47973
 Alpha virt. eigenvalues --    0.49164   0.49253   0.49504   0.50321   0.51084
 Alpha virt. eigenvalues --    0.51325   0.51713   0.52368   0.52774   0.53497
 Alpha virt. eigenvalues --    0.53981   0.54753   0.55169   0.55348   0.55723
 Alpha virt. eigenvalues --    0.56141   0.56143   0.56989   0.57758   0.58117
 Alpha virt. eigenvalues --    0.58550   0.58862   0.59052   0.59813   0.59930
 Alpha virt. eigenvalues --    0.60577   0.60889   0.62128   0.62840   0.63415
 Alpha virt. eigenvalues --    0.64042   0.64848   0.65292   0.65831   0.67180
 Alpha virt. eigenvalues --    0.67329   0.67529   0.68028   0.68660   0.69208
 Alpha virt. eigenvalues --    0.70491   0.70770   0.71083   0.71262   0.72332
 Alpha virt. eigenvalues --    0.73530   0.74029   0.74233   0.75796   0.76510
 Alpha virt. eigenvalues --    0.76774   0.78807   0.79776   0.80269   0.81693
 Alpha virt. eigenvalues --    0.82271   0.82918   0.82983   0.84486   0.85341
 Alpha virt. eigenvalues --    0.86002   0.86102   0.88046   0.88351   0.88496
 Alpha virt. eigenvalues --    0.89892   0.90679   0.91071   0.92439   0.94136
 Alpha virt. eigenvalues --    0.94543   0.94912   0.96232   0.97931   0.98119
 Alpha virt. eigenvalues --    0.98743   0.99662   0.99740   1.00932   1.01353
 Alpha virt. eigenvalues --    1.02871   1.03719   1.05544   1.07674   1.09349
 Alpha virt. eigenvalues --    1.09640   1.10234   1.12523   1.13803   1.15136
 Alpha virt. eigenvalues --    1.16155   1.16441   1.18231   1.19613   1.21952
 Alpha virt. eigenvalues --    1.24191   1.26284   1.27982   1.31986   1.34023
 Alpha virt. eigenvalues --    1.36213   1.36360   1.38629   1.40273   1.42501
 Alpha virt. eigenvalues --    1.44582   1.45506   1.47209   1.47702   1.50409
 Alpha virt. eigenvalues --    1.53262   1.53762   1.55434   1.56355   1.57028
 Alpha virt. eigenvalues --    1.58945   1.61677   1.62545   1.66654   1.67698
 Alpha virt. eigenvalues --    1.69922   1.70751   1.70769   1.71669   1.71868
 Alpha virt. eigenvalues --    1.74738   1.75419   1.78671   1.78900   1.81106
 Alpha virt. eigenvalues --    1.84453   1.85545   1.89353   1.89890   1.90038
 Alpha virt. eigenvalues --    1.91224   1.93414   1.94415   1.97649   1.99771
 Alpha virt. eigenvalues --    2.02910   2.03030   2.04640   2.08934   2.09800
 Alpha virt. eigenvalues --    2.13445   2.14377   2.16419   2.16977   2.19986
 Alpha virt. eigenvalues --    2.20021   2.22383   2.24246   2.29984   2.30699
 Alpha virt. eigenvalues --    2.36162   2.38520   2.40473   2.45414   2.49023
 Alpha virt. eigenvalues --    2.50221   2.54675   2.61004   2.65893   2.70457
 Alpha virt. eigenvalues --    2.72833   2.75907   2.79299   2.88867   2.97031
 Alpha virt. eigenvalues --    3.09873   3.14372   3.18732   3.20487   3.22521
 Alpha virt. eigenvalues --    3.26573   3.32281   3.33105   3.33924   3.38054
 Alpha virt. eigenvalues --    3.38782   3.44980   3.47037   3.50128   3.54685
 Alpha virt. eigenvalues --    3.58537   3.67044   3.69068   3.72209   3.75239
 Alpha virt. eigenvalues --    3.76822   3.79908   3.82573   3.84958   3.86647
 Alpha virt. eigenvalues --    3.87924   3.92457   3.93598   3.96631   3.96799
 Alpha virt. eigenvalues --    4.00119   4.06229   4.06737   4.09341   4.12045
 Alpha virt. eigenvalues --    4.16519   4.17079   4.20779   4.22659   4.24816
 Alpha virt. eigenvalues --    4.26018   4.29836   4.30903   4.31139   4.31612
 Alpha virt. eigenvalues --    4.33712   4.35035   4.37666   4.38098   4.46010
 Alpha virt. eigenvalues --    4.46620   4.47078   4.47746   4.50185   4.51876
 Alpha virt. eigenvalues --    4.53659   4.54249   4.55122   4.56801   4.60377
 Alpha virt. eigenvalues --    4.60723   4.64822   4.65370   4.65999   4.67901
 Alpha virt. eigenvalues --    4.68132   4.73932   4.74011   4.75075   4.76419
 Alpha virt. eigenvalues --    4.79349   4.81273   4.83184   4.85517   4.87028
 Alpha virt. eigenvalues --    4.88635   4.90534   4.98789   4.99371   5.00053
 Alpha virt. eigenvalues --    5.00755   5.05081   5.07475   5.12404   5.13581
 Alpha virt. eigenvalues --    5.14668   5.20385   5.24464   5.26370   5.30445
 Alpha virt. eigenvalues --    5.33964   5.34667   5.34806   5.37526   5.40581
 Alpha virt. eigenvalues --    5.41744   5.45384   5.47297   5.48647   5.52986
 Alpha virt. eigenvalues --    5.56297   5.60224   5.62089   5.66222   5.70951
 Alpha virt. eigenvalues --    5.73487   5.78494   5.80139   5.85886   5.89261
 Alpha virt. eigenvalues --    6.00435   6.02907   6.06199   6.11792   6.17972
 Alpha virt. eigenvalues --    6.24647   6.29801   6.35931   6.36167   6.40585
 Alpha virt. eigenvalues --    6.49413   6.54803   6.63356   6.77868   6.94200
 Alpha virt. eigenvalues --    7.00959   7.46863  13.32439  15.84741  17.06365
 Alpha virt. eigenvalues --   19.10110  20.00163  20.52230  22.57973
          Condensed to atoms (all electrons):
               1          2          3          4          5          6
     1  O    9.150281   0.044312  -0.837780   0.439747   0.067212   0.015035
     2  N    0.044312   7.952199   0.170192   0.335516  -0.046312  -0.417209
     3  C   -0.837780   0.170192   9.120100  -1.914082  -1.592522  -0.301942
     4  C    0.439747   0.335516  -1.914082   8.714949   0.210835  -0.712203
     5  C    0.067212  -0.046312  -1.592522   0.210835   7.267164  -0.044722
     6  C    0.015035  -0.417209  -0.301942  -0.712203  -0.044722   7.325043
     7  C   -0.050298   0.043359  -0.491013   0.303810  -0.304580  -0.284566
     8  H    0.025137  -0.009636   0.083240  -0.110439   0.007416   0.030767
     9  H    0.006652  -0.017680  -0.120134  -0.529975  -0.070609   0.491208
    10  H   -0.010214  -0.368501  -0.394430  -0.044331   0.396809   0.140379
    11  H   -0.003628   0.024341  -0.065412   0.232442   0.114753  -0.165774
    12  H   -0.000749   0.151369   0.089768   0.094725  -0.020863  -0.218673
               7          8          9         10         11         12
     1  O   -0.050298   0.025137   0.006652  -0.010214  -0.003628  -0.000749
     2  N    0.043359  -0.009636  -0.017680  -0.368501   0.024341   0.151369
     3  C   -0.491013   0.083240  -0.120134  -0.394430  -0.065412   0.089768
     4  C    0.303810  -0.110439  -0.529975  -0.044331   0.232442   0.094725
     5  C   -0.304580   0.007416  -0.070609   0.396809   0.114753  -0.020863
     6  C   -0.284566   0.030767   0.491208   0.140379  -0.165774  -0.218673
     7  C    7.010490   0.017562   0.066238   0.060750  -0.038795  -0.047666
     8  H    0.017562   0.629292   0.018269   0.018154  -0.000889  -0.005391
     9  H    0.066238   0.018269   1.349636   0.018698  -0.142291  -0.033306
    10  H    0.060750   0.018154   0.018698   1.397421  -0.014690  -0.322796
    11  H   -0.038795  -0.000889  -0.142291  -0.014690   0.837122   0.066792
    12  H   -0.047666  -0.005391  -0.033306  -0.322796   0.066792   1.183534
 Mulliken charges:
               1
     1  O   -0.845708
     2  N   -0.861950
     3  C    2.254014
     4  C   -1.020993
     5  C    0.015419
     6  C    0.142657
     7  C   -0.285292
     8  H    0.296518
     9  H   -0.036705
    10  H    0.122752
    11  H    0.156031
    12  H    0.063257
 Sum of Mulliken charges =   0.00000
 Mulliken charges with hydrogens summed into heavy atoms:
               1
     1  O   -0.549190
     2  N   -0.861950
     3  C    2.254014
     4  C   -1.057698
     5  C    0.138171
     6  C    0.298688
     7  C   -0.222035
 Electronic spatial extent (au):  <R**2>=            678.8922
 Charge=              0.0000 electrons
 Dipole moment (field-independent basis, Debye):
    X=              0.5922    Y=             -1.5412    Z=              0.0000  Tot=              1.6511
 Quadrupole moment (field-independent basis, Debye-Ang):
   XX=            -37.9964   YY=            -36.2948   ZZ=            -43.8706
   XY=             -1.9678   XZ=              0.0000   YZ=             -0.0000
 Traceless Quadrupole moment (field-independent basis, Debye-Ang):
   XX=              1.3909   YY=              3.0924   ZZ=             -4.4834
   XY=             -1.9678   XZ=              0.0000   YZ=             -0.0000
 Octapole moment (field-independent basis, Debye-Ang**2):
  XXX=              6.7583  YYY=              5.7570  ZZZ=              0.0000  XYY=            -12.7012
  XXY=             -1.8910  XXZ=             -0.0000  XZZ=             -0.8497  YZZ=              5.5964
  YYZ=              0.0000  XYZ=              0.0000
 Hexadecapole moment (field-independent basis, Debye-Ang**3):
 XXXX=           -283.1468 YYYY=           -495.3991 ZZZZ=            -49.3600 XXXY=              7.5647
 XXXZ=              0.0000 YYYX=            -39.9336 YYYZ=             -0.0000 ZZZX=              0.0000
 ZZZY=             -0.0000 XXYY=           -121.7969 XXZZ=            -64.2694 YYZZ=           -108.3177
 XXYZ=             -0.0000 YYXZ=              0.0000 ZZXY=             -0.8027
 N-N= 2.658673490964D+02 E-N=-1.286224782488D+03  KE= 3.216037361218D+02
 Symmetry A'   KE= 3.099153719277D+02
 Symmetry A"   KE= 1.168836419414D+01
 Calling FoFJK, ICntrl=      2127 FMM=F ISym2X=1 I1Cent= 0 IOpClX= 0 NMat=1 NMatS=1 NMatT=0.
 ***** Axes restored to original set *****
 -------------------------------------------------------------------
 Center     Atomic                   Forces (Hartrees/Bohr)
 Number     Number              X              Y              Z
 -------------------------------------------------------------------
      1        8          -0.040273112    0.036121455   -0.000000000
      2        7          -0.039372130    0.007092814    0.000000000
      3        6          -0.006764117    0.028587006   -0.000000000
      4        6           0.016951736   -0.054697116    0.000000000
      5        6           0.070147133    0.010834373   -0.000000000
      6        6          -0.044366402   -0.054370286    0.000000000
      7        6           0.049595945    0.030339502   -0.000000000
      8        1          -0.008695872   -0.004131362    0.000000000
      9        1           0.008658323    0.001220917   -0.000000000
     10        1           0.003327565   -0.012740372    0.000000000
     11        1          -0.003429480    0.006848030   -0.000000000
     12        1          -0.005779588    0.004895039   -0.000000000
 -------------------------------------------------------------------
 Cartesian Forces:  Max     0.070147133 RMS     0.024983644

 GradGradGradGradGradGradGradGradGradGradGradGradGradGradGradGradGradGrad
 Berny optimization.
 FormGI is forming the generalized inverse of G from B-inverse, IUseBI=4.
 Internal  Forces:  Max     0.067235390 RMS     0.019190029
 Search for a local minimum.
 Step number   1 out of a maximum of   61
 All quantities printed in internal units (Hartrees-Bohrs-Radians)
 Mixed Optimization -- RFO/linear search
 Second derivative matrix not updated -- first step.
 ITU=  0
     Eigenvalues ---    0.00849   0.00934   0.01289   0.01316   0.01502
     Eigenvalues ---    0.01622   0.01750   0.02177   0.02343   0.16000
     Eigenvalues ---    0.16000   0.16000   0.16000   0.16000   0.22000
     Eigenvalues ---    0.22368   0.24486   0.25000   0.28112   0.28766
     Eigenvalues ---    0.34368   0.37180   0.37216   0.37239   0.37313
     Eigenvalues ---    0.40921   0.51562   0.53878   0.55430   0.65363
 RFO step:  Lambda=-5.13985268D-02 EMin= 8.49304147D-03
 Linear search not attempted -- first point.
 Maximum step size (   0.300) exceeded in Quadratic search.
    -- Step size scaled by   0.784
 Iteration  1 RMS(Cart)=  0.06745405 RMS(Int)=  0.00068549
 Iteration  2 RMS(Cart)=  0.00077988 RMS(Int)=  0.00011241
 Iteration  3 RMS(Cart)=  0.00000074 RMS(Int)=  0.00011241
 ClnCor:  largest displacement from symmetrization is 6.92D-09 for atom     3.
 Variable       Old X    -DE/DX   Delta X   Delta X   Delta X     New X
                                 (Linear)    (Quad)   (Total)
    R1        2.70321  -0.05745   0.00000  -0.09782  -0.09782   2.60539
    R2        1.81452   0.00456   0.00000   0.00590   0.00590   1.82042
    R3        2.45477  -0.02315   0.00000  -0.02596  -0.02583   2.42894
    R4        2.78859  -0.06724   0.00000  -0.13339  -0.13321   2.65538
    R5        2.91001  -0.06304   0.00000  -0.14625  -0.14629   2.76372
    R6        2.54974  -0.00294   0.00000  -0.00232  -0.00249   2.54725
    R7        2.02187   0.00759   0.00000   0.01405   0.01405   2.03592
    R8        2.56246  -0.00474   0.00000  -0.00672  -0.00667   2.55579
    R9        2.02276   0.00555   0.00000   0.01029   0.01029   2.03305
   R10        2.89921  -0.06321   0.00000  -0.14303  -0.14316   2.75605
   R11        2.02076   0.00729   0.00000   0.01346   0.01346   2.03423
   R12        2.02222   0.00712   0.00000   0.01319   0.01319   2.03541
    A1        1.91090  -0.01538   0.00000  -0.05706  -0.05706   1.85384
    A2        2.11996  -0.01857   0.00000  -0.05574  -0.05531   2.06465
    A3        2.08996  -0.00422   0.00000  -0.01025  -0.01029   2.07968
    A4        2.09050  -0.01848   0.00000  -0.04735  -0.04739   2.04311
    A5        2.10272   0.02270   0.00000   0.05760   0.05768   2.16040
    A6        2.08241  -0.01055   0.00000  -0.02550  -0.02576   2.05665
    A7        2.10004   0.00090   0.00000  -0.00350  -0.00338   2.09666
    A8        2.10074   0.00966   0.00000   0.02900   0.02913   2.12987
    A9        2.10285   0.01175   0.00000   0.03022   0.03041   2.13327
   A10        2.09068  -0.01795   0.00000  -0.05991  -0.06001   2.03068
   A11        2.08965   0.00620   0.00000   0.02969   0.02959   2.11924
   A12        2.07343  -0.00162   0.00000   0.00207   0.00172   2.07515
   A13        2.10490   0.00319   0.00000   0.00779   0.00796   2.11286
   A14        2.10486  -0.00157   0.00000  -0.00985  -0.00968   2.09518
   A15        2.08500  -0.00370   0.00000  -0.00864  -0.00875   2.07625
   A16        2.09877   0.00445   0.00000   0.01397   0.01402   2.11279
   A17        2.09941  -0.00075   0.00000  -0.00533  -0.00527   2.09414
    D1       -0.00000  -0.00000   0.00000  -0.00000   0.00000   0.00000
    D2        3.14159  -0.00000   0.00000  -0.00000   0.00000   3.14159
    D3        3.14159  -0.00000   0.00000  -0.00000   0.00000   3.14159
    D4        0.00000  -0.00000   0.00000  -0.00000  -0.00000   0.00000
    D5       -0.00000  -0.00000   0.00000  -0.00000   0.00000   0.00000
    D6        3.14159  -0.00000   0.00000  -0.00000   0.00000   3.14159
    D7        3.14159   0.00000   0.00000   0.00000   0.00000   3.14159
    D8        0.00000   0.00000   0.00000   0.00000  -0.00000   0.00000
    D9       -0.00000   0.00000   0.00000   0.00000   0.00000   0.00000
   D10        3.14159   0.00000   0.00000  -0.00000   0.00000   3.14159
   D11        0.00000  -0.00000   0.00000  -0.00000  -0.00000   0.00000
   D12        3.14159  -0.00000   0.00000  -0.00000   0.00000   3.14159
   D13        3.14159  -0.00000   0.00000   0.00000   0.00000   3.14159
   D14       -0.00000  -0.00000   0.00000   0.00000   0.00000   0.00000
   D15        0.00000   0.00000   0.00000   0.00000  -0.00000   0.00000
   D16        3.14159   0.00000   0.00000   0.00000   0.00000   3.14159
   D17        3.14159   0.00000   0.00000   0.00000   0.00000   3.14159
   D18       -0.00000   0.00000   0.00000   0.00000   0.00000   0.00000
   D19       -0.00000  -0.00000   0.00000  -0.00000   0.00000   0.00000
   D20        3.14159   0.00000   0.00000   0.00000   0.00000   3.14159
   D21        3.14159  -0.00000   0.00000  -0.00000   0.00000   3.14159
   D22        0.00000   0.00000   0.00000   0.00000  -0.00000   0.00000
         Item               Value     Threshold  Converged?
 Maximum Force            0.067235     0.000450     NO 
 RMS     Force            0.019190     0.000300     NO 
 Maximum Displacement     0.226335     0.001800     NO 
 RMS     Displacement     0.067689     0.001200     NO 
 Predicted change in Energy=-2.681835D-02
 GradGradGradGradGradGradGradGradGradGradGradGradGradGradGradGradGradGrad

                          Input orientation:                          
 ---------------------------------------------------------------------
 Center     Atomic      Atomic             Coordinates (Angstroms)
 Number     Number       Type             X           Y           Z
 ---------------------------------------------------------------------
      1          8           0        1.864087   -0.669418   -0.000000
      2          7           0       -0.410463   -0.995201    0.000000
      3          6           0        0.577738   -0.173275   -0.000000
      4          6           0        0.425626    1.281293   -0.000000
      5          6           0       -1.713744   -0.469894    0.000000
      6          6           0       -0.825331    1.783349   -0.000000
      7          6           0       -1.954976    0.860883    0.000000
      8          1           0        1.782229   -1.629258    0.000000
      9          1           0        1.296126    1.916067   -0.000000
     10          1           0       -2.517032   -1.185550    0.000000
     11          1           0       -0.997257    2.845997   -0.000000
     12          1           0       -2.962004    1.243008    0.000000
 ---------------------------------------------------------------------
                    Distance matrix (angstroms):
                    1          2          3          4          5
     1  O    0.000000
     2  N    2.297763   0.000000
     3  C    1.378715   1.285341   0.000000
     4  C    2.423725   2.425174   1.462500   0.000000
     5  C    3.583390   1.405165   2.310599   2.764699   0.000000
     6  C    3.639922   2.809351   2.407691   1.347944   2.422061
     7  C    4.114252   2.414658   2.735713   2.417439   1.352465
     8  H    0.963325   2.282526   1.889626   3.211180   3.683198
     9  H    2.647133   3.374600   2.209396   1.077361   3.840849
    10  H    4.411417   2.115152   3.256117   3.839863   1.075842
    11  H    4.532707   3.885760   3.405380   2.114922   3.392416
    12  H    5.191197   3.394104   3.812561   3.387846   2.119477
                    6          7          8          9         10
     6  C    0.000000
     7  C    1.458438   0.000000
     8  H    4.294794   4.490825   0.000000
     9  H    2.125604   3.418052   3.578495   0.000000
    10  H    3.417047   2.122215   4.322097   4.915302   0.000000
    11  H    1.076467   2.204065   5.268155   2.474748   4.308490
    12  H    2.203937   1.077090   5.545958   4.310995   2.468986
                   11         12
    11  H    0.000000
    12  H    2.535706   0.000000
 Stoichiometry    C5H5NO
 Framework group  CS[SG(C5H5NO)]
 Deg. of freedom    21
 Full point group                 CS      NOp   2
 Largest Abelian subgroup         CS      NOp   2
 Largest concise Abelian subgroup C1      NOp   1
                         Standard orientation:                         
 ---------------------------------------------------------------------
 Center     Atomic      Atomic             Coordinates (Angstroms)
 Number     Number       Type             X           Y           Z
 ---------------------------------------------------------------------
      1          8           0        0.094510    2.284587    0.000000
      2          7           0       -1.162762    0.361313    0.000000
      3          6           0        0.000000    0.909116    0.000000
      4          6           0        1.253710    0.156043    0.000000
      5          6           0       -1.238006   -1.041836    0.000000
      6          6           0        1.179528   -1.189858    0.000000
      7          6           0       -0.134164   -1.823305    0.000000
      8          1           0       -0.809867    2.616394    0.000000
      9          1           0        2.197101    0.676351    0.000000
     10          1           0       -2.226259   -1.467030    0.000000
     11          1           0        2.069721   -1.795116    0.000000
     12          1           0       -0.213846   -2.897444    0.000000
 ---------------------------------------------------------------------
 Rotational constants (GHZ):      5.7362706      2.7084570      1.8397802
 Basis read from rwf:  (5D, 7F)
 There are   349 symmetry adapted cartesian basis functions of A'  symmetry.
 There are   161 symmetry adapted cartesian basis functions of A"  symmetry.
 There are   290 symmetry adapted basis functions of A'  symmetry.
 There are   147 symmetry adapted basis functions of A"  symmetry.
   437 basis functions,   665 primitive gaussians,   510 cartesian basis functions
    25 alpha electrons       25 beta electrons
       nuclear repulsion energy       273.3739425048 Hartrees.
 NAtoms=   12 NActive=   12 NUniq=   12 SFac= 1.00D+00 NAtFMM=   60 NAOKFM=F Big=F
 Integral buffers will be    131072 words long.
 Raffenetti 2 integral format.
 Two-electron integral symmetry is turned on.
 One-electron integrals computed using PRISM.
 NBasis=   437 RedAO= T EigKep=  1.06D-06  NBF=   290   147
 NBsUse=   434 1.00D-06 EigRej=  5.86D-07 NBFU=   287   147
 Initial guess from the checkpoint file:  "HY_aug-pc-2_B3LYP_OPT_FREQ.chk"
 B after Tr=    -0.000000    0.000000    0.000000
         Rot=    1.000000   -0.000000    0.000000    0.000479 Ang=   0.05 deg.
 Initial guess orbital symmetries:
       Occupied  (A') (A') (A') (A') (A') (A') (A') (A') (A') (A')
                 (A') (A') (A') (A') (A') (A') (A') (A') (A") (A')
                 (A') (A") (A") (A') (A")
       Virtual   (A') (A') (A') (A') (A') (A') (A') (A') (A') (A')
                 (A') (A') (A') (A') (A') (A') (A') (A') (A') (A')
                 (A') (A') (A') (A') (A') (A') (A') (A') (A') (A')
                 (A') (A') (A') (A') (A') (A') (A') (A') (A') (A')
                 (A') (A') (A') (A') (A') (A') (A') (A') (A') (A')
                 (A') (A') (A') (A') (A') (A') (A') (A') (A') (A')
                 (A') (A') (A') (A') (A') (A') (A') (A') (A') (A')
                 (A') (A') (A') (A') (A') (A') (A') (A') (A') (A')
                 (A') (A') (A') (A') (A') (A') (A') (A') (A') (A')
                 (A') (A') (A') (A') (A') (A') (A') (A') (A') (A')
                 (A') (A') (A') (A') (A') (A') (A') (A') (A') (A')
                 (A') (A') (A') (A') (A') (A') (A') (A') (A') (A')
                 (A') (A') (A') (A') (A') (A') (A') (A') (A') (A')
                 (A') (A') (A') (A') (A') (A') (A') (A') (A') (A')
                 (A') (A') (A') (A') (A') (A') (A') (A') (A') (A')
                 (A') (A') (A') (A') (A') (A') (A') (A') (A') (A')
                 (A') (A') (A') (A') (A') (A') (A') (A') (A') (A')
                 (A') (A') (A') (A') (A') (A') (A') (A') (A') (A')
                 (A') (A') (A') (A') (A') (A') (A') (A') (A') (A')
                 (A') (A') (A') (A') (A') (A') (A') (A') (A') (A')
                 (A') (A') (A') (A') (A') (A') (A') (A') (A') (A')
                 (A') (A') (A') (A') (A') (A') (A') (A') (A') (A')
                 (A') (A') (A') (A') (A') (A') (A') (A') (A') (A')
                 (A') (A') (A') (A') (A') (A') (A') (A') (A') (A')
                 (A') (A') (A') (A') (A') (A') (A') (A') (A') (A')
                 (A') (A') (A') (A') (A') (A') (A') (A') (A') (A')
                 (A') (A') (A') (A') (A') (A') (A") (A") (A") (A")
                 (A") (A") (A") (A") (A") (A") (A") (A") (A") (A")
                 (A") (A") (A") (A") (A") (A") (A") (A") (A") (A")
                 (A") (A") (A") (A") (A") (A") (A") (A") (A") (A")
                 (A") (A") (A") (A") (A") (A") (A") (A") (A") (A")
                 (A") (A") (A") (A") (A") (A") (A") (A") (A") (A")
                 (A") (A") (A") (A") (A") (A") (A") (A") (A") (A")
                 (A") (A") (A") (A") (A") (A") (A") (A") (A") (A")
                 (A") (A") (A") (A") (A") (A") (A") (A") (A") (A")
                 (A") (A") (A") (A") (A") (A") (A") (A") (A") (A")
                 (A") (A") (A") (A") (A") (A") (A") (A") (A") (A")
                 (A") (A") (A") (A") (A") (A") (A") (A") (A") (A")
                 (A") (A") (A") (A") (A") (A") (A") (A") (A") (A")
                 (A") (A") (A") (A") (A") (A") (A") (A") (A") (A")
                 (A") (A") (A") (A") (A") (A") (A") (A") (A")
 ExpMin= 2.23D-02 ExpMax= 1.48D+04 ExpMxC= 5.05D+02 IAcc=3 IRadAn=         5 AccDes= 0.00D+00
 Harris functional with IExCor=  402 and IRadAn=       5 diagonalized for initial guess.
 HarFok:  IExCor=  402 AccDes= 0.00D+00 IRadAn=         5 IDoV= 1 UseB2=F ITyADJ=14
 ICtDFT=  3500011 ScaDFX=  1.000000  1.000000  1.000000  1.000000
 FoFCou: FMM=F IPFlag=           0 FMFlag=      100000 FMFlg1=           0
         NFxFlg=           0 DoJE=T BraDBF=F KetDBF=T FulRan=T
         wScrn=  0.000000 ICntrl=     500 IOpCl=  0 I1Cent=   200000004 NGrid=           0
         NMat0=    1 NMatS0=      1 NMatT0=    0 NMatD0=    1 NMtDS0=    0 NMtDT0=    0
 Petite list used in FoFCou.
 Keep R1 ints in memory in symmetry-blocked form, NReq=6897690747.
 Requested convergence on RMS density matrix=1.00D-08 within 128 cycles.
 Requested convergence on MAX density matrix=1.00D-06.
 Requested convergence on             energy=1.00D-06.
 No special actions if energy rises.
 SCF Done:  E(RB3LYP) =  -323.652803349     A.U. after   13 cycles
            NFock= 13  Conv=0.44D-08     -V/T= 2.0046
 Calling FoFJK, ICntrl=      2127 FMM=F ISym2X=1 I1Cent= 0 IOpClX= 0 NMat=1 NMatS=1 NMatT=0.
 ***** Axes restored to original set *****
 -------------------------------------------------------------------
 Center     Atomic                   Forces (Hartrees/Bohr)
 Number     Number              X              Y              Z
 -------------------------------------------------------------------
      1        8          -0.016981399    0.010365402   -0.000000000
      2        7          -0.041793417   -0.003430169    0.000000000
      3        6           0.018796438    0.034597039   -0.000000000
      4        6           0.017576358   -0.031727357    0.000000000
      5        6           0.037521654   -0.013296762   -0.000000000
      6        6          -0.034629371   -0.021026405    0.000000000
      7        6           0.020281424    0.029241579   -0.000000000
      8        1          -0.000385268   -0.002873962    0.000000000
      9        1           0.002846655   -0.000770950   -0.000000000
     10        1          -0.000118866   -0.004633255    0.000000000
     11        1          -0.001060830    0.002915067   -0.000000000
     12        1          -0.002053378    0.000639772    0.000000000
 -------------------------------------------------------------------
 Cartesian Forces:  Max     0.041793417 RMS     0.016300395

 GradGradGradGradGradGradGradGradGradGradGradGradGradGradGradGradGradGrad
 Berny optimization.
 Using GEDIIS/GDIIS optimizer.
 FormGI is forming the generalized inverse of G from B-inverse, IUseBI=4.
 Internal  Forces:  Max     0.034245700 RMS     0.008869057
 Search for a local minimum.
 Step number   2 out of a maximum of   61
 All quantities printed in internal units (Hartrees-Bohrs-Radians)
 Mixed Optimization -- RFO/linear search
 Update second derivatives using D2CorX and points    1    2
 DE= -2.91D-02 DEPred=-2.68D-02 R= 1.08D+00
 TightC=F SS=  1.41D+00  RLast= 3.00D-01 DXNew= 5.0454D-01 8.9999D-01
 Trust test= 1.08D+00 RLast= 3.00D-01 DXMaxT set to 5.05D-01
 ITU=  1  0
 Use linear search instead of GDIIS.
     Eigenvalues ---    0.00857   0.00942   0.01289   0.01319   0.01518
     Eigenvalues ---    0.01640   0.01784   0.02189   0.02354   0.15854
     Eigenvalues ---    0.16000   0.16000   0.16000   0.16580   0.21384
     Eigenvalues ---    0.22379   0.22597   0.24911   0.25844   0.28242
     Eigenvalues ---    0.32316   0.37165   0.37221   0.37271   0.37308
     Eigenvalues ---    0.40964   0.51465   0.55123   0.55414   0.72681
 RFO step:  Lambda=-5.36848034D-03 EMin= 8.57341107D-03
 Quartic linear search produced a step of  0.51010.
 Iteration  1 RMS(Cart)=  0.03415120 RMS(Int)=  0.00017130
 Iteration  2 RMS(Cart)=  0.00014310 RMS(Int)=  0.00006304
 Iteration  3 RMS(Cart)=  0.00000002 RMS(Int)=  0.00006304
 ClnCor:  largest displacement from symmetrization is 2.14D-13 for atom    11.
 Variable       Old X    -DE/DX   Delta X   Delta X   Delta X     New X
                                 (Linear)    (Quad)   (Total)
    R1        2.60539  -0.01890  -0.04990  -0.00210  -0.05200   2.55339
    R2        1.82042   0.00290   0.00301   0.00405   0.00706   1.82748
    R3        2.42894   0.01364  -0.01318   0.04618   0.03307   2.46201
    R4        2.65538  -0.03425  -0.06795  -0.05180  -0.11964   2.53573
    R5        2.76372  -0.03107  -0.07462  -0.04826  -0.12292   2.64080
    R6        2.54725   0.01345  -0.00127   0.03887   0.03750   2.58474
    R7        2.03592   0.00185   0.00717  -0.00245   0.00472   2.04064
    R8        2.55579   0.01033  -0.00340   0.03183   0.02847   2.58426
    R9        2.03305   0.00317   0.00525   0.00548   0.01073   2.04378
   R10        2.75605  -0.02972  -0.07303  -0.04391  -0.11700   2.63905
   R11        2.03423   0.00305   0.00687   0.00274   0.00960   2.04383
   R12        2.03541   0.00215   0.00673  -0.00064   0.00609   2.04149
    A1        1.85384  -0.00025  -0.02911   0.05202   0.02291   1.87675
    A2        2.06465  -0.00384  -0.02821   0.01873  -0.00925   2.05540
    A3        2.07968  -0.00113  -0.00525   0.00027  -0.00499   2.07469
    A4        2.04311  -0.00281  -0.02417   0.01978  -0.00441   2.03870
    A5        2.16040   0.00394   0.02942  -0.02004   0.00940   2.16979
    A6        2.05665  -0.00350  -0.01314   0.00339  -0.00990   2.04675
    A7        2.09666  -0.00059  -0.00172  -0.00756  -0.00920   2.08746
    A8        2.12987   0.00409   0.01486   0.00416   0.01910   2.14898
    A9        2.13327   0.00409   0.01551  -0.00288   0.01276   2.14603
   A10        2.03068  -0.00548  -0.03061   0.01276  -0.01791   2.01276
   A11        2.11924   0.00139   0.01509  -0.00988   0.00515   2.12440
   A12        2.07515   0.00092   0.00088   0.00726   0.00795   2.08311
   A13        2.11286   0.00013   0.00406  -0.00663  -0.00247   2.11038
   A14        2.09518  -0.00105  -0.00494  -0.00063  -0.00548   2.08969
   A15        2.07625  -0.00161  -0.00446  -0.00645  -0.01095   2.06530
   A16        2.11279   0.00067   0.00715  -0.00718  -0.00001   2.11279
   A17        2.09414   0.00094  -0.00269   0.01363   0.01096   2.10510
    D1        0.00000  -0.00000   0.00000  -0.00000  -0.00000   0.00000
    D2        3.14159  -0.00000   0.00000  -0.00000   0.00000   3.14159
    D3        3.14159  -0.00000   0.00000  -0.00000   0.00000   3.14159
    D4        0.00000  -0.00000   0.00000  -0.00000  -0.00000   0.00000
    D5       -0.00000   0.00000   0.00000   0.00000   0.00000   0.00000
    D6        3.14159   0.00000   0.00000   0.00000   0.00000   3.14159
    D7        3.14159   0.00000   0.00000  -0.00000   0.00000   3.14159
    D8        0.00000  -0.00000   0.00000  -0.00000  -0.00000   0.00000
    D9       -0.00000   0.00000   0.00000  -0.00000   0.00000   0.00000
   D10        3.14159  -0.00000   0.00000  -0.00000   0.00000   3.14159
   D11        0.00000   0.00000   0.00000   0.00000  -0.00000   0.00000
   D12        3.14159   0.00000   0.00000   0.00000   0.00000   3.14159
   D13        3.14159   0.00000   0.00000   0.00000   0.00000   3.14159
   D14       -0.00000   0.00000   0.00000   0.00000   0.00000   0.00000
   D15        0.00000   0.00000   0.00000  -0.00000   0.00000   0.00000
   D16        3.14159  -0.00000   0.00000   0.00000   0.00000   3.14159
   D17        3.14159  -0.00000   0.00000  -0.00000   0.00000   3.14159
   D18       -0.00000  -0.00000   0.00000  -0.00000   0.00000   0.00000
   D19       -0.00000  -0.00000   0.00000  -0.00000   0.00000   0.00000
   D20        3.14159   0.00000   0.00000  -0.00000   0.00000   3.14159
   D21        3.14159   0.00000   0.00000   0.00000   0.00000   3.14159
   D22        0.00000   0.00000   0.00000  -0.00000   0.00000   0.00000
         Item               Value     Threshold  Converged?
 Maximum Force            0.034246     0.000450     NO 
 RMS     Force            0.008869     0.000300     NO 
 Maximum Displacement     0.090390     0.001800     NO 
 RMS     Displacement     0.034163     0.001200     NO 
 Predicted change in Energy=-8.393088D-03
 GradGradGradGradGradGradGradGradGradGradGradGradGradGradGradGradGradGrad

                          Input orientation:                          
 ---------------------------------------------------------------------
 Center     Atomic      Atomic             Coordinates (Angstroms)
 Number     Number       Type             X           Y           Z
 ---------------------------------------------------------------------
      1          8           0        1.821751   -0.634711   -0.000000
      2          7           0       -0.437687   -0.978268    0.000000
      3          6           0        0.562872   -0.143839   -0.000000
      4          6           0        0.428766    1.247165   -0.000000
      5          6           0       -1.678223   -0.466761    0.000000
      6          6           0       -0.841531    1.754301   -0.000000
      7          6           0       -1.928621    0.877650    0.000000
      8          1           0        1.758127   -1.599679    0.000000
      9          1           0        1.312149    1.868234   -0.000000
     10          1           0       -2.478537   -1.194211    0.000000
     11          1           0       -1.013570    2.822080   -0.000000
     12          1           0       -2.940496    1.256039    0.000000
 ---------------------------------------------------------------------
                    Distance matrix (angstroms):
                    1          2          3          4          5
     1  O    0.000000
     2  N    2.285409   0.000000
     3  C    1.351197   1.302839   0.000000
     4  C    2.341338   2.388156   1.397454   0.000000
     5  C    3.504001   1.341852   2.264240   2.716053   0.000000
     6  C    3.577772   2.762250   2.361204   1.367787   2.373430
     7  C    4.043826   2.380612   2.692764   2.386172   1.367530
     8  H    0.967063   2.282050   1.883641   3.141929   3.618287
     9  H    2.554297   3.341332   2.147057   1.079858   3.794012
    10  H    4.336533   2.052242   3.217677   3.796409   1.081520
    11  H    4.470844   3.843732   3.358845   2.135577   3.355329
    12  H    5.123860   3.355023   3.772698   3.369274   2.135738
                    6          7          8          9         10
     6  C    0.000000
     7  C    1.396526   0.000000
     8  H    4.243513   4.441764   0.000000
     9  H    2.156692   3.388783   3.496472   0.000000
    10  H    3.372464   2.143598   4.256022   4.873178   0.000000
    11  H    1.081549   2.148983   5.218645   2.513720   4.275128
    12  H    2.157295   1.080310   5.498381   4.296484   2.493418
                   11         12
    11  H    0.000000
    12  H    2.483048   0.000000
 Stoichiometry    C5H5NO
 Framework group  CS[SG(C5H5NO)]
 Deg. of freedom    21
 Full point group                 CS      NOp   2
 Largest Abelian subgroup         CS      NOp   2
 Largest concise Abelian subgroup C1      NOp   1
                         Standard orientation:                         
 ---------------------------------------------------------------------
 Center     Atomic      Atomic             Coordinates (Angstroms)
 Number     Number       Type             X           Y           Z
 ---------------------------------------------------------------------
      1          8           0        0.060638    2.240793    0.000000
      2          7           0       -1.167989    0.313731    0.000000
      3          6           0        0.000000    0.890957    0.000000
      4          6           0        1.217706    0.205342    0.000000
      5          6           0       -1.202334   -1.027682    0.000000
      6          6           0        1.167320   -1.161517    0.000000
      7          6           0       -0.074302   -1.800781    0.000000
      8          1           0       -0.847513    2.573166    0.000000
      9          1           0        2.143167    0.761772    0.000000
     10          1           0       -2.191453   -1.465095    0.000000
     11          1           0        2.074104   -1.750999    0.000000
     12          1           0       -0.137827   -2.879222    0.000000
 ---------------------------------------------------------------------
 Rotational constants (GHZ):      5.9277905      2.8031695      1.9031815
 Basis read from rwf:  (5D, 7F)
 There are   349 symmetry adapted cartesian basis functions of A'  symmetry.
 There are   161 symmetry adapted cartesian basis functions of A"  symmetry.
 There are   290 symmetry adapted basis functions of A'  symmetry.
 There are   147 symmetry adapted basis functions of A"  symmetry.
   437 basis functions,   665 primitive gaussians,   510 cartesian basis functions
    25 alpha electrons       25 beta electrons
       nuclear repulsion energy       277.4768459945 Hartrees.
 NAtoms=   12 NActive=   12 NUniq=   12 SFac= 1.00D+00 NAtFMM=   60 NAOKFM=F Big=F
 Integral buffers will be    131072 words long.
 Raffenetti 2 integral format.
 Two-electron integral symmetry is turned on.
 One-electron integrals computed using PRISM.
 NBasis=   437 RedAO= T EigKep=  1.06D-06  NBF=   290   147
 NBsUse=   433 1.00D-06 EigRej=  9.65D-07 NBFU=   286   147
 Initial guess from the checkpoint file:  "HY_aug-pc-2_B3LYP_OPT_FREQ.chk"
 B after Tr=     0.000000   -0.000000   -0.000000
         Rot=    0.999952    0.000000   -0.000000   -0.009756 Ang=  -1.12 deg.
 Initial guess orbital symmetries:
       Occupied  (A') (A') (A') (A') (A') (A') (A') (A') (A') (A')
                 (A') (A') (A') (A') (A') (A') (A') (A") (A') (A')
                 (A') (A") (A") (A') (A")
       Virtual   (A') (A') (A') (A') (A') (A') (A') (A') (A') (A')
                 (A') (A') (A') (A') (A') (A') (A') (A') (A') (A')
                 (A') (A') (A') (A') (A') (A') (A') (A') (A') (A')
                 (A') (A') (A') (A') (A') (A') (A') (A') (A') (A')
                 (A') (A') (A') (A') (A') (A') (A') (A') (A') (A')
                 (A') (A') (A') (A') (A') (A') (A') (A') (A') (A')
                 (A') (A') (A') (A') (A') (A') (A') (A') (A') (A')
                 (A') (A') (A') (A') (A') (A') (A') (A') (A') (A')
                 (A') (A') (A') (A') (A') (A') (A') (A') (A') (A')
                 (A') (A') (A') (A') (A') (A') (A') (A') (A') (A')
                 (A') (A') (A') (A') (A') (A') (A') (A') (A') (A')
                 (A') (A') (A') (A') (A') (A') (A') (A') (A') (A')
                 (A') (A') (A') (A') (A') (A') (A') (A') (A') (A')
                 (A') (A') (A') (A') (A') (A') (A') (A') (A') (A')
                 (A') (A') (A') (A') (A') (A') (A') (A') (A') (A')
                 (A') (A') (A') (A') (A') (A') (A') (A') (A') (A')
                 (A') (A') (A') (A') (A') (A') (A') (A') (A') (A')
                 (A') (A') (A') (A') (A') (A') (A') (A') (A') (A')
                 (A') (A') (A') (A') (A') (A') (A') (A') (A') (A')
                 (A') (A') (A') (A') (A') (A') (A') (A') (A') (A')
                 (A') (A') (A') (A') (A') (A') (A') (A') (A') (A')
                 (A') (A') (A') (A') (A') (A') (A') (A') (A') (A')
                 (A') (A') (A') (A') (A') (A') (A') (A') (A') (A')
                 (A') (A') (A') (A') (A') (A') (A') (A') (A') (A')
                 (A') (A') (A') (A') (A') (A') (A') (A') (A') (A')
                 (A') (A') (A') (A') (A') (A') (A') (A') (A') (A')
                 (A') (A') (A') (A') (A') (A") (A") (A") (A") (A")
                 (A") (A") (A") (A") (A") (A") (A") (A") (A") (A")
                 (A") (A") (A") (A") (A") (A") (A") (A") (A") (A")
                 (A") (A") (A") (A") (A") (A") (A") (A") (A") (A")
                 (A") (A") (A") (A") (A") (A") (A") (A") (A") (A")
                 (A") (A") (A") (A") (A") (A") (A") (A") (A") (A")
                 (A") (A") (A") (A") (A") (A") (A") (A") (A") (A")
                 (A") (A") (A") (A") (A") (A") (A") (A") (A") (A")
                 (A") (A") (A") (A") (A") (A") (A") (A") (A") (A")
                 (A") (A") (A") (A") (A") (A") (A") (A") (A") (A")
                 (A") (A") (A") (A") (A") (A") (A") (A") (A") (A")
                 (A") (A") (A") (A") (A") (A") (A") (A") (A") (A")
                 (A") (A") (A") (A") (A") (A") (A") (A") (A") (A")
                 (A") (A") (A") (A") (A") (A") (A") (A") (A") (A")
                 (A") (A") (A") (A") (A") (A") (A") (A")
 ExpMin= 2.23D-02 ExpMax= 1.48D+04 ExpMxC= 5.05D+02 IAcc=3 IRadAn=         5 AccDes= 0.00D+00
 Harris functional with IExCor=  402 and IRadAn=       5 diagonalized for initial guess.
 HarFok:  IExCor=  402 AccDes= 0.00D+00 IRadAn=         5 IDoV= 1 UseB2=F ITyADJ=14
 ICtDFT=  3500011 ScaDFX=  1.000000  1.000000  1.000000  1.000000
 FoFCou: FMM=F IPFlag=           0 FMFlag=      100000 FMFlg1=           0
         NFxFlg=           0 DoJE=T BraDBF=F KetDBF=T FulRan=T
         wScrn=  0.000000 ICntrl=     500 IOpCl=  0 I1Cent=   200000004 NGrid=           0
         NMat0=    1 NMatS0=      1 NMatT0=    0 NMatD0=    1 NMtDS0=    0 NMtDT0=    0
 Petite list used in FoFCou.
 Keep R1 ints in memory in symmetry-blocked form, NReq=6897690747.
 Requested convergence on RMS density matrix=1.00D-08 within 128 cycles.
 Requested convergence on MAX density matrix=1.00D-06.
 Requested convergence on             energy=1.00D-06.
 No special actions if energy rises.
 SCF Done:  E(RB3LYP) =  -323.660121477     A.U. after   12 cycles
            NFock= 12  Conv=0.70D-08     -V/T= 2.0036
 Calling FoFJK, ICntrl=      2127 FMM=F ISym2X=1 I1Cent= 0 IOpClX= 0 NMat=1 NMatS=1 NMatT=0.
 ***** Axes restored to original set *****
 -------------------------------------------------------------------
 Center     Atomic                   Forces (Hartrees/Bohr)
 Number     Number              X              Y              Z
 -------------------------------------------------------------------
      1        8           0.002620518   -0.005344129    0.000000000
      2        7          -0.009390491   -0.010401141    0.000000000
      3        6           0.012542415    0.009074294   -0.000000000
      4        6           0.006329159    0.001456463   -0.000000000
      5        6           0.002209514   -0.011032874    0.000000000
      6        6          -0.007025586    0.004584569   -0.000000000
      7        6          -0.005490028    0.010304254   -0.000000000
      8        1          -0.000532868    0.001241871   -0.000000000
      9        1          -0.000454331    0.000501151   -0.000000000
     10        1          -0.001582708    0.000143639    0.000000000
     11        1           0.001113442    0.000379976   -0.000000000
     12        1          -0.000339037   -0.000908074    0.000000000
 -------------------------------------------------------------------
 Cartesian Forces:  Max     0.012542415 RMS     0.004870720

 GradGradGradGradGradGradGradGradGradGradGradGradGradGradGradGradGradGrad
 Berny optimization.
 Using GEDIIS/GDIIS optimizer.
 FormGI is forming the generalized inverse of G from B-inverse, IUseBI=4.
 Internal  Forces:  Max     0.015122494 RMS     0.003354881
 Search for a local minimum.
 Step number   3 out of a maximum of   61
 All quantities printed in internal units (Hartrees-Bohrs-Radians)
 Mixed Optimization -- RFO/linear search
 Update second derivatives using D2CorX and points    1    2    3
 DE= -7.32D-03 DEPred=-8.39D-03 R= 8.72D-01
 TightC=F SS=  1.41D+00  RLast= 2.27D-01 DXNew= 8.4853D-01 6.8136D-01
 Trust test= 8.72D-01 RLast= 2.27D-01 DXMaxT set to 6.81D-01
 ITU=  1  1  0
 Use linear search instead of GDIIS.
     Eigenvalues ---    0.00863   0.00940   0.01289   0.01319   0.01526
     Eigenvalues ---    0.01655   0.01799   0.02191   0.02356   0.15931
     Eigenvalues ---    0.16000   0.16000   0.16120   0.16516   0.21725
     Eigenvalues ---    0.22389   0.23595   0.25134   0.28111   0.29745
     Eigenvalues ---    0.31979   0.37170   0.37221   0.37269   0.37303
     Eigenvalues ---    0.40865   0.51582   0.55376   0.56176   0.79567
 RFO step:  Lambda=-8.94964923D-04 EMin= 8.63019367D-03
 Quartic linear search produced a step of -0.02232.
 Iteration  1 RMS(Cart)=  0.00974059 RMS(Int)=  0.00008639
 Iteration  2 RMS(Cart)=  0.00009047 RMS(Int)=  0.00000163
 Iteration  3 RMS(Cart)=  0.00000000 RMS(Int)=  0.00000163
 ClnCor:  largest displacement from symmetrization is 1.78D-13 for atom     1.
 Variable       Old X    -DE/DX   Delta X   Delta X   Delta X     New X
                                 (Linear)    (Quad)   (Total)
    R1        2.55339   0.00343   0.00116  -0.00048   0.00068   2.55407
    R2        1.82748  -0.00120  -0.00016  -0.00150  -0.00166   1.82583
    R3        2.46201   0.01512  -0.00074   0.01999   0.01925   2.48126
    R4        2.53573   0.00194   0.00267  -0.00683  -0.00416   2.53157
    R5        2.64080   0.00535   0.00274   0.00405   0.00679   2.64760
    R6        2.58474   0.00967  -0.00084   0.01662   0.01578   2.60052
    R7        2.04064  -0.00008  -0.00011   0.00097   0.00086   2.04150
    R8        2.58426   0.01154  -0.00064   0.01997   0.01933   2.60359
    R9        2.04378   0.00107  -0.00024   0.00369   0.00345   2.04723
   R10        2.63905   0.00371   0.00261  -0.00230   0.00031   2.63936
   R11        2.04383   0.00020  -0.00021   0.00170   0.00149   2.04532
   R12        2.04149  -0.00000  -0.00014   0.00113   0.00099   2.04248
    A1        1.87675  -0.00112  -0.00051  -0.01144  -0.01195   1.86480
    A2        2.05540   0.00042   0.00021  -0.00127  -0.00107   2.05432
    A3        2.07469  -0.00349   0.00011  -0.01462  -0.01451   2.06018
    A4        2.03870   0.00547   0.00010   0.01599   0.01609   2.05479
    A5        2.16979  -0.00198  -0.00021  -0.00137  -0.00158   2.16822
    A6        2.04675   0.00040   0.00022  -0.00108  -0.00086   2.04589
    A7        2.08746   0.00048   0.00021   0.00277   0.00298   2.09044
    A8        2.14898  -0.00088  -0.00043  -0.00169  -0.00212   2.14686
    A9        2.14603   0.00042  -0.00028   0.00468   0.00439   2.15042
   A10        2.01276   0.00099   0.00040   0.00033   0.00074   2.01350
   A11        2.12440  -0.00141  -0.00012  -0.00502  -0.00513   2.11927
   A12        2.08311   0.00096  -0.00018   0.00254   0.00237   2.08548
   A13        2.11038  -0.00167   0.00006  -0.00739  -0.00734   2.10304
   A14        2.08969   0.00071   0.00012   0.00485   0.00497   2.09467
   A15        2.06530  -0.00023   0.00024  -0.00350  -0.00325   2.06204
   A16        2.11279  -0.00087   0.00000  -0.00325  -0.00325   2.10954
   A17        2.10510   0.00110  -0.00024   0.00675   0.00650   2.11160
    D1        0.00000  -0.00000   0.00000  -0.00000  -0.00000   0.00000
    D2        3.14159  -0.00000   0.00000  -0.00000   0.00000   3.14159
    D3        3.14159   0.00000   0.00000   0.00000   0.00000   3.14159
    D4        0.00000  -0.00000   0.00000  -0.00000  -0.00000   0.00000
    D5       -0.00000   0.00000   0.00000  -0.00000   0.00000   0.00000
    D6        3.14159  -0.00000   0.00000  -0.00000   0.00000   3.14159
    D7        3.14159  -0.00000   0.00000  -0.00000   0.00000   3.14159
    D8       -0.00000  -0.00000   0.00000  -0.00000   0.00000   0.00000
    D9       -0.00000   0.00000   0.00000   0.00000   0.00000   0.00000
   D10        3.14159  -0.00000   0.00000  -0.00000   0.00000   3.14159
   D11        0.00000  -0.00000   0.00000  -0.00000  -0.00000   0.00000
   D12        3.14159  -0.00000   0.00000  -0.00000   0.00000   3.14159
   D13        3.14159  -0.00000   0.00000   0.00000   0.00000   3.14159
   D14       -0.00000   0.00000   0.00000   0.00000   0.00000   0.00000
   D15        0.00000  -0.00000   0.00000   0.00000  -0.00000   0.00000
   D16        3.14159   0.00000   0.00000  -0.00000   0.00000   3.14159
   D17        3.14159   0.00000   0.00000   0.00000   0.00000   3.14159
   D18        0.00000  -0.00000   0.00000   0.00000  -0.00000   0.00000
   D19       -0.00000   0.00000   0.00000   0.00000   0.00000   0.00000
   D20        3.14159   0.00000   0.00000   0.00000   0.00000   3.14159
   D21        3.14159   0.00000   0.00000   0.00000   0.00000   3.14159
   D22        0.00000   0.00000   0.00000   0.00000  -0.00000   0.00000
         Item               Value     Threshold  Converged?
 Maximum Force            0.015122     0.000450     NO 
 RMS     Force            0.003355     0.000300     NO 
 Maximum Displacement     0.037462     0.001800     NO 
 RMS     Displacement     0.009716     0.001200     NO 
 Predicted change in Energy=-4.505816D-04
 GradGradGradGradGradGradGradGradGradGradGradGradGradGradGradGradGradGrad

                          Input orientation:                          
[...]
 All quantities printed in internal units (Hartrees-Bohrs-Radians)
 Second derivative matrix not updated -- analytic derivatives used.
 ITU=  0
     Eigenvalues ---    0.01330   0.01611   0.01766   0.02208   0.02367
     Eigenvalues ---    0.02757   0.03092   0.03694   0.04405   0.10468
     Eigenvalues ---    0.11108   0.12122   0.13064   0.15681   0.19181
     Eigenvalues ---    0.19979   0.21649   0.23513   0.31134   0.35089
     Eigenvalues ---    0.35711   0.36107   0.36302   0.37660   0.43313
     Eigenvalues ---    0.44797   0.47411   0.51496   0.51679   0.57219
 Angle between quadratic step and forces=  27.78 degrees.
 Linear search not attempted -- first point.
 Iteration  1 RMS(Cart)=  0.00038217 RMS(Int)=  0.00000006
 Iteration  2 RMS(Cart)=  0.00000007 RMS(Int)=  0.00000001
 ClnCor:  largest displacement from symmetrization is 1.54D-08 for atom     9.
 Variable       Old X    -DE/DX   Delta X   Delta X   Delta X     New X
                                 (Linear)    (Quad)   (Total)
    R1        2.55656  -0.00021   0.00000  -0.00048  -0.00048   2.55608
    R2        1.82563  -0.00003   0.00000  -0.00005  -0.00005   1.82558
    R3        2.49956  -0.00005   0.00000  -0.00015  -0.00015   2.49941
    R4        2.52673   0.00028   0.00000   0.00057   0.00057   2.52729
    R5        2.64147  -0.00039   0.00000  -0.00083  -0.00083   2.64064
    R6        2.61044   0.00000   0.00000  -0.00007  -0.00007   2.61038
    R7        2.04024   0.00001   0.00000   0.00005   0.00005   2.04029
    R8        2.61565  -0.00015   0.00000  -0.00029  -0.00029   2.61536
    R9        2.04715   0.00001   0.00000   0.00002   0.00002   2.04716
   R10        2.63544   0.00005   0.00000   0.00018   0.00018   2.63562
   R11        2.04429  -0.00003   0.00000  -0.00010  -0.00010   2.04419
   R12        2.04079   0.00002   0.00000   0.00006   0.00006   2.04085
    A1        1.86341  -0.00002   0.00000   0.00013   0.00013   1.86354
    A2        2.05669   0.00006   0.00000   0.00021   0.00021   2.05689
    A3        2.05040   0.00013   0.00000   0.00046   0.00046   2.05086
    A4        2.07050  -0.00008   0.00000  -0.00019  -0.00019   2.07031
    A5        2.16229  -0.00005   0.00000  -0.00027  -0.00027   2.16202
    A6        2.04942   0.00009   0.00000   0.00036   0.00036   2.04977
    A7        2.09591  -0.00000   0.00000   0.00035   0.00035   2.09626
    A8        2.13786  -0.00009   0.00000  -0.00070  -0.00070   2.13716
    A9        2.15125  -0.00006   0.00000  -0.00008  -0.00008   2.15117
   A10        2.02262   0.00010   0.00000   0.00039   0.00039   2.02301
   A11        2.10932  -0.00004   0.00000  -0.00031  -0.00031   2.10900
   A12        2.08719   0.00005   0.00000   0.00007   0.00007   2.08725
   A13        2.09383  -0.00004   0.00000  -0.00021  -0.00021   2.09361
   A14        2.10217  -0.00001   0.00000   0.00015   0.00015   2.10232
   A15        2.05954  -0.00009   0.00000  -0.00028  -0.00028   2.05926
   A16        2.10409   0.00001   0.00000  -0.00008  -0.00008   2.10401
   A17        2.11956   0.00007   0.00000   0.00035   0.00035   2.11991
    D1        0.00000   0.00000   0.00000  -0.00000  -0.00000   0.00000
    D2        3.14159   0.00000   0.00000  -0.00000   0.00000   3.14159
    D3        3.14159   0.00000   0.00000  -0.00000   0.00000   3.14159
    D4       -0.00000   0.00000   0.00000   0.00000   0.00000   0.00000
    D5        0.00000   0.00000   0.00000   0.00000   0.00000   0.00000
    D6        3.14159  -0.00000   0.00000   0.00000   0.00000   3.14159
    D7        3.14159  -0.00000   0.00000  -0.00000   0.00000   3.14159
    D8        0.00000   0.00000   0.00000  -0.00000   0.00000   0.00000
    D9        0.00000  -0.00000   0.00000  -0.00000  -0.00000   0.00000
   D10        3.14159  -0.00000   0.00000  -0.00000   0.00000   3.14159
   D11       -0.00000   0.00000   0.00000   0.00000   0.00000   0.00000
   D12        3.14159   0.00000   0.00000   0.00000   0.00000   3.14159
   D13        3.14159  -0.00000   0.00000   0.00000   0.00000   3.14159
   D14       -0.00000  -0.00000   0.00000   0.00000   0.00000   0.00000
   D15       -0.00000  -0.00000   0.00000   0.00000   0.00000   0.00000
   D16        3.14159  -0.00000   0.00000  -0.00000   0.00000   3.14159
   D17        3.14159   0.00000   0.00000  -0.00000   0.00000   3.14159
   D18       -0.00000   0.00000   0.00000  -0.00000   0.00000   0.00000
   D19        0.00000   0.00000   0.00000  -0.00000   0.00000   0.00000
   D20        3.14159  -0.00000   0.00000  -0.00000   0.00000   3.14159
   D21        3.14159  -0.00000   0.00000  -0.00000   0.00000   3.14159
   D22       -0.00000  -0.00000   0.00000   0.00000   0.00000   0.00000
         Item               Value     Threshold  Converged?
 Maximum Force            0.000385     0.000450     YES
 RMS     Force            0.000086     0.000300     YES
 Maximum Displacement     0.001131     0.001800     YES
 RMS     Displacement     0.000382     0.001200     YES
 Predicted change in Energy=-4.753821D-07
 Optimization completed.
    -- Stationary point found.
                           ----------------------------
                           !   Optimized Parameters   !
                           ! (Angstroms and Degrees)  !
 --------------------------                            --------------------------
 ! Name  Definition              Value          Derivative Info.                !
 --------------------------------------------------------------------------------
 ! R1    R(1,3)                  1.3529         -DE/DX =   -0.0002              !
 ! R2    R(1,8)                  0.9661         -DE/DX =    0.0                 !
 ! R3    R(2,3)                  1.3227         -DE/DX =   -0.0001              !
 ! R4    R(2,5)                  1.3371         -DE/DX =    0.0003              !
 ! R5    R(3,4)                  1.3978         -DE/DX =   -0.0004              !
 ! R6    R(4,6)                  1.3814         -DE/DX =    0.0                 !
 ! R7    R(4,9)                  1.0796         -DE/DX =    0.0                 !
 ! R8    R(5,7)                  1.3841         -DE/DX =   -0.0002              !
 ! R9    R(5,10)                 1.0833         -DE/DX =    0.0                 !
 ! R10   R(6,7)                  1.3946         -DE/DX =    0.0001              !
 ! R11   R(6,11)                 1.0818         -DE/DX =    0.0                 !
 ! R12   R(7,12)                 1.0799         -DE/DX =    0.0                 !
 ! A1    A(3,1,8)              106.7654         -DE/DX =    0.0                 !
 ! A2    A(3,2,5)              117.8394         -DE/DX =    0.0001              !
 ! A3    A(1,3,2)              117.4792         -DE/DX =    0.0001              !
 ! A4    A(1,3,4)              118.6308         -DE/DX =   -0.0001              !
 ! A5    A(2,3,4)              123.8901         -DE/DX =    0.0                 !
 ! A6    A(3,4,6)              117.4228         -DE/DX =    0.0001              !
 ! A7    A(3,4,9)              120.0868         -DE/DX =    0.0                 !
 ! A8    A(6,4,9)              122.4904         -DE/DX =   -0.0001              !
 ! A9    A(2,5,7)              123.2577         -DE/DX =   -0.0001              !
 ! A10   A(2,5,10)             115.8874         -DE/DX =    0.0001              !
 ! A11   A(7,5,10)             120.8549         -DE/DX =    0.0                 !
 ! A12   A(4,6,7)              119.5871         -DE/DX =    0.0001              !
 ! A13   A(4,6,11)             119.9674         -DE/DX =    0.0                 !
 ! A14   A(7,6,11)             120.4455         -DE/DX =    0.0                 !
 ! A15   A(5,7,6)              118.0028         -DE/DX =   -0.0001              !
 ! A16   A(5,7,12)             120.5555         -DE/DX =    0.0                 !
 ! A17   A(6,7,12)             121.4417         -DE/DX =    0.0001              !
 ! D1    D(8,1,3,2)              0.0            -DE/DX =    0.0                 !
 ! D2    D(8,1,3,4)            180.0            -DE/DX =    0.0                 !
 ! D3    D(5,2,3,1)            180.0            -DE/DX =    0.0                 !
 ! D4    D(5,2,3,4)              0.0            -DE/DX =    0.0                 !
 ! D5    D(3,2,5,7)              0.0            -DE/DX =    0.0                 !
 ! D6    D(3,2,5,10)           180.0            -DE/DX =    0.0                 !
 ! D7    D(1,3,4,6)            180.0            -DE/DX =    0.0                 !
 ! D8    D(1,3,4,9)              0.0            -DE/DX =    0.0                 !
 ! D9    D(2,3,4,6)              0.0            -DE/DX =    0.0                 !
 ! D10   D(2,3,4,9)            180.0            -DE/DX =    0.0                 !
 ! D11   D(3,4,6,7)              0.0            -DE/DX =    0.0                 !
 ! D12   D(3,4,6,11)           180.0            -DE/DX =    0.0                 !
 ! D13   D(9,4,6,7)            180.0            -DE/DX =    0.0                 !
 ! D14   D(9,4,6,11)             0.0            -DE/DX =    0.0                 !
 ! D15   D(2,5,7,6)              0.0            -DE/DX =    0.0                 !
 ! D16   D(2,5,7,12)           180.0            -DE/DX =    0.0                 !
 ! D17   D(10,5,7,6)           180.0            -DE/DX =    0.0                 !
 ! D18   D(10,5,7,12)            0.0            -DE/DX =    0.0                 !
 ! D19   D(4,6,7,5)              0.0            -DE/DX =    0.0                 !
 ! D20   D(4,6,7,12)           180.0            -DE/DX =    0.0                 !
 ! D21   D(11,6,7,5)           180.0            -DE/DX =    0.0                 !
 ! D22   D(11,6,7,12)            0.0            -DE/DX =    0.0                 !
 --------------------------------------------------------------------------------
 GradGradGradGradGradGradGradGradGradGradGradGradGradGradGradGradGradGrad

 1\1\GINC-P1711\Freq\RB3LYP\Gen\C5H5N1O1\SC51754\26-Aug-2021\0\\#N Geom
 =AllCheck Guess=TCheck SCRF=Check GenChk RB3LYP/ChkBas Freq\\HY_aug-pc
 -2_B3LYP_OPT_FREQ\\0,1\O,1.8307430614,-0.6549700621,0.\N,-0.432913199,
 -0.9822255161,0.\C,0.5821364975,-0.1341502735,0.\C,0.4362990406,1.2560
 269829,0.\C,-1.670158839,-0.4752534719,0.\C,-0.8495490249,1.7608281079
 ,0.\C,-1.9336948361,0.883568942,0.\H,1.7318290735,-1.6159758483,0.\H,1
 .308914847,1.8917792937,0.\H,-2.4773462293,-1.1977442593,0.\H,-1.01006
 94958,2.8306424157,0.\H,-2.951190896,1.2454736891,0.\\Version=EM64L-G0
 9RevE.01\State=1-A'\HF=-323.6608853\RMSD=3.655e-09\RMSF=1.148e-04\Zero
 Point=0.0934009\Thermal=0.098596\Dipole=-0.360263,0.3812154,0.\DipoleD
 eriv=-1.3047774,0.5570358,-0.0000042,0.581799,-0.4947403,-0.0000063,-0
 .0000002,-0.0000002,-0.3621576,-0.7759723,0.3028759,-0.0000045,-0.1401
 258,-0.4786722,-0.0000057,-0.0000014,-0.0000045,-0.2747473,1.4599791,-
 0.5670898,0.0000212,-0.7091128,0.5931186,-0.0000016,0.0000051,0.000008
 1,0.2011202,-0.2666951,0.0532799,0.0000092,0.5058771,-0.2182996,-0.000
 0096,-0.0000006,0.000001,-0.1391733,0.3506861,-0.1753835,-0.0000092,0.
 1620987,0.4568462,0.0000043,0.0000014,-0.0000006,-0.0153866,0.4011172,
 0.0548129,0.000005,0.0214135,0.2141616,-0.0000069,-0.0000006,-0.000000
 2,-0.0889558,-0.1328481,-0.048211,-0.0000053,-0.2535619,-0.3607626,-0.
 0000029,-0.0000024,0.0000017,-0.1467865,0.3184162,-0.123657,0.0000005,
 -0.0846808,0.2682278,0.0000031,-0.0000022,-0.0000039,0.3085734,-0.0038
 914,-0.0562293,0.000001,-0.0602918,0.0316438,0.000008,-0.0000009,0.000
 0017,0.1456597,-0.0535708,-0.0609605,-0.0000087,-0.0912196,0.0108279,-
 0.0000034,-0.0000025,-0.0000035,0.1047133,0.0768404,0.0214402,-0.00000
 34,0.0232246,-0.073627,0.0000156,0.0000021,0.0000008,0.1207778,-0.0692
 84,0.0420862,-0.0000015,0.0445799,0.0512757,0.0000053,0.0000022,-0.000
 0004,0.1463627\Polar=87.4905805,-4.1961517,79.3666867,-0.0001115,-0.00
 04952,43.0949734\PG=CS [SG(C5H5N1O1)]\NImag=0\\0.40360275,-0.03136474,
 0.63908262,0.00000001,0.00000002,0.03501177,-0.08269303,-0.03415263,0.
 00000002,0.68526028,-0.00188389,0.02133084,0.00000002,0.02984652,0.407
 13884,0.00000003,0.00000005,0.00699059,0.00000003,0.00000005,0.0906407
 5,-0.25461142,0.09401012,-0.00000010,-0.23737347,-0.10918330,-0.000000
 16,0.69149424,0.04769783,-0.14299607,0.00000001,-0.07537156,-0.2318182
 5,0.,-0.01756187,0.71792461,-0.00000008,-0.00000015,-0.05059321,-0.000
 00011,-0.00000013,-0.07230693,0.00000050,0.00000003,0.18524816,-0.0135
 5684,0.05664081,-0.00000003,0.03904107,-0.02544495,-0.00000007,-0.1230
 5675,-0.03129933,0.00000012,0.75665759,0.02050992,-0.02964708,0.000000
 04,-0.07756648,-0.04005879,0.00000007,0.03952420,-0.28894366,-0.000000
 22,0.03635788,0.67043724,0.00000002,0.00000007,0.00887083,0.00000006,0
 .00000004,0.02013171,-0.00000027,0.,-0.07744473,-0.00000006,0.00000015
 ,0.12608012,0.00410236,0.00497078,0.00000005,-0.30436057,0.08903793,0.
 00000006,-0.09215478,-0.05838076,-0.00000019,-0.02592739,0.03966664,0.
 00000010,0.70563045,-0.00181400,-0.00809855,0.,0.06487278,-0.15230181,
 -0.00000004,-0.00215462,0.06439443,0.00000010,0.02954694,-0.04507268,-
 0.00000003,0.05663281,0.70997954,-0.00000002,-0.00000006,0.01025289,-0
 .00000005,-0.00000005,-0.06455327,0.00000025,0.,-0.00286368,0.00000003
 ,-0.00000011,-0.00548628,-0.00000011,0.00000003,0.16025198,0.00413421,
 -0.01268820,-0.00000001,-0.07511969,-0.01065416,-0.00000004,0.02127489
 ,0.09628448,0.00000008,-0.32852196,0.04688832,-0.00000003,0.05495977,-
 0.06827033,0.00000002,0.66742860,-0.00232151,-0.00736457,0.00000002,-0
 .01566260,0.00092327,0.00000005,0.04224034,-0.00592510,-0.00000011,0.1
 0620326,-0.16313498,0.00000001,-0.01729257,-0.04672376,-0.00000002,-0.
 02322195,0.74271546,-0.00000002,-0.00000004,0.00439003,-0.00000004,-0.
 00000002,-0.00792157,0.00000016,-0.00000002,0.00362905,0.00000005,-0.0
 0000009,-0.06053769,-0.00000008,0.00000001,0.00887741,0.00000003,-0.00
 000002,0.14636592,-0.00677785,0.00437852,0.00000003,0.00095515,0.04076
 087,0.00000004,-0.00338555,-0.01967505,-0.00000011,-0.05481719,0.00278
 890,0.00000012,-0.13799007,0.06114230,-0.00000008,-0.24503032,-0.12479
 105,-0.00000007,0.74192333,0.00139609,0.00871566,0.00000002,0.10167254
 ,-0.00797208,0.,-0.03269689,-0.07386871,-0.00000003,-0.03674158,0.0634
 1534,0.00000006,-0.00623106,-0.32676985,-0.00000005,-0.06200720,-0.206
 87428,-0.00000006,-0.03759303,0.66302444,0.00000002,0.00000008,-0.0014
 8493,0.00000007,0.00000006,0.02311482,-0.00000032,-0.00000002,-0.00913
 970,-0.00000001,0.00000014,0.00829040,0.00000013,-0.00000004,-0.070487
 23,-0.00000002,0.00000001,-0.06551092,0.00000008,0.00000005,0.12665707
 ,-0.05359388,-0.08294544,0.,0.00561007,-0.00080552,0.,-0.00024200,0.05
 268956,0.00000003,-0.00711878,0.00185848,-0.00000002,-0.00251243,-0.00
 013210,0.00000002,0.00175601,0.00171009,0.00000001,0.00015199,-0.00159
 930,-0.00000004,0.05592518,-0.03307272,-0.48296671,-0.00000001,-0.0067
 1453,0.00143256,-0.00000002,0.00991797,-0.02921912,0.00000007,0.001835
 25,0.00296276,-0.00000004,-0.00072042,-0.00033671,0.00000003,0.0003543
 8,-0.00103987,0.00000002,-0.00090650,0.00010370,-0.00000004,0.02944270
 ,0.50882081,0.00000002,0.00000003,-0.01043238,0.00000002,0.00000003,-0
 .00334114,-0.00000008,-0.00000003,0.00085078,-0.00000002,0.00000002,0.
 00330955,0.00000001,-0.00000004,-0.00068305,-0.00000001,0.00000003,0.0
 0143654,-0.00000001,-0.00000003,0.00052359,0.,-0.00000001,0.00963749,0
 .00076135,-0.00004979,-0.00000002,0.00194019,0.00211417,0.,0.00499646,
 0.00317769,0.00000003,-0.24157324,-0.13652202,-0.00000006,-0.00026583,
 0.00062869,0.00000004,-0.01754530,-0.01872749,0.00000003,-0.00312239,0
 .00378194,-0.00000005,0.00002465,-0.00025791,0.00000001,0.25431807,0.0
 0000726,0.00182863,-0.00000004,0.00008708,-0.00751739,-0.00000005,-0.0
 2829086,-0.01069758,0.00000015,-0.13484180,-0.16028744,-0.00000010,0.0
 0250195,-0.00075589,0.00000008,0.01097848,0.01231915,0.00000007,0.0030
 6424,0.00035461,-0.00000010,-0.00004264,0.00018777,0.,0.14674869,0.163
 21976,0.00000002,0.00000006,-0.00188325,0.00000006,0.00000005,0.005719
 68,-0.00000026,0.,0.00232951,-0.00000003,0.00000013,-0.03436921,0.0000
 0012,-0.00000003,-0.00020680,-0.00000003,0.00000001,0.00241851,0.00000
 008,0.00000006,0.00846403,-0.00000003,-0.00000004,-0.00064090,-0.00000
 005,-0.00000010,0.02398472,-0.00142572,-0.00061763,0.00000004,-0.03385
 556,-0.01482645,0.00000007,-0.00254752,0.00185654,-0.00000020,-0.00022
 485,0.00029367,0.00000011,-0.19584392,-0.13589641,-0.00000009,0.000764
 87,0.00155192,-0.00000007,0.00812858,0.00497613,0.00000011,0.00030868,
 -0.00014089,0.00000003,0.00002811,-0.00021627,0.00000010,0.22394189,0.
 00034268,0.00019677,0.,0.01095954,0.01424818,0.00000003,0.00424156,0.0
 0158791,-0.00000008,0.00100412,-0.00006065,0.00000001,-0.13723199,-0.1
 9054400,-0.00000002,0.00241738,-0.00553769,0.,-0.02409947,-0.01421036,
 0.00000003,0.00005762,0.00006467,0.00000003,-0.00008324,0.00005972,0.0
 0000002,0.14322409,0.19423090,0.00000001,0.,0.00052441,0.,0.00000001,-
 0.00334741,0.00000001,-0.00000005,0.01024783,0.00000002,-0.00000003,-0
 .00066156,-0.00000004,-0.00000003,-0.04247158,0.00000002,0.00000001,0.
 00742247,-0.00000005,-0.00000006,0.00738870,0.,0.,-0.00026526,0.000000
 03,0.00000004,-0.00171090,0.,0.00000002,0.02679047,0.00000103,0.001759
 89,0.00000001,-0.00088844,0.00005707,0.00000002,-0.00493935,0.00137843
 ,-0.00000006,0.00054263,0.03006610,0.00000003,-0.00391056,-0.00344198,
 -0.00000003,-0.06669274,0.03999465,-0.00000003,0.00903488,-0.02486072,
 0.00000003,-0.00040471,0.00022652,0.,0.00115788,-0.00063681,0.00000003
 ,0.00028933,-0.00128687,-0.00000001,0.06487419,0.00013069,-0.00079083,
 -0.00000006,-0.00007302,0.00068938,-0.00000011,0.00162194,0.00192259,0
 .00000028,-0.00005376,-0.00743361,-0.00000015,-0.00412761,-0.00072818,
 0.00000012,0.04057418,-0.33066845,0.00000012,0.00549366,-0.01459855,-0
 .00000013,0.00010585,0.00001406,-0.00000002,0.00017806,0.00083496,-0.0
 0000013,0.00037823,-0.00080834,0.00000005,-0.04404945,0.35065885,-0.00
 000001,-0.00000004,-0.00024795,-0.00000003,-0.00000003,-0.00308129,0.0
 0000012,0.00000003,0.00950919,0.,-0.00000005,0.00545404,-0.00000003,0.
 00000003,0.00736874,0.,0.,-0.04210595,0.,0.00000001,0.00529285,0.00000
 001,0.00000002,-0.00038523,0.,0.00000002,-0.00467090,-0.00000004,-0.00
 000002,-0.00043847,0.,0.00000002,0.02700740,0.00005703,0.00005829,0.,0
 .00148400,0.00098172,0.00000001,0.00054524,-0.00079596,-0.00000002,-0.
 00144428,-0.00386559,-0.00000002,-0.00172702,-0.00111407,0.,-0.0174083
 4,0.01031692,0.,-0.30907057,0.08990306,-0.00000002,0.00009523,0.000036
 15,0.00000001,-0.00071995,0.00064068,-0.00000001,0.00043612,0.00045459
 ,0.00000001,0.00093586,-0.00017877,0.,0.32681669,0.00037240,0.00070929
 ,-0.00000002,0.00210236,-0.00609474,-0.00000004,-0.00166860,-0.0023610
 5,0.00000009,-0.00320682,-0.00217645,-0.00000003,0.03117430,-0.0030425
 3,0.00000003,-0.02065540,0.01131084,0.00000003,0.08943663,-0.09131993,
 -0.00000004,-0.00033929,-0.00002393,-0.00000001,-0.00098879,0.00045370
 ,-0.00000004,-0.00058293,0.00077292,0.00000001,0.00079316,0.00090811,0
 .,-0.09643702,0.09086377,-0.00000001,-0.00000004,-0.00139881,-0.000000
 03,-0.00000003,0.00795405,0.00000013,0.00000004,0.00053372,-0.00000002
 ,-0.00000005,0.00636281,-0.00000004,0.00000003,0.00000086,0.,0.,0.0015
 3620,-0.00000002,0.,-0.03310867,0.00000002,0.00000002,-0.00001000,0.00
 000002,0.00000002,0.00056552,-0.00000004,-0.00000002,-0.00347872,0.,0.
 00000002,-0.00370244,0.,0.,0.02474546\\0.00014937,-0.00013016,0.,-0.00
 027581,-0.00008184,0.,-0.00015954,-0.00012163,0.,-0.00002648,0.0004523
 9,0.,0.00023583,-0.00013137,0.,-0.00007816,-0.00003022,0.,0.00006464,0
 .00010682,0.,0.00000310,-0.00003721,0.,0.00002057,-0.00004211,0.,0.000
 05362,-0.00004051,0.,-0.00001901,0.00003219,0.,0.00003188,0.00002365,0
 .\\\@


 HO!  SUCH BUGS AND GOBLINS IN MY LIFE!

                            -- HAMLET, ACT 5, SCENE 2
 Job cpu time:       0 days  2 hours 40 minutes 10.2 seconds.
 File lengths (MBytes):  RWF=    161 Int=      0 D2E=      0 Chk=     14 Scr=      1
 Normal termination of Gaussian 09 at Thu Aug 26 17:06:01 2021.
