 Entering Gaussian System, Link 0=g09
 AtFile(1): pc-2.gbs
            -H     0
            S    4   1.00
                  0.754230D+02           0.240650D-02
                  0.113500D+02           0.184870D-01
                  0.259930D+01           0.897420D-01
                  0.735130D+00           0.281110D+00
            S    1   1.00
                  0.231670D+00           0.100000D+01
            S    1   1.00
                  0.741470D-01           0.100000D+01
            P    1   1.00
                  0.160000D+01           0.100000D+01
            P    1   1.00
                  0.450000D+00           0.100000D+01
            D    1   1.00
                  0.125000D+01           0.100000D+01
            ****
            -C     0
            S    7   1.00
                  0.785710D+04           0.568250D-03
                  0.117870D+04           0.439150D-02
                  0.268320D+03           0.225040D-01
                  0.759480D+02           0.866530D-01
                  0.245590D+02           0.244050D+00
                  0.862120D+01           0.441480D+00
                  0.312780D+01           0.353320D+00
            S    7   1.00
                  0.117870D+04          -0.594920D-06
                  0.268320D+03          -0.627480D-04
                  0.759480D+02          -0.757730D-03
                  0.245590D+02          -0.733080D-02
                  0.862120D+01          -0.389320D-01
                  0.312780D+01          -0.889080D-01
                  0.822020D+00           0.216890D+00
            S    1   1.00
                  0.330170D+00           0.100000D+01
            S    1   1.00
                  0.114630D+00           0.100000D+01
            P    4   1.00
                  0.337750D+02           0.602940D-02
                  0.767660D+01           0.432280D-01
                  0.223570D+01           0.163010D+00
                  0.764470D+00           0.365040D+00
            P    1   1.00
                  0.262320D+00           0.100000D+01
            P    1   1.00
                  0.846380D-01           0.100000D+01
            D    1   1.00
                  0.140000D+01           0.100000D+01
            D    1   1.00
                  0.450000D+00           0.100000D+01
            F    1   1.00
                  0.950000D+00           0.100000D+01
            ****
            -N     0
            S    7   1.00
                  0.111010D+05           0.545700D-03
                  0.166530D+04           0.421810D-02
                  0.379080D+03           0.216450D-01
                  0.107300D+03           0.837760D-01
                  0.347470D+02           0.238810D+00
                  0.122490D+02           0.439940D+00
                  0.447430D+01           0.363640D+00
            S    7   1.00
                  0.166530D+04          -0.150060D-05
                  0.379080D+03          -0.587530D-04
                  0.107300D+03          -0.774530D-03
                  0.347470D+02          -0.721610D-02
                  0.122490D+02          -0.393380D-01
                  0.447430D+01          -0.906110D-01
                  0.124040D+01           0.198820D+00
            S    1   1.00
                  0.487430D+00           0.100000D+01
            S    1   1.00
                  0.164840D+00           0.100000D+01
            P    4   1.00
                  0.479340D+02           0.617060D-02
                  0.109990D+02           0.442600D-01
                  0.324720D+01           0.168250D+00
                  0.111140D+01           0.368480D+00
            P    1   1.00
                  0.379880D+00           0.100000D+01
            P    1   1.00
                  0.120680D+00           0.100000D+01
            D    1   1.00
                  0.180000D+01           0.100000D+01
            D    1   1.00
                  0.550000D+00           0.100000D+01
            F    1   1.00
                  0.102000D+01           0.100000D+01
            ****
            -O     0
            S    7   1.00
                  0.147820D+05           0.535190D-03
                  0.221730D+04           0.413750D-02
                  0.504740D+03           0.212450D-01
                  0.142870D+03           0.824530D-01
                  0.463000D+02           0.236710D+00
                  0.163370D+02           0.440390D+00
                  0.598280D+01           0.364650D+00
            S    7   1.00
                  0.221730D+04          -0.192750D-05
                  0.504740D+03          -0.579640D-04
                  0.142870D+03          -0.794940D-03
                  0.463000D+02          -0.731250D-02
                  0.163370D+02          -0.405740D-01
                  0.598280D+01          -0.915940D-01
                  0.167180D+01           0.209400D+00
            S    1   1.00
                  0.646620D+00           0.100000D+01
            S    1   1.00
                  0.216690D+00           0.100000D+01
            P    4   1.00
                  0.604240D+02           0.689490D-02
                  0.139350D+02           0.490050D-01
                  0.415310D+01           0.182550D+00
                  0.141580D+01           0.376330D+00
            P    1   1.00
                  0.475490D+00           0.100000D+01
            P    1   1.00
                  0.145290D+00           0.100000D+01
            D    1   1.00
                  0.220000D+01           0.100000D+01
            D    1   1.00
                  0.650000D+00           0.100000D+01
            F    1   1.00
                  0.110000D+01           0.100000D+01
            ****
 Initial command:
 /public3/home/sc51754/softwares/g09e01/l1.exe "./Gau-61493.inp" -scrdir="./"
 Entering Link 1 = /public3/home/sc51754/softwares/g09e01/l1.exe PID=     61494.
  
 Copyright (c) 1988,1990,1992,1993,1995,1998,2003,2009,2015,
            Gaussian, Inc.  All Rights Reserved.
  
 This is part of the Gaussian(R) 09 program.  It is based on
 the Gaussian(R) 03 system (copyright 2003, Gaussian, Inc.),
 the Gaussian(R) 98 system (copyright 1998, Gaussian, Inc.),
 the Gaussian(R) 94 system (copyright 1995, Gaussian, Inc.),
 the Gaussian 92(TM) system (copyright 1992, Gaussian, Inc.),
 the Gaussian 90(TM) system (copyright 1990, Gaussian, Inc.),
 the Gaussian 88(TM) system (copyright 1988, Gaussian, Inc.),
 the Gaussian 86(TM) system (copyright 1986, Carnegie Mellon
 University), and the Gaussian 82(TM) system (copyright 1983,
 Carnegie Mellon University). Gaussian is a federally registered
 trademark of Gaussian, Inc.
  
 This software contains proprietary and confidential information,
 including trade secrets, belonging to Gaussian, Inc.
  
 This software is provided under written license and may be
 used, copied, transmitted, or stored only in accord with that
 written license.
  
 The following legend is applicable only to US Government
 contracts under FAR:
  
                    RESTRICTED RIGHTS LEGEND
  
 Use, reproduction and disclosure by the US Government is
 subject to restrictions as set forth in subparagraphs (a)
 and (c) of the Commercial Computer Software - Restricted
 Rights clause in FAR 52.227-19.
  
 Gaussian, Inc.
 340 Quinnipiac St., Bldg. 40, Wallingford CT 06492
  
  
 ---------------------------------------------------------------
 Warning -- This program may not be used in any manner that
 competes with the business of Gaussian, Inc. or will provide
 assistance to any competitor of Gaussian, Inc.  The licensee
 of this program is prohibited from giving any competitor of
 Gaussian, Inc. access to this program.  By using this program,
 the user acknowledges that Gaussian, Inc. is engaged in the
 business of creating and licensing software in the field of
 computational chemistry and represents and warrants to the
 licensee that it is not a competitor of Gaussian, Inc. and that
 it will not use this program in any manner prohibited above.
 ---------------------------------------------------------------
  

 Cite this work as:
 Gaussian 09, Revision E.01,
 M. J. Frisch, G. W. Trucks, H. B. Schlegel, G. E. Scuseria, 
 M. A. Robb, J. R. Cheeseman, G. Scalmani, V. Barone, B. Mennucci, 
 G. A. Petersson, H. Nakatsuji, M. Caricato, X. Li, H. P. Hratchian, 
 A. F. Izmaylov, J. Bloino, G. Zheng, J. L. Sonnenberg, M. Hada, 
 M. Ehara, K. Toyota, R. Fukuda, J. Hasegawa, M. Ishida, T. Nakajima, 
 Y. Honda, O. Kitao, H. Nakai, T. Vreven, J. A. Montgomery, Jr., 
 J. E. Peralta, F. Ogliaro, M. Bearpark, J. J. Heyd, E. Brothers, 
 K. N. Kudin, V. N. Staroverov, T. Keith, R. Kobayashi, J. Normand, 
 K. Raghavachari, A. Rendell, J. C. Burant, S. S. Iyengar, J. Tomasi, 
 M. Cossi, N. Rega, J. M. Millam, M. Klene, J. E. Knox, J. B. Cross, 
 V. Bakken, C. Adamo, J. Jaramillo, R. Gomperts, R. E. Stratmann, 
 O. Yazyev, A. J. Austin, R. Cammi, C. Pomelli, J. W. Ochterski, 
 R. L. Martin, K. Morokuma, V. G. Zakrzewski, G. A. Voth, 
 P. Salvador, J. J. Dannenberg, S. Dapprich, A. D. Daniels, 
 O. Farkas, J. B. Foresman, J. V. Ortiz, J. Cioslowski, 
 and D. J. Fox, Gaussian, Inc., Wallingford CT, 2013.
 
 ******************************************
 Gaussian 09:  EM64L-G09RevE.01 30-Nov-2015
                26-Aug-2021 
 ******************************************
 %nprocshared=64
 Will use up to   64 processors via shared memory.
 %mem=128GB
 %chk=HY_pc-2_B3LYP_OPT_FREQ.chk
 --------------------
 # opt freq b3lyp/gen
 --------------------
 1/14=-1,18=20,19=15,26=3,38=1/1,3;
 2/9=110,12=2,17=6,18=5,40=1/2;
 3/5=7,11=2,16=1,25=1,30=1,71=1,74=-5/1,2,3;
 4//1;
 5/5=2,38=5/2;
 6/7=2,8=2,9=2,10=2,28=1/1;
 7//1,2,3,16;
 1/14=-1,18=20,19=15,26=3/3(2);
 2/9=110/2;
 99//99;
 2/9=110/2;
 3/5=7,6=1,11=2,16=1,25=1,30=1,71=1,74=-5,82=7/1,2,3;
 4/5=5,16=3,69=1/1;
 5/5=2,38=5/2;
 7//1,2,3,16;
 1/14=-1,18=20,19=15,26=3/3(-5);
 2/9=110/2;
 6/7=2,8=2,9=2,10=2,19=2,28=1/1;
 99/9=1/99;
 ----------------------
 HY_pc-2_B3LYP_OPT_FREQ
 ----------------------
 Symbolic Z-matrix:
 Charge =  0 Multiplicity = 1
 O                     1.95     -0.746     0. 
 N                    -0.398    -1.        0. 
 C                     0.627    -0.202     0. 
 C                     0.428     1.325     0. 
 C                    -1.779    -0.48      0. 
 C                    -0.824     1.828     0. 
 C                    -2.011     0.856     0. 
 H                     1.902    -1.705     0. 
 H                     1.274     1.98      0. 
 H                    -2.604    -1.162     0. 
 H                    -0.986     2.885     0. 
 H                    -3.014     1.229     0. 
 

 GradGradGradGradGradGradGradGradGradGradGradGradGradGradGradGradGradGrad
 Berny optimization.
 Initialization pass.
                           ----------------------------
                           !    Initial Parameters    !
                           ! (Angstroms and Degrees)  !
 --------------------------                            --------------------------
 ! Name  Definition              Value          Derivative Info.                !
 --------------------------------------------------------------------------------
 ! R1    R(1,3)                  1.4305         estimate D2E/DX2                !
 ! R2    R(1,8)                  0.9602         estimate D2E/DX2                !
 ! R3    R(2,3)                  1.299          estimate D2E/DX2                !
 ! R4    R(2,5)                  1.4757         estimate D2E/DX2                !
 ! R5    R(3,4)                  1.5399         estimate D2E/DX2                !
 ! R6    R(4,6)                  1.3493         estimate D2E/DX2                !
 ! R7    R(4,9)                  1.0699         estimate D2E/DX2                !
 ! R8    R(5,7)                  1.356          estimate D2E/DX2                !
 ! R9    R(5,10)                 1.0704         estimate D2E/DX2                !
 ! R10   R(6,7)                  1.5342         estimate D2E/DX2                !
 ! R11   R(6,11)                 1.0693         estimate D2E/DX2                !
 ! R12   R(7,12)                 1.0701         estimate D2E/DX2                !
 ! A1    A(3,1,8)              109.4864         estimate D2E/DX2                !
 ! A2    A(3,2,5)              121.4646         estimate D2E/DX2                !
 ! A3    A(1,3,2)              119.7461         estimate D2E/DX2                !
 ! A4    A(1,3,4)              119.7768         estimate D2E/DX2                !
 ! A5    A(2,3,4)              120.4771         estimate D2E/DX2                !
 ! A6    A(3,4,6)              119.3131         estimate D2E/DX2                !
 ! A7    A(3,4,9)              120.3232         estimate D2E/DX2                !
 ! A8    A(6,4,9)              120.3637         estimate D2E/DX2                !
 ! A9    A(2,5,7)              120.4846         estimate D2E/DX2                !
 ! A10   A(2,5,10)             119.7873         estimate D2E/DX2                !
 ! A11   A(7,5,10)             119.7281         estimate D2E/DX2                !
 ! A12   A(4,6,7)              118.7988         estimate D2E/DX2                !
 ! A13   A(4,6,11)             120.6017         estimate D2E/DX2                !
 ! A14   A(7,6,11)             120.5995         estimate D2E/DX2                !
 ! A15   A(5,7,6)              119.4617         estimate D2E/DX2                !
 ! A16   A(5,7,12)             120.2507         estimate D2E/DX2                !
 ! A17   A(6,7,12)             120.2876         estimate D2E/DX2                !
 ! D1    D(8,1,3,2)              0.0            estimate D2E/DX2                !
 ! D2    D(8,1,3,4)            180.0            estimate D2E/DX2                !
 ! D3    D(5,2,3,1)            180.0            estimate D2E/DX2                !
 ! D4    D(5,2,3,4)              0.0            estimate D2E/DX2                !
 ! D5    D(3,2,5,7)              0.0            estimate D2E/DX2                !
 ! D6    D(3,2,5,10)           180.0            estimate D2E/DX2                !
 ! D7    D(1,3,4,6)            180.0            estimate D2E/DX2                !
 ! D8    D(1,3,4,9)              0.0            estimate D2E/DX2                !
 ! D9    D(2,3,4,6)              0.0            estimate D2E/DX2                !
 ! D10   D(2,3,4,9)            180.0            estimate D2E/DX2                !
 ! D11   D(3,4,6,7)              0.0            estimate D2E/DX2                !
 ! D12   D(3,4,6,11)           180.0            estimate D2E/DX2                !
 ! D13   D(9,4,6,7)            180.0            estimate D2E/DX2                !
 ! D14   D(9,4,6,11)             0.0            estimate D2E/DX2                !
 ! D15   D(2,5,7,6)              0.0            estimate D2E/DX2                !
 ! D16   D(2,5,7,12)           180.0            estimate D2E/DX2                !
 ! D17   D(10,5,7,6)           180.0            estimate D2E/DX2                !
 ! D18   D(10,5,7,12)            0.0            estimate D2E/DX2                !
 ! D19   D(4,6,7,5)              0.0            estimate D2E/DX2                !
 ! D20   D(4,6,7,12)           180.0            estimate D2E/DX2                !
 ! D21   D(11,6,7,5)           180.0            estimate D2E/DX2                !
 ! D22   D(11,6,7,12)            0.0            estimate D2E/DX2                !
 --------------------------------------------------------------------------------
 Trust Radius=3.00D-01 FncErr=1.00D-07 GrdErr=1.00D-06
 Number of steps in this run=     61 maximum allowed number of steps=    100.
 GradGradGradGradGradGradGradGradGradGradGradGradGradGradGradGradGradGrad

                          Input orientation:                          
 ---------------------------------------------------------------------
 Center     Atomic      Atomic             Coordinates (Angstroms)
 Number     Number       Type             X           Y           Z
 ---------------------------------------------------------------------
      1          8           0        1.950000   -0.746000    0.000000
      2          7           0       -0.398000   -1.000000    0.000000
      3          6           0        0.627000   -0.202000    0.000000
      4          6           0        0.428000    1.325000    0.000000
      5          6           0       -1.779000   -0.480000    0.000000
      6          6           0       -0.824000    1.828000    0.000000
      7          6           0       -2.011000    0.856000    0.000000
      8          1           0        1.902000   -1.705000    0.000000
      9          1           0        1.274000    1.980000    0.000000
     10          1           0       -2.604000   -1.162000    0.000000
     11          1           0       -0.986000    2.885000    0.000000
     12          1           0       -3.014000    1.229000    0.000000
 ---------------------------------------------------------------------
                    Distance matrix (angstroms):
                    1          2          3          4          5
     1  O    0.000000
     2  N    2.361699   0.000000
     3  C    1.430477   1.299011   0.000000
     4  C    2.570122   2.467367   1.539912   0.000000
     5  C    3.738475   1.475656   2.422007   2.851118   0.000000
     6  C    3.784251   2.859906   2.495256   1.349264   2.497777
     7  C    4.272695   2.458964   2.842254   2.483683   1.355994
     8  H    0.960200   2.405624   1.970947   3.369507   3.879483
     9  H    2.808568   3.417014   2.275903   1.069926   3.920766
    10  H    4.572961   2.211940   3.370602   3.921504   1.070397
    11  H    4.669503   3.929245   3.483007   2.105468   3.457177
    12  H    5.342464   3.436844   3.912115   3.443338   2.108532
                    6          7          8          9         10
     6  C    0.000000
     7  C    1.534195   0.000000
     8  H    4.462417   4.676568   0.000000
     9  H    2.103499   3.471974   3.738129   0.000000
    10  H    3.479727   2.103324   4.538599   4.991097   0.000000
    11  H    1.069342   2.273206   5.422974   2.434466   4.358455
    12  H    2.270441   1.070111   5.724981   4.353268   2.425898
                   11         12
    11  H    0.000000
    12  H    2.618228   0.000000
 Stoichiometry    C5H5NO
 Framework group  CS[SG(C5H5NO)]
 Deg. of freedom    21
 Full point group                 CS      NOp   2
 Largest Abelian subgroup         CS      NOp   2
 Largest concise Abelian subgroup C1      NOp   1
                         Standard orientation:                         
 ---------------------------------------------------------------------
 Center     Atomic      Atomic             Coordinates (Angstroms)
 Number     Number       Type             X           Y           Z
 ---------------------------------------------------------------------
      1          8           0        0.069381    2.385746    0.000000
      2          7           0       -1.157776    0.367898    0.000000
      3          6           0        0.000000    0.956952    0.000000
      4          6           0        1.297928    0.128270    0.000000
      5          6           0       -1.273517   -1.103212    0.000000
      6          6           0        1.221582   -1.218833    0.000000
      7          6           0       -0.162523   -1.880652    0.000000
      8          1           0       -0.819219    2.749579    0.000000
      9          1           0        2.250219    0.616001    0.000000
     10          1           0       -2.241334   -1.560464    0.000000
     11          1           0        2.109717   -1.814407    0.000000
     12          1           0       -0.250811   -2.947115    0.000000
 ---------------------------------------------------------------------
 Rotational constants (GHZ):      5.4860096      2.5088307      1.7215440
 General basis read from cards:  (5D, 7F)
 There are   223 symmetry adapted cartesian basis functions of A'  symmetry.
 There are    97 symmetry adapted cartesian basis functions of A"  symmetry.
 There are   190 symmetry adapted basis functions of A'  symmetry.
 There are    90 symmetry adapted basis functions of A"  symmetry.
   280 basis functions,   475 primitive gaussians,   320 cartesian basis functions
    25 alpha electrons       25 beta electrons
       nuclear repulsion energy       265.8673490964 Hartrees.
 NAtoms=   12 NActive=   12 NUniq=   12 SFac= 1.00D+00 NAtFMM=   60 NAOKFM=F Big=F
 Integral buffers will be    131072 words long.
 Raffenetti 2 integral format.
 Two-electron integral symmetry is turned on.
 One-electron integrals computed using PRISM.
 NBasis=   280 RedAO= T EigKep=  2.73D-04  NBF=   190    90
 NBsUse=   280 1.00D-06 EigRej= -1.00D+00 NBFU=   190    90
 ExpMin= 7.41D-02 ExpMax= 1.48D+04 ExpMxC= 5.05D+02 IAcc=2 IRadAn=         4 AccDes= 0.00D+00
 Harris functional with IExCor=  402 and IRadAn=       4 diagonalized for initial guess.
 HarFok:  IExCor=  402 AccDes= 0.00D+00 IRadAn=         4 IDoV= 1 UseB2=F ITyADJ=14
 ICtDFT=  3500011 ScaDFX=  1.000000  1.000000  1.000000  1.000000
 FoFCou: FMM=F IPFlag=           0 FMFlag=      100000 FMFlg1=           0
         NFxFlg=           0 DoJE=T BraDBF=F KetDBF=T FulRan=T
         wScrn=  0.000000 ICntrl=     500 IOpCl=  0 I1Cent=   200000004 NGrid=           0
         NMat0=    1 NMatS0=      1 NMatT0=    0 NMatD0=    1 NMtDS0=    0 NMtDT0=    0
 Petite list used in FoFCou.
 Initial guess orbital symmetries:
       Occupied  (A') (A') (A') (A') (A') (A') (A') (A') (A') (A')
                 (A') (A') (A') (A') (A') (A') (A') (A') (A') (A")
                 (A') (A") (A") (A') (A")
       Virtual   (A") (A") (A') (A') (A") (A') (A') (A') (A') (A')
                 (A') (A') (A") (A') (A') (A') (A") (A") (A') (A')
                 (A') (A') (A") (A") (A') (A') (A') (A') (A') (A')
                 (A') (A') (A") (A') (A") (A') (A') (A') (A') (A')
                 (A') (A') (A') (A") (A') (A') (A') (A") (A') (A")
                 (A") (A") (A') (A') (A") (A') (A') (A") (A') (A')
                 (A') (A") (A') (A') (A") (A') (A") (A') (A') (A')
                 (A") (A") (A") (A') (A") (A') (A') (A') (A") (A')
                 (A') (A") (A') (A") (A") (A') (A') (A") (A') (A")
                 (A') (A') (A') (A') (A") (A') (A') (A") (A') (A')
                 (A') (A') (A") (A') (A') (A') (A") (A') (A') (A')
                 (A') (A') (A") (A') (A') (A") (A') (A') (A') (A')
                 (A") (A') (A") (A') (A') (A") (A") (A') (A") (A')
                 (A") (A") (A') (A') (A") (A') (A") (A') (A') (A')
                 (A') (A') (A') (A") (A') (A") (A") (A') (A') (A')
                 (A") (A') (A') (A") (A") (A') (A") (A') (A') (A")
                 (A') (A") (A') (A') (A") (A') (A") (A') (A") (A')
                 (A') (A') (A") (A") (A') (A') (A') (A") (A") (A")
                 (A") (A') (A") (A') (A') (A") (A") (A') (A') (A")
                 (A") (A") (A') (A') (A") (A') (A") (A") (A') (A')
                 (A') (A") (A') (A") (A') (A') (A') (A") (A') (A')
                 (A") (A') (A') (A') (A") (A") (A') (A') (A") (A')
                 (A") (A') (A') (A') (A") (A") (A') (A') (A') (A')
                 (A") (A') (A') (A') (A') (A") (A') (A') (A") (A')
                 (A') (A') (A") (A') (A') (A') (A') (A') (A') (A')
                 (A') (A') (A') (A') (A')
 The electronic state of the initial guess is 1-A'.
 Keep R1 ints in memory in symmetry-blocked form, NReq=1167802198.
 Requested convergence on RMS density matrix=1.00D-08 within 128 cycles.
 Requested convergence on MAX density matrix=1.00D-06.
 Requested convergence on             energy=1.00D-06.
 No special actions if energy rises.
 Integral accuracy reduced to 1.0D-05 until final iterations.
 Initial convergence to 1.0D-05 achieved.  Increase integral accuracy.
 SCF Done:  E(RB3LYP) =  -323.622060627     A.U. after   14 cycles
            NFock= 14  Conv=0.37D-08     -V/T= 2.0062

 **********************************************************************

            Population analysis using the SCF density.

 **********************************************************************

 Orbital symmetries:
       Occupied  (A') (A') (A') (A') (A') (A') (A') (A') (A') (A')
                 (A') (A') (A') (A') (A') (A') (A') (A') (A") (A')
                 (A') (A") (A") (A') (A")
       Virtual   (A") (A") (A') (A') (A') (A') (A') (A") (A') (A')
                 (A') (A") (A') (A') (A") (A") (A') (A') (A') (A')
                 (A') (A") (A") (A') (A') (A') (A') (A') (A') (A')
                 (A') (A") (A') (A') (A") (A') (A') (A') (A') (A')
                 (A') (A') (A') (A") (A') (A') (A') (A") (A") (A')
                 (A") (A") (A') (A') (A") (A') (A') (A") (A') (A')
                 (A') (A") (A') (A') (A") (A') (A") (A') (A') (A')
                 (A") (A") (A') (A") (A") (A') (A') (A') (A") (A')
                 (A') (A") (A') (A") (A') (A") (A') (A") (A') (A")
                 (A') (A') (A') (A') (A") (A') (A') (A") (A') (A')
                 (A') (A') (A") (A') (A') (A') (A") (A') (A') (A')
                 (A') (A') (A") (A') (A') (A') (A") (A') (A') (A')
                 (A") (A') (A") (A') (A') (A") (A") (A') (A") (A")
                 (A') (A") (A') (A') (A") (A') (A") (A') (A') (A')
                 (A') (A') (A") (A') (A") (A') (A") (A') (A') (A')
                 (A") (A') (A') (A") (A') (A") (A") (A') (A") (A')
                 (A") (A') (A') (A') (A") (A') (A") (A') (A') (A")
                 (A') (A') (A") (A") (A') (A') (A') (A") (A") (A")
                 (A') (A") (A') (A") (A") (A') (A") (A') (A") (A')
                 (A") (A") (A') (A") (A') (A') (A") (A') (A") (A')
                 (A') (A") (A') (A") (A') (A') (A") (A') (A') (A')
                 (A") (A') (A') (A') (A") (A") (A') (A') (A") (A')
                 (A") (A') (A') (A') (A") (A") (A') (A') (A') (A")
                 (A') (A') (A') (A') (A') (A") (A') (A') (A") (A')
                 (A') (A') (A") (A') (A') (A') (A') (A') (A') (A')
                 (A') (A') (A') (A') (A')
 The electronic state is 1-A'.
 Alpha  occ. eigenvalues --  -19.16390 -14.32405 -10.29435 -10.22673 -10.21119
 Alpha  occ. eigenvalues --  -10.20596 -10.19810  -1.05648  -0.92111  -0.80433
 Alpha  occ. eigenvalues --   -0.76412  -0.64128  -0.62739  -0.55074  -0.52093
 Alpha  occ. eigenvalues --   -0.48717  -0.45516  -0.42898  -0.42392  -0.40821
 Alpha  occ. eigenvalues --   -0.37133  -0.35158  -0.29311  -0.27578  -0.25912
 Alpha virt. eigenvalues --   -0.04428  -0.02527   0.01902   0.02365   0.03996
 Alpha virt. eigenvalues --    0.05917   0.07660   0.10469   0.11716   0.14673
 Alpha virt. eigenvalues --    0.15113   0.15749   0.16746   0.18571   0.19440
 Alpha virt. eigenvalues --    0.20862   0.21076   0.22335   0.23253   0.25664
 Alpha virt. eigenvalues --    0.26839   0.26850   0.28615   0.29177   0.30254
 Alpha virt. eigenvalues --    0.32038   0.33474   0.33861   0.36452   0.37327
 Alpha virt. eigenvalues --    0.39197   0.40648   0.40869   0.44811   0.45616
 Alpha virt. eigenvalues --    0.48701   0.50971   0.51135   0.52895   0.54179
 Alpha virt. eigenvalues --    0.56804   0.59981   0.61290   0.64145   0.64216
 Alpha virt. eigenvalues --    0.66862   0.71186   0.75821   0.76916   0.78190
 Alpha virt. eigenvalues --    0.79854   0.83601   0.87539   0.90530   0.90982
 Alpha virt. eigenvalues --    0.93174   0.97094   0.97222   0.98465   1.00760
 Alpha virt. eigenvalues --    1.00957   1.06459   1.06968   1.08539   1.12592
 Alpha virt. eigenvalues --    1.12780   1.15159   1.15641   1.17548   1.19776
 Alpha virt. eigenvalues --    1.22085   1.25021   1.25175   1.25773   1.27375
 Alpha virt. eigenvalues --    1.31110   1.31758   1.38920   1.40594   1.41834
 Alpha virt. eigenvalues --    1.44729   1.47314   1.50625   1.52243   1.52909
 Alpha virt. eigenvalues --    1.53609   1.56884   1.60381   1.63314   1.64281
 Alpha virt. eigenvalues --    1.65521   1.66177   1.68842   1.71832   1.74526
 Alpha virt. eigenvalues --    1.75399   1.76235   1.81128   1.82147   1.82650
 Alpha virt. eigenvalues --    1.87417   1.90761   1.92936   1.93183   1.95611
 Alpha virt. eigenvalues --    2.01011   2.03375   2.07056   2.09442   2.14388
 Alpha virt. eigenvalues --    2.15474   2.18284   2.19004   2.24186   2.26459
 Alpha virt. eigenvalues --    2.33507   2.34512   2.50980   2.57485   2.64241
 Alpha virt. eigenvalues --    2.83634   2.87360   2.93545   2.94458   3.08755
 Alpha virt. eigenvalues --    3.12358   3.15419   3.17426   3.22258   3.25368
 Alpha virt. eigenvalues --    3.26542   3.27361   3.29495   3.34674   3.34862
 Alpha virt. eigenvalues --    3.39844   3.39980   3.44805   3.47187   3.54555
 Alpha virt. eigenvalues --    3.56347   3.58571   3.60052   3.60341   3.63596
 Alpha virt. eigenvalues --    3.63609   3.70824   3.74679   3.76299   3.78572
 Alpha virt. eigenvalues --    3.79362   3.84798   3.87735   3.89880   3.93050
 Alpha virt. eigenvalues --    3.93768   3.97819   4.00838   4.02052   4.02131
 Alpha virt. eigenvalues --    4.05661   4.06062   4.08933   4.11076   4.12817
 Alpha virt. eigenvalues --    4.14481   4.14648   4.17154   4.20635   4.20906
 Alpha virt. eigenvalues --    4.22795   4.23927   4.24098   4.25914   4.26015
 Alpha virt. eigenvalues --    4.30940   4.33034   4.33035   4.36048   4.36425
 Alpha virt. eigenvalues --    4.39568   4.39649   4.40799   4.41451   4.42291
 Alpha virt. eigenvalues --    4.42785   4.48023   4.49651   4.50802   4.53888
 Alpha virt. eigenvalues --    4.54616   4.55802   4.59625   4.62123   4.63086
 Alpha virt. eigenvalues --    4.68699   4.69326   4.72441   4.73249   4.79948
 Alpha virt. eigenvalues --    4.82083   4.85569   4.88862   4.90190   4.93946
 Alpha virt. eigenvalues --    4.95663   4.99582   5.00685   5.09543   5.10718
 Alpha virt. eigenvalues --    5.14198   5.16102   5.22083   5.22640   5.24162
 Alpha virt. eigenvalues --    5.28152   5.29386   5.34811   5.35495   5.35933
 Alpha virt. eigenvalues --    5.37700   5.40605   5.48518   5.50608   5.55571
 Alpha virt. eigenvalues --    5.57379   5.63486   5.67039   5.72812   5.74848
 Alpha virt. eigenvalues --    5.76897   5.88176   5.96078   5.96937   6.00411
 Alpha virt. eigenvalues --    6.07166   6.11846   6.16472   6.23394   6.25302
 Alpha virt. eigenvalues --    6.31388   6.36460   6.43831   6.45849   6.58437
 Alpha virt. eigenvalues --    6.75137   6.92468   7.28310   9.03809  11.81648
 Alpha virt. eigenvalues --   12.54437  15.07481  16.81521  17.62855  21.26123
          Condensed to atoms (all electrons):
               1          2          3          4          5          6
     1  O    7.878586  -0.093200   0.304874  -0.039063   0.002920   0.003976
     2  N   -0.093200   6.618386   0.564727  -0.033887   0.419628  -0.028968
     3  C    0.304874   0.564727   4.471511   0.415053  -0.061487  -0.055151
     4  C   -0.039063  -0.033887   0.415053   4.866527  -0.032727   0.580703
     5  C    0.002920   0.419628  -0.061487  -0.032727   4.661245  -0.065600
     6  C    0.003976  -0.028968  -0.055151   0.580703  -0.065600   4.774073
     7  C   -0.000127  -0.049183  -0.036781  -0.050554   0.552611   0.413493
     8  H    0.341147   0.014089  -0.028166   0.010512   0.000097  -0.001227
     9  H    0.004071   0.005578  -0.029376   0.425916  -0.000853  -0.043166
    10  H   -0.000417  -0.028678   0.001838  -0.003258   0.449068   0.008046
    11  H   -0.000259  -0.001914   0.007588  -0.040978   0.005335   0.440541
    12  H    0.000079   0.007492  -0.000617   0.006226  -0.029963  -0.037613
               7          8          9         10         11         12
     1  O   -0.000127   0.341147   0.004071  -0.000417  -0.000259   0.000079
     2  N   -0.049183   0.014089   0.005578  -0.028678  -0.001914   0.007492
     3  C   -0.036781  -0.028166  -0.029376   0.001838   0.007588  -0.000617
     4  C   -0.050554   0.010512   0.425916  -0.003258  -0.040978   0.006226
     5  C    0.552611   0.000097  -0.000853   0.449068   0.005335  -0.029963
     6  C    0.413493  -0.001227  -0.043166   0.008046   0.440541  -0.037613
     7  C    4.941413   0.000632   0.008173  -0.070353  -0.037303   0.423829
     8  H    0.000632   0.453114  -0.000835  -0.000291   0.000067  -0.000035
     9  H    0.008173  -0.000835   0.580706   0.000154  -0.008086   0.000031
    10  H   -0.070353  -0.000291   0.000154   0.583861  -0.000078  -0.003545
    11  H   -0.037303   0.000067  -0.008086  -0.000078   0.581253  -0.005286
    12  H    0.423829  -0.000035   0.000031  -0.003545  -0.005286   0.590391
 Mulliken charges:
               1
     1  O   -0.402586
     2  N   -0.394069
     3  C    0.445987
     4  C   -0.104470
     5  C    0.099727
     6  C    0.010893
     7  C   -0.095850
     8  H    0.210897
     9  H    0.057688
    10  H    0.063653
    11  H    0.059119
    12  H    0.049010
 Sum of Mulliken charges =  -0.00000
 Mulliken charges with hydrogens summed into heavy atoms:
               1
     1  O   -0.191689
     2  N   -0.394069
     3  C    0.445987
     4  C   -0.046782
     5  C    0.163380
     6  C    0.070012
     7  C   -0.046839
 Electronic spatial extent (au):  <R**2>=            678.7930
 Charge=             -0.0000 electrons
 Dipole moment (field-independent basis, Debye):
    X=              0.5610    Y=             -1.5729    Z=             -0.0000  Tot=              1.6700
 Quadrupole moment (field-independent basis, Debye-Ang):
   XX=            -37.9375   YY=            -36.1974   ZZ=            -43.8935
   XY=             -2.0322   XZ=              0.0000   YZ=             -0.0000
 Traceless Quadrupole moment (field-independent basis, Debye-Ang):
   XX=              1.4053   YY=              3.1454   ZZ=             -4.5507
   XY=             -2.0322   XZ=              0.0000   YZ=             -0.0000
 Octapole moment (field-independent basis, Debye-Ang**2):
  XXX=              6.7377  YYY=              5.5442  ZZZ=              0.0000  XYY=            -13.1332
  XXY=             -1.9896  XXZ=             -0.0000  XZZ=             -1.0103  YZZ=              5.7647
  YYZ=              0.0000  XYZ=              0.0000
 Hexadecapole moment (field-independent basis, Debye-Ang**3):
 XXXX=           -281.6665 YYYY=           -493.2331 ZZZZ=            -49.5104 XXXY=              7.3845
 XXXZ=              0.0000 YYYX=            -40.5434 YYYZ=             -0.0000 ZZZX=              0.0000
 ZZZY=             -0.0000 XXYY=           -121.0700 XXZZ=            -64.1772 YYZZ=           -107.9478
 XXYZ=             -0.0000 YYXZ=              0.0000 ZZXY=             -0.9230
 N-N= 2.658673490964D+02 E-N=-1.286277080015D+03  KE= 3.216428782974D+02
 Symmetry A'   KE= 3.099492517686D+02
 Symmetry A"   KE= 1.169362652884D+01
 Calling FoFJK, ICntrl=      2127 FMM=F ISym2X=1 I1Cent= 0 IOpClX= 0 NMat=1 NMatS=1 NMatT=0.
 ***** Axes restored to original set *****
 -------------------------------------------------------------------
 Center     Atomic                   Forces (Hartrees/Bohr)
 Number     Number              X              Y              Z
 -------------------------------------------------------------------
      1        8          -0.040384676    0.036190757   -0.000000000
      2        7          -0.039526782    0.007090740    0.000000000
      3        6          -0.006621076    0.028462873   -0.000000000
      4        6           0.016907674   -0.054689869    0.000000000
      5        6           0.070401520    0.010971332   -0.000000000
      6        6          -0.044392544   -0.054497821    0.000000000
      7        6           0.049665301    0.030290180   -0.000000000
      8        1          -0.008827541   -0.004003249    0.000000000
      9        1           0.008656966    0.001175022   -0.000000000
     10        1           0.003364454   -0.012777576    0.000000000
     11        1          -0.003443895    0.006840653   -0.000000000
     12        1          -0.005799401    0.004946959   -0.000000000
 -------------------------------------------------------------------
 Cartesian Forces:  Max     0.070401520 RMS     0.025026306

 GradGradGradGradGradGradGradGradGradGradGradGradGradGradGradGradGradGrad
 Berny optimization.
 FormGI is forming the generalized inverse of G from B-inverse, IUseBI=4.
 Internal  Forces:  Max     0.067453309 RMS     0.019248732
 Search for a local minimum.
 Step number   1 out of a maximum of   61
 All quantities printed in internal units (Hartrees-Bohrs-Radians)
 Mixed Optimization -- RFO/linear search
 Second derivative matrix not updated -- first step.
 ITU=  0
     Eigenvalues ---    0.00849   0.00934   0.01289   0.01316   0.01502
     Eigenvalues ---    0.01622   0.01750   0.02177   0.02343   0.16000
     Eigenvalues ---    0.16000   0.16000   0.16000   0.16000   0.22000
     Eigenvalues ---    0.22368   0.24486   0.25000   0.28112   0.28766
     Eigenvalues ---    0.34368   0.37180   0.37216   0.37239   0.37313
     Eigenvalues ---    0.40921   0.51562   0.53878   0.55430   0.65363
 RFO step:  Lambda=-5.16759522D-02 EMin= 8.49304147D-03
 Linear search not attempted -- first point.
 Maximum step size (   0.300) exceeded in Quadratic search.
    -- Step size scaled by   0.782
 Iteration  1 RMS(Cart)=  0.06754928 RMS(Int)=  0.00068561
 Iteration  2 RMS(Cart)=  0.00077806 RMS(Int)=  0.00011200
 Iteration  3 RMS(Cart)=  0.00000074 RMS(Int)=  0.00011200
 ClnCor:  largest displacement from symmetrization is 8.99D-09 for atom    11.
 Variable       Old X    -DE/DX   Delta X   Delta X   Delta X     New X
                                 (Linear)    (Quad)   (Total)
    R1        2.70321  -0.05775   0.00000  -0.09803  -0.09803   2.60518
    R2        1.81452   0.00444   0.00000   0.00573   0.00573   1.82025
    R3        2.45477  -0.02322   0.00000  -0.02596  -0.02583   2.42894
    R4        2.78859  -0.06745   0.00000  -0.13340  -0.13323   2.65536
    R5        2.91001  -0.06313   0.00000  -0.14596  -0.14600   2.76401
    R6        2.54974  -0.00301   0.00000  -0.00240  -0.00258   2.54716
    R7        2.02187   0.00756   0.00000   0.01395   0.01395   2.03582
    R8        2.56246  -0.00482   0.00000  -0.00681  -0.00676   2.55570
    R9        2.02276   0.00555   0.00000   0.01025   0.01025   2.03301
   R10        2.89921  -0.06335   0.00000  -0.14289  -0.14302   2.75619
   R11        2.02076   0.00728   0.00000   0.01341   0.01341   2.03418
   R12        2.02222   0.00716   0.00000   0.01322   0.01322   2.03543
    A1        1.91090  -0.01563   0.00000  -0.05778  -0.05778   1.85312
    A2        2.11996  -0.01864   0.00000  -0.05574  -0.05531   2.06465
    A3        2.08996  -0.00424   0.00000  -0.01026  -0.01030   2.07967
    A4        2.09050  -0.01849   0.00000  -0.04722  -0.04726   2.04324
    A5        2.10272   0.02273   0.00000   0.05748   0.05756   2.16028
    A6        2.08241  -0.01057   0.00000  -0.02544  -0.02570   2.05671
    A7        2.10004   0.00087   0.00000  -0.00361  -0.00348   2.09656
    A8        2.10074   0.00970   0.00000   0.02905   0.02917   2.12992
    A9        2.10285   0.01184   0.00000   0.03036   0.03056   2.13341
   A10        2.09068  -0.01805   0.00000  -0.06001  -0.06011   2.03058
   A11        2.08965   0.00621   0.00000   0.02965   0.02955   2.11920
   A12        2.07343  -0.00162   0.00000   0.00206   0.00172   2.07515
   A13        2.10490   0.00320   0.00000   0.00782   0.00799   2.11288
   A14        2.10486  -0.00158   0.00000  -0.00987  -0.00970   2.09515
   A15        2.08500  -0.00374   0.00000  -0.00872  -0.00882   2.07618
   A16        2.09877   0.00451   0.00000   0.01413   0.01418   2.11295
   A17        2.09941  -0.00078   0.00000  -0.00541  -0.00536   2.09406
    D1       -0.00000  -0.00000   0.00000  -0.00000   0.00000   0.00000
    D2        3.14159  -0.00000   0.00000  -0.00000   0.00000   3.14159
    D3        3.14159  -0.00000   0.00000  -0.00000   0.00000   3.14159
    D4        0.00000  -0.00000   0.00000  -0.00000  -0.00000   0.00000
    D5       -0.00000  -0.00000   0.00000  -0.00000   0.00000   0.00000
    D6        3.14159  -0.00000   0.00000  -0.00000   0.00000   3.14159
    D7        3.14159   0.00000   0.00000   0.00000   0.00000   3.14159
    D8        0.00000   0.00000   0.00000   0.00000   0.00000   0.00000
    D9       -0.00000   0.00000   0.00000   0.00000   0.00000   0.00000
   D10        3.14159   0.00000   0.00000  -0.00000   0.00000   3.14159
   D11        0.00000  -0.00000   0.00000  -0.00000  -0.00000   0.00000
   D12        3.14159  -0.00000   0.00000  -0.00000   0.00000   3.14159
   D13        3.14159  -0.00000   0.00000   0.00000   0.00000   3.14159
   D14       -0.00000  -0.00000   0.00000   0.00000   0.00000   0.00000
   D15        0.00000   0.00000   0.00000   0.00000  -0.00000   0.00000
   D16        3.14159   0.00000   0.00000   0.00000   0.00000   3.14159
   D17        3.14159   0.00000   0.00000   0.00000   0.00000   3.14159
   D18       -0.00000   0.00000   0.00000   0.00000   0.00000   0.00000
   D19       -0.00000  -0.00000   0.00000  -0.00000   0.00000   0.00000
   D20        3.14159   0.00000   0.00000   0.00000   0.00000   3.14159
   D21        3.14159  -0.00000   0.00000  -0.00000   0.00000   3.14159
   D22        0.00000   0.00000   0.00000   0.00000  -0.00000   0.00000
         Item               Value     Threshold  Converged?
 Maximum Force            0.067453     0.000450     NO 
 RMS     Force            0.019249     0.000300     NO 
 Maximum Displacement     0.227617     0.001800     NO 
 RMS     Displacement     0.067787     0.001200     NO 
 Predicted change in Energy=-2.694194D-02
 GradGradGradGradGradGradGradGradGradGradGradGradGradGradGradGradGradGrad

                          Input orientation:                          
 ---------------------------------------------------------------------
 Center     Atomic      Atomic             Coordinates (Angstroms)
 Number     Number       Type             X           Y           Z
 ---------------------------------------------------------------------
      1          8           0        1.864119   -0.669469   -0.000000
      2          7           0       -0.410325   -0.995225    0.000000
      3          6           0        0.577893   -0.173323   -0.000000
      4          6           0        0.425627    1.281382   -0.000000
      5          6           0       -1.713585   -0.469890    0.000000
      6          6           0       -0.825306    1.783375   -0.000000
      7          6           0       -1.954968    0.860812    0.000000
      8          1           0        1.781550   -1.629157    0.000000
      9          1           0        1.296089    1.916120   -0.000000
     10          1           0       -2.516803   -1.185592    0.000000
     11          1           0       -0.997297    2.845986   -0.000000
     12          1           0       -2.961995    1.242980    0.000000
 ---------------------------------------------------------------------
                    Distance matrix (angstroms):
                    1          2          3          4          5
     1  O    0.000000
     2  N    2.297654   0.000000
     3  C    1.378601   1.285340   0.000000
     4  C    2.423857   2.425233   1.462652   0.000000
     5  C    3.583267   1.405156   2.310589   2.764630   0.000000
     6  C    3.639980   2.809417   2.407828   1.347899   2.422032
     7  C    4.114267   2.414704   2.735840   2.417460   1.352417
     8  H    0.963233   2.281707   1.888980   3.210882   3.682373
     9  H    2.647250   3.374578   2.209429   1.077310   3.840727
    10  H    4.411220   2.115062   3.256046   3.839773   1.075820
    11  H    4.532784   3.885799   3.405503   2.114876   3.392359
    12  H    5.191227   3.394198   3.812705   3.387839   2.119540
                    6          7          8          9         10
     6  C    0.000000
     7  C    1.458513   0.000000
     8  H    4.294307   4.490158   0.000000
     9  H    2.125545   3.418048   3.578360   0.000000
    10  H    3.417006   2.122129   4.321179   4.915157   0.000000
    11  H    1.076440   2.204098   5.267722   2.474727   4.308424
    12  H    2.203966   1.077105   5.545303   4.310962   2.469040
                   11         12
    11  H    0.000000
    12  H    2.535678   0.000000
 Stoichiometry    C5H5NO
 Framework group  CS[SG(C5H5NO)]
 Deg. of freedom    21
 Full point group                 CS      NOp   2
 Largest Abelian subgroup         CS      NOp   2
 Largest concise Abelian subgroup C1      NOp   1
                         Standard orientation:                         
 ---------------------------------------------------------------------
 Center     Atomic      Atomic             Coordinates (Angstroms)
 Number     Number       Type             X           Y           Z
 ---------------------------------------------------------------------
      1          8           0        0.094442    2.284584    0.000000
      2          7           0       -1.162743    0.361383    0.000000
      3          6           0        0.000000    0.909222    0.000000
      4          6           0        1.253775    0.155963    0.000000
      5          6           0       -1.237940   -1.041760    0.000000
      6          6           0        1.179558   -1.189891    0.000000
      7          6           0       -0.134224   -1.823324    0.000000
      8          1           0       -0.810100    2.615675    0.000000
      9          1           0        2.197113    0.676260    0.000000
     10          1           0       -2.226203   -1.466879    0.000000
     11          1           0        2.069695   -1.795184    0.000000
     12          1           0       -0.213856   -2.897481    0.000000
 ---------------------------------------------------------------------
 Rotational constants (GHZ):      5.7362411      2.7084826      1.8397889
 Basis read from rwf:  (5D, 7F)
 There are   223 symmetry adapted cartesian basis functions of A'  symmetry.
 There are    97 symmetry adapted cartesian basis functions of A"  symmetry.
 There are   190 symmetry adapted basis functions of A'  symmetry.
 There are    90 symmetry adapted basis functions of A"  symmetry.
   280 basis functions,   475 primitive gaussians,   320 cartesian basis functions
    25 alpha electrons       25 beta electrons
       nuclear repulsion energy       273.3759608028 Hartrees.
 NAtoms=   12 NActive=   12 NUniq=   12 SFac= 1.00D+00 NAtFMM=   60 NAOKFM=F Big=F
 Integral buffers will be    131072 words long.
 Raffenetti 2 integral format.
 Two-electron integral symmetry is turned on.
 One-electron integrals computed using PRISM.
 NBasis=   280 RedAO= T EigKep=  2.35D-04  NBF=   190    90
 NBsUse=   280 1.00D-06 EigRej= -1.00D+00 NBFU=   190    90
 Initial guess from the checkpoint file:  "HY_pc-2_B3LYP_OPT_FREQ.chk"
 B after Tr=     0.000000    0.000000   -0.000000
         Rot=    1.000000   -0.000000   -0.000000    0.000480 Ang=   0.06 deg.
 Initial guess orbital symmetries:
       Occupied  (A') (A') (A') (A') (A') (A') (A') (A') (A') (A')
                 (A') (A') (A') (A') (A') (A') (A') (A') (A") (A')
                 (A') (A") (A") (A') (A")
       Virtual   (A') (A') (A') (A') (A') (A') (A') (A') (A') (A')
                 (A') (A') (A') (A') (A') (A') (A') (A') (A') (A')
                 (A') (A') (A') (A') (A') (A') (A') (A') (A') (A')
                 (A') (A') (A') (A') (A') (A') (A') (A') (A') (A')
                 (A') (A') (A') (A') (A') (A') (A') (A') (A') (A')
                 (A') (A') (A') (A') (A') (A') (A') (A') (A') (A')
                 (A') (A') (A') (A') (A') (A') (A') (A') (A') (A')
                 (A') (A') (A') (A') (A') (A') (A') (A') (A') (A')
                 (A') (A') (A') (A') (A') (A') (A') (A') (A') (A')
                 (A') (A') (A') (A') (A') (A') (A') (A') (A') (A')
                 (A') (A') (A') (A') (A') (A') (A') (A') (A') (A')
                 (A') (A') (A') (A') (A') (A') (A') (A') (A') (A')
                 (A') (A') (A') (A') (A') (A') (A') (A') (A') (A')
                 (A') (A') (A') (A') (A') (A') (A') (A') (A') (A')
                 (A') (A') (A') (A') (A') (A') (A') (A') (A') (A')
                 (A') (A') (A') (A') (A') (A') (A') (A') (A') (A')
                 (A') (A') (A') (A') (A') (A') (A') (A') (A') (A")
                 (A") (A") (A") (A") (A") (A") (A") (A") (A") (A")
                 (A") (A") (A") (A") (A") (A") (A") (A") (A") (A")
                 (A") (A") (A") (A") (A") (A") (A") (A") (A") (A")
                 (A") (A") (A") (A") (A") (A") (A") (A") (A") (A")
                 (A") (A") (A") (A") (A") (A") (A") (A") (A") (A")
                 (A") (A") (A") (A") (A") (A") (A") (A") (A") (A")
                 (A") (A") (A") (A") (A") (A") (A") (A") (A") (A")
                 (A") (A") (A") (A") (A") (A") (A") (A") (A") (A")
                 (A") (A") (A") (A") (A")
 ExpMin= 7.41D-02 ExpMax= 1.48D+04 ExpMxC= 5.05D+02 IAcc=2 IRadAn=         4 AccDes= 0.00D+00
 Harris functional with IExCor=  402 and IRadAn=       4 diagonalized for initial guess.
 HarFok:  IExCor=  402 AccDes= 0.00D+00 IRadAn=         4 IDoV= 1 UseB2=F ITyADJ=14
 ICtDFT=  3500011 ScaDFX=  1.000000  1.000000  1.000000  1.000000
 FoFCou: FMM=F IPFlag=           0 FMFlag=      100000 FMFlg1=           0
         NFxFlg=           0 DoJE=T BraDBF=F KetDBF=T FulRan=T
         wScrn=  0.000000 ICntrl=     500 IOpCl=  0 I1Cent=   200000004 NGrid=           0
         NMat0=    1 NMatS0=      1 NMatT0=    0 NMatD0=    1 NMtDS0=    0 NMtDT0=    0
 Petite list used in FoFCou.
 Keep R1 ints in memory in symmetry-blocked form, NReq=1167802198.
 Requested convergence on RMS density matrix=1.00D-08 within 128 cycles.
 Requested convergence on MAX density matrix=1.00D-06.
 Requested convergence on             energy=1.00D-06.
 No special actions if energy rises.
 Integral accuracy reduced to 1.0D-05 until final iterations.
 Initial convergence to 1.0D-05 achieved.  Increase integral accuracy.
 SCF Done:  E(RB3LYP) =  -323.651241260     A.U. after   13 cycles
            NFock= 13  Conv=0.52D-08     -V/T= 2.0045
 Calling FoFJK, ICntrl=      2127 FMM=F ISym2X=1 I1Cent= 0 IOpClX= 0 NMat=1 NMatS=1 NMatT=0.
 ***** Axes restored to original set *****
 -------------------------------------------------------------------
 Center     Atomic                   Forces (Hartrees/Bohr)
 Number     Number              X              Y              Z
 -------------------------------------------------------------------
      1        8          -0.017119877    0.010447136   -0.000000000
      2        7          -0.041893004   -0.003411383    0.000000000
      3        6           0.018881473    0.034628534   -0.000000000
      4        6           0.017518891   -0.031764892    0.000000000
      5        6           0.037715530   -0.013178036   -0.000000000
      6        6          -0.034654011   -0.021206546    0.000000000
      7        6           0.020355432    0.029225735   -0.000000000
      8        1          -0.000437895   -0.002863845    0.000000000
      9        1           0.002864771   -0.000793378   -0.000000000
     10        1          -0.000108755   -0.004668215    0.000000000
     11        1          -0.001059806    0.002925859   -0.000000000
     12        1          -0.002062750    0.000659030    0.000000000
 -------------------------------------------------------------------
 Cartesian Forces:  Max     0.041893004 RMS     0.016337664

 GradGradGradGradGradGradGradGradGradGradGradGradGradGradGradGradGradGrad
 Berny optimization.
 Using GEDIIS/GDIIS optimizer.
 FormGI is forming the generalized inverse of G from B-inverse, IUseBI=4.
 Internal  Forces:  Max     0.034416673 RMS     0.008904981
 Search for a local minimum.
 Step number   2 out of a maximum of   61
 All quantities printed in internal units (Hartrees-Bohrs-Radians)
 Mixed Optimization -- RFO/linear search
 Update second derivatives using D2CorX and points    1    2
 DE= -2.92D-02 DEPred=-2.69D-02 R= 1.08D+00
 TightC=F SS=  1.41D+00  RLast= 3.00D-01 DXNew= 5.0454D-01 8.9999D-01
 Trust test= 1.08D+00 RLast= 3.00D-01 DXMaxT set to 5.05D-01
 ITU=  1  0
 Use linear search instead of GDIIS.
     Eigenvalues ---    0.00857   0.00942   0.01289   0.01319   0.01518
     Eigenvalues ---    0.01640   0.01784   0.02189   0.02354   0.15855
     Eigenvalues ---    0.16000   0.16000   0.16000   0.16587   0.21388
     Eigenvalues ---    0.22380   0.22612   0.24910   0.25858   0.28242
     Eigenvalues ---    0.32314   0.37165   0.37221   0.37271   0.37308
     Eigenvalues ---    0.40963   0.51465   0.55117   0.55414   0.72667
 RFO step:  Lambda=-5.38411785D-03 EMin= 8.57378775D-03
 Quartic linear search produced a step of  0.51212.
 Iteration  1 RMS(Cart)=  0.03430223 RMS(Int)=  0.00017058
 Iteration  2 RMS(Cart)=  0.00014281 RMS(Int)=  0.00006282
 Iteration  3 RMS(Cart)=  0.00000002 RMS(Int)=  0.00006282
 ClnCor:  largest displacement from symmetrization is 4.55D-13 for atom    11.
 Variable       Old X    -DE/DX   Delta X   Delta X   Delta X     New X
                                 (Linear)    (Quad)   (Total)
    R1        2.60518  -0.01911  -0.05020  -0.00226  -0.05247   2.55271
    R2        1.82025   0.00289   0.00293   0.00413   0.00706   1.82731
    R3        2.42894   0.01358  -0.01323   0.04621   0.03304   2.46198
    R4        2.65536  -0.03442  -0.06823  -0.05192  -0.12004   2.53532
    R5        2.76401  -0.03121  -0.07477  -0.04844  -0.12324   2.64077
    R6        2.54716   0.01337  -0.00132   0.03876   0.03734   2.58449
    R7        2.03582   0.00185   0.00715  -0.00245   0.00470   2.04052
    R8        2.55570   0.01023  -0.00346   0.03170   0.02829   2.58398
    R9        2.03301   0.00319   0.00525   0.00553   0.01078   2.04379
   R10        2.75619  -0.02985  -0.07324  -0.04398  -0.11729   2.63890
   R11        2.03418   0.00306   0.00687   0.00275   0.00962   2.04380
   R12        2.03543   0.00216   0.00677  -0.00066   0.00610   2.04154
    A1        1.85312  -0.00035  -0.02959   0.05231   0.02273   1.87585
    A2        2.06465  -0.00389  -0.02833   0.01880  -0.00929   2.05536
    A3        2.07967  -0.00117  -0.00527   0.00009  -0.00519   2.07447
    A4        2.04324  -0.00280  -0.02420   0.02003  -0.00419   2.03905
    A5        2.16028   0.00397   0.02948  -0.02011   0.00938   2.16966
    A6        2.05671  -0.00353  -0.01316   0.00335  -0.00997   2.04674
    A7        2.09656  -0.00061  -0.00178  -0.00763  -0.00933   2.08723
    A8        2.12992   0.00413   0.01494   0.00428   0.01930   2.14922
    A9        2.13341   0.00414   0.01565  -0.00288   0.01290   2.14631
   A10        2.03058  -0.00554  -0.03078   0.01281  -0.01804   2.01254
   A11        2.11920   0.00140   0.01513  -0.00993   0.00514   2.12434
   A12        2.07515   0.00094   0.00088   0.00740   0.00810   2.08324
   A13        2.11288   0.00012   0.00409  -0.00681  -0.00263   2.11025
   A14        2.09515  -0.00106  -0.00497  -0.00059  -0.00547   2.08969
   A15        2.07618  -0.00164  -0.00452  -0.00656  -0.01111   2.06506
   A16        2.11295   0.00070   0.00726  -0.00718   0.00010   2.11305
   A17        2.09406   0.00094  -0.00274   0.01374   0.01102   2.10507
    D1        0.00000  -0.00000   0.00000   0.00000  -0.00000   0.00000
    D2        3.14159  -0.00000   0.00000   0.00000   0.00000   3.14159
    D3        3.14159   0.00000   0.00000   0.00000   0.00000   3.14159
    D4        0.00000   0.00000   0.00000  -0.00000   0.00000   0.00000
    D5       -0.00000  -0.00000   0.00000   0.00000   0.00000   0.00000
    D6        3.14159  -0.00000   0.00000   0.00000   0.00000   3.14159
    D7        3.14159   0.00000   0.00000  -0.00000   0.00000   3.14159
    D8       -0.00000  -0.00000   0.00000  -0.00000   0.00000   0.00000
    D9        0.00000   0.00000   0.00000  -0.00000  -0.00000   0.00000
   D10        3.14159   0.00000   0.00000  -0.00000   0.00000   3.14159
   D11        0.00000  -0.00000   0.00000   0.00000   0.00000   0.00000
   D12        3.14159  -0.00000   0.00000   0.00000   0.00000   3.14159
   D13        3.14159   0.00000   0.00000   0.00000   0.00000   3.14159
   D14       -0.00000  -0.00000   0.00000   0.00000   0.00000   0.00000
   D15        0.00000   0.00000   0.00000   0.00000  -0.00000   0.00000
   D16        3.14159   0.00000   0.00000   0.00000   0.00000   3.14159
   D17        3.14159  -0.00000   0.00000  -0.00000   0.00000   3.14159
   D18       -0.00000  -0.00000   0.00000  -0.00000   0.00000   0.00000
   D19       -0.00000   0.00000   0.00000  -0.00000   0.00000   0.00000
   D20        3.14159   0.00000   0.00000  -0.00000   0.00000   3.14159
   D21        3.14159   0.00000   0.00000  -0.00000   0.00000   3.14159
   D22        0.00000   0.00000   0.00000  -0.00000   0.00000   0.00000
         Item               Value     Threshold  Converged?
 Maximum Force            0.034417     0.000450     NO 
 RMS     Force            0.008905     0.000300     NO 
 Maximum Displacement     0.090503     0.001800     NO 
 RMS     Displacement     0.034315     0.001200     NO 
 Predicted change in Energy=-8.454365D-03
 GradGradGradGradGradGradGradGradGradGradGradGradGradGradGradGradGradGrad

                          Input orientation:                          
 ---------------------------------------------------------------------
 Center     Atomic      Atomic             Coordinates (Angstroms)
 Number     Number       Type             X           Y           Z
 ---------------------------------------------------------------------
      1          8           0        1.821504   -0.634696   -0.000000
      2          7           0       -0.437475   -0.978133    0.000000
      3          6           0        0.563059   -0.143701   -0.000000
      4          6           0        0.428745    1.247266   -0.000000
      5          6           0       -1.677795   -0.466679    0.000000
      6          6           0       -0.841510    1.754152   -0.000000
      7          6           0       -1.928518    0.877524    0.000000
      8          1           0        1.756820   -1.599501    0.000000
      9          1           0        1.312128    1.868228   -0.000000
     10          1           0       -2.477967   -1.194293    0.000000
     11          1           0       -1.013577    2.821907   -0.000000
     12          1           0       -2.940415    1.255924    0.000000
 ---------------------------------------------------------------------
                    Distance matrix (angstroms):
                    1          2          3          4          5
     1  O    0.000000
     2  N    2.284937   0.000000
     3  C    1.350837   1.302822   0.000000
     4  C    2.341272   2.388040   1.397436   0.000000
     5  C    3.503331   1.341633   2.264010   2.715717   0.000000
     6  C    3.577463   2.761996   2.361072   1.367656   2.373070
     7  C    4.043448   2.380477   2.692741   2.386084   1.367385
     8  H    0.966971   2.280577   1.882663   3.141315   3.616610
     9  H    2.554230   3.341090   2.146849   1.079796   3.793604
    10  H    4.335735   2.051909   3.217387   3.796074   1.081525
    11  H    4.470547   3.843462   3.358662   2.135367   3.354994
    12  H    5.123506   3.354954   3.772702   3.369171   2.135783
                    6          7          8          9         10
     6  C    0.000000
     7  C    1.396446   0.000000
     8  H    4.242441   4.440424   0.000000
     9  H    2.156658   3.388699   3.496125   0.000000
    10  H    3.372138   2.143436   4.254129   4.872766   0.000000
    11  H    1.081531   2.148893   5.217658   2.513645   4.274845
    12  H    2.157228   1.080334   5.497042   4.296398   2.493476
                   11         12
    11  H    0.000000
    12  H    2.482943   0.000000
 Stoichiometry    C5H5NO
 Framework group  CS[SG(C5H5NO)]
 Deg. of freedom    21
 Full point group                 CS      NOp   2
 Largest Abelian subgroup         CS      NOp   2
 Largest concise Abelian subgroup C1      NOp   1
                         Standard orientation:                         
 ---------------------------------------------------------------------
 Center     Atomic      Atomic             Coordinates (Angstroms)
 Number     Number       Type             X           Y           Z
 ---------------------------------------------------------------------
      1          8           0        0.060114    2.240523   -0.000000
      2          7           0       -1.167881    0.313617   -0.000000
      3          6           0       -0.000000    0.891024   -0.000000
      4          6           0        1.217708    0.205448    0.000000
      5          6           0       -1.201952   -1.027583   -0.000000
      6          6           0        1.167349   -1.161281    0.000000
      7          6           0       -0.074106   -1.800697    0.000000
      8          1           0       -0.848376    2.571702   -0.000000
      9          1           0        2.142973    0.762083    0.000000
     10          1           0       -2.191087   -1.464972   -0.000000
     11          1           0        2.074204   -1.750621    0.000000
     12          1           0       -0.137442   -2.879173    0.000000
 ---------------------------------------------------------------------
 Rotational constants (GHZ):      5.9288953      2.8037914      1.9035821
 Basis read from rwf:  (5D, 7F)
 There are   223 symmetry adapted cartesian basis functions of A'  symmetry.
 There are    97 symmetry adapted cartesian basis functions of A"  symmetry.
 There are   190 symmetry adapted basis functions of A'  symmetry.
 There are    90 symmetry adapted basis functions of A"  symmetry.
   280 basis functions,   475 primitive gaussians,   320 cartesian basis functions
    25 alpha electrons       25 beta electrons
       nuclear repulsion energy       277.5050543293 Hartrees.
 NAtoms=   12 NActive=   12 NUniq=   12 SFac= 1.00D+00 NAtFMM=   60 NAOKFM=F Big=F
 Integral buffers will be    131072 words long.
 Raffenetti 2 integral format.
 Two-electron integral symmetry is turned on.
 One-electron integrals computed using PRISM.
 NBasis=   280 RedAO= T EigKep=  2.15D-04  NBF=   190    90
 NBsUse=   280 1.00D-06 EigRej= -1.00D+00 NBFU=   190    90
 Initial guess from the checkpoint file:  "HY_pc-2_B3LYP_OPT_FREQ.chk"
 B after Tr=     0.000000   -0.000000    0.000000
         Rot=    0.999952   -0.000000   -0.000000   -0.009833 Ang=  -1.13 deg.
 Initial guess orbital symmetries:
       Occupied  (A') (A') (A') (A') (A') (A') (A') (A') (A') (A')
                 (A') (A') (A') (A') (A') (A') (A') (A") (A') (A')
                 (A') (A") (A") (A') (A")
       Virtual   (A') (A') (A') (A') (A') (A') (A') (A') (A') (A')
                 (A') (A') (A') (A') (A') (A') (A') (A') (A') (A')
                 (A') (A') (A') (A') (A') (A') (A') (A') (A') (A')
                 (A') (A') (A') (A') (A') (A') (A') (A') (A') (A')
                 (A') (A') (A') (A') (A') (A') (A') (A') (A') (A')
                 (A') (A') (A') (A') (A') (A') (A') (A') (A') (A')
                 (A') (A') (A') (A') (A') (A') (A') (A') (A') (A')
                 (A') (A') (A') (A') (A') (A') (A') (A') (A') (A')
                 (A') (A') (A') (A') (A') (A') (A') (A') (A') (A')
                 (A') (A') (A') (A') (A') (A') (A') (A') (A') (A')
                 (A') (A') (A') (A') (A') (A') (A') (A') (A') (A')
                 (A') (A') (A') (A') (A') (A') (A') (A') (A') (A')
                 (A') (A') (A') (A') (A') (A') (A') (A') (A') (A')
                 (A') (A') (A') (A') (A') (A') (A') (A') (A') (A')
                 (A') (A') (A') (A') (A') (A') (A') (A') (A') (A')
                 (A') (A') (A') (A') (A') (A') (A') (A') (A') (A')
                 (A') (A') (A') (A') (A') (A') (A') (A') (A') (A")
                 (A") (A") (A") (A") (A") (A") (A") (A") (A") (A")
                 (A") (A") (A") (A") (A") (A") (A") (A") (A") (A")
                 (A") (A") (A") (A") (A") (A") (A") (A") (A") (A")
                 (A") (A") (A") (A") (A") (A") (A") (A") (A") (A")
                 (A") (A") (A") (A") (A") (A") (A") (A") (A") (A")
                 (A") (A") (A") (A") (A") (A") (A") (A") (A") (A")
                 (A") (A") (A") (A") (A") (A") (A") (A") (A") (A")
                 (A") (A") (A") (A") (A") (A") (A") (A") (A") (A")
                 (A") (A") (A") (A") (A")
 ExpMin= 7.41D-02 ExpMax= 1.48D+04 ExpMxC= 5.05D+02 IAcc=2 IRadAn=         4 AccDes= 0.00D+00
 Harris functional with IExCor=  402 and IRadAn=       4 diagonalized for initial guess.
 HarFok:  IExCor=  402 AccDes= 0.00D+00 IRadAn=         4 IDoV= 1 UseB2=F ITyADJ=14
 ICtDFT=  3500011 ScaDFX=  1.000000  1.000000  1.000000  1.000000
 FoFCou: FMM=F IPFlag=           0 FMFlag=      100000 FMFlg1=           0
         NFxFlg=           0 DoJE=T BraDBF=F KetDBF=T FulRan=T
         wScrn=  0.000000 ICntrl=     500 IOpCl=  0 I1Cent=   200000004 NGrid=           0
         NMat0=    1 NMatS0=      1 NMatT0=    0 NMatD0=    1 NMtDS0=    0 NMtDT0=    0
 Petite list used in FoFCou.
 Keep R1 ints in memory in symmetry-blocked form, NReq=1167802198.
 Requested convergence on RMS density matrix=1.00D-08 within 128 cycles.
 Requested convergence on MAX density matrix=1.00D-06.
 Requested convergence on             energy=1.00D-06.
 No special actions if energy rises.
 Integral accuracy reduced to 1.0D-05 until final iterations.
 Initial convergence to 1.0D-05 achieved.  Increase integral accuracy.
 SCF Done:  E(RB3LYP) =  -323.658608568     A.U. after   13 cycles
            NFock= 13  Conv=0.36D-08     -V/T= 2.0035
 Calling FoFJK, ICntrl=      2127 FMM=F ISym2X=1 I1Cent= 0 IOpClX= 0 NMat=1 NMatS=1 NMatT=0.
 ***** Axes restored to original set *****
 -------------------------------------------------------------------
 Center     Atomic                   Forces (Hartrees/Bohr)
 Number     Number              X              Y              Z
 -------------------------------------------------------------------
      1        8           0.002656979   -0.005351306    0.000000000
      2        7          -0.009335780   -0.010439763    0.000000000
      3        6           0.012541850    0.009080040   -0.000000000
      4        6           0.006313422    0.001479814   -0.000000000
      5        6           0.002163667   -0.010987115    0.000000000
      6        6          -0.007010303    0.004567710   -0.000000000
      7        6          -0.005523113    0.010290241   -0.000000000
      8        1          -0.000555473    0.001250078   -0.000000000
      9        1          -0.000448359    0.000499003   -0.000000000
     10        1          -0.001584741    0.000132099    0.000000000
     11        1           0.001121180    0.000384424   -0.000000000
     12        1          -0.000339328   -0.000905225    0.000000000
 -------------------------------------------------------------------
 Cartesian Forces:  Max     0.012541850 RMS     0.004866626

 GradGradGradGradGradGradGradGradGradGradGradGradGradGradGradGradGradGrad
 Berny optimization.
 Using GEDIIS/GDIIS optimizer.
 FormGI is forming the generalized inverse of G from B-inverse, IUseBI=4.
 Internal  Forces:  Max     0.015130538 RMS     0.003357938
 Search for a local minimum.
 Step number   3 out of a maximum of   61
 All quantities printed in internal units (Hartrees-Bohrs-Radians)
 Mixed Optimization -- RFO/linear search
 Update second derivatives using D2CorX and points    1    2    3
 DE= -7.37D-03 DEPred=-8.45D-03 R= 8.71D-01
 TightC=F SS=  1.41D+00  RLast= 2.28D-01 DXNew= 8.4853D-01 6.8325D-01
 Trust test= 8.71D-01 RLast= 2.28D-01 DXMaxT set to 6.83D-01
 ITU=  1  1  0
 Use linear search instead of GDIIS.
     Eigenvalues ---    0.00863   0.00940   0.01289   0.01319   0.01527
     Eigenvalues ---    0.01655   0.01799   0.02191   0.02356   0.15930
     Eigenvalues ---    0.16000   0.16000   0.16120   0.16526   0.21720
     Eigenvalues ---    0.22389   0.23604   0.25135   0.28117   0.29783
     Eigenvalues ---    0.31987   0.37171   0.37221   0.37269   0.37303
     Eigenvalues ---    0.40865   0.51581   0.55380   0.56172   0.79572
 RFO step:  Lambda=-8.96454379D-04 EMin= 8.63090670D-03
 Quartic linear search produced a step of -0.02318.
 Iteration  1 RMS(Cart)=  0.00979138 RMS(Int)=  0.00008844
 Iteration  2 RMS(Cart)=  0.00009225 RMS(Int)=  0.00000162
 Iteration  3 RMS(Cart)=  0.00000000 RMS(Int)=  0.00000162
 ClnCor:  largest displacement from symmetrization is 9.74D-14 for atom     1.
 Variable       Old X    -DE/DX   Delta X   Delta X   Delta X     New X
                                 (Linear)    (Quad)   (Total)
    R1        2.55271   0.00345   0.00122  -0.00051   0.00070   2.55341
    R2        1.82731  -0.00121  -0.00016  -0.00152  -0.00168   1.82563
    R3        2.46198   0.01513  -0.00077   0.02001   0.01925   2.48122
    R4        2.53532   0.00200   0.00278  -0.00675  -0.00397   2.53134
    R5        2.64077   0.00536   0.00286   0.00398   0.00683   2.64761
    R6        2.58449   0.00966  -0.00087   0.01661   0.01575   2.60025
    R7        2.04052  -0.00008  -0.00011   0.00097   0.00086   2.04138
    R8        2.58398   0.01154  -0.00066   0.01996   0.01930   2.60328
    R9        2.04379   0.00108  -0.00025   0.00372   0.00347   2.04726
   R10        2.63890   0.00373   0.00272  -0.00232   0.00040   2.63930
   R11        2.04380   0.00020  -0.00022   0.00172   0.00149   2.04529
   R12        2.04154   0.00000  -0.00014   0.00114   0.00100   2.04253
    A1        1.87585  -0.00117  -0.00053  -0.01176  -0.01228   1.86356
    A2        2.05536   0.00042   0.00022  -0.00130  -0.00109   2.05427
    A3        2.07447  -0.00350   0.00012  -0.01467  -0.01455   2.05992
    A4        2.03905   0.00549   0.00010   0.01604   0.01614   2.05519
    A5        2.16966  -0.00198  -0.00022  -0.00137  -0.00159   2.16807
    A6        2.04674   0.00040   0.00023  -0.00109  -0.00085   2.04589
    A7        2.08723   0.00047   0.00022   0.00271   0.00293   2.09016
    A8        2.14922  -0.00088  -0.00045  -0.00163  -0.00208   2.14714
    A9        2.14631   0.00042  -0.00030   0.00471   0.00441   2.15072
   A10        2.01254   0.00098   0.00042   0.00025   0.00067   2.01321
   A11        2.12434  -0.00140  -0.00012  -0.00497  -0.00508   2.11925
   A12        2.08324   0.00098  -0.00019   0.00261   0.00243   2.08567
   A13        2.11025  -0.00169   0.00006  -0.00747  -0.00742   2.10284
   A14        2.08969   0.00071   0.00013   0.00486   0.00499   2.09468
   A15        2.06506  -0.00024   0.00026  -0.00357  -0.00331   2.06175
   A16        2.11305  -0.00086  -0.00000  -0.00318  -0.00319   2.10986
   A17        2.10507   0.00110  -0.00026   0.00676   0.00650   2.11157
    D1        0.00000   0.00000   0.00000   0.00000   0.00000   0.00000
    D2        3.14159   0.00000   0.00000   0.00000   0.00000   3.14159
    D3        3.14159  -0.00000   0.00000  -0.00000   0.00000   3.14159
    D4        0.00000  -0.00000   0.00000  -0.00000   0.00000   0.00000
    D5       -0.00000   0.00000   0.00000   0.00000   0.00000   0.00000
    D6        3.14159   0.00000   0.00000   0.00000   0.00000   3.14159
    D7        3.14159   0.00000   0.00000   0.00000   0.00000   3.14159
    D8       -0.00000   0.00000   0.00000   0.00000   0.00000   0.00000
    D9       -0.00000   0.00000   0.00000   0.00000   0.00000   0.00000
   D10        3.14159   0.00000   0.00000   0.00000   0.00000   3.14159
   D11       -0.00000   0.00000   0.00000   0.00000   0.00000   0.00000
   D12        3.14159   0.00000   0.00000   0.00000   0.00000   3.14159
   D13        3.14159   0.00000   0.00000  -0.00000   0.00000   3.14159
   D14        0.00000   0.00000   0.00000   0.00000  -0.00000   0.00000
   D15       -0.00000   0.00000   0.00000   0.00000   0.00000   0.00000
   D16        3.14159   0.00000   0.00000   0.00000   0.00000   3.14159
   D17        3.14159   0.00000   0.00000   0.00000   0.00000   3.14159
   D18        0.00000   0.00000   0.00000   0.00000  -0.00000   0.00000
   D19        0.00000  -0.00000   0.00000  -0.00000  -0.00000   0.00000
   D20        3.14159  -0.00000   0.00000  -0.00000   0.00000   3.14159
   D21        3.14159  -0.00000   0.00000  -0.00000   0.00000   3.14159
   D22       -0.00000  -0.00000   0.00000  -0.00000   0.00000   0.00000
         Item               Value     Threshold  Converged?
 Maximum Force            0.015131     0.000450     NO 
 RMS     Force            0.003358     0.000300     NO 
 Maximum Displacement     0.037949     0.001800     NO 
 RMS     Displacement     0.009767     0.001200     NO 
 Predicted change in Energy=-4.516177D-04
 GradGradGradGradGradGradGradGradGradGradGradGradGradGradGradGradGradGrad

                          Input orientation:                          
 ---------------------------------------------------------------------
 Center     Atomic      Atomic             Coordinates (Angstroms)
 Number     Number       Type             X           Y           Z
 ---------------------------------------------------------------------
      1          8           0        1.825648   -0.646677   -0.000000
      2          7           0       -0.433681   -0.981895    0.000000
      3          6           0        0.573313   -0.139308   -0.000000
      4          6           0        0.434181    1.254819   -0.000000
      5          6           0       -1.672329   -0.471903    0.000000
      6          6           0       -0.845874    1.759605   -0.000000
      7          6           0       -1.931616    0.881075    0.000000
      8          1           0        1.736738   -1.608659    0.000000
      9          1           0        1.314110    1.881454   -0.000000
     10          1           0       -2.473960   -1.200640    0.000000
     11          1           0       -1.014478    2.828712   -0.000000
     12          1           0       -2.947052    1.251417    0.000000
 ---------------------------------------------------------------------
                    Distance matrix (angstroms):
                    1          2          3          4          5
     1  O    0.000000
     2  N    2.284062   0.000000
     3  C    1.351209   1.313008   0.000000
     4  C    2.356239   2.399182   1.401052   0.000000
     5  C    3.502340   1.339530   2.270137   2.723775   0.000000
     6  C    3.595444   2.772314   2.370646   1.375991   2.379633
     7  C    4.055990   2.390495   2.704782   2.395136   1.377599
     8  H    0.966082   2.259105   1.874180   3.145816   3.593599
     9  H    2.579363   3.354630   2.152268   1.080253   3.802250
    10  H    4.335147   2.051972   3.226809   3.806122   1.083361
    11  H    4.488278   3.854615   3.366040   2.139101   3.365535
    12  H    5.136284   3.362248   3.785113   3.381234   2.143537
                    6          7          8          9         10
     6  C    0.000000
     7  C    1.396656   0.000000
     8  H    4.244419   4.433463   0.000000
     9  H    2.163419   3.396394   3.515608   0.000000
    10  H    3.378419   2.151203   4.230421   4.883521   0.000000
    11  H    1.082320   2.152773   5.221059   2.513886   4.285530
    12  H    2.161759   1.080862   5.487980   4.307487   2.497278
                   11         12
    11  H    0.000000
    12  H    2.494534   0.000000
 Stoichiometry    C5H5NO
 Framework group  CS[SG(C5H5NO)]
 Deg. of freedom    21
 Full point group                 CS      NOp   2
 Largest Abelian subgroup         CS      NOp   2
 Largest concise Abelian subgroup C1      NOp   1
                         Standard orientation:                         
 ---------------------------------------------------------------------
 Center     Atomic      Atomic             Coordinates (Angstroms)
 Number     Number       Type             X           Y           Z
 ---------------------------------------------------------------------
      1          8           0        0.031062    2.247085    0.000000
      2          7           0       -1.172925    0.306118    0.000000
      3          6           0        0.000000    0.896233    0.000000
      4          6           0        1.224544    0.215469    0.000000
      5          6           0       -1.196148   -1.033210    0.000000
      6          6           0        1.180115   -1.159805    0.000000
      7          6           0       -0.057043   -1.807948    0.000000
      8          1           0       -0.887259    2.547089    0.000000
      9          1           0        2.148829    0.774613    0.000000
     10          1           0       -2.183098   -1.479978    0.000000
     11          1           0        2.094616   -1.738688    0.000000
     12          1           0       -0.119911   -2.886980    0.000000
 ---------------------------------------------------------------------
 Rotational constants (GHZ):      5.8875993      2.7890981      1.8925510
 Basis read from rwf:  (5D, 7F)
 There are   223 symmetry adapted cartesian basis functions of A'  symmetry.
 There are    97 symmetry adapted cartesian basis functions of A"  symmetry.
 There are   190 symmetry adapted basis functions of A'  symmetry.
 There are    90 symmetry adapted basis functions of A"  symmetry.
   280 basis functions,   475 primitive gaussians,   320 cartesian basis functions
    25 alpha electrons       25 beta electrons
       nuclear repulsion energy       276.7187283612 Hartrees.
 NAtoms=   12 NActive=   12 NUniq=   12 SFac= 1.00D+00 NAtFMM=   60 NAOKFM=F Big=F
 Integral buffers will be    131072 words long.
 Raffenetti 2 integral format.
 Two-electron integral symmetry is turned on.
 One-electron integrals computed using PRISM.
 NBasis=   280 RedAO= T EigKep=  2.20D-04  NBF=   190    90
 NBsUse=   280 1.00D-06 EigRej= -1.00D+00 NBFU=   190    90
 Initial guess from the checkpoint file:  "HY_pc-2_B3LYP_OPT_FREQ.chk"
 B after Tr=     0.000000   -0.000000   -0.000000
         Rot=    0.999990   -0.000000   -0.000000   -0.004395 Ang=  -0.50 deg.
 Initial guess orbital symmetries:
       Occupied  (A') (A') (A') (A') (A') (A') (A') (A') (A') (A')
                 (A') (A') (A') (A') (A') (A') (A') (A") (A') (A')
                 (A') (A") (A") (A') (A")
       Virtual   (A') (A') (A') (A') (A') (A') (A') (A') (A') (A')
                 (A') (A') (A') (A') (A') (A') (A') (A') (A') (A')
                 (A') (A') (A') (A') (A') (A') (A') (A') (A') (A')
                 (A') (A') (A') (A') (A') (A') (A') (A') (A') (A')
                 (A') (A') (A') (A') (A') (A') (A') (A') (A') (A')
                 (A') (A') (A') (A') (A') (A') (A') (A') (A') (A')
                 (A') (A') (A') (A') (A') (A') (A') (A') (A') (A')
                 (A') (A') (A') (A') (A') (A') (A') (A') (A') (A')
                 (A') (A') (A') (A') (A') (A') (A') (A') (A') (A')
                 (A') (A') (A') (A') (A') (A') (A') (A') (A') (A')
                 (A') (A') (A') (A') (A') (A') (A') (A') (A') (A')
                 (A') (A') (A') (A') (A') (A') (A') (A') (A') (A')
                 (A') (A') (A') (A') (A') (A') (A') (A') (A') (A')
                 (A') (A') (A') (A') (A') (A') (A') (A') (A') (A')
                 (A') (A') (A') (A') (A') (A') (A') (A') (A') (A')
                 (A') (A') (A') (A') (A') (A') (A') (A') (A') (A')
                 (A') (A') (A') (A') (A') (A') (A') (A') (A') (A")
                 (A") (A") (A") (A") (A") (A") (A") (A") (A") (A")
                 (A") (A") (A") (A") (A") (A") (A") (A") (A") (A")
                 (A") (A") (A") (A") (A") (A") (A") (A") (A") (A")
                 (A") (A") (A") (A") (A") (A") (A") (A") (A") (A")
                 (A") (A") (A") (A") (A") (A") (A") (A") (A") (A")
                 (A") (A") (A") (A") (A") (A") (A") (A") (A") (A")
                 (A") (A") (A") (A") (A") (A") (A") (A") (A") (A")
                 (A") (A") (A") (A") (A") (A") (A") (A") (A") (A")
                 (A") (A") (A") (A") (A")
 ExpMin= 7.41D-02 ExpMax= 1.48D+04 ExpMxC= 5.05D+02 IAcc=2 IRadAn=         4 AccDes= 0.00D+00
 Harris functional with IExCor=  402 and IRadAn=       4 diagonalized for initial guess.
 HarFok:  IExCor=  402 AccDes= 0.00D+00 IRadAn=         4 IDoV= 1 UseB2=F ITyADJ=14
[...]
 Vib (Bot)    4  0.330178D+00         -0.481252         -1.108125
 Vib (Bot)    5  0.277854D+00         -0.556183         -1.280658
 Vib (Bot)    6  0.271080D+00         -0.566903         -1.305342
 Vib (V=0)       0.304800D+01          0.484015          1.114486
 Vib (V=0)    1  0.154502D+01          0.188934          0.435037
 Vib (V=0)    2  0.114978D+01          0.060613          0.139567
 Vib (V=0)    3  0.114773D+01          0.059839          0.137785
 Vib (V=0)    4  0.109918D+01          0.041069          0.094565
 Vib (V=0)    5  0.107202D+01          0.030202          0.069542
 Vib (V=0)    6  0.106876D+01          0.028879          0.066496
 Electronic      0.100000D+01          0.000000          0.000000
 Translational   0.364162D+08          7.561295         17.410525
 Rotational      0.156444D+06          5.194360         11.960455
 ***** Axes restored to original set *****
 -------------------------------------------------------------------
 Center     Atomic                   Forces (Hartrees/Bohr)
 Number     Number              X              Y              Z
 -------------------------------------------------------------------
      1        8          -0.000151559    0.000127789   -0.000000000
      2        7           0.000272883    0.000082585   -0.000000000
      3        6           0.000159260    0.000122712   -0.000000000
      4        6           0.000026414   -0.000452463    0.000000000
      5        6          -0.000231242    0.000128315   -0.000000000
      6        6           0.000075340    0.000032201   -0.000000000
      7        6          -0.000061895   -0.000105049    0.000000000
      8        1          -0.000000719    0.000036810   -0.000000000
      9        1          -0.000022574    0.000043401   -0.000000000
     10        1          -0.000052839    0.000041205   -0.000000000
     11        1           0.000018444   -0.000033040    0.000000000
     12        1          -0.000031515   -0.000024465    0.000000000
 -------------------------------------------------------------------
 Cartesian Forces:  Max     0.000452463 RMS     0.000114165
 FormGI is forming the generalized inverse of G from B-inverse, IUseBI=4.

 GradGradGradGradGradGradGradGradGradGradGradGradGradGradGradGradGradGrad
 Berny optimization.
 Internal  Forces:  Max     0.000382162 RMS     0.000085338
 Search for a local minimum.
 Step number   1 out of a maximum of    2
 All quantities printed in internal units (Hartrees-Bohrs-Radians)
 Second derivative matrix not updated -- analytic derivatives used.
 ITU=  0
     Eigenvalues ---    0.01326   0.01612   0.01748   0.02198   0.02339
     Eigenvalues ---    0.02746   0.03061   0.03663   0.04397   0.10469
     Eigenvalues ---    0.11107   0.12121   0.13073   0.15701   0.19169
     Eigenvalues ---    0.19990   0.21654   0.23543   0.31196   0.35112
     Eigenvalues ---    0.35733   0.36137   0.36327   0.37711   0.43347
     Eigenvalues ---    0.44835   0.47454   0.51551   0.51733   0.57285
 Angle between quadratic step and forces=  28.35 degrees.
 Linear search not attempted -- first point.
 Iteration  1 RMS(Cart)=  0.00038015 RMS(Int)=  0.00000006
 Iteration  2 RMS(Cart)=  0.00000007 RMS(Int)=  0.00000001
 ClnCor:  largest displacement from symmetrization is 1.92D-12 for atom     1.
 Variable       Old X    -DE/DX   Delta X   Delta X   Delta X     New X
                                 (Linear)    (Quad)   (Total)
    R1        2.55593  -0.00021   0.00000  -0.00048  -0.00048   2.55546
    R2        1.82547  -0.00003   0.00000  -0.00005  -0.00005   1.82541
    R3        2.49951  -0.00005   0.00000  -0.00015  -0.00015   2.49936
    R4        2.52651   0.00028   0.00000   0.00055   0.00055   2.52706
    R5        2.64148  -0.00038   0.00000  -0.00082  -0.00082   2.64066
    R6        2.61012   0.00000   0.00000  -0.00006  -0.00006   2.61006
    R7        2.04014   0.00001   0.00000   0.00005   0.00005   2.04019
    R8        2.61528  -0.00015   0.00000  -0.00029  -0.00029   2.61500
    R9        2.04717   0.00001   0.00000   0.00001   0.00001   2.04719
   R10        2.63538   0.00005   0.00000   0.00017   0.00017   2.63554
   R11        2.04427  -0.00004   0.00000  -0.00010  -0.00010   2.04417
   R12        2.04084   0.00002   0.00000   0.00005   0.00005   2.04089
    A1        1.86219  -0.00001   0.00000   0.00015   0.00015   1.86234
    A2        2.05664   0.00006   0.00000   0.00020   0.00020   2.05685
    A3        2.05011   0.00012   0.00000   0.00045   0.00045   2.05056
    A4        2.07094  -0.00008   0.00000  -0.00018  -0.00018   2.07076
    A5        2.16214  -0.00005   0.00000  -0.00027  -0.00027   2.16186
    A6        2.04940   0.00009   0.00000   0.00036   0.00036   2.04976
    A7        2.09565   0.00000   0.00000   0.00036   0.00036   2.09601
    A8        2.13814  -0.00009   0.00000  -0.00072  -0.00072   2.13742
    A9        2.15155  -0.00006   0.00000  -0.00008  -0.00008   2.15147
   A10        2.02227   0.00010   0.00000   0.00040   0.00040   2.02267
   A11        2.10937  -0.00004   0.00000  -0.00032  -0.00032   2.10905
   A12        2.08741   0.00005   0.00000   0.00006   0.00006   2.08747
   A13        2.09359  -0.00004   0.00000  -0.00021  -0.00021   2.09338
   A14        2.10219  -0.00001   0.00000   0.00015   0.00015   2.10234
   A15        2.05924  -0.00009   0.00000  -0.00027  -0.00027   2.05897
   A16        2.10443   0.00001   0.00000  -0.00008  -0.00008   2.10434
   A17        2.11952   0.00007   0.00000   0.00035   0.00035   2.11987
    D1        0.00000   0.00000   0.00000  -0.00000  -0.00000   0.00000
    D2        3.14159   0.00000   0.00000   0.00000   0.00000   3.14159
    D3        3.14159   0.00000   0.00000  -0.00000   0.00000   3.14159
    D4       -0.00000  -0.00000   0.00000  -0.00000   0.00000   0.00000
    D5        0.00000   0.00000   0.00000  -0.00000  -0.00000   0.00000
    D6        3.14159  -0.00000   0.00000  -0.00000   0.00000   3.14159
    D7        3.14159  -0.00000   0.00000   0.00000   0.00000   3.14159
    D8       -0.00000  -0.00000   0.00000  -0.00000   0.00000   0.00000
    D9        0.00000   0.00000   0.00000   0.00000   0.00000   0.00000
   D10        3.14159   0.00000   0.00000   0.00000   0.00000   3.14159
   D11       -0.00000  -0.00000   0.00000  -0.00000   0.00000   0.00000
   D12        3.14159   0.00000   0.00000   0.00000   0.00000   3.14159
   D13        3.14159  -0.00000   0.00000   0.00000   0.00000   3.14159
   D14        0.00000   0.00000   0.00000   0.00000   0.00000   0.00000
   D15       -0.00000   0.00000   0.00000   0.00000   0.00000   0.00000
   D16        3.14159   0.00000   0.00000   0.00000   0.00000   3.14159
   D17        3.14159   0.00000   0.00000   0.00000   0.00000   3.14159
   D18       -0.00000   0.00000   0.00000   0.00000   0.00000   0.00000
   D19        0.00000   0.00000   0.00000   0.00000   0.00000   0.00000
   D20        3.14159   0.00000   0.00000   0.00000   0.00000   3.14159
   D21        3.14159  -0.00000   0.00000  -0.00000   0.00000   3.14159
   D22        0.00000  -0.00000   0.00000  -0.00000   0.00000   0.00000
         Item               Value     Threshold  Converged?
 Maximum Force            0.000382     0.000450     YES
 RMS     Force            0.000085     0.000300     YES
 Maximum Displacement     0.001124     0.001800     YES
 RMS     Displacement     0.000380     0.001200     YES
 Predicted change in Energy=-4.692919D-07
 Optimization completed.
    -- Stationary point found.
                           ----------------------------
                           !   Optimized Parameters   !
                           ! (Angstroms and Degrees)  !
 --------------------------                            --------------------------
 ! Name  Definition              Value          Derivative Info.                !
 --------------------------------------------------------------------------------
 ! R1    R(1,3)                  1.3525         -DE/DX =   -0.0002              !
 ! R2    R(1,8)                  0.966          -DE/DX =    0.0                 !
 ! R3    R(2,3)                  1.3227         -DE/DX =   -0.0001              !
 ! R4    R(2,5)                  1.337          -DE/DX =    0.0003              !
 ! R5    R(3,4)                  1.3978         -DE/DX =   -0.0004              !
 ! R6    R(4,6)                  1.3812         -DE/DX =    0.0                 !
 ! R7    R(4,9)                  1.0796         -DE/DX =    0.0                 !
 ! R8    R(5,7)                  1.3839         -DE/DX =   -0.0002              !
 ! R9    R(5,10)                 1.0833         -DE/DX =    0.0                 !
 ! R10   R(6,7)                  1.3946         -DE/DX =    0.0001              !
 ! R11   R(6,11)                 1.0818         -DE/DX =    0.0                 !
 ! R12   R(7,12)                 1.08           -DE/DX =    0.0                 !
 ! A1    A(3,1,8)              106.6958         -DE/DX =    0.0                 !
 ! A2    A(3,2,5)              117.837          -DE/DX =    0.0001              !
 ! A3    A(1,3,2)              117.4625         -DE/DX =    0.0001              !
 ! A4    A(1,3,4)              118.6562         -DE/DX =   -0.0001              !
 ! A5    A(2,3,4)              123.8813         -DE/DX =    0.0                 !
 ! A6    A(3,4,6)              117.4217         -DE/DX =    0.0001              !
 ! A7    A(3,4,9)              120.072          -DE/DX =    0.0                 !
 ! A8    A(6,4,9)              122.5063         -DE/DX =   -0.0001              !
 ! A9    A(2,5,7)              123.2745         -DE/DX =   -0.0001              !
 ! A10   A(2,5,10)             115.8675         -DE/DX =    0.0001              !
 ! A11   A(7,5,10)             120.858          -DE/DX =    0.0                 !
 ! A12   A(4,6,7)              119.5996         -DE/DX =    0.0                 !
 ! A13   A(4,6,11)             119.9538         -DE/DX =    0.0                 !
 ! A14   A(7,6,11)             120.4466         -DE/DX =    0.0                 !
 ! A15   A(5,7,6)              117.9859         -DE/DX =   -0.0001              !
 ! A16   A(5,7,12)             120.5747         -DE/DX =    0.0                 !
 ! A17   A(6,7,12)             121.4393         -DE/DX =    0.0001              !
 ! D1    D(8,1,3,2)              0.0            -DE/DX =    0.0                 !
 ! D2    D(8,1,3,4)            180.0            -DE/DX =    0.0                 !
 ! D3    D(5,2,3,1)            180.0            -DE/DX =    0.0                 !
 ! D4    D(5,2,3,4)              0.0            -DE/DX =    0.0                 !
 ! D5    D(3,2,5,7)              0.0            -DE/DX =    0.0                 !
 ! D6    D(3,2,5,10)           180.0            -DE/DX =    0.0                 !
 ! D7    D(1,3,4,6)            180.0            -DE/DX =    0.0                 !
 ! D8    D(1,3,4,9)              0.0            -DE/DX =    0.0                 !
 ! D9    D(2,3,4,6)              0.0            -DE/DX =    0.0                 !
 ! D10   D(2,3,4,9)            180.0            -DE/DX =    0.0                 !
 ! D11   D(3,4,6,7)              0.0            -DE/DX =    0.0                 !
 ! D12   D(3,4,6,11)           180.0            -DE/DX =    0.0                 !
 ! D13   D(9,4,6,7)            180.0            -DE/DX =    0.0                 !
 ! D14   D(9,4,6,11)             0.0            -DE/DX =    0.0                 !
 ! D15   D(2,5,7,6)              0.0            -DE/DX =    0.0                 !
 ! D16   D(2,5,7,12)           180.0            -DE/DX =    0.0                 !
 ! D17   D(10,5,7,6)           180.0            -DE/DX =    0.0                 !
 ! D18   D(10,5,7,12)            0.0            -DE/DX =    0.0                 !
 ! D19   D(4,6,7,5)              0.0            -DE/DX =    0.0                 !
 ! D20   D(4,6,7,12)           180.0            -DE/DX =    0.0                 !
 ! D21   D(11,6,7,5)           180.0            -DE/DX =    0.0                 !
 ! D22   D(11,6,7,12)            0.0            -DE/DX =    0.0                 !
 --------------------------------------------------------------------------------
 GradGradGradGradGradGradGradGradGradGradGradGradGradGradGradGradGradGrad

 1\1\GINC-P1711\Freq\RB3LYP\Gen\C5H5N1O1\SC51754\26-Aug-2021\0\\#N Geom
 =AllCheck Guess=TCheck SCRF=Check GenChk RB3LYP/ChkBas Freq\\HY_pc-2_B
 3LYP_OPT_FREQ\\0,1\O,1.8305541493,-0.6549890576,0.\N,-0.4326114952,-0.
 9820802441,0.\C,0.5823862816,-0.1339823418,0.\C,0.4362825482,1.2561725
 427,0.\C,-1.6697492941,-0.4751456329,0.\C,-0.8495138109,1.760640425,0.
 \C,-1.9336395693,0.8834109008,0.\H,1.7302385251,-1.6157618763,0.\H,1.3
 088993324,1.8918362504,0.\H,-2.4767012724,-1.1979227015,0.\H,-1.010003
 9555,2.8304484436,0.\H,-2.9511414393,1.2453732917,0.\\Version=EM64L-G0
 9RevE.01\State=1-A'\HF=-323.6593729\RMSD=3.679e-09\RMSF=1.142e-04\Zero
 Point=0.0933851\Thermal=0.0985853\Dipole=-0.3763208,0.3714089,0.\Dipol
 eDeriv=-1.3101999,0.5591004,0.,0.5798524,-0.498625,0.,0.,0.,-0.3712677
 ,-0.7732075,0.3122172,0.,-0.1424208,-0.4899254,0.,0.,0.,-0.2774905,1.4
 602563,-0.559101,0.,-0.7069406,0.6010082,0.,0.,0.,0.2040527,-0.2694866
 ,0.0505179,0.,0.5027466,-0.2170708,0.,0.,0.,-0.1461112,0.3545903,-0.18
 97049,0.,0.1745813,0.4660833,0.,0.,0.,-0.0101897,0.4000004,0.0649556,0
 .,0.0153121,0.2169317,0.,0.,0.,-0.0929158,-0.1387556,-0.0515457,0.,-0.
 2571767,-0.3729212,0.,0.,0.,-0.1547687,0.3236332,-0.1301011,0.,-0.0827
 75,0.2701448,0.,0.,0.,0.316579,-0.0036603,-0.0571036,0.,-0.0601463,0.0
 344773,0.,0.,0.,0.1502691,-0.052873,-0.0630083,0.,-0.0933485,0.0091859
 ,0.,0.,0.,0.1056493,0.0789687,0.0215995,0.,0.0237067,-0.0739907,0.,0.,
 0.,0.1246185,-0.069266,0.042174,0.,0.0466089,0.0547019,0.,0.,0.,0.1515
 751\Polar=83.947888,-3.943187,75.8054953,0.,0.,38.2287491\PG=CS [SG(C5
 H5N1O1)]\NImag=0\\0.40428031,-0.03095085,0.63946262,0.,0.,0.03505481,-
 0.08264977,-0.03438821,0.,0.68646486,-0.00198556,0.02132334,0.,0.02981
 118,0.40707423,0.,0.,0.00697867,0.,0.,0.09019217,-0.25529514,0.0945012
 5,0.,-0.23796037,-0.10920842,0.,0.69303214,0.04799689,-0.14321766,0.,-
 0.07526531,-0.23179555,0.,-0.01817051,0.71862031,0.,0.,-0.05067739,0.,
 0.,-0.07169668,0.,0.,0.18422306,-0.01339606,0.05664160,0.,0.03902166,-
 0.02547010,0.,-0.12333994,-0.03117717,0.,0.75752270,0.02056854,-0.0297
 2969,0.,-0.07746637,-0.03999885,0.,0.03961940,-0.28912138,0.,0.0362509
 3,0.67067766,0.,0.,0.00878863,0.,0.,0.01955610,0.,0.,-0.07591738,0.,0.
 ,0.12351364,0.00407496,0.00502146,0.,-0.30489568,0.08916969,0.,-0.0922
 6435,-0.05838847,0.,-0.02580515,0.03955058,0.,0.70638004,-0.00171394,-
 0.00815416,0.,0.06517282,-0.15230353,0.,-0.00214189,0.06428705,0.,0.02
 946654,-0.04501602,0.,0.05623030,0.71104438,0.,0.,0.01035912,0.,0.,-0.
 06395899,0.,0.,-0.00330051,0.,0.,-0.00506905,0.,0.,0.15849748,0.004123
 94,-0.01273918,0.,-0.07506233,-0.01063503,0.,0.02144038,0.09622976,0.,
 -0.32916594,0.04706998,0.,0.05482851,-0.06826245,0.,0.66811984,-0.0023
 7974,-0.00734884,0.,-0.01571842,0.00094420,0.,0.04223885,-0.00588166,0
 .,0.10648674,-0.16309829,0.,-0.01722487,-0.04675129,0.,-0.02322259,0.7
 4290491,0.,0.,0.00449040,0.,0.,-0.00759494,0.,0.,0.00273541,0.,0.,-0.0
 5867663,0.,0.,0.00813659,0.,0.,0.14408579,-0.00681210,0.00438457,0.,0.
 00087917,0.04073273,0.,-0.00337838,-0.01957068,0.,-0.05472803,0.002786
 50,0.,-0.13809057,0.06139523,0.,-0.24522614,-0.12505642,0.,0.74231219,
 0.00136872,0.00877279,0.,0.10153695,-0.00796489,0.,-0.03275815,-0.0738
 5762,0.,-0.03673689,0.06334522,0.,-0.00585725,-0.32747394,0.,-0.062146
 89,-0.20693300,0.,-0.03770762,0.66375572,0.,0.,-0.00159394,0.,0.,0.022
 55274,0.,0.,-0.00870733,0.,0.,0.00738528,0.,0.,-0.06870943,0.,0.,-0.06
 369734,0.,0.,0.12423687,-0.05373254,-0.08363600,0.,0.00556759,-0.00074
 743,0.,-0.00021817,0.05274550,0.,-0.00715399,0.00184814,0.,-0.00253301
 ,-0.00017845,0.,0.00174853,0.00172772,0.,0.00018370,-0.00159066,0.,0.0
 5611234,-0.03374812,-0.48307161,0.,-0.00678099,0.00141407,0.,0.0100656
 4,-0.02949534,0.,0.00184980,0.00301509,0.,-0.00073290,-0.00031159,0.,0
 .00037999,-0.00104987,0.,-0.00092178,0.00008768,0.,0.03003227,0.509172
 68,0.,0.,-0.01043171,0.,0.,-0.00338687,0.,0.,0.00093078,0.,0.,0.003267
 28,0.,0.,-0.00067842,0.,0.,0.00146443,0.,0.,0.00052263,0.,0.,0.0096382
 5,0.00074083,-0.00003632,0.,0.00194290,0.00209742,0.,0.00501383,0.0032
 0122,0.,-0.24184224,-0.13673342,0.,-0.00026462,0.00063299,0.,-0.017502
 68,-0.01876900,0.,-0.00312792,0.00380821,0.,0.00002613,-0.00026855,0.,
 0.25456780,0.00002028,0.00183249,0.,0.00009261,-0.00754328,0.,-0.02837
 340,-0.01067081,0.,-0.13502811,-0.16041012,0.,0.00250662,-0.00075725,0
 .,0.01099813,0.01233428,0.,0.00305758,0.00033442,0.,-0.00002183,0.0001
 9028,0.,0.14694256,0.16333716,0.,0.,-0.00182959,0.,0.,0.00581792,0.,0.
 ,0.00200434,0.,0.,-0.03377310,0.,0.,-0.00027557,0.,0.,0.00201979,0.,0.
 ,0.00862892,0.,0.,-0.00065360,0.,0.,0.02382040,-0.00140784,-0.00060592
 ,0.,-0.03392588,-0.01483589,0.,-0.00258678,0.00184300,0.,-0.00021974,0
 .00029619,0.,-0.19576604,-0.13599869,0.,0.00075613,0.00153503,0.,0.008
 13348,0.00501614,0.,0.00031323,-0.00013963,0.,0.00002178,-0.00021943,0
 .,0.22394486,0.00031024,0.00020874,0.,0.01099727,0.01424784,0.,0.00424
 343,0.00157650,0.,0.00099897,-0.00003505,0.,-0.13733525,-0.19081877,0.
 ,0.00245833,-0.00553288,0.,-0.02415224,-0.01417437,0.,0.00006052,0.000
 05936,0.,-0.00008122,0.00005350,0.,0.14331483,0.19447557,0.,0.,0.00051
 253,0.,0.,-0.00347092,0.,0.,0.01028296,0.,0.,-0.00069569,0.,0.,-0.0420
 2188,0.,0.,0.00749533,0.,0.,0.00706219,0.,0.,-0.00026957,0.,0.,-0.0016
 9987,0.,0.,0.02664301,0.00001878,0.00174656,0.,-0.00085561,0.00005898,
 0.,-0.00498796,0.00135861,0.,0.00056279,0.03008978,0.,-0.00393545,-0.0
 0340157,0.,-0.06668314,0.04000990,0.,0.00903952,-0.02489701,0.,-0.0004
 0658,0.00022886,0.,0.00113387,-0.00062208,0.,0.00028973,-0.00128884,0.
 ,0.06490235,0.00013185,-0.00078630,0.,-0.00006758,0.00069948,0.,0.0016
 4453,0.00190367,0.,-0.00009746,-0.00741030,0.,-0.00416062,-0.00073172,
 0.,0.04058144,-0.33090254,0.,0.00554943,-0.01455201,0.,0.00010365,0.00
 001200,0.,0.00019815,0.00084347,0.,0.00038279,-0.00080489,0.,-0.044063
 62,0.35082899,0.,0.,-0.00026813,0.,0.,-0.00308774,0.,0.,0.00963705,0.,
 0.,0.00512426,0.,0.,0.00743181,0.,0.,-0.04161827,0.,0.,0.00494725,0.,0
 .,-0.00038995,0.,0.,-0.00460239,0.,0.,-0.00043696,0.,0.,0.02687718,0.0
 0005462,0.00006106,0.,0.00147345,0.00101243,0.,0.00054473,-0.00080283,
 0.,-0.00145606,-0.00388025,0.,-0.00172864,-0.00120089,0.,-0.01737711,0
 .01037281,0.,-0.30918493,0.08996444,0.,0.00009278,0.00003543,0.,-0.000
 70969,0.00064708,0.,0.00044707,0.00047396,0.,0.00092171,-0.00020256,0.
 ,0.32692207,0.00038171,0.00070828,0.,0.00207605,-0.00609707,0.,-0.0016
 6074,-0.00234753,0.,-0.00318484,-0.00221828,0.,0.03122071,-0.00301316,
 0.,-0.02071147,0.01131497,0.,0.08950270,-0.09133999,0.,-0.00034341,-0.
 00002273,0.,-0.00099203,0.00045587,0.,-0.00058841,0.00074446,0.,0.0007
 8042,0.00090014,0.,-0.09648069,0.09091503,0.,0.,-0.00138341,0.,0.,0.00
 809854,0.,0.,0.00048570,0.,0.,0.00649665,0.,0.,-0.00041115,0.,0.,0.001
 15943,0.,0.,-0.03262785,0.,0.,-0.00001324,0.,0.,0.00054274,0.,0.,-0.00
 340112,0.,0.,-0.00361411,0.,0.,0.02466781\\0.00015156,-0.00012779,0.,-
 0.00027288,-0.00008259,0.,-0.00015926,-0.00012271,0.,-0.00002641,0.000
 45246,0.,0.00023124,-0.00012832,0.,-0.00007534,-0.00003220,0.,0.000061
 89,0.00010505,0.,0.00000072,-0.00003681,0.,0.00002257,-0.00004340,0.,0
 .00005284,-0.00004120,0.,-0.00001844,0.00003304,0.,0.00003151,0.000024
 47,0.\\\@


 ... SUBJECTS WHICH DISCLOSE THEIR FULL POWER, MEANING AND BEAUTY AS SOON
 AS THEY ARE PRESENTED TO THE MIND HAVE VERY LITTLE OF THOSE QUALITIES
 TO DISCLOSE.
                           -- CHARLES DUTTON (1882)
 Job cpu time:       0 days  0 hours 36 minutes 20.2 seconds.
 File lengths (MBytes):  RWF=     80 Int=      0 D2E=      0 Chk=      7 Scr=      1
 Normal termination of Gaussian 09 at Thu Aug 26 16:36:28 2021.
