 Entering Gaussian System, Link 0=g09
 AtFile(1): pc-3.gbs
            -H     0
            S    5   1.00
                  0.774690D+03           0.131630D-02
                  0.116160D+03           0.102260D-01
                  0.264490D+02           0.536290D-01
                  0.750150D+01           0.222850D+00
                  0.245680D+01           0.753740D+00
            S    1   1.00
                  0.887740D+00           0.100000D+01
            S    1   1.00
                  0.340850D+00           0.100000D+01
            S    1   1.00
                  0.134770D+00           0.100000D+01
            S    1   1.00
                  0.522630D-01           0.100000D+01
            P    1   1.00
                  0.650000D+01           0.100000D+01
            P    1   1.00
                  0.155000D+01           0.100000D+01
            P    1   1.00
                  0.550000D+00           0.100000D+01
            P    1   1.00
                  0.200000D+00           0.100000D+01
            D    1   1.00
                  0.195000D+01           0.100000D+01
            D    1   1.00
                  0.650000D+00           0.100000D+01
            F    1   1.00
                  0.220000D+01           0.100000D+01
            ****
            -C     0
            S    9   1.00
                  0.871410D+05           0.281830D-04
                  0.130520D+05           0.218190D-03
                  0.297060D+04           0.115110D-02
                  0.841460D+03           0.478590D-02
                  0.274590D+03           0.171340D-01
                  0.992150D+02           0.511200D-01
                  0.386940D+02           0.128050D+00
                  0.159110D+02           0.227730D+00
                  0.676680D+01           0.247580D+00
            S    9   1.00
                  0.130520D+05           0.259300D-05
                  0.297060D+04          -0.309070D-05
                  0.841460D+03           0.122470D-03
                  0.274590D+03           0.254940D-03
                  0.992150D+02           0.512540D-02
                  0.386940D+02           0.219550D-01
                  0.159110D+02           0.141120D+00
                  0.676680D+01           0.413030D+00
                  0.289840D+01           0.827140D+00
            S    1   1.00
                  0.112460D+01           0.100000D+01
            S    1   1.00
                  0.514460D+00           0.100000D+01
            S    1   1.00
                  0.211760D+00           0.100000D+01
            S    1   1.00
                  0.850170D-01           0.100000D+01
            P    5   1.00
                  0.148240D+03           0.507560D-03
                  0.349120D+02           0.421260D-02
                  0.108940D+02           0.213350D-01
                  0.419340D+01           0.623290D-01
                  0.171340D+01           0.166420D+00
            P    1   1.00
                  0.735660D+00           0.100000D+01
            P    1   1.00
                  0.316370D+00           0.100000D+01
            P    1   1.00
                  0.132420D+00           0.100000D+01
            P    1   1.00
                  0.519010D-01           0.100000D+01
            D    1   1.00
                  0.520000D+01           0.100000D+01
            D    1   1.00
                  0.135000D+01           0.100000D+01
            D    1   1.00
                  0.520000D+00           0.100000D+01
            D    1   1.00
                  0.200000D+00           0.100000D+01
            F    1   1.00
                  0.150000D+01           0.100000D+01
            F    1   1.00
                  0.650000D+00           0.100000D+01
            G    1   1.00
                  0.140000D+01           0.100000D+01
            ****
            -N     0
            S    9   1.00
                  0.124550D+06           0.266720D-04
                  0.186560D+05           0.206840D-03
                  0.424510D+04           0.108930D-02
                  0.120210D+04           0.454630D-02
                  0.392140D+03           0.162370D-01
                  0.141580D+03           0.489570D-01
                  0.551360D+02           0.123170D+00
                  0.226430D+02           0.224250D+00
                  0.965660D+01           0.238760D+00
            S    8   1.00
                  0.186560D+05           0.140880D-05
                  0.120210D+04           0.814390D-04
                  0.392140D+03           0.324390D-03
                  0.141580D+03           0.436210D-02
                  0.551360D+02           0.228380D-01
                  0.226430D+02           0.134620D+00
                  0.965660D+01           0.425010D+00
                  0.416850D+01           0.825170D+00
            S    1   1.00
                  0.166780D+01           0.100000D+01
            S    1   1.00
                  0.745740D+00           0.100000D+01
            S    1   1.00
                  0.305160D+00           0.100000D+01
            S    1   1.00
                  0.120890D+00           0.100000D+01
            P    5   1.00
                  0.218290D+03           0.482810D-03
                  0.514880D+02           0.404200D-02
                  0.161300D+02           0.209460D-01
                  0.613070D+01           0.647570D-01
                  0.250520D+01           0.170420D+00
            P    1   1.00
                  0.107300D+01           0.100000D+01
            P    1   1.00
                  0.458380D+00           0.100000D+01
            P    1   1.00
                  0.189480D+00           0.100000D+01
            P    1   1.00
                  0.733590D-01           0.100000D+01
            D    1   1.00
                  0.600000D+01           0.100000D+01
            D    1   1.00
                  0.165000D+01           0.100000D+01
            D    1   1.00
                  0.650000D+00           0.100000D+01
            D    1   1.00
                  0.250000D+00           0.100000D+01
            F    1   1.00
                  0.180000D+01           0.100000D+01
            F    1   1.00
                  0.770000D+00           0.100000D+01
            G    1   1.00
                  0.150000D+01           0.100000D+01
            ****
            -O     0
            S    9   1.00
                  0.164030D+06           0.265210D-04
                  0.245670D+05           0.205710D-03
                  0.559100D+04           0.108270D-02
                  0.158360D+04           0.451900D-02
                  0.516670D+03           0.161350D-01
                  0.186560D+03           0.487160D-01
                  0.726960D+02           0.122680D+00
                  0.299920D+02           0.221890D+00
                  0.128990D+02           0.239040D+00
            S    8   1.00
                  0.245670D+05           0.133220D-05
                  0.158360D+04           0.802520D-04
                  0.516670D+03           0.345120D-03
                  0.186560D+03           0.444840D-02
                  0.726960D+02           0.236010D-01
                  0.299920D+02           0.138610D+00
                  0.128990D+02           0.428720D+00
                  0.561350D+01           0.848730D+00
            S    1   1.00
                  0.229860D+01           0.100000D+01
            S    1   1.00
                  0.999800D+00           0.100000D+01
            S    1   1.00
                  0.407460D+00           0.100000D+01
            S    1   1.00
                  0.159220D+00           0.100000D+01
            P    5   1.00
                  0.272020D+03           0.549410D-03
                  0.642430D+02           0.458340D-02
                  0.202490D+02           0.235730D-01
                  0.764380D+01           0.743380D-01
                  0.312320D+01           0.187550D+00
            P    1   1.00
                  0.132510D+01           0.100000D+01
            P    1   1.00
                  0.555510D+00           0.100000D+01
            P    1   1.00
                  0.222290D+00           0.100000D+01
            P    1   1.00
                  0.840100D-01           0.100000D+01
            D    1   1.00
                  0.700000D+01           0.100000D+01
            D    1   1.00
                  0.200000D+01           0.100000D+01
            D    1   1.00
                  0.800000D+00           0.100000D+01
            D    1   1.00
                  0.300000D+00           0.100000D+01
            F    1   1.00
                  0.210000D+01           0.100000D+01
            F    1   1.00
                  0.900000D+00           0.100000D+01
            G    1   1.00
                  0.160000D+01           0.100000D+01
            ****
 Initial command:
 /public3/home/sc51754/softwares/g09e01/l1.exe "./Gau-2681.inp" -scrdir="./"
 Entering Link 1 = /public3/home/sc51754/softwares/g09e01/l1.exe PID=      2682.
  
 Copyright (c) 1988,1990,1992,1993,1995,1998,2003,2009,2015,
            Gaussian, Inc.  All Rights Reserved.
  
 This is part of the Gaussian(R) 09 program.  It is based on
 the Gaussian(R) 03 system (copyright 2003, Gaussian, Inc.),
 the Gaussian(R) 98 system (copyright 1998, Gaussian, Inc.),
 the Gaussian(R) 94 system (copyright 1995, Gaussian, Inc.),
 the Gaussian 92(TM) system (copyright 1992, Gaussian, Inc.),
 the Gaussian 90(TM) system (copyright 1990, Gaussian, Inc.),
 the Gaussian 88(TM) system (copyright 1988, Gaussian, Inc.),
 the Gaussian 86(TM) system (copyright 1986, Carnegie Mellon
 University), and the Gaussian 82(TM) system (copyright 1983,
 Carnegie Mellon University). Gaussian is a federally registered
 trademark of Gaussian, Inc.
  
 This software contains proprietary and confidential information,
 including trade secrets, belonging to Gaussian, Inc.
  
 This software is provided under written license and may be
 used, copied, transmitted, or stored only in accord with that
 written license.
  
 The following legend is applicable only to US Government
 contracts under FAR:
  
                    RESTRICTED RIGHTS LEGEND
  
 Use, reproduction and disclosure by the US Government is
 subject to restrictions as set forth in subparagraphs (a)
 and (c) of the Commercial Computer Software - Restricted
 Rights clause in FAR 52.227-19.
  
 Gaussian, Inc.
 340 Quinnipiac St., Bldg. 40, Wallingford CT 06492
  
  
 ---------------------------------------------------------------
 Warning -- This program may not be used in any manner that
 competes with the business of Gaussian, Inc. or will provide
 assistance to any competitor of Gaussian, Inc.  The licensee
 of this program is prohibited from giving any competitor of
 Gaussian, Inc. access to this program.  By using this program,
 the user acknowledges that Gaussian, Inc. is engaged in the
 business of creating and licensing software in the field of
 computational chemistry and represents and warrants to the
 licensee that it is not a competitor of Gaussian, Inc. and that
 it will not use this program in any manner prohibited above.
 ---------------------------------------------------------------
  

 Cite this work as:
 Gaussian 09, Revision E.01,
 M. J. Frisch, G. W. Trucks, H. B. Schlegel, G. E. Scuseria, 
 M. A. Robb, J. R. Cheeseman, G. Scalmani, V. Barone, B. Mennucci, 
 G. A. Petersson, H. Nakatsuji, M. Caricato, X. Li, H. P. Hratchian, 
 A. F. Izmaylov, J. Bloino, G. Zheng, J. L. Sonnenberg, M. Hada, 
 M. Ehara, K. Toyota, R. Fukuda, J. Hasegawa, M. Ishida, T. Nakajima, 
 Y. Honda, O. Kitao, H. Nakai, T. Vreven, J. A. Montgomery, Jr., 
 J. E. Peralta, F. Ogliaro, M. Bearpark, J. J. Heyd, E. Brothers, 
 K. N. Kudin, V. N. Staroverov, T. Keith, R. Kobayashi, J. Normand, 
 K. Raghavachari, A. Rendell, J. C. Burant, S. S. Iyengar, J. Tomasi, 
 M. Cossi, N. Rega, J. M. Millam, M. Klene, J. E. Knox, J. B. Cross, 
 V. Bakken, C. Adamo, J. Jaramillo, R. Gomperts, R. E. Stratmann, 
 O. Yazyev, A. J. Austin, R. Cammi, C. Pomelli, J. W. Ochterski, 
 R. L. Martin, K. Morokuma, V. G. Zakrzewski, G. A. Voth, 
 P. Salvador, J. J. Dannenberg, S. Dapprich, A. D. Daniels, 
 O. Farkas, J. B. Foresman, J. V. Ortiz, J. Cioslowski, 
 and D. J. Fox, Gaussian, Inc., Wallingford CT, 2013.
 
 ******************************************
 Gaussian 09:  EM64L-G09RevE.01 30-Nov-2015
                26-Aug-2021 
 ******************************************
 %nprocshared=64
 Will use up to   64 processors via shared memory.
 %mem=128GB
 %chk=HY_pc-3_B3LYP_OPT_FREQ.chk
 --------------------
 # opt freq b3lyp/gen
 --------------------
 1/14=-1,18=20,19=15,26=3,38=1/1,3;
 2/9=110,12=2,17=6,18=5,40=1/2;
 3/5=7,11=2,16=1,25=1,30=1,71=1,74=-5/1,2,3;
 4//1;
 5/5=2,38=5/2;
 6/7=2,8=2,9=2,10=2,28=1/1;
 7//1,2,3,16;
 1/14=-1,18=20,19=15,26=3/3(2);
 2/9=110/2;
 99//99;
 2/9=110/2;
 3/5=7,6=1,11=2,16=1,25=1,30=1,71=1,74=-5,82=7/1,2,3;
 4/5=5,16=3,69=1/1;
 5/5=2,38=5/2;
 7//1,2,3,16;
 1/14=-1,18=20,19=15,26=3/3(-5);
 2/9=110/2;
 6/7=2,8=2,9=2,10=2,19=2,28=1/1;
 99/9=1/99;
 ----------------------
 HY_pc-3_B3LYP_OPT_FREQ
 ----------------------
 Symbolic Z-matrix:
 Charge =  0 Multiplicity = 1
 O                     1.95     -0.746     0. 
 N                    -0.398    -1.        0. 
 C                     0.627    -0.202     0. 
 C                     0.428     1.325     0. 
 C                    -1.779    -0.48      0. 
 C                    -0.824     1.828     0. 
 C                    -2.011     0.856     0. 
 H                     1.902    -1.705     0. 
 H                     1.274     1.98      0. 
 H                    -2.604    -1.162     0. 
 H                    -0.986     2.885     0. 
 H                    -3.014     1.229     0. 
 

 GradGradGradGradGradGradGradGradGradGradGradGradGradGradGradGradGradGrad
 Berny optimization.
 Initialization pass.
                           ----------------------------
                           !    Initial Parameters    !
                           ! (Angstroms and Degrees)  !
 --------------------------                            --------------------------
 ! Name  Definition              Value          Derivative Info.                !
 --------------------------------------------------------------------------------
 ! R1    R(1,3)                  1.4305         estimate D2E/DX2                !
 ! R2    R(1,8)                  0.9602         estimate D2E/DX2                !
 ! R3    R(2,3)                  1.299          estimate D2E/DX2                !
 ! R4    R(2,5)                  1.4757         estimate D2E/DX2                !
 ! R5    R(3,4)                  1.5399         estimate D2E/DX2                !
 ! R6    R(4,6)                  1.3493         estimate D2E/DX2                !
 ! R7    R(4,9)                  1.0699         estimate D2E/DX2                !
 ! R8    R(5,7)                  1.356          estimate D2E/DX2                !
 ! R9    R(5,10)                 1.0704         estimate D2E/DX2                !
 ! R10   R(6,7)                  1.5342         estimate D2E/DX2                !
 ! R11   R(6,11)                 1.0693         estimate D2E/DX2                !
 ! R12   R(7,12)                 1.0701         estimate D2E/DX2                !
 ! A1    A(3,1,8)              109.4864         estimate D2E/DX2                !
 ! A2    A(3,2,5)              121.4646         estimate D2E/DX2                !
 ! A3    A(1,3,2)              119.7461         estimate D2E/DX2                !
 ! A4    A(1,3,4)              119.7768         estimate D2E/DX2                !
 ! A5    A(2,3,4)              120.4771         estimate D2E/DX2                !
 ! A6    A(3,4,6)              119.3131         estimate D2E/DX2                !
 ! A7    A(3,4,9)              120.3232         estimate D2E/DX2                !
 ! A8    A(6,4,9)              120.3637         estimate D2E/DX2                !
 ! A9    A(2,5,7)              120.4846         estimate D2E/DX2                !
 ! A10   A(2,5,10)             119.7873         estimate D2E/DX2                !
 ! A11   A(7,5,10)             119.7281         estimate D2E/DX2                !
 ! A12   A(4,6,7)              118.7988         estimate D2E/DX2                !
 ! A13   A(4,6,11)             120.6017         estimate D2E/DX2                !
 ! A14   A(7,6,11)             120.5995         estimate D2E/DX2                !
 ! A15   A(5,7,6)              119.4617         estimate D2E/DX2                !
 ! A16   A(5,7,12)             120.2507         estimate D2E/DX2                !
 ! A17   A(6,7,12)             120.2876         estimate D2E/DX2                !
 ! D1    D(8,1,3,2)              0.0            estimate D2E/DX2                !
 ! D2    D(8,1,3,4)            180.0            estimate D2E/DX2                !
 ! D3    D(5,2,3,1)            180.0            estimate D2E/DX2                !
 ! D4    D(5,2,3,4)              0.0            estimate D2E/DX2                !
 ! D5    D(3,2,5,7)              0.0            estimate D2E/DX2                !
 ! D6    D(3,2,5,10)           180.0            estimate D2E/DX2                !
 ! D7    D(1,3,4,6)            180.0            estimate D2E/DX2                !
 ! D8    D(1,3,4,9)              0.0            estimate D2E/DX2                !
 ! D9    D(2,3,4,6)              0.0            estimate D2E/DX2                !
 ! D10   D(2,3,4,9)            180.0            estimate D2E/DX2                !
 ! D11   D(3,4,6,7)              0.0            estimate D2E/DX2                !
 ! D12   D(3,4,6,11)           180.0            estimate D2E/DX2                !
 ! D13   D(9,4,6,7)            180.0            estimate D2E/DX2                !
 ! D14   D(9,4,6,11)             0.0            estimate D2E/DX2                !
 ! D15   D(2,5,7,6)              0.0            estimate D2E/DX2                !
 ! D16   D(2,5,7,12)           180.0            estimate D2E/DX2                !
 ! D17   D(10,5,7,6)           180.0            estimate D2E/DX2                !
 ! D18   D(10,5,7,12)            0.0            estimate D2E/DX2                !
 ! D19   D(4,6,7,5)              0.0            estimate D2E/DX2                !
 ! D20   D(4,6,7,12)           180.0            estimate D2E/DX2                !
 ! D21   D(11,6,7,5)           180.0            estimate D2E/DX2                !
 ! D22   D(11,6,7,12)            0.0            estimate D2E/DX2                !
 --------------------------------------------------------------------------------
 Trust Radius=3.00D-01 FncErr=1.00D-07 GrdErr=1.00D-06
 Number of steps in this run=     61 maximum allowed number of steps=    100.
 GradGradGradGradGradGradGradGradGradGradGradGradGradGradGradGradGradGrad

                          Input orientation:                          
 ---------------------------------------------------------------------
 Center     Atomic      Atomic             Coordinates (Angstroms)
 Number     Number       Type             X           Y           Z
 ---------------------------------------------------------------------
      1          8           0        1.950000   -0.746000    0.000000
      2          7           0       -0.398000   -1.000000    0.000000
      3          6           0        0.627000   -0.202000    0.000000
      4          6           0        0.428000    1.325000    0.000000
      5          6           0       -1.779000   -0.480000    0.000000
      6          6           0       -0.824000    1.828000    0.000000
      7          6           0       -2.011000    0.856000    0.000000
      8          1           0        1.902000   -1.705000    0.000000
      9          1           0        1.274000    1.980000    0.000000
     10          1           0       -2.604000   -1.162000    0.000000
     11          1           0       -0.986000    2.885000    0.000000
     12          1           0       -3.014000    1.229000    0.000000
 ---------------------------------------------------------------------
                    Distance matrix (angstroms):
                    1          2          3          4          5
     1  O    0.000000
     2  N    2.361699   0.000000
     3  C    1.430477   1.299011   0.000000
     4  C    2.570122   2.467367   1.539912   0.000000
     5  C    3.738475   1.475656   2.422007   2.851118   0.000000
     6  C    3.784251   2.859906   2.495256   1.349264   2.497777
     7  C    4.272695   2.458964   2.842254   2.483683   1.355994
     8  H    0.960200   2.405624   1.970947   3.369507   3.879483
     9  H    2.808568   3.417014   2.275903   1.069926   3.920766
    10  H    4.572961   2.211940   3.370602   3.921504   1.070397
    11  H    4.669503   3.929245   3.483007   2.105468   3.457177
    12  H    5.342464   3.436844   3.912115   3.443338   2.108532
                    6          7          8          9         10
     6  C    0.000000
     7  C    1.534195   0.000000
     8  H    4.462417   4.676568   0.000000
     9  H    2.103499   3.471974   3.738129   0.000000
    10  H    3.479727   2.103324   4.538599   4.991097   0.000000
    11  H    1.069342   2.273206   5.422974   2.434466   4.358455
    12  H    2.270441   1.070111   5.724981   4.353268   2.425898
                   11         12
    11  H    0.000000
    12  H    2.618228   0.000000
 Stoichiometry    C5H5NO
 Framework group  CS[SG(C5H5NO)]
 Deg. of freedom    21
 Full point group                 CS      NOp   2
 Largest Abelian subgroup         CS      NOp   2
 Largest concise Abelian subgroup C1      NOp   1
                         Standard orientation:                         
 ---------------------------------------------------------------------
 Center     Atomic      Atomic             Coordinates (Angstroms)
 Number     Number       Type             X           Y           Z
 ---------------------------------------------------------------------
      1          8           0        0.069381    2.385746    0.000000
      2          7           0       -1.157776    0.367898    0.000000
      3          6           0        0.000000    0.956952    0.000000
      4          6           0        1.297928    0.128270    0.000000
      5          6           0       -1.273517   -1.103212    0.000000
      6          6           0        1.221582   -1.218833    0.000000
      7          6           0       -0.162523   -1.880652    0.000000
      8          1           0       -0.819219    2.749579    0.000000
      9          1           0        2.250219    0.616001    0.000000
     10          1           0       -2.241334   -1.560464    0.000000
     11          1           0        2.109717   -1.814407    0.000000
     12          1           0       -0.250811   -2.947115    0.000000
 ---------------------------------------------------------------------
 Rotational constants (GHZ):      5.4860096      2.5088307      1.7215440
 General basis read from cards:  (5D, 7F)
 There are   506 symmetry adapted cartesian basis functions of A'  symmetry.
 There are   249 symmetry adapted cartesian basis functions of A"  symmetry.
 There are   402 symmetry adapted basis functions of A'  symmetry.
 There are   216 symmetry adapted basis functions of A"  symmetry.
   618 basis functions,   964 primitive gaussians,   755 cartesian basis functions
    25 alpha electrons       25 beta electrons
       nuclear repulsion energy       265.8673490964 Hartrees.
 NAtoms=   12 NActive=   12 NUniq=   12 SFac= 1.00D+00 NAtFMM=   60 NAOKFM=F Big=F
 Integral buffers will be    131072 words long.
 Raffenetti 2 integral format.
 Two-electron integral symmetry is turned on.
 One-electron integrals computed using PRISM.
 NBasis=   618 RedAO= T EigKep=  1.60D-05  NBF=   402   216
 NBsUse=   618 1.00D-06 EigRej= -1.00D+00 NBFU=   402   216
 ExpMin= 5.19D-02 ExpMax= 1.64D+05 ExpMxC= 5.17D+02 IAcc=2 IRadAn=         4 AccDes= 0.00D+00
 Harris functional with IExCor=  402 and IRadAn=       4 diagonalized for initial guess.
 HarFok:  IExCor=  402 AccDes= 0.00D+00 IRadAn=         4 IDoV= 1 UseB2=F ITyADJ=14
 ICtDFT=  3500011 ScaDFX=  1.000000  1.000000  1.000000  1.000000
 FoFCou: FMM=F IPFlag=           0 FMFlag=      100000 FMFlg1=           0
         NFxFlg=           0 DoJE=T BraDBF=F KetDBF=T FulRan=T
         wScrn=  0.000000 ICntrl=     500 IOpCl=  0 I1Cent=   200000004 NGrid=           0
         NMat0=    1 NMatS0=      1 NMatT0=    0 NMatD0=    1 NMtDS0=    0 NMtDT0=    0
 Petite list used in FoFCou.
 Initial guess orbital symmetries:
       Occupied  (A') (A') (A') (A') (A') (A') (A') (A') (A') (A')
                 (A') (A') (A') (A') (A') (A') (A') (A') (A') (A")
                 (A') (A") (A") (A') (A")
       Virtual   (A") (A") (A') (A') (A") (A') (A') (A') (A') (A")
                 (A') (A') (A') (A") (A") (A') (A') (A') (A') (A')
                 (A") (A") (A') (A') (A') (A') (A') (A") (A') (A')
                 (A') (A') (A") (A') (A') (A') (A') (A") (A') (A')
                 (A') (A') (A') (A') (A') (A") (A") (A') (A") (A')
                 (A') (A") (A') (A') (A") (A") (A') (A") (A') (A")
                 (A") (A') (A') (A') (A') (A") (A') (A') (A") (A')
                 (A') (A') (A') (A') (A") (A') (A') (A") (A") (A')
                 (A') (A") (A') (A') (A') (A') (A") (A') (A") (A')
                 (A') (A') (A") (A') (A") (A') (A") (A') (A') (A")
                 (A') (A') (A') (A") (A') (A') (A') (A') (A') (A")
                 (A') (A') (A') (A") (A') (A") (A') (A') (A") (A')
                 (A") (A') (A') (A") (A') (A") (A") (A') (A') (A')
                 (A") (A') (A") (A') (A") (A') (A") (A') (A') (A")
                 (A') (A') (A') (A') (A") (A") (A") (A') (A') (A')
                 (A") (A') (A") (A") (A') (A') (A') (A") (A') (A')
                 (A') (A") (A') (A") (A') (A') (A') (A') (A") (A")
                 (A') (A') (A') (A') (A') (A') (A") (A") (A') (A')
                 (A") (A") (A') (A') (A') (A") (A") (A') (A") (A')
                 (A') (A") (A") (A') (A") (A') (A') (A') (A") (A")
                 (A') (A') (A') (A") (A') (A') (A") (A') (A") (A')
                 (A') (A") (A') (A') (A') (A') (A') (A') (A") (A")
                 (A') (A") (A') (A') (A') (A") (A") (A') (A") (A')
                 (A") (A') (A') (A') (A') (A') (A') (A") (A') (A')
                 (A') (A') (A') (A') (A") (A') (A') (A') (A") (A")
                 (A') (A') (A') (A") (A') (A") (A') (A") (A') (A")
                 (A') (A') (A') (A') (A") (A") (A') (A') (A') (A")
                 (A') (A") (A') (A") (A') (A') (A') (A") (A") (A')
                 (A") (A') (A') (A") (A") (A') (A") (A") (A") (A')
                 (A') (A") (A") (A') (A") (A') (A") (A') (A") (A')
                 (A") (A") (A') (A') (A') (A") (A') (A") (A') (A")
                 (A') (A") (A') (A') (A') (A") (A') (A') (A') (A')
                 (A') (A') (A') (A') (A') (A') (A") (A') (A') (A')
                 (A") (A") (A') (A') (A") (A') (A') (A') (A") (A')
                 (A') (A') (A") (A") (A') (A') (A") (A') (A") (A')
                 (A") (A') (A") (A') (A") (A") (A") (A') (A') (A')
                 (A') (A') (A") (A') (A") (A') (A') (A") (A') (A')
                 (A") (A') (A") (A') (A') (A") (A') (A') (A") (A")
                 (A') (A') (A') (A") (A") (A") (A') (A") (A") (A")
                 (A') (A") (A') (A") (A") (A') (A') (A') (A") (A")
                 (A") (A') (A") (A') (A") (A') (A') (A') (A") (A')
                 (A") (A') (A") (A") (A') (A') (A') (A") (A') (A')
                 (A') (A") (A') (A') (A") (A') (A') (A') (A") (A')
                 (A') (A') (A') (A') (A') (A") (A") (A') (A') (A')
                 (A") (A') (A') (A') (A") (A') (A") (A') (A") (A")
                 (A") (A') (A') (A") (A') (A') (A") (A') (A") (A')
                 (A') (A') (A") (A') (A') (A") (A") (A') (A") (A')
                 (A") (A') (A') (A") (A') (A") (A') (A') (A") (A")
                 (A') (A') (A") (A') (A') (A') (A") (A") (A') (A')
                 (A') (A') (A') (A") (A') (A") (A') (A") (A") (A')
                 (A') (A') (A') (A") (A') (A") (A') (A') (A') (A")
                 (A') (A') (A') (A') (A") (A') (A') (A') (A') (A')
                 (A") (A") (A') (A") (A") (A') (A') (A') (A') (A')
                 (A') (A") (A') (A') (A') (A') (A") (A") (A") (A")
                 (A") (A") (A") (A") (A") (A') (A") (A') (A') (A')
                 (A') (A') (A') (A') (A') (A') (A') (A') (A') (A')
                 (A') (A") (A") (A') (A") (A") (A") (A") (A') (A")
                 (A') (A') (A') (A') (A') (A') (A') (A') (A') (A')
                 (A') (A") (A") (A') (A') (A') (A') (A') (A') (A')
                 (A') (A') (A')
 The electronic state of the initial guess is 1-A'.
 Requested convergence on RMS density matrix=1.00D-08 within 128 cycles.
 Requested convergence on MAX density matrix=1.00D-06.
 Requested convergence on             energy=1.00D-06.
 No special actions if energy rises.
 Integral accuracy reduced to 1.0D-05 until final iterations.
 Initial convergence to 1.0D-05 achieved.  Increase integral accuracy.
 SCF Done:  E(RB3LYP) =  -323.637958182     A.U. after   13 cycles
            NFock= 13  Conv=0.49D-08     -V/T= 2.0067

 **********************************************************************

            Population analysis using the SCF density.

 **********************************************************************

 Orbital symmetries:
       Occupied  (A') (A') (A') (A') (A') (A') (A') (A') (A') (A')
                 (A') (A') (A') (A') (A') (A') (A') (A') (A") (A')
                 (A') (A") (A") (A') (A")
       Virtual   (A") (A") (A') (A') (A') (A') (A') (A") (A') (A")
                 (A') (A") (A') (A") (A') (A') (A') (A") (A') (A")
                 (A') (A') (A') (A') (A') (A') (A") (A') (A') (A')
                 (A') (A") (A') (A') (A') (A') (A') (A') (A") (A')
                 (A') (A') (A') (A') (A") (A') (A") (A") (A') (A')
                 (A') (A") (A') (A") (A') (A") (A') (A") (A") (A')
                 (A") (A') (A') (A') (A") (A') (A') (A") (A') (A')
                 (A') (A') (A') (A') (A') (A") (A') (A") (A") (A')
                 (A') (A') (A') (A") (A') (A') (A') (A") (A') (A')
                 (A") (A') (A") (A') (A') (A") (A') (A") (A') (A")
                 (A') (A') (A') (A") (A') (A') (A') (A') (A') (A")
                 (A') (A') (A') (A') (A") (A") (A') (A') (A") (A')
                 (A") (A') (A') (A') (A") (A") (A') (A') (A") (A')
                 (A') (A") (A") (A') (A") (A') (A') (A") (A") (A')
                 (A') (A') (A') (A') (A") (A") (A') (A") (A') (A')
                 (A") (A') (A") (A") (A') (A') (A') (A') (A") (A')
                 (A') (A') (A") (A') (A") (A') (A') (A") (A') (A")
                 (A') (A') (A') (A') (A') (A") (A') (A") (A') (A")
                 (A') (A") (A') (A') (A') (A") (A") (A') (A") (A')
                 (A') (A") (A") (A') (A") (A') (A') (A") (A') (A")
                 (A') (A') (A') (A") (A') (A') (A') (A") (A") (A')
                 (A') (A') (A") (A') (A') (A') (A') (A') (A") (A")
                 (A') (A") (A') (A') (A') (A") (A") (A') (A") (A')
                 (A") (A') (A') (A') (A') (A') (A") (A') (A') (A')
                 (A') (A') (A') (A') (A") (A') (A') (A") (A') (A")
                 (A') (A') (A') (A") (A') (A") (A') (A") (A') (A")
                 (A') (A') (A') (A") (A') (A") (A') (A') (A') (A")
                 (A') (A") (A') (A") (A') (A') (A') (A") (A') (A")
                 (A') (A") (A') (A") (A") (A') (A") (A") (A") (A')
                 (A") (A') (A") (A") (A') (A') (A") (A") (A') (A")
                 (A') (A') (A") (A') (A') (A") (A') (A") (A') (A")
                 (A') (A") (A') (A') (A') (A") (A') (A') (A') (A')
                 (A') (A') (A') (A') (A') (A') (A') (A") (A') (A')
                 (A") (A") (A') (A') (A") (A') (A') (A') (A") (A')
                 (A') (A") (A') (A") (A") (A') (A') (A') (A") (A")
                 (A') (A') (A") (A') (A") (A") (A") (A') (A') (A')
                 (A') (A') (A") (A') (A") (A') (A') (A') (A") (A')
                 (A") (A') (A") (A') (A') (A") (A') (A") (A') (A")
                 (A') (A") (A') (A') (A") (A") (A') (A") (A") (A")
                 (A') (A") (A') (A") (A') (A") (A') (A') (A") (A")
                 (A") (A') (A") (A') (A') (A") (A') (A') (A") (A")
                 (A') (A') (A") (A") (A') (A') (A') (A") (A') (A')
                 (A") (A') (A') (A') (A") (A') (A') (A') (A") (A')
                 (A') (A') (A') (A') (A") (A') (A") (A') (A') (A')
                 (A") (A') (A') (A") (A') (A') (A') (A") (A") (A")
                 (A") (A') (A') (A") (A') (A") (A') (A') (A") (A')
                 (A') (A') (A") (A') (A') (A") (A") (A') (A") (A')
                 (A") (A') (A') (A") (A') (A") (A') (A") (A') (A")
                 (A') (A') (A") (A') (A') (A") (A') (A") (A') (A')
                 (A') (A') (A") (A') (A") (A') (A') (A") (A") (A')
                 (A') (A') (A') (A") (A') (A") (A') (A') (A") (A')
                 (A') (A') (A') (A') (A") (A') (A') (A') (A') (A")
                 (A') (A") (A') (A") (A") (A') (A') (A') (A') (A')
                 (A") (A') (A') (A') (A') (A') (A") (A") (A") (A")
                 (A") (A") (A") (A") (A") (A') (A') (A") (A') (A')
                 (A') (A') (A') (A') (A') (A') (A') (A') (A') (A')
                 (A') (A") (A") (A') (A") (A") (A") (A") (A") (A')
                 (A') (A') (A') (A') (A') (A') (A') (A') (A') (A')
                 (A') (A") (A") (A') (A') (A') (A') (A') (A') (A')
                 (A') (A') (A')
 The electronic state is 1-A'.
 Alpha  occ. eigenvalues --  -19.16659 -14.32617 -10.29526 -10.22752 -10.21248
 Alpha  occ. eigenvalues --  -10.20726 -10.19936  -1.05656  -0.92081  -0.80407
 Alpha  occ. eigenvalues --   -0.76386  -0.64129  -0.62730  -0.55084  -0.52090
 Alpha  occ. eigenvalues --   -0.48720  -0.45510  -0.42897  -0.42416  -0.40877
 Alpha  occ. eigenvalues --   -0.37148  -0.35193  -0.29316  -0.27630  -0.25926
 Alpha virt. eigenvalues --   -0.04517  -0.02647   0.00168   0.00938   0.02182
 Alpha virt. eigenvalues --    0.03992   0.05436   0.06430   0.06966   0.09056
 Alpha virt. eigenvalues --    0.09355   0.10073   0.10109   0.10663   0.11729
 Alpha virt. eigenvalues --    0.12068   0.13456   0.14918   0.15068   0.16496
 Alpha virt. eigenvalues --    0.16880   0.17481   0.18767   0.19453   0.19986
 Alpha virt. eigenvalues --    0.20750   0.21553   0.21664   0.22749   0.24459
 Alpha virt. eigenvalues --    0.25413   0.25723   0.26038   0.27722   0.28361
 Alpha virt. eigenvalues --    0.30769   0.30954   0.31974   0.32228   0.33324
 Alpha virt. eigenvalues --    0.33736   0.34746   0.36357   0.37539   0.38895
 Alpha virt. eigenvalues --    0.39936   0.40990   0.43762   0.44315   0.44509
 Alpha virt. eigenvalues --    0.46011   0.46018   0.47382   0.47717   0.47935
 Alpha virt. eigenvalues --    0.48818   0.50616   0.50719   0.51992   0.52477
 Alpha virt. eigenvalues --    0.53560   0.54055   0.56249   0.57595   0.57818
 Alpha virt. eigenvalues --    0.58759   0.59408   0.61451   0.61566   0.62598
 Alpha virt. eigenvalues --    0.66165   0.66692   0.67715   0.70189   0.71099
 Alpha virt. eigenvalues --    0.71474   0.72728   0.72936   0.74094   0.74628
 Alpha virt. eigenvalues --    0.76248   0.77704   0.78190   0.78458   0.79969
 Alpha virt. eigenvalues --    0.80816   0.81747   0.83469   0.84729   0.86091
 Alpha virt. eigenvalues --    0.86598   0.88241   0.90508   0.90578   0.94121
 Alpha virt. eigenvalues --    0.94396   0.94956   0.95760   0.96842   0.97781
 Alpha virt. eigenvalues --    0.98451   1.01122   1.02417   1.04222   1.04375
 Alpha virt. eigenvalues --    1.05327   1.06908   1.09129   1.10190   1.11485
 Alpha virt. eigenvalues --    1.13321   1.16288   1.21051   1.21662   1.22072
 Alpha virt. eigenvalues --    1.24518   1.29367   1.33177   1.33915   1.35032
 Alpha virt. eigenvalues --    1.36539   1.37089   1.42074   1.43752   1.44221
 Alpha virt. eigenvalues --    1.48105   1.49708   1.49935   1.50884   1.52170
 Alpha virt. eigenvalues --    1.54888   1.54988   1.56798   1.59690   1.59770
 Alpha virt. eigenvalues --    1.61216   1.62270   1.62418   1.63964   1.64853
 Alpha virt. eigenvalues --    1.65028   1.68575   1.71299   1.72921   1.73381
 Alpha virt. eigenvalues --    1.73886   1.75470   1.75959   1.76649   1.77929
 Alpha virt. eigenvalues --    1.79783   1.81742   1.82973   1.84378   1.84605
 Alpha virt. eigenvalues --    1.85925   1.86618   1.90628   1.91045   1.91587
 Alpha virt. eigenvalues --    1.95787   1.97154   1.97452   1.98135   1.99190
 Alpha virt. eigenvalues --    2.00918   2.02164   2.02956   2.03740   2.07084
 Alpha virt. eigenvalues --    2.07392   2.08669   2.09902   2.11154   2.12712
 Alpha virt. eigenvalues --    2.12885   2.13323   2.14680   2.18916   2.21610
 Alpha virt. eigenvalues --    2.22219   2.22970   2.25575   2.26661   2.28315
 Alpha virt. eigenvalues --    2.28698   2.32319   2.34303   2.36111   2.36297
 Alpha virt. eigenvalues --    2.37030   2.38506   2.40097   2.40185   2.43852
 Alpha virt. eigenvalues --    2.44656   2.45651   2.48144   2.49339   2.51861
 Alpha virt. eigenvalues --    2.52795   2.53774   2.55417   2.57008   2.58529
 Alpha virt. eigenvalues --    2.59027   2.62975   2.64518   2.66920   2.67788
 Alpha virt. eigenvalues --    2.71221   2.76197   2.76692   2.78724   2.81712
 Alpha virt. eigenvalues --    2.83118   2.86341   2.86760   2.90063   2.93031
 Alpha virt. eigenvalues --    2.93962   2.95835   2.97030   3.01449   3.04675
 Alpha virt. eigenvalues --    3.04965   3.09365   3.11243   3.11317   3.12710
 Alpha virt. eigenvalues --    3.15834   3.16781   3.18582   3.21073   3.23908
 Alpha virt. eigenvalues --    3.26284   3.27744   3.28337   3.30152   3.31656
 Alpha virt. eigenvalues --    3.37389   3.38573   3.41526   3.43430   3.43512
 Alpha virt. eigenvalues --    3.47347   3.49913   3.50587   3.51427   3.54731
 Alpha virt. eigenvalues --    3.56508   3.57957   3.61689   3.61919   3.65060
 Alpha virt. eigenvalues --    3.67650   3.69740   3.77154   3.79372   3.86522
 Alpha virt. eigenvalues --    3.90205   3.94867   4.01718   4.01750   4.02119
 Alpha virt. eigenvalues --    4.07520   4.15929   4.17132   4.19900   4.20486
 Alpha virt. eigenvalues --    4.24179   4.31780   4.34160   4.36596   4.38942
 Alpha virt. eigenvalues --    4.45297   4.49368   4.53486   4.56281   4.57232
 Alpha virt. eigenvalues --    4.64345   4.66263   4.68587   4.70075   4.72480
 Alpha virt. eigenvalues --    4.75906   4.78343   4.86895   4.89461   4.90485
 Alpha virt. eigenvalues --    4.92096   4.92900   4.93658   4.96418   4.96547
 Alpha virt. eigenvalues --    4.99771   4.99828   5.00832   5.00943   5.05412
 Alpha virt. eigenvalues --    5.05628   5.08656   5.09534   5.12469   5.14173
 Alpha virt. eigenvalues --    5.14606   5.16916   5.19995   5.21419   5.23239
 Alpha virt. eigenvalues --    5.23387   5.30291   5.30632   5.32415   5.36211
 Alpha virt. eigenvalues --    5.42162   5.42731   5.46767   5.48128   5.51509
 Alpha virt. eigenvalues --    5.53848   5.57502   5.59526   5.64548   5.74480
 Alpha virt. eigenvalues --    5.80730   5.84057   5.84764   5.86496   5.90821
 Alpha virt. eigenvalues --    5.96435   5.98483   5.99570   6.06585   6.09183
 Alpha virt. eigenvalues --    6.10573   6.13978   6.15984   6.20816   6.23077
 Alpha virt. eigenvalues --    6.31112   6.33242   6.33887   6.36992   6.40770
 Alpha virt. eigenvalues --    6.40794   6.43603   6.47815   6.50370   6.52667
 Alpha virt. eigenvalues --    6.54944   6.56122   6.56402   6.61481   6.62820
 Alpha virt. eigenvalues --    6.64100   6.67773   6.75186   6.79279   6.82966
 Alpha virt. eigenvalues --    6.85408   6.87437   6.92490   6.93219   6.94110
 Alpha virt. eigenvalues --    6.98280   7.03358   7.04284   7.04654   7.07009
 Alpha virt. eigenvalues --    7.09533   7.10622   7.17885   7.19269   7.21493
 Alpha virt. eigenvalues --    7.23229   7.24848   7.26132   7.26695   7.27387
 Alpha virt. eigenvalues --    7.32841   7.36790   7.37063   7.38888   7.39939
 Alpha virt. eigenvalues --    7.44139   7.45498   7.46645   7.49368   7.50452
 Alpha virt. eigenvalues --    7.50869   7.53896   7.55610   7.59404   7.59859
 Alpha virt. eigenvalues --    7.60703   7.61526   7.63529   7.65411   7.66759
 Alpha virt. eigenvalues --    7.69961   7.71797   7.72589   7.73837   7.75346
 Alpha virt. eigenvalues --    7.75631   7.80976   7.84922   7.85608   7.87321
 Alpha virt. eigenvalues --    7.87456   7.88692   7.92621   7.93208   7.95384
 Alpha virt. eigenvalues --    7.96616   7.98654   7.99258   8.00496   8.03209
 Alpha virt. eigenvalues --    8.06196   8.07809   8.09580   8.11456   8.14702
 Alpha virt. eigenvalues --    8.19585   8.24091   8.24258   8.27584   8.29523
 Alpha virt. eigenvalues --    8.31439   8.33978   8.37818   8.41655   8.44014
 Alpha virt. eigenvalues --    8.46386   8.49577   8.53803   8.56848   8.59950
 Alpha virt. eigenvalues --    8.63041   8.67086   8.68802   8.71180   8.72371
 Alpha virt. eigenvalues --    8.77235   8.81807   8.81840   8.82925   8.84301
 Alpha virt. eigenvalues --    8.88940   8.92014   8.92297   8.94039   8.96127
 Alpha virt. eigenvalues --    9.02335   9.03931   9.07144   9.09152   9.10250
 Alpha virt. eigenvalues --    9.12241   9.13534   9.14739   9.20447   9.23601
 Alpha virt. eigenvalues --    9.25539   9.28138   9.30833   9.32361   9.33097
 Alpha virt. eigenvalues --    9.34783   9.38360   9.39994   9.40973   9.42957
 Alpha virt. eigenvalues --    9.47482   9.52335   9.53556   9.54578   9.59143
 Alpha virt. eigenvalues --    9.60418   9.64018   9.65739   9.68602   9.75373
 Alpha virt. eigenvalues --    9.76148   9.78358   9.87552   9.92370   9.93521
 Alpha virt. eigenvalues --    9.98047  10.03824  10.07018  10.08285  10.16238
 Alpha virt. eigenvalues --   10.16504  10.21006  10.21123  10.25370  10.29141
 Alpha virt. eigenvalues --   10.34742  10.42642  10.44344  10.48317  10.50668
 Alpha virt. eigenvalues --   10.56481  10.61064  10.62216  10.62928  10.65157
 Alpha virt. eigenvalues --   10.76852  10.77727  10.94874  11.00908  11.01173
 Alpha virt. eigenvalues --   11.10622  11.18242  11.30432  11.42389  11.77214
 Alpha virt. eigenvalues --   11.77590  11.79723  11.86315  11.91809  11.98311
 Alpha virt. eigenvalues --   12.07893  12.28214  12.43202  12.72391  12.73311
 Alpha virt. eigenvalues --   12.83784  12.84604  13.03288  13.04822  13.30259
 Alpha virt. eigenvalues --   14.57000  16.29016  16.35098  16.40266  16.47163
 Alpha virt. eigenvalues --   16.54574  16.57536  16.60703  16.62021  16.69840
 Alpha virt. eigenvalues --   16.74207  16.75642  16.76568  16.90085  17.09041
 Alpha virt. eigenvalues --   17.16297  17.21665  17.24385  17.40648  17.58508
 Alpha virt. eigenvalues --   17.64296  17.66110  17.74530  17.78189  17.91305
 Alpha virt. eigenvalues --   18.01657  18.98600  19.20331  19.20518  19.27781
 Alpha virt. eigenvalues --   19.30868  19.36104  19.44016  19.51348  19.51905
 Alpha virt. eigenvalues --   19.64699  19.70587  19.72532  19.83009  19.97213
 Alpha virt. eigenvalues --   20.13464  21.45529  21.77943  21.88668  21.92139
 Alpha virt. eigenvalues --   22.01089  22.17520  22.35208  22.44694  23.04614
 Alpha virt. eigenvalues --   24.79353  30.20962  31.12486  31.91520  32.96070
 Alpha virt. eigenvalues --   33.88738  42.22635  55.39326
          Condensed to atoms (all electrons):
               1          2          3          4          5          6
     1  O    7.969418  -0.098400   0.316791  -0.071308   0.007040   0.002632
     2  N   -0.098400   6.873283   0.451647  -0.065080   0.410312  -0.015183
     3  C    0.316791   0.451647   4.432283   0.454353  -0.012436  -0.020526
     4  C   -0.071308  -0.065080   0.454353   4.884621  -0.031839   0.539599
     5  C    0.007040   0.410312  -0.012436  -0.031839   4.677479  -0.028994
     6  C    0.002632  -0.015183  -0.020526   0.539599  -0.028994   4.788441
     7  C   -0.000217  -0.065574  -0.028458  -0.054214   0.552159   0.474595
     8  H    0.314779   0.012126  -0.020045   0.009984  -0.000153  -0.000313
     9  H    0.003255   0.006084  -0.028392   0.407894  -0.001726  -0.046054
    10  H   -0.000415  -0.035067   0.003326  -0.001384   0.417340   0.005367
    11  H   -0.000479  -0.000514   0.005869  -0.040348   0.004938   0.404083
    12  H    0.000153   0.007816  -0.000182   0.004069  -0.036880  -0.041637
               7          8          9         10         11         12
     1  O   -0.000217   0.314779   0.003255  -0.000415  -0.000479   0.000153
     2  N   -0.065574   0.012126   0.006084  -0.035067  -0.000514   0.007816
     3  C   -0.028458  -0.020045  -0.028392   0.003326   0.005869  -0.000182
     4  C   -0.054214   0.009984   0.407894  -0.001384  -0.040348   0.004069
     5  C    0.552159  -0.000153  -0.001726   0.417340   0.004938  -0.036880
     6  C    0.474595  -0.000313  -0.046054   0.005367   0.404083  -0.041637
     7  C    4.809633   0.000183   0.007730  -0.053757  -0.037503   0.399542
     8  H    0.000183   0.410998  -0.001012  -0.000328   0.000141  -0.000074
     9  H    0.007730  -0.001012   0.589825   0.000234  -0.006934  -0.000384
    10  H   -0.053757  -0.000328   0.000234   0.588188  -0.000693  -0.001441
    11  H   -0.037503   0.000141  -0.006934  -0.000693   0.609119  -0.002963
    12  H    0.399542  -0.000074  -0.000384  -0.001441  -0.002963   0.620441
 Mulliken charges:
               1
     1  O   -0.443249
     2  N   -0.481450
     3  C    0.445769
     4  C   -0.036348
     5  C    0.042759
     6  C   -0.062010
     7  C   -0.004119
     8  H    0.273714
     9  H    0.069479
    10  H    0.078631
    11  H    0.065285
    12  H    0.051540
 Sum of Mulliken charges =  -0.00000
 Mulliken charges with hydrogens summed into heavy atoms:
               1
     1  O   -0.169536
     2  N   -0.481450
     3  C    0.445769
     4  C    0.033131
     5  C    0.121390
     6  C    0.003275
     7  C    0.047421
 Electronic spatial extent (au):  <R**2>=            678.8522
 Charge=             -0.0000 electrons
 Dipole moment (field-independent basis, Debye):
    X=              0.5889    Y=             -1.5428    Z=             -0.0000  Tot=              1.6514
 Quadrupole moment (field-independent basis, Debye-Ang):
   XX=            -37.9811   YY=            -36.2762   ZZ=            -43.8509
   XY=             -1.9708   XZ=              0.0000   YZ=             -0.0000
 Traceless Quadrupole moment (field-independent basis, Debye-Ang):
   XX=              1.3883   YY=              3.0932   ZZ=             -4.4815
   XY=             -1.9708   XZ=              0.0000   YZ=             -0.0000
 Octapole moment (field-independent basis, Debye-Ang**2):
  XXX=              6.7378  YYY=              5.7471  ZZZ=              0.0000  XYY=            -12.7558
  XXY=             -1.8972  XXZ=             -0.0000  XZZ=             -0.8722  YZZ=              5.6065
  YYZ=              0.0000  XYZ=              0.0000
 Hexadecapole moment (field-independent basis, Debye-Ang**3):
 XXXX=           -282.9641 YYYY=           -495.0037 ZZZZ=            -49.3702 XXXY=              7.5380
 XXXZ=              0.0000 YYYX=            -39.9949 YYYZ=             -0.0000 ZZZX=              0.0000
 ZZZY=             -0.0000 XXYY=           -121.7029 XXZZ=            -64.2496 YYZZ=           -108.2365
 XXYZ=             -0.0000 YYXZ=              0.0000 ZZXY=             -0.8254
 N-N= 2.658673490964D+02 E-N=-1.286116860913D+03  KE= 3.214713867592D+02
 Symmetry A'   KE= 3.097718005376D+02
 Symmetry A"   KE= 1.169958622162D+01
 Calling FoFJK, ICntrl=      2127 FMM=F ISym2X=1 I1Cent= 0 IOpClX= 0 NMat=1 NMatS=1 NMatT=0.
 ***** Axes restored to original set *****
 -------------------------------------------------------------------
 Center     Atomic                   Forces (Hartrees/Bohr)
 Number     Number              X              Y              Z
 -------------------------------------------------------------------
      1        8          -0.040790117    0.035805676   -0.000000000
      2        7          -0.039102339    0.007580361    0.000000000
      3        6          -0.006787659    0.028081414   -0.000000000
      4        6           0.016879098   -0.054437209    0.000000000
      5        6           0.070036646    0.010883249   -0.000000000
      6        6          -0.044179811   -0.054237261    0.000000000
      7        6           0.049452636    0.030203842   -0.000000000
      8        1          -0.008662133   -0.003610987    0.000000000
      9        1           0.008349191    0.001003528   -0.000000000
     10        1           0.003597176   -0.012502658    0.000000000
     11        1          -0.003358896    0.006475558   -0.000000000
     12        1          -0.005433792    0.004754487   -0.000000000
 -------------------------------------------------------------------
 Cartesian Forces:  Max     0.070036646 RMS     0.024901821

 GradGradGradGradGradGradGradGradGradGradGradGradGradGradGradGradGradGrad
 Berny optimization.
 FormGI is forming the generalized inverse of G from B-inverse, IUseBI=4.
 Internal  Forces:  Max     0.067466636 RMS     0.019259674
 Search for a local minimum.
 Step number   1 out of a maximum of   61
 All quantities printed in internal units (Hartrees-Bohrs-Radians)
 Mixed Optimization -- RFO/linear search
 Second derivative matrix not updated -- first step.
 ITU=  0
     Eigenvalues ---    0.00849   0.00934   0.01289   0.01316   0.01502
     Eigenvalues ---    0.01622   0.01750   0.02177   0.02343   0.16000
     Eigenvalues ---    0.16000   0.16000   0.16000   0.16000   0.22000
     Eigenvalues ---    0.22368   0.24486   0.25000   0.28112   0.28766
     Eigenvalues ---    0.34368   0.37180   0.37216   0.37239   0.37313
     Eigenvalues ---    0.40921   0.51562   0.53878   0.55430   0.65363
 RFO step:  Lambda=-5.16606173D-02 EMin= 8.49304147D-03
 Linear search not attempted -- first point.
 Maximum step size (   0.300) exceeded in Quadratic search.
    -- Step size scaled by   0.783
 Iteration  1 RMS(Cart)=  0.06763624 RMS(Int)=  0.00068436
 Iteration  2 RMS(Cart)=  0.00077528 RMS(Int)=  0.00011170
 Iteration  3 RMS(Cart)=  0.00000074 RMS(Int)=  0.00011170
 ClnCor:  largest displacement from symmetrization is 5.61D-09 for atom    11.
 Variable       Old X    -DE/DX   Delta X   Delta X   Delta X     New X
                                 (Linear)    (Quad)   (Total)
    R1        2.70321  -0.05798   0.00000  -0.09850  -0.09850   2.60471
    R2        1.81452   0.00404   0.00000   0.00522   0.00522   1.81973
    R3        2.45477  -0.02377   0.00000  -0.02659  -0.02646   2.42831
    R4        2.78859  -0.06747   0.00000  -0.13355  -0.13337   2.65521
    R5        2.91001  -0.06314   0.00000  -0.14614  -0.14618   2.76384
    R6        2.54974  -0.00336   0.00000  -0.00286  -0.00304   2.54670
    R7        2.02187   0.00722   0.00000   0.01332   0.01332   2.03519
    R8        2.56246  -0.00513   0.00000  -0.00721  -0.00716   2.55530
    R9        2.02276   0.00519   0.00000   0.00960   0.00960   2.03236
   R10        2.89921  -0.06339   0.00000  -0.14309  -0.14322   2.75599
   R11        2.02076   0.00691   0.00000   0.01274   0.01274   2.03350
   R12        2.02222   0.00675   0.00000   0.01247   0.01247   2.03469
    A1        1.91090  -0.01537   0.00000  -0.05685  -0.05685   1.85405
    A2        2.11996  -0.01854   0.00000  -0.05557  -0.05514   2.06482
    A3        2.08996  -0.00421   0.00000  -0.01018  -0.01022   2.07975
    A4        2.09050  -0.01850   0.00000  -0.04726  -0.04730   2.04320
    A5        2.10272   0.02271   0.00000   0.05744   0.05752   2.16024
    A6        2.08241  -0.01055   0.00000  -0.02542  -0.02568   2.05673
    A7        2.10004   0.00091   0.00000  -0.00343  -0.00331   2.09673
    A8        2.10074   0.00964   0.00000   0.02885   0.02898   2.12972
    A9        2.10285   0.01175   0.00000   0.03017   0.03036   2.13321
   A10        2.09068  -0.01794   0.00000  -0.05971  -0.05981   2.03087
   A11        2.08965   0.00619   0.00000   0.02955   0.02945   2.11910
   A12        2.07343  -0.00166   0.00000   0.00200   0.00166   2.07509
   A13        2.10490   0.00319   0.00000   0.00775   0.00792   2.11281
   A14        2.10486  -0.00154   0.00000  -0.00975  -0.00957   2.09528
   A15        2.08500  -0.00371   0.00000  -0.00861  -0.00872   2.07628
   A16        2.09877   0.00445   0.00000   0.01389   0.01394   2.11271
   A17        2.09941  -0.00073   0.00000  -0.00527  -0.00522   2.09419
    D1       -0.00000  -0.00000   0.00000  -0.00000   0.00000   0.00000
    D2        3.14159  -0.00000   0.00000  -0.00000   0.00000   3.14159
    D3        3.14159  -0.00000   0.00000  -0.00000   0.00000   3.14159
    D4        0.00000  -0.00000   0.00000  -0.00000   0.00000   0.00000
    D5       -0.00000  -0.00000   0.00000  -0.00000   0.00000   0.00000
    D6        3.14159  -0.00000   0.00000  -0.00000   0.00000   3.14159
    D7        3.14159   0.00000   0.00000   0.00000   0.00000   3.14159
    D8        0.00000   0.00000   0.00000   0.00000   0.00000   0.00000
    D9       -0.00000   0.00000   0.00000   0.00000   0.00000   0.00000
   D10        3.14159   0.00000   0.00000  -0.00000   0.00000   3.14159
   D11        0.00000  -0.00000   0.00000  -0.00000  -0.00000   0.00000
   D12        3.14159  -0.00000   0.00000  -0.00000   0.00000   3.14159
   D13        3.14159  -0.00000   0.00000   0.00000   0.00000   3.14159
   D14       -0.00000  -0.00000   0.00000   0.00000   0.00000   0.00000
   D15        0.00000   0.00000   0.00000   0.00000  -0.00000   0.00000
   D16        3.14159   0.00000   0.00000   0.00000   0.00000   3.14159
   D17        3.14159   0.00000   0.00000   0.00000   0.00000   3.14159
   D18       -0.00000   0.00000   0.00000   0.00000   0.00000   0.00000
   D19       -0.00000  -0.00000   0.00000  -0.00000   0.00000   0.00000
   D20        3.14159   0.00000   0.00000   0.00000   0.00000   3.14159
   D21        3.14159  -0.00000   0.00000  -0.00000   0.00000   3.14159
   D22        0.00000   0.00000   0.00000   0.00000  -0.00000   0.00000
         Item               Value     Threshold  Converged?
 Maximum Force            0.067467     0.000450     NO 
 RMS     Force            0.019260     0.000300     NO 
 Maximum Displacement     0.226806     0.001800     NO 
 RMS     Displacement     0.067865     0.001200     NO 
 Predicted change in Energy=-2.694126D-02
 GradGradGradGradGradGradGradGradGradGradGradGradGradGradGradGradGradGrad

                          Input orientation:                          
 ---------------------------------------------------------------------
 Center     Atomic      Atomic             Coordinates (Angstroms)
 Number     Number       Type             X           Y           Z
 ---------------------------------------------------------------------
      1          8           0        1.863641   -0.669410   -0.000000
      2          7           0       -0.410385   -0.994953    0.000000
      3          6           0        0.577647   -0.173348   -0.000000
      4          6           0        0.425455    1.281271   -0.000000
      5          6           0       -1.713616   -0.469753    0.000000
      6          6           0       -0.825221    1.783256   -0.000000
      7          6           0       -1.954809    0.860768    0.000000
      8          1           0        1.781979   -1.628903    0.000000
      9          1           0        1.295566    1.915923   -0.000000
     10          1           0       -2.516731   -1.185056    0.000000
     11          1           0       -0.997010    2.845537   -0.000000
     12          1           0       -2.961516    1.242667    0.000000
 ---------------------------------------------------------------------
                    Distance matrix (angstroms):
                    1          2          3          4          5
     1  O    0.000000
     2  N    2.297210   0.000000
     3  C    1.378354   1.285007   0.000000
     4  C    2.423538   2.424834   1.462559   0.000000
     5  C    3.582824   1.405078   2.310355   2.764364   0.000000
     6  C    3.639444   2.809009   2.407558   1.347657   2.421837
     7  C    4.113637   2.414321   2.735458   2.417122   1.352205
     8  H    0.962962   2.282182   1.889195   3.210805   3.682773
     9  H    2.647009   3.373939   2.209176   1.076976   3.840133
    10  H    4.410618   2.114907   3.255569   3.839170   1.075478
    11  H    4.531907   3.885034   3.404880   2.114317   3.391853
    12  H    5.190200   3.393407   3.811925   3.387190   2.118876
                    6          7          8          9         10
     6  C    0.000000
     7  C    1.458408   0.000000
     8  H    4.294220   4.490217   0.000000
     9  H    2.124933   3.417352   3.578043   0.000000
    10  H    3.416443   2.121592   4.321564   4.914233   0.000000
    11  H    1.076082   2.203789   5.267200   2.473881   4.307578
    12  H    2.203631   1.076710   5.544967   4.309991   2.468131
                   11         12
    11  H    0.000000
    12  H    2.535443   0.000000
 Stoichiometry    C5H5NO
 Framework group  CS[SG(C5H5NO)]
 Deg. of freedom    21
 Full point group                 CS      NOp   2
 Largest Abelian subgroup         CS      NOp   2
 Largest concise Abelian subgroup C1      NOp   1
                         Standard orientation:                         
 ---------------------------------------------------------------------
 Center     Atomic      Atomic             Coordinates (Angstroms)
 Number     Number       Type             X           Y           Z
 ---------------------------------------------------------------------
      1          8           0        0.094585    2.284210    0.000000
      2          7           0       -1.162461    0.361449    0.000000
      3          6           0        0.000000    0.909106    0.000000
      4          6           0        1.253637    0.155799    0.000000
      5          6           0       -1.237936   -1.041600    0.000000
      6          6           0        1.179361   -1.189809    0.000000
      7          6           0       -0.134398   -1.823049    0.000000
      8          1           0       -0.809357    2.616150    0.000000
      9          1           0        2.196812    0.675702    0.000000
     10          1           0       -2.225845   -1.466677    0.000000
     11          1           0        2.069211   -1.794886    0.000000
     12          1           0       -0.214267   -2.896792    0.000000
 ---------------------------------------------------------------------
 Rotational constants (GHZ):      5.7378165      2.7092349      1.8402981
 Basis read from rwf:  (5D, 7F)
 There are   506 symmetry adapted cartesian basis functions of A'  symmetry.
 There are   249 symmetry adapted cartesian basis functions of A"  symmetry.
 There are   402 symmetry adapted basis functions of A'  symmetry.
 There are   216 symmetry adapted basis functions of A"  symmetry.
   618 basis functions,   964 primitive gaussians,   755 cartesian basis functions
    25 alpha electrons       25 beta electrons
       nuclear repulsion energy       273.4169395269 Hartrees.
 NAtoms=   12 NActive=   12 NUniq=   12 SFac= 1.00D+00 NAtFMM=   60 NAOKFM=F Big=F
 Integral buffers will be    131072 words long.
 Raffenetti 2 integral format.
 Two-electron integral symmetry is turned on.
 One-electron integrals computed using PRISM.
 NBasis=   618 RedAO= T EigKep=  1.39D-05  NBF=   402   216
 NBsUse=   618 1.00D-06 EigRej= -1.00D+00 NBFU=   402   216
 Initial guess from the checkpoint file:  "HY_pc-3_B3LYP_OPT_FREQ.chk"
 B after Tr=     0.000000    0.000000   -0.000000
         Rot=    1.000000   -0.000000   -0.000000    0.000526 Ang=   0.06 deg.
 Initial guess orbital symmetries:
       Occupied  (A') (A') (A') (A') (A') (A') (A') (A') (A') (A')
                 (A') (A') (A') (A') (A') (A') (A') (A') (A") (A')
                 (A') (A") (A") (A') (A")
       Virtual   (A') (A') (A') (A') (A') (A') (A') (A') (A') (A')
                 (A') (A') (A') (A') (A') (A') (A') (A') (A') (A')
                 (A') (A') (A') (A') (A') (A') (A') (A') (A') (A')
                 (A') (A') (A') (A') (A') (A') (A') (A') (A') (A')
                 (A') (A') (A') (A') (A') (A') (A') (A') (A') (A')
                 (A') (A') (A') (A') (A') (A') (A') (A') (A') (A')
                 (A') (A') (A') (A') (A') (A') (A') (A') (A') (A')
                 (A') (A') (A') (A') (A') (A') (A') (A') (A') (A')
                 (A') (A') (A') (A') (A') (A') (A') (A') (A') (A')
                 (A') (A') (A') (A') (A') (A') (A') (A') (A') (A')
                 (A') (A') (A') (A') (A') (A') (A') (A') (A') (A')
                 (A') (A') (A') (A') (A') (A') (A') (A') (A') (A')
                 (A') (A') (A') (A') (A') (A') (A') (A') (A') (A')
                 (A') (A') (A') (A') (A') (A') (A') (A') (A') (A')
                 (A') (A') (A') (A') (A') (A') (A') (A') (A') (A')
                 (A') (A') (A') (A') (A') (A') (A') (A') (A') (A')
                 (A') (A') (A') (A') (A') (A') (A') (A') (A') (A')
                 (A') (A') (A') (A') (A') (A') (A') (A') (A') (A')
                 (A') (A') (A') (A') (A') (A') (A') (A') (A') (A')
                 (A') (A') (A') (A') (A') (A') (A') (A') (A') (A')
                 (A') (A') (A') (A') (A') (A') (A') (A') (A') (A')
                 (A') (A') (A') (A') (A') (A') (A') (A') (A') (A')
                 (A') (A') (A') (A') (A') (A') (A') (A') (A') (A')
                 (A') (A') (A') (A') (A') (A') (A') (A') (A') (A')
                 (A') (A') (A') (A') (A') (A') (A') (A') (A') (A')
                 (A') (A') (A') (A') (A') (A') (A') (A') (A') (A')
                 (A') (A') (A') (A') (A') (A') (A') (A') (A') (A')
                 (A') (A') (A') (A') (A') (A') (A') (A') (A') (A')
                 (A') (A') (A') (A') (A') (A') (A') (A') (A') (A')
                 (A') (A') (A') (A') (A') (A') (A') (A') (A') (A')
                 (A') (A') (A') (A') (A') (A') (A') (A') (A') (A')
                 (A') (A') (A') (A') (A') (A') (A') (A') (A') (A')
                 (A') (A') (A') (A') (A') (A') (A') (A') (A') (A')
                 (A') (A') (A') (A') (A') (A') (A') (A') (A') (A')
                 (A') (A') (A') (A') (A') (A') (A') (A') (A') (A')
                 (A') (A') (A') (A') (A') (A') (A') (A') (A') (A')
                 (A') (A') (A') (A') (A') (A') (A') (A') (A') (A')
                 (A') (A') (A') (A') (A') (A') (A') (A') (A') (A')
                 (A') (A") (A") (A") (A") (A") (A") (A") (A") (A")
                 (A") (A") (A") (A") (A") (A") (A") (A") (A") (A")
                 (A") (A") (A") (A") (A") (A") (A") (A") (A") (A")
                 (A") (A") (A") (A") (A") (A") (A") (A") (A") (A")
                 (A") (A") (A") (A") (A") (A") (A") (A") (A") (A")
                 (A") (A") (A") (A") (A") (A") (A") (A") (A") (A")
                 (A") (A") (A") (A") (A") (A") (A") (A") (A") (A")
                 (A") (A") (A") (A") (A") (A") (A") (A") (A") (A")
                 (A") (A") (A") (A") (A") (A") (A") (A") (A") (A")
                 (A") (A") (A") (A") (A") (A") (A") (A") (A") (A")
                 (A") (A") (A") (A") (A") (A") (A") (A") (A") (A")
                 (A") (A") (A") (A") (A") (A") (A") (A") (A") (A")
                 (A") (A") (A") (A") (A") (A") (A") (A") (A") (A")
                 (A") (A") (A") (A") (A") (A") (A") (A") (A") (A")
                 (A") (A") (A") (A") (A") (A") (A") (A") (A") (A")
                 (A") (A") (A") (A") (A") (A") (A") (A") (A") (A")
                 (A") (A") (A") (A") (A") (A") (A") (A") (A") (A")
                 (A") (A") (A") (A") (A") (A") (A") (A") (A") (A")
                 (A") (A") (A") (A") (A") (A") (A") (A") (A") (A")
                 (A") (A") (A") (A") (A") (A") (A") (A") (A") (A")
                 (A") (A") (A") (A") (A") (A") (A") (A") (A") (A")
                 (A") (A") (A")
 ExpMin= 5.19D-02 ExpMax= 1.64D+05 ExpMxC= 5.17D+02 IAcc=2 IRadAn=         4 AccDes= 0.00D+00
 Harris functional with IExCor=  402 and IRadAn=       4 diagonalized for initial guess.
 HarFok:  IExCor=  402 AccDes= 0.00D+00 IRadAn=         4 IDoV= 1 UseB2=F ITyADJ=14
 ICtDFT=  3500011 ScaDFX=  1.000000  1.000000  1.000000  1.000000
 FoFCou: FMM=F IPFlag=           0 FMFlag=      100000 FMFlg1=           0
         NFxFlg=           0 DoJE=T BraDBF=F KetDBF=T FulRan=T
         wScrn=  0.000000 ICntrl=     500 IOpCl=  0 I1Cent=   200000004 NGrid=           0
         NMat0=    1 NMatS0=      1 NMatT0=    0 NMatD0=    1 NMtDS0=    0 NMtDT0=    0
 Petite list used in FoFCou.
 Requested convergence on RMS density matrix=1.00D-08 within 128 cycles.
 Requested convergence on MAX density matrix=1.00D-06.
 Requested convergence on             energy=1.00D-06.
 No special actions if energy rises.
 Integral accuracy reduced to 1.0D-05 until final iterations.
 Initial convergence to 1.0D-05 achieved.  Increase integral accuracy.
 SCF Done:  E(RB3LYP) =  -323.667159075     A.U. after   11 cycles
            NFock= 11  Conv=0.88D-08     -V/T= 2.0051
 Calling FoFJK, ICntrl=      2127 FMM=F ISym2X=1 I1Cent= 0 IOpClX= 0 NMat=1 NMatS=1 NMatT=0.
 ***** Axes restored to original set *****
 -------------------------------------------------------------------
 Center     Atomic                   Forces (Hartrees/Bohr)
 Number     Number              X              Y              Z
 -------------------------------------------------------------------
      1        8          -0.017399362    0.010414916   -0.000000000
      2        7          -0.041806862   -0.003120561    0.000000000
      3        6           0.018959905    0.034314241   -0.000000000
      4        6           0.017487592   -0.031751886    0.000000000
      5        6           0.037672800   -0.013292639   -0.000000000
      6        6          -0.034602628   -0.021112339    0.000000000
      7        6           0.020357146    0.029227950   -0.000000000
      8        1          -0.000370586   -0.002738309    0.000000000
      9        1           0.002803582   -0.000809786   -0.000000000
     10        1          -0.000060035   -0.004592835    0.000000000
     11        1          -0.001054048    0.002841298   -0.000000000
     12        1          -0.001987504    0.000619951    0.000000000
 -------------------------------------------------------------------
 Cartesian Forces:  Max     0.041806862 RMS     0.016311349

 GradGradGradGradGradGradGradGradGradGradGradGradGradGradGradGradGradGrad
 Berny optimization.
 Using GEDIIS/GDIIS optimizer.
 FormGI is forming the generalized inverse of G from B-inverse, IUseBI=4.
 Internal  Forces:  Max     0.034488549 RMS     0.008906081
 Search for a local minimum.
 Step number   2 out of a maximum of   61
 All quantities printed in internal units (Hartrees-Bohrs-Radians)
 Mixed Optimization -- RFO/linear search
 Update second derivatives using D2CorX and points    1    2
 DE= -2.92D-02 DEPred=-2.69D-02 R= 1.08D+00
 TightC=F SS=  1.41D+00  RLast= 3.00D-01 DXNew= 5.0454D-01 8.9999D-01
 Trust test= 1.08D+00 RLast= 3.00D-01 DXMaxT set to 5.05D-01
 ITU=  1  0
 Use linear search instead of GDIIS.
     Eigenvalues ---    0.00857   0.00942   0.01289   0.01319   0.01518
     Eigenvalues ---    0.01640   0.01783   0.02189   0.02354   0.15854
     Eigenvalues ---    0.16000   0.16000   0.16000   0.16577   0.21389
     Eigenvalues ---    0.22379   0.22594   0.24913   0.25852   0.28242
     Eigenvalues ---    0.32307   0.37166   0.37221   0.37267   0.37307
     Eigenvalues ---    0.40934   0.51466   0.55136   0.55417   0.72726
 RFO step:  Lambda=-5.38885817D-03 EMin= 8.57298009D-03
 Quartic linear search produced a step of  0.51216.
 Iteration  1 RMS(Cart)=  0.03440761 RMS(Int)=  0.00017184
 Iteration  2 RMS(Cart)=  0.00014392 RMS(Int)=  0.00006260
 Iteration  3 RMS(Cart)=  0.00000002 RMS(Int)=  0.00006260
 ClnCor:  largest displacement from symmetrization is 8.27D-10 for atom    11.
 Variable       Old X    -DE/DX   Delta X   Delta X   Delta X     New X
                                 (Linear)    (Quad)   (Total)
    R1        2.60471  -0.01934  -0.05045  -0.00282  -0.05326   2.55145
    R2        1.81973   0.00276   0.00267   0.00410   0.00678   1.82651
    R3        2.42831   0.01335  -0.01355   0.04605   0.03256   2.46087
    R4        2.65521  -0.03449  -0.06831  -0.05217  -0.12037   2.53484
    R5        2.76384  -0.03120  -0.07487  -0.04830  -0.12320   2.64063
    R6        2.54670   0.01328  -0.00156   0.03883   0.03717   2.58387
    R7        2.03519   0.00179   0.00682  -0.00224   0.00459   2.03978
    R8        2.55530   0.01019  -0.00367   0.03183   0.02821   2.58351
    R9        2.03236   0.00310   0.00492   0.00564   0.01056   2.04292
   R10        2.75599  -0.02988  -0.07335  -0.04401  -0.11742   2.63857
   R11        2.03350   0.00297   0.00652   0.00289   0.00942   2.04292
   R12        2.03469   0.00208   0.00639  -0.00047   0.00591   2.04060
    A1        1.85405  -0.00025  -0.02912   0.05232   0.02321   1.87725
    A2        2.06482  -0.00381  -0.02824   0.01904  -0.00896   2.05585
    A3        2.07975  -0.00109  -0.00523   0.00052  -0.00472   2.07503
    A4        2.04320  -0.00285  -0.02423   0.01978  -0.00445   2.03875
    A5        2.16024   0.00394   0.02946  -0.02030   0.00917   2.16941
    A6        2.05673  -0.00351  -0.01315   0.00346  -0.00985   2.04689
    A7        2.09673  -0.00059  -0.00169  -0.00764  -0.00925   2.08748
    A8        2.12972   0.00410   0.01484   0.00418   0.01910   2.14882
    A9        2.13321   0.00409   0.01555  -0.00298   0.01270   2.14591
   A10        2.03087  -0.00549  -0.03063   0.01288  -0.01781   2.01306
   A11        2.11910   0.00140   0.01508  -0.00991   0.00511   2.12421
   A12        2.07509   0.00090   0.00085   0.00726   0.00792   2.08301
   A13        2.11281   0.00015   0.00405  -0.00656  -0.00242   2.11040
   A14        2.09528  -0.00105  -0.00490  -0.00069  -0.00550   2.08978
   A15        2.07628  -0.00162  -0.00446  -0.00648  -0.01098   2.06530
   A16        2.11271   0.00068   0.00714  -0.00714   0.00002   2.11273
   A17        2.09419   0.00094  -0.00267   0.01362   0.01096   2.10515
    D1        0.00000  -0.00000   0.00000  -0.00000  -0.00000   0.00000
    D2        3.14159  -0.00000   0.00000  -0.00000   0.00000   3.14159
    D3        3.14159  -0.00000   0.00000  -0.00000   0.00000   3.14159
    D4        0.00000  -0.00000   0.00000  -0.00000  -0.00000   0.00000
    D5       -0.00000  -0.00000   0.00000   0.00000   0.00000   0.00000
    D6        3.14159   0.00000   0.00000   0.00000   0.00000   3.14159
    D7        3.14159   0.00000   0.00000   0.00000   0.00000   3.14159
    D8       -0.00000   0.00000   0.00000  -0.00000   0.00000   0.00000
    D9       -0.00000   0.00000   0.00000  -0.00000   0.00000   0.00000
   D10        3.14159  -0.00000   0.00000  -0.00000   0.00000   3.14159
   D11        0.00000  -0.00000   0.00000   0.00000   0.00000   0.00000
   D12        3.14159  -0.00000   0.00000  -0.00000   0.00000   3.14159
   D13        3.14159   0.00000   0.00000   0.00000   0.00000   3.14159
   D14       -0.00000   0.00000   0.00000   0.00000   0.00000   0.00000
   D15        0.00000   0.00000   0.00000  -0.00000   0.00000   0.00000
   D16        3.14159   0.00000   0.00000   0.00000   0.00000   3.14159
   D17        3.14159  -0.00000   0.00000  -0.00000   0.00000   3.14159
   D18       -0.00000   0.00000   0.00000  -0.00000   0.00000   0.00000
   D19       -0.00000  -0.00000   0.00000  -0.00000   0.00000   0.00000
   D20        3.14159  -0.00000   0.00000  -0.00000   0.00000   3.14159
   D21        3.14159   0.00000   0.00000   0.00000   0.00000   3.14159
   D22        0.00000  -0.00000   0.00000  -0.00000   0.00000   0.00000
         Item               Value     Threshold  Converged?
 Maximum Force            0.034489     0.000450     NO 
 RMS     Force            0.008906     0.000300     NO 
 Maximum Displacement     0.090884     0.001800     NO 
 RMS     Displacement     0.034420     0.001200     NO 
 Predicted change in Energy=-8.468443D-03
 GradGradGradGradGradGradGradGradGradGradGradGradGradGradGradGradGradGrad

                          Input orientation:                          
 ---------------------------------------------------------------------
 Center     Atomic      Atomic             Coordinates (Angstroms)
 Number     Number       Type             X           Y           Z
 ---------------------------------------------------------------------
      1          8           0        1.820635   -0.634423   -0.000000
      2          7           0       -0.437653   -0.977696    0.000000
      3          6           0        0.562699   -0.143962   -0.000000
      4          6           0        0.428500    1.246942   -0.000000
      5          6           0       -1.677828   -0.466552    0.000000
      6          6           0       -0.841338    1.753990   -0.000000
      7          6           0       -1.928200    0.877460    0.000000
      8          1           0        1.757560   -1.598910    0.000000
      9          1           0        1.311455    1.867829   -0.000000
     10          1           0       -2.477916   -1.193575    0.000000
     11          1           0       -1.013245    2.821300   -0.000000
     12          1           0       -2.939668    1.255595    0.000000
 ---------------------------------------------------------------------
                    Distance matrix (angstroms):
                    1          2          3          4          5
     1  O    0.000000
     2  N    2.284230   0.000000
     3  C    1.350168   1.302236   0.000000
     4  C    2.340422   2.387307   1.397363   0.000000
     5  C    3.502489   1.341381   2.263632   2.715268   0.000000
     6  C    3.576397   2.761353   2.360835   1.367328   2.372873
     7  C    4.042222   2.379776   2.692189   2.385488   1.367133
     8  H    0.966548   2.281418   1.882702   3.140904   3.617199
     9  H    2.553533   3.340119   2.146611   1.079403   3.792777
    10  H    4.334766   2.051652   3.216680   3.795178   1.081066
    11  H    4.469105   3.842353   3.358032   2.134767   3.354346
    12  H    5.121783   3.353755   3.771650   3.368179   2.134955
                    6          7          8          9         10
     6  C    0.000000
     7  C    1.396272   0.000000
     8  H    4.242194   4.440409   0.000000
     9  H    2.155801   3.387654   3.495324   0.000000
    10  H    3.371429   2.142749   4.254827   4.871502   0.000000
    11  H    1.081065   2.148408   5.216859   2.512636   4.273697
    12  H    2.156708   1.079840   5.496558   4.294983   2.492318
                   11         12
    11  H    0.000000
    12  H    2.482446   0.000000
 Stoichiometry    C5H5NO
 Framework group  CS[SG(C5H5NO)]
 Deg. of freedom    21
 Full point group                 CS      NOp   2
 Largest Abelian subgroup         CS      NOp   2
 Largest concise Abelian subgroup C1      NOp   1
                         Standard orientation:                         
 ---------------------------------------------------------------------
 Center     Atomic      Atomic             Coordinates (Angstroms)
 Number     Number       Type             X           Y           Z
 ---------------------------------------------------------------------
      1          8           0        0.060912    2.239748   -0.000000
      2          7           0       -1.167391    0.313878    0.000000
      3          6           0        0.000000    0.890955    0.000000
      4          6           0        1.217434    0.205042   -0.000000
      5          6           0       -1.202199   -1.027051    0.000000
      6          6           0        1.166870   -1.161351   -0.000000
      7          6           0       -0.074681   -1.800199    0.000000
      8          1           0       -0.846509    2.572617    0.000000
      9          1           0        2.142671    0.760963   -0.000000
     10          1           0       -2.190927   -1.464225    0.000000
     11          1           0        2.073157   -1.750711   -0.000000
     12          1           0       -0.138498   -2.878151    0.000000
 ---------------------------------------------------------------------
 Rotational constants (GHZ):      5.9314526      2.8052604      1.9045228
 Basis read from rwf:  (5D, 7F)
 There are   506 symmetry adapted cartesian basis functions of A'  symmetry.
 There are   249 symmetry adapted cartesian basis functions of A"  symmetry.
 There are   402 symmetry adapted basis functions of A'  symmetry.
 There are   216 symmetry adapted basis functions of A"  symmetry.
   618 basis functions,   964 primitive gaussians,   755 cartesian basis functions
    25 alpha electrons       25 beta electrons
       nuclear repulsion energy       277.5761243555 Hartrees.
 NAtoms=   12 NActive=   12 NUniq=   12 SFac= 1.00D+00 NAtFMM=   60 NAOKFM=F Big=F
 Integral buffers will be    131072 words long.
 Raffenetti 2 integral format.
 Two-electron integral symmetry is turned on.
 One-electron integrals computed using PRISM.
 NBasis=   618 RedAO= T EigKep=  1.28D-05  NBF=   402   216
 NBsUse=   618 1.00D-06 EigRej= -1.00D+00 NBFU=   402   216
 Initial guess from the checkpoint file:  "HY_pc-3_B3LYP_OPT_FREQ.chk"
 B after Tr=    -0.000000   -0.000000   -0.000000
         Rot=    0.999953    0.000000   -0.000000   -0.009711 Ang=  -1.11 deg.
 Initial guess orbital symmetries:
       Occupied  (A') (A') (A') (A') (A') (A') (A') (A') (A') (A')
                 (A') (A') (A') (A') (A') (A') (A') (A") (A') (A')
                 (A') (A") (A") (A') (A")
       Virtual   (A') (A') (A') (A') (A') (A') (A') (A') (A') (A')
                 (A') (A') (A') (A') (A') (A') (A') (A') (A') (A')
                 (A') (A') (A') (A') (A') (A') (A') (A') (A') (A')
                 (A') (A') (A') (A') (A') (A') (A') (A') (A') (A')
                 (A') (A') (A') (A') (A') (A') (A') (A') (A') (A')
                 (A') (A') (A') (A') (A') (A') (A') (A') (A') (A')
                 (A') (A') (A') (A') (A') (A') (A') (A') (A') (A')
                 (A') (A') (A') (A') (A') (A') (A') (A') (A') (A')
                 (A') (A') (A') (A') (A') (A') (A') (A') (A') (A')
                 (A') (A') (A') (A') (A') (A') (A') (A') (A') (A')
                 (A') (A') (A') (A') (A') (A') (A') (A') (A') (A')
                 (A') (A') (A') (A') (A') (A') (A') (A') (A') (A')
                 (A') (A') (A') (A') (A') (A') (A') (A') (A') (A')
                 (A') (A') (A') (A') (A') (A') (A') (A') (A') (A')
                 (A') (A') (A') (A') (A') (A') (A') (A') (A') (A')
                 (A') (A') (A') (A') (A') (A') (A') (A') (A') (A')
                 (A') (A') (A') (A') (A') (A') (A') (A') (A') (A')
                 (A') (A') (A') (A') (A') (A') (A') (A') (A') (A')
                 (A') (A') (A') (A') (A') (A') (A') (A') (A') (A')
                 (A') (A') (A') (A') (A') (A') (A') (A') (A') (A')
                 (A') (A') (A') (A') (A') (A') (A') (A') (A') (A')
                 (A') (A') (A') (A') (A') (A') (A') (A') (A') (A')
                 (A') (A') (A') (A') (A') (A') (A') (A') (A') (A')
                 (A') (A') (A') (A') (A') (A') (A') (A') (A') (A')
                 (A') (A') (A') (A') (A') (A') (A') (A') (A') (A')
                 (A') (A') (A') (A') (A') (A') (A') (A') (A') (A')
                 (A') (A') (A') (A') (A') (A') (A') (A') (A') (A')
                 (A') (A') (A') (A') (A') (A') (A') (A') (A') (A')
                 (A') (A') (A') (A') (A') (A') (A') (A') (A') (A')
                 (A') (A') (A') (A') (A') (A') (A') (A') (A') (A')
                 (A') (A') (A') (A') (A') (A') (A') (A') (A') (A')
                 (A') (A') (A') (A') (A') (A') (A') (A') (A') (A')
                 (A') (A') (A') (A') (A') (A') (A') (A') (A') (A')
                 (A') (A') (A') (A') (A') (A') (A') (A') (A') (A')
[...]
     Eigenvalues ---    0.02754   0.03089   0.03691   0.04406   0.10481
     Eigenvalues ---    0.11121   0.12137   0.13080   0.15713   0.19204
     Eigenvalues ---    0.20012   0.21684   0.23525   0.31125   0.35001
     Eigenvalues ---    0.35619   0.36018   0.36204   0.37651   0.43315
     Eigenvalues ---    0.44799   0.47379   0.51498   0.51671   0.57238
 Angle between quadratic step and forces=  27.24 degrees.
 Linear search not attempted -- first point.
 Iteration  1 RMS(Cart)=  0.00038417 RMS(Int)=  0.00000006
 Iteration  2 RMS(Cart)=  0.00000007 RMS(Int)=  0.00000001
 ClnCor:  largest displacement from symmetrization is 3.91D-08 for atom    12.
 Variable       Old X    -DE/DX   Delta X   Delta X   Delta X     New X
                                 (Linear)    (Quad)   (Total)
    R1        2.55465  -0.00021   0.00000  -0.00047  -0.00047   2.55418
    R2        1.82470  -0.00003   0.00000  -0.00005  -0.00005   1.82465
    R3        2.49867  -0.00005   0.00000  -0.00016  -0.00016   2.49851
    R4        2.52566   0.00029   0.00000   0.00058   0.00058   2.52624
    R5        2.64116  -0.00039   0.00000  -0.00083  -0.00083   2.64032
    R6        2.60977   0.00000   0.00000  -0.00006  -0.00006   2.60970
    R7        2.03939   0.00001   0.00000   0.00005   0.00005   2.03944
    R8        2.61512  -0.00015   0.00000  -0.00029  -0.00029   2.61482
    R9        2.04635   0.00001   0.00000   0.00002   0.00002   2.04636
   R10        2.63481   0.00006   0.00000   0.00018   0.00018   2.63500
   R11        2.04339  -0.00003   0.00000  -0.00009  -0.00009   2.04329
   R12        2.03991   0.00002   0.00000   0.00006   0.00006   2.03997
    A1        1.86406  -0.00002   0.00000   0.00011   0.00011   1.86418
    A2        2.05719   0.00006   0.00000   0.00020   0.00020   2.05739
    A3        2.05074   0.00013   0.00000   0.00046   0.00046   2.05120
    A4        2.07062  -0.00008   0.00000  -0.00020  -0.00020   2.07042
    A5        2.16183  -0.00005   0.00000  -0.00026  -0.00026   2.16157
    A6        2.04958   0.00009   0.00000   0.00035   0.00035   2.04993
    A7        2.09590  -0.00000   0.00000   0.00033   0.00033   2.09624
    A8        2.13771  -0.00008   0.00000  -0.00068  -0.00068   2.13702
    A9        2.15115  -0.00006   0.00000  -0.00008  -0.00008   2.15107
   A10        2.02287   0.00010   0.00000   0.00039   0.00039   2.02326
   A11        2.10916  -0.00004   0.00000  -0.00031  -0.00031   2.10885
   A12        2.08713   0.00005   0.00000   0.00007   0.00007   2.08720
   A13        2.09383  -0.00004   0.00000  -0.00021  -0.00021   2.09362
   A14        2.10222  -0.00001   0.00000   0.00014   0.00014   2.10236
   A15        2.05949  -0.00009   0.00000  -0.00028  -0.00028   2.05921
   A16        2.10413   0.00001   0.00000  -0.00008  -0.00008   2.10405
   A17        2.11956   0.00007   0.00000   0.00036   0.00036   2.11992
    D1        0.00000   0.00000   0.00000   0.00000   0.00000   0.00000
    D2        3.14159  -0.00000   0.00000  -0.00000   0.00000   3.14159
    D3        3.14159  -0.00000   0.00000   0.00000   0.00000   3.14159
    D4       -0.00000  -0.00000   0.00000   0.00000   0.00000   0.00000
    D5        0.00000   0.00000   0.00000  -0.00000  -0.00000   0.00000
    D6        3.14159   0.00000   0.00000  -0.00000   0.00000   3.14159
    D7        3.14159   0.00000   0.00000  -0.00000   0.00000   3.14159
    D8       -0.00000  -0.00000   0.00000  -0.00000   0.00000   0.00000
    D9        0.00000   0.00000   0.00000  -0.00000  -0.00000   0.00000
   D10        3.14159   0.00000   0.00000  -0.00000   0.00000   3.14159
   D11       -0.00000  -0.00000   0.00000   0.00000   0.00000   0.00000
   D12        3.14159  -0.00000   0.00000   0.00000   0.00000   3.14159
   D13        3.14159  -0.00000   0.00000   0.00000   0.00000   3.14159
   D14       -0.00000  -0.00000   0.00000   0.00000   0.00000   0.00000
   D15       -0.00000   0.00000   0.00000  -0.00000   0.00000   0.00000
   D16        3.14159  -0.00000   0.00000  -0.00000   0.00000   3.14159
   D17        3.14159  -0.00000   0.00000  -0.00000   0.00000   3.14159
   D18        0.00000  -0.00000   0.00000  -0.00000  -0.00000   0.00000
   D19        0.00000   0.00000   0.00000   0.00000  -0.00000   0.00000
   D20        3.14159  -0.00000   0.00000   0.00000   0.00000   3.14159
   D21        3.14159  -0.00000   0.00000   0.00000   0.00000   3.14159
   D22        0.00000  -0.00000   0.00000   0.00000   0.00000   0.00000
         Item               Value     Threshold  Converged?
 Maximum Force            0.000389     0.000450     YES
 RMS     Force            0.000087     0.000300     YES
 Maximum Displacement     0.001132     0.001800     YES
 RMS     Displacement     0.000384     0.001200     YES
 Predicted change in Energy=-4.818170D-07
 Optimization completed.
    -- Stationary point found.
                           ----------------------------
                           !   Optimized Parameters   !
                           ! (Angstroms and Degrees)  !
 --------------------------                            --------------------------
 ! Name  Definition              Value          Derivative Info.                !
 --------------------------------------------------------------------------------
 ! R1    R(1,3)                  1.3519         -DE/DX =   -0.0002              !
 ! R2    R(1,8)                  0.9656         -DE/DX =    0.0                 !
 ! R3    R(2,3)                  1.3222         -DE/DX =   -0.0001              !
 ! R4    R(2,5)                  1.3365         -DE/DX =    0.0003              !
 ! R5    R(3,4)                  1.3976         -DE/DX =   -0.0004              !
 ! R6    R(4,6)                  1.381          -DE/DX =    0.0                 !
 ! R7    R(4,9)                  1.0792         -DE/DX =    0.0                 !
 ! R8    R(5,7)                  1.3839         -DE/DX =   -0.0002              !
 ! R9    R(5,10)                 1.0829         -DE/DX =    0.0                 !
 ! R10   R(6,7)                  1.3943         -DE/DX =    0.0001              !
 ! R11   R(6,11)                 1.0813         -DE/DX =    0.0                 !
 ! R12   R(7,12)                 1.0795         -DE/DX =    0.0                 !
 ! A1    A(3,1,8)              106.8028         -DE/DX =    0.0                 !
 ! A2    A(3,2,5)              117.8682         -DE/DX =    0.0001              !
 ! A3    A(1,3,2)              117.4986         -DE/DX =    0.0001              !
 ! A4    A(1,3,4)              118.6377         -DE/DX =   -0.0001              !
 ! A5    A(2,3,4)              123.8638         -DE/DX =    0.0                 !
 ! A6    A(3,4,6)              117.432          -DE/DX =    0.0001              !
 ! A7    A(3,4,9)              120.0864         -DE/DX =    0.0                 !
 ! A8    A(6,4,9)              122.4815         -DE/DX =   -0.0001              !
 ! A9    A(2,5,7)              123.252          -DE/DX =   -0.0001              !
 ! A10   A(2,5,10)             115.9021         -DE/DX =    0.0001              !
 ! A11   A(7,5,10)             120.8459         -DE/DX =    0.0                 !
 ! A12   A(4,6,7)              119.584          -DE/DX =    0.0001              !
 ! A13   A(4,6,11)             119.9677         -DE/DX =    0.0                 !
 ! A14   A(7,6,11)             120.4483         -DE/DX =    0.0                 !
 ! A15   A(5,7,6)              118.0            -DE/DX =   -0.0001              !
 ! A16   A(5,7,12)             120.558          -DE/DX =    0.0                 !
 ! A17   A(6,7,12)             121.442          -DE/DX =    0.0001              !
 ! D1    D(8,1,3,2)              0.0            -DE/DX =    0.0                 !
 ! D2    D(8,1,3,4)            180.0            -DE/DX =    0.0                 !
 ! D3    D(5,2,3,1)            180.0            -DE/DX =    0.0                 !
 ! D4    D(5,2,3,4)              0.0            -DE/DX =    0.0                 !
 ! D5    D(3,2,5,7)              0.0            -DE/DX =    0.0                 !
 ! D6    D(3,2,5,10)           180.0            -DE/DX =    0.0                 !
 ! D7    D(1,3,4,6)            180.0            -DE/DX =    0.0                 !
 ! D8    D(1,3,4,9)              0.0            -DE/DX =    0.0                 !
 ! D9    D(2,3,4,6)              0.0            -DE/DX =    0.0                 !
 ! D10   D(2,3,4,9)            180.0            -DE/DX =    0.0                 !
 ! D11   D(3,4,6,7)              0.0            -DE/DX =    0.0                 !
 ! D12   D(3,4,6,11)           180.0            -DE/DX =    0.0                 !
 ! D13   D(9,4,6,7)            180.0            -DE/DX =    0.0                 !
 ! D14   D(9,4,6,11)             0.0            -DE/DX =    0.0                 !
 ! D15   D(2,5,7,6)              0.0            -DE/DX =    0.0                 !
 ! D16   D(2,5,7,12)           180.0            -DE/DX =    0.0                 !
 ! D17   D(10,5,7,6)           180.0            -DE/DX =    0.0                 !
 ! D18   D(10,5,7,12)            0.0            -DE/DX =    0.0                 !
 ! D19   D(4,6,7,5)              0.0            -DE/DX =    0.0                 !
 ! D20   D(4,6,7,12)           180.0            -DE/DX =    0.0                 !
 ! D21   D(11,6,7,5)           180.0            -DE/DX =    0.0                 !
 ! D22   D(11,6,7,12)            0.0            -DE/DX =    0.0                 !
 --------------------------------------------------------------------------------
 GradGradGradGradGradGradGradGradGradGradGradGradGradGradGradGradGradGrad

 1\1\GINC-P1711\Freq\RB3LYP\Gen\C5H5N1O1\SC51754\26-Aug-2021\0\\#N Geom
 =AllCheck Guess=TCheck SCRF=Check GenChk RB3LYP/ChkBas Freq\\HY_pc-3_B
 3LYP_OPT_FREQ\\0,1\O,1.8296818569,-0.6546900104,0.\N,-0.4329733236,-0.
 9816507565,0.\C,0.5820171814,-0.134237963,0.\C,0.4360541125,1.25575968
 76,0.\C,-1.6697737817,-0.475073555,0.\C,-0.849431765,1.7605045195,0.\C
 ,-1.9333194985,0.8834588097,0.\H,1.7314285783,-1.6152681598,0.\H,1.308
 2460432,1.8913317059,0.\H,-2.4767259414,-1.1971942814,0.\H,-1.00982553
 7,2.8298558068,0.\H,-2.9503779252,1.2452041966,0.\\Version=EM64L-G09Re
 vE.01\State=1-A'\HF=-323.675314\RMSD=2.891e-09\RMSF=1.156e-04\ZeroPoin
 t=0.0933841\Thermal=0.0985775\Dipole=-0.3591234,0.3787913,0.\DipoleDer
 iv=-1.3067625,0.5578665,-0.0000017,0.5824601,-0.4955627,-0.0000011,-0.
 0000238,0.0000119,-0.3616077,-0.7774085,0.3040174,-0.0000008,-0.140201
 7,-0.4809896,0.000003,-0.0000853,0.0000432,-0.2747936,1.462102,-0.5669
 334,0.0000013,-0.7093216,0.5957627,-0.0000009,0.0001248,-0.000063,0.19
 9822,-0.2669303,0.0527093,0.0000038,0.5057363,-0.218576,-0.0000041,0.0
 000089,-0.0000049,-0.1392066,0.3526588,-0.1774795,0.0000061,0.1641808,
 0.4586146,-0.0000016,0.0000559,-0.0000284,-0.0147726,0.4026943,0.05632
 26,0.0000026,0.0201339,0.2149963,-0.0000034,0.0000038,-0.0000014,-0.08
 98104,-0.1337318,-0.0484888,-0.0000007,-0.254324,-0.3622211,-0.0000002
 ,-0.0001029,0.000052,-0.1465782,0.3193185,-0.1242581,-0.0000015,-0.084
 753,0.2688569,0.0000036,-0.0000143,0.0000074,0.3089331,-0.0044922,-0.0
 564349,-0.0000024,-0.0604517,0.0316154,-0.0000001,-0.0000296,0.0000151
 ,0.1458763,-0.0540941,-0.0611097,-0.0000025,-0.0918958,0.0104941,-0.00
 00011,-0.0000211,0.0000108,0.1045453,0.076553,0.0215509,-0.0000018,0.0
 236248,-0.0743076,0.0000047,-0.0000038,0.0000017,0.1210703,-0.0699071,
 0.0422376,-0.0000023,0.0448118,0.051317,0.0000013,0.0000873,-0.0000443
 ,0.146522\Polar=86.881461,-4.1485384,78.7927206,-0.0003967,0.0001401,4
 2.6553408\PG=CS [SG(C5H5N1O1)]\NImag=0\\0.40417407,-0.03156342,0.63908
 646,0.00000006,0.00000011,0.03506881,-0.08281795,-0.03425026,-0.000000
 01,0.68563072,-0.00191705,0.02145971,-0.00000018,0.02973617,0.40764080
 ,0.00000020,0.00000041,0.00700834,-0.00000005,-0.00000064,0.09062004,-
 0.25498037,0.09391745,-0.00000002,-0.23752811,-0.10890054,-0.00000007,
 0.69244683,0.04766898,-0.14331427,0.00000003,-0.07498190,-0.23210576,0
 .00000011,-0.01780633,0.71793926,-0.00000030,-0.00000060,-0.05067860,0
 .00000007,0.00000094,-0.07233014,0.00000011,-0.00000016,0.18538468,-0.
 01347957,0.05676331,-0.00000018,0.03919223,-0.02553381,-0.00000063,-0.
 12373415,-0.03138454,0.00000092,0.75640230,0.02060530,-0.02968471,0.00
 000022,-0.07768811,-0.04002777,0.00000078,0.03945152,-0.28850435,-0.00
 000114,0.03596577,0.67017782,-0.00000002,-0.00000005,0.00888606,0.0000
 0001,0.00000007,0.02010345,0.,0.,-0.07735291,0.00000006,-0.00000008,0.
 12582319,0.00406971,0.00499981,-0.00000017,-0.30453648,0.08892693,-0.0
 0000056,-0.09220738,-0.05846331,0.00000084,-0.02593191,0.03970665,0.00
 000004,0.70582264,-0.00180697,-0.00815021,0.00000022,0.06473888,-0.152
 81367,0.00000083,-0.00214702,0.06459036,-0.00000120,0.02960976,-0.0451
 1540,-0.00000010,0.05630890,0.70974025,-0.00000013,-0.00000027,0.01027
 866,0.00000004,0.00000042,-0.06453054,0.00000004,-0.00000007,-0.002939
 65,0.00000041,-0.00000051,-0.00543069,0.00000036,-0.00000055,0.1601981
 1,0.00411451,-0.01273827,-0.00000009,-0.07528792,-0.01065806,-0.000000
 30,0.02151244,0.09639194,0.00000045,-0.32842109,0.04668717,0.00000002,
 0.05517183,-0.06834836,0.00000020,0.66744773,-0.00232086,-0.00737430,-
 0.00000004,-0.01569437,0.00090546,-0.00000019,0.04223370,-0.00580040,0
 .00000026,0.10595745,-0.16358461,0.00000005,-0.01725996,-0.04665161,0.
 00000013,-0.02305098,0.74218880,-0.00000002,-0.00000001,0.00440713,0.,
 0.00000003,-0.00792341,0.00000001,0.,0.00356815,0.00000003,-0.00000004
 ,-0.06035707,0.00000005,-0.00000002,0.00884441,0.00000002,-0.00000003,
 0.14622915,-0.00679508,0.00440157,0.00000008,0.00106141,0.04085534,0.0
 0000030,-0.00334970,-0.01973467,-0.00000044,-0.05482584,0.00280262,-0.
 00000004,-0.13857714,0.06092685,-0.00000020,-0.24516076,-0.12447876,0.
 ,0.74150581,0.00139786,0.00873861,-0.00000002,0.10184681,-0.00785545,-
 0.00000007,-0.03276809,-0.07395309,0.00000010,-0.03679540,0.06358568,0
 .,-0.00642062,-0.32655201,0.00000004,-0.06171223,-0.20719273,0.,-0.037
 29216,0.66303447,0.00000024,0.00000049,-0.00150853,-0.00000006,-0.0000
 0078,0.02310226,-0.00000009,0.00000013,-0.00909229,-0.00000076,0.00000
 094,0.00823013,-0.00000069,0.00000100,-0.07039424,-0.00000037,-0.00000
 022,-0.06543611,0.00000036,-0.00000008,0.12650414,-0.05368594,-0.08267
 605,0.00000004,0.00566737,-0.00082982,0.00000014,-0.00026640,0.0527713
 3,-0.00000021,-0.00711028,0.00186176,0.,-0.00253397,-0.00011732,-0.000
 00009,0.00175942,0.00171098,-0.00000001,0.00014715,-0.00159733,0.00000
 017,0.05599905,-0.03290483,-0.48271365,-0.00000019,-0.00673140,0.00142
 781,-0.00000069,0.01009546,-0.02931837,0.00000101,0.00186013,0.0029623
 6,0.00000007,-0.00071234,-0.00032092,0.00000045,0.00035161,-0.00104235
 ,0.00000003,-0.00090776,0.00010060,-0.00000083,0.02909221,0.50867219,0
 .00000003,0.00000007,-0.01045528,-0.00000001,-0.00000011,-0.00332429,0
 .,0.00000002,0.00084603,-0.00000010,0.00000013,0.00329903,-0.00000009,
 0.00000014,-0.00068576,-0.00000005,-0.00000004,0.00143564,0.00000005,-
 0.00000001,0.00052507,0.00000002,-0.00000011,0.00965857,0.00075861,-0.
 00005436,0.00000008,0.00194563,0.00212007,0.00000026,0.00509524,0.0031
 0480,-0.00000039,-0.24100921,-0.13594726,-0.00000002,-0.00027966,0.000
 62965,-0.00000017,-0.01758960,-0.01871138,-0.00000002,-0.00312002,0.00
 378410,0.00000032,0.00002377,-0.00026169,0.00000004,0.25369880,0.00000
 527,0.00182950,0.,0.00007502,-0.00753754,0.00000002,-0.02829432,-0.010
 69162,-0.00000003,-0.13427692,-0.16015087,0.,0.00249886,-0.00075642,-0
 .00000001,0.01094684,0.01243779,0.,0.00306907,0.00033803,0.00000002,-0
 .00004078,0.00018242,0.,0.14623605,0.16300889,0.00000007,0.00000014,-0
 .00187700,-0.00000002,-0.00000022,0.00573234,-0.00000002,0.00000004,0.
 00227727,-0.00000022,0.00000027,-0.03431943,-0.00000019,0.00000029,-0.
 00021395,-0.00000010,-0.00000007,0.00237122,0.00000010,-0.00000002,0.0
 0848862,0.00000005,-0.00000024,-0.00063684,0.00000009,0.,0.02398911,-0
 .00141770,-0.00061612,0.00000005,-0.03393227,-0.01483463,0.00000017,-0
 .00255891,0.00186222,-0.00000025,-0.00023021,0.00029241,0.,-0.19542350
 ,-0.13532317,-0.00000011,0.00075371,0.00155719,-0.00000002,0.00822579,
 0.00492821,0.00000021,0.00030898,-0.00014276,0.00000002,0.00002943,-0.
 00021682,0.00000006,0.22353210,0.00033679,0.00019959,-0.00000001,0.010
 92047,0.01432234,-0.00000006,0.00425294,0.00159747,0.00000008,0.001007
 40,-0.00006130,0.00000001,-0.13667899,-0.19021774,0.00000004,0.0024226
 9,-0.00553239,0.,-0.02412088,-0.01425159,-0.00000007,0.00005896,0.0000
 5954,-0.00000001,-0.00008169,0.00005908,-0.00000002,0.14271225,0.19385
 463,0.00000005,0.00000010,0.00051775,-0.00000002,-0.00000016,-0.003344
 27,-0.00000002,0.00000003,0.01026787,-0.00000015,0.00000019,-0.0006853
 4,-0.00000013,0.00000021,-0.04245838,-0.00000007,-0.00000005,0.0074323
 8,0.00000008,-0.00000002,0.00737261,0.00000003,-0.00000017,-0.00026687
 ,0.00000006,0.,-0.00170836,0.00000004,-0.00000002,0.02678837,0.0000018
 4,0.00176047,0.00000006,-0.00088215,0.00005524,0.00000020,-0.00495817,
 0.00137482,-0.00000030,0.00058969,0.03011709,-0.00000002,-0.00392799,-
 0.00343714,-0.00000013,-0.06687584,0.03979788,-0.00000002,0.00911767,-
 0.02489418,0.00000024,-0.00040384,0.00022589,0.00000003,0.00116486,-0.
 00064270,0.00000007,0.00029104,-0.00128525,0.00000005,0.06494804,0.000
 13085,-0.00079054,-0.00000011,-0.00007276,0.00069437,-0.00000035,0.001
 62102,0.00192088,0.00000052,0.00003530,-0.00739684,0.00000002,-0.00412
 840,-0.00073393,0.00000023,0.04038576,-0.32977463,0.00000004,0.0054252
 0,-0.01458575,-0.00000043,0.00010560,0.00001506,-0.00000005,0.00016937
 ,0.00082550,-0.00000012,0.00037409,-0.00080835,-0.00000008,-0.04387616
 ,0.34973183,0.00000001,0.00000002,-0.00025037,0.,-0.00000003,-0.003086
 38,0.,0.,0.00952395,-0.00000003,0.00000004,0.00542833,-0.00000004,0.00
 000003,0.00736671,-0.00000002,0.,-0.04208199,0.00000001,0.,0.00527840,
 0.,-0.00000003,-0.00038553,0.00000002,0.,-0.00466634,0.00000001,0.,-0.
 00043578,0.00000001,-0.00000002,0.02701167,0.00005787,0.00005587,0.000
 00010,0.00148753,0.00098015,0.00000034,0.00052869,-0.00080336,-0.00000
 051,-0.00144196,-0.00385492,-0.00000003,-0.00164615,-0.00103406,-0.000
 00022,-0.01742444,0.01025910,-0.00000002,-0.30822930,0.08952304,0.0000
 0042,0.00009469,0.00003548,0.00000006,-0.00071785,0.00064043,0.0000001
 2,0.00042155,0.00045531,0.00000008,0.00093484,-0.00016986,0.00000002,0
 .32593453,0.00036808,0.00071381,-0.00000004,0.00210145,-0.00611031,-0.
 00000015,-0.00165580,-0.00236010,0.00000022,-0.00320843,-0.00220001,0.
 00000001,0.03122248,-0.00301870,0.00000010,-0.02067812,0.01142099,0.00
 000001,0.08905357,-0.09140676,-0.00000018,-0.00033954,-0.00002469,-0.0
 0000002,-0.00098766,0.00045524,-0.00000005,-0.00059288,0.00077871,-0.0
 0000004,0.00080403,0.00090241,0.,-0.09608719,0.09084942,-0.00000020,-0
 .00000042,-0.00139698,0.00000006,0.00000066,0.00797261,0.00000007,-0.0
 0000011,0.00052565,0.00000064,-0.00000080,0.00637525,0.00000057,-0.000
 00085,-0.00003468,0.00000031,0.00000020,0.00151050,-0.00000031,0.00000
 007,-0.03307006,-0.00000014,0.00000071,-0.00000977,-0.00000027,-0.0000
 0002,0.00056336,-0.00000017,0.00000006,-0.00347997,-0.00000020,0.00000
 035,-0.00370266,-0.00000035,0.00000015,0.02474674\\0.00014713,-0.00013
 260,0.,-0.00028037,-0.00008189,0.,-0.00015584,-0.00012210,0.,-0.000030
 75,0.00045460,0.,0.00024108,-0.00013351,0.,-0.00007976,-0.00003000,0.,
 0.00006670,0.00010763,0.,0.00000511,-0.00003611,0.,0.00001918,-0.00004
 009,0.,0.00005456,-0.00004060,0.,-0.00001958,0.00003143,0.,0.00003255,
 0.00002324,0.\\\@


     SCHOPENHAUER'S LAW OF ENTROPY
 IF YOU PUT A SPOONFUL OF WINE IN A BARREL FULL
 OF SEWAGE, YOU GET SEWAGE.
 IF YOU PUT A SPOONFUL OF SEWAGE IN A BARREL FULL
 OF WINE, YOU GET SEWAGE.
 Job cpu time:       0 days  9 hours 46 minutes 26.8 seconds.
 File lengths (MBytes):  RWF=    316 Int=      0 D2E=      0 Chk=     28 Scr=      1
 Normal termination of Gaussian 09 at Thu Aug 26 16:58:52 2021.
