 Entering Gaussian System, Link 0=g09
 AtFile(1): pc-2.gbs
            -H     0
            S    4   1.00
                  0.754230D+02           0.240650D-02
                  0.113500D+02           0.184870D-01
                  0.259930D+01           0.897420D-01
                  0.735130D+00           0.281110D+00
            S    1   1.00
                  0.231670D+00           0.100000D+01
            S    1   1.00
                  0.741470D-01           0.100000D+01
            P    1   1.00
                  0.160000D+01           0.100000D+01
            P    1   1.00
                  0.450000D+00           0.100000D+01
            D    1   1.00
                  0.125000D+01           0.100000D+01
            ****
            -C     0
            S    7   1.00
                  0.785710D+04           0.568250D-03
                  0.117870D+04           0.439150D-02
                  0.268320D+03           0.225040D-01
                  0.759480D+02           0.866530D-01
                  0.245590D+02           0.244050D+00
                  0.862120D+01           0.441480D+00
                  0.312780D+01           0.353320D+00
            S    7   1.00
                  0.117870D+04          -0.594920D-06
                  0.268320D+03          -0.627480D-04
                  0.759480D+02          -0.757730D-03
                  0.245590D+02          -0.733080D-02
                  0.862120D+01          -0.389320D-01
                  0.312780D+01          -0.889080D-01
                  0.822020D+00           0.216890D+00
            S    1   1.00
                  0.330170D+00           0.100000D+01
            S    1   1.00
                  0.114630D+00           0.100000D+01
            P    4   1.00
                  0.337750D+02           0.602940D-02
                  0.767660D+01           0.432280D-01
                  0.223570D+01           0.163010D+00
                  0.764470D+00           0.365040D+00
            P    1   1.00
                  0.262320D+00           0.100000D+01
            P    1   1.00
                  0.846380D-01           0.100000D+01
            D    1   1.00
                  0.140000D+01           0.100000D+01
            D    1   1.00
                  0.450000D+00           0.100000D+01
            F    1   1.00
                  0.950000D+00           0.100000D+01
            ****
            -N     0
            S    7   1.00
                  0.111010D+05           0.545700D-03
                  0.166530D+04           0.421810D-02
                  0.379080D+03           0.216450D-01
                  0.107300D+03           0.837760D-01
                  0.347470D+02           0.238810D+00
                  0.122490D+02           0.439940D+00
                  0.447430D+01           0.363640D+00
            S    7   1.00
                  0.166530D+04          -0.150060D-05
                  0.379080D+03          -0.587530D-04
                  0.107300D+03          -0.774530D-03
                  0.347470D+02          -0.721610D-02
                  0.122490D+02          -0.393380D-01
                  0.447430D+01          -0.906110D-01
                  0.124040D+01           0.198820D+00
            S    1   1.00
                  0.487430D+00           0.100000D+01
            S    1   1.00
                  0.164840D+00           0.100000D+01
            P    4   1.00
                  0.479340D+02           0.617060D-02
                  0.109990D+02           0.442600D-01
                  0.324720D+01           0.168250D+00
                  0.111140D+01           0.368480D+00
            P    1   1.00
                  0.379880D+00           0.100000D+01
            P    1   1.00
                  0.120680D+00           0.100000D+01
            D    1   1.00
                  0.180000D+01           0.100000D+01
            D    1   1.00
                  0.550000D+00           0.100000D+01
            F    1   1.00
                  0.102000D+01           0.100000D+01
            ****
            -O     0
            S    7   1.00
                  0.147820D+05           0.535190D-03
                  0.221730D+04           0.413750D-02
                  0.504740D+03           0.212450D-01
                  0.142870D+03           0.824530D-01
                  0.463000D+02           0.236710D+00
                  0.163370D+02           0.440390D+00
                  0.598280D+01           0.364650D+00
            S    7   1.00
                  0.221730D+04          -0.192750D-05
                  0.504740D+03          -0.579640D-04
                  0.142870D+03          -0.794940D-03
                  0.463000D+02          -0.731250D-02
                  0.163370D+02          -0.405740D-01
                  0.598280D+01          -0.915940D-01
                  0.167180D+01           0.209400D+00
            S    1   1.00
                  0.646620D+00           0.100000D+01
            S    1   1.00
                  0.216690D+00           0.100000D+01
            P    4   1.00
                  0.604240D+02           0.689490D-02
                  0.139350D+02           0.490050D-01
                  0.415310D+01           0.182550D+00
                  0.141580D+01           0.376330D+00
            P    1   1.00
                  0.475490D+00           0.100000D+01
            P    1   1.00
                  0.145290D+00           0.100000D+01
            D    1   1.00
                  0.220000D+01           0.100000D+01
            D    1   1.00
                  0.650000D+00           0.100000D+01
            F    1   1.00
                  0.110000D+01           0.100000D+01
            ****
 Initial command:
 /public3/home/sc51754/softwares/g09e01/l1.exe "./Gau-51480.inp" -scrdir="./"
 Entering Link 1 = /public3/home/sc51754/softwares/g09e01/l1.exe PID=     51482.
  
 Copyright (c) 1988,1990,1992,1993,1995,1998,2003,2009,2015,
            Gaussian, Inc.  All Rights Reserved.
  
 This is part of the Gaussian(R) 09 program.  It is based on
 the Gaussian(R) 03 system (copyright 2003, Gaussian, Inc.),
 the Gaussian(R) 98 system (copyright 1998, Gaussian, Inc.),
 the Gaussian(R) 94 system (copyright 1995, Gaussian, Inc.),
 the Gaussian 92(TM) system (copyright 1992, Gaussian, Inc.),
 the Gaussian 90(TM) system (copyright 1990, Gaussian, Inc.),
 the Gaussian 88(TM) system (copyright 1988, Gaussian, Inc.),
 the Gaussian 86(TM) system (copyright 1986, Carnegie Mellon
 University), and the Gaussian 82(TM) system (copyright 1983,
 Carnegie Mellon University). Gaussian is a federally registered
 trademark of Gaussian, Inc.
  
 This software contains proprietary and confidential information,
 including trade secrets, belonging to Gaussian, Inc.
  
 This software is provided under written license and may be
 used, copied, transmitted, or stored only in accord with that
 written license.
  
 The following legend is applicable only to US Government
 contracts under FAR:
  
                    RESTRICTED RIGHTS LEGEND
  
 Use, reproduction and disclosure by the US Government is
 subject to restrictions as set forth in subparagraphs (a)
 and (c) of the Commercial Computer Software - Restricted
 Rights clause in FAR 52.227-19.
  
 Gaussian, Inc.
 340 Quinnipiac St., Bldg. 40, Wallingford CT 06492
  
  
 ---------------------------------------------------------------
 Warning -- This program may not be used in any manner that
 competes with the business of Gaussian, Inc. or will provide
 assistance to any competitor of Gaussian, Inc.  The licensee
 of this program is prohibited from giving any competitor of
 Gaussian, Inc. access to this program.  By using this program,
 the user acknowledges that Gaussian, Inc. is engaged in the
 business of creating and licensing software in the field of
 computational chemistry and represents and warrants to the
 licensee that it is not a competitor of Gaussian, Inc. and that
 it will not use this program in any manner prohibited above.
 ---------------------------------------------------------------
  

 Cite this work as:
 Gaussian 09, Revision E.01,
 M. J. Frisch, G. W. Trucks, H. B. Schlegel, G. E. Scuseria, 
 M. A. Robb, J. R. Cheeseman, G. Scalmani, V. Barone, B. Mennucci, 
 G. A. Petersson, H. Nakatsuji, M. Caricato, X. Li, H. P. Hratchian, 
 A. F. Izmaylov, J. Bloino, G. Zheng, J. L. Sonnenberg, M. Hada, 
 M. Ehara, K. Toyota, R. Fukuda, J. Hasegawa, M. Ishida, T. Nakajima, 
 Y. Honda, O. Kitao, H. Nakai, T. Vreven, J. A. Montgomery, Jr., 
 J. E. Peralta, F. Ogliaro, M. Bearpark, J. J. Heyd, E. Brothers, 
 K. N. Kudin, V. N. Staroverov, T. Keith, R. Kobayashi, J. Normand, 
 K. Raghavachari, A. Rendell, J. C. Burant, S. S. Iyengar, J. Tomasi, 
 M. Cossi, N. Rega, J. M. Millam, M. Klene, J. E. Knox, J. B. Cross, 
 V. Bakken, C. Adamo, J. Jaramillo, R. Gomperts, R. E. Stratmann, 
 O. Yazyev, A. J. Austin, R. Cammi, C. Pomelli, J. W. Ochterski, 
 R. L. Martin, K. Morokuma, V. G. Zakrzewski, G. A. Voth, 
 P. Salvador, J. J. Dannenberg, S. Dapprich, A. D. Daniels, 
 O. Farkas, J. B. Foresman, J. V. Ortiz, J. Cioslowski, 
 and D. J. Fox, Gaussian, Inc., Wallingford CT, 2013.
 
 ******************************************
 Gaussian 09:  EM64L-G09RevE.01 30-Nov-2015
                27-Aug-2021 
 ******************************************
 %nprocshared=64
 Will use up to   64 processors via shared memory.
 %mem=128GB
 %chk=HY_H2O_BHandHLYP_PC2_OPT_FREQ.chk
 -------------------------
 #p opt freq BHandHLYP/gen
 -------------------------
 1/14=-1,18=20,19=15,26=3,38=1/1,3;
 2/9=110,12=2,17=6,18=5,40=1/2;
 3/5=7,11=2,16=1,25=1,30=1,71=1,74=-3/1,2,3;
 4//1;
 5/5=2,38=5/2;
 6/7=2,8=2,9=2,10=2,28=1/1;
 7//1,2,3,16;
 1/14=-1,18=20,19=15,26=3/3(2);
 2/9=110/2;
 99//99;
 2/9=110/2;
 3/5=7,6=1,11=2,16=1,25=1,30=1,71=1,74=-3,82=7/1,2,3;
 4/5=5,16=3,69=1/1;
 5/5=2,38=5/2;
 7//1,2,3,16;
 1/14=-1,18=20,19=15,26=3/3(-5);
 2/9=110/2;
 6/7=2,8=2,9=2,10=2,19=2,28=1/1;
 99/9=1/99;
 Leave Link    1 at Fri Aug 27 00:35:36 2021, MaxMem= 17179869184 cpu:         8.3
 (Enter /public3/home/sc51754/softwares/g09e01/l101.exe)
 -----------------------------
 HY_H2O_BHandHLYP_PC2_OPT_FREQ
 -----------------------------
 Symbolic Z-matrix:
 Charge =  0 Multiplicity = 1
 O                     1.216     1.44855  -0.00262 
 N                     0.30594  -0.66619  -0.00547 
 C                     0.13701   0.65516  -0.00009 
 C                    -1.12976   1.25518   0.00826 
 C                    -0.78318  -1.4465   -0.00563 
 C                    -2.23812   0.43549   0.00911 
 C                    -2.07199  -0.951     0.00173 
 H                     2.03022   0.90023  -0.0153 
 H                    -1.20631   2.3321    0.01208 
 H                    -0.59906  -2.51382  -0.01294 
 H                    -3.22982   0.86768   0.01456 
 H                    -2.91795  -1.62195   0.00074 
 O                     3.09571  -0.58722  -0.08503 
 H                     3.59397  -0.87925   0.68253 
 H                     2.20982  -1.00228  -0.02248 
 
 Add virtual bond connecting atoms O13        and H8         Dist= 3.46D+00.
 Add virtual bond connecting atoms H15        and N2         Dist= 3.65D+00.
 Add virtual bond connecting atoms H15        and H8         Dist= 3.61D+00.
 Add atom     13 valence  3 ND=      2 dihedral       8     13     14     15
 NAtoms=     15 NQM=       15 NQMF=       0 NMMI=      0 NMMIF=      0
                NMic=       0 NMicF=      0.
                    Isotopes and Nuclear Properties:
 (Nuclear quadrupole moments (NQMom) in fm**2, nuclear magnetic moments (NMagM)
  in nuclear magnetons)

  Atom         1           2           3           4           5           6           7           8           9          10
 IAtWgt=          16          14          12          12          12          12          12           1           1           1
 AtmWgt=  15.9949146  14.0030740  12.0000000  12.0000000  12.0000000  12.0000000  12.0000000   1.0078250   1.0078250   1.0078250
 NucSpn=           0           2           0           0           0           0           0           1           1           1
 AtZEff=   0.0000000   0.0000000   0.0000000   0.0000000   0.0000000   0.0000000   0.0000000   0.0000000   0.0000000   0.0000000
 NQMom=    0.0000000   2.0440000   0.0000000   0.0000000   0.0000000   0.0000000   0.0000000   0.0000000   0.0000000   0.0000000
 NMagM=    0.0000000   0.4037610   0.0000000   0.0000000   0.0000000   0.0000000   0.0000000   2.7928460   2.7928460   2.7928460
 AtZNuc=   8.0000000   7.0000000   6.0000000   6.0000000   6.0000000   6.0000000   6.0000000   1.0000000   1.0000000   1.0000000

  Atom        11          12          13          14          15
 IAtWgt=           1           1          16           1           1
 AtmWgt=   1.0078250   1.0078250  15.9949146   1.0078250   1.0078250
 NucSpn=           1           1           0           1           1
 AtZEff=   0.0000000   0.0000000   0.0000000   0.0000000   0.0000000
 NQMom=    0.0000000   0.0000000   0.0000000   0.0000000   0.0000000
 NMagM=    2.7928460   2.7928460   0.0000000   2.7928460   2.7928460
 AtZNuc=   1.0000000   1.0000000   8.0000000   1.0000000   1.0000000
 Leave Link  101 at Fri Aug 27 00:35:36 2021, MaxMem= 17179869184 cpu:         9.2
 (Enter /public3/home/sc51754/softwares/g09e01/l103.exe)

 GradGradGradGradGradGradGradGradGradGradGradGradGradGradGradGradGradGrad
 Berny optimization.
 Initialization pass.
                           ----------------------------
                           !    Initial Parameters    !
                           ! (Angstroms and Degrees)  !
 --------------------------                            --------------------------
 ! Name  Definition              Value          Derivative Info.                !
 --------------------------------------------------------------------------------
 ! R1    R(1,3)                  1.3393         estimate D2E/DX2                !
 ! R2    R(1,8)                  0.9817         estimate D2E/DX2                !
 ! R3    R(2,3)                  1.3321         estimate D2E/DX2                !
 ! R4    R(2,5)                  1.3398         estimate D2E/DX2                !
 ! R5    R(2,15)                 1.9334         estimate D2E/DX2                !
 ! R6    R(3,4)                  1.4017         estimate D2E/DX2                !
 ! R7    R(4,6)                  1.3785         estimate D2E/DX2                !
 ! R8    R(4,9)                  1.0796         estimate D2E/DX2                !
 ! R9    R(5,7)                  1.3808         estimate D2E/DX2                !
 ! R10   R(5,10)                 1.0831         estimate D2E/DX2                !
 ! R11   R(6,7)                  1.3964         estimate D2E/DX2                !
 ! R12   R(6,11)                 1.0818         estimate D2E/DX2                !
 ! R13   R(7,12)                 1.0797         estimate D2E/DX2                !
 ! R14   R(8,13)                 1.831          estimate D2E/DX2                !
 ! R15   R(8,15)                 1.911          estimate D2E/DX2                !
 ! R16   R(13,14)                0.9606         estimate D2E/DX2                !
 ! R17   R(13,15)                0.9803         estimate D2E/DX2                !
 ! A1    A(3,1,8)              109.7141         estimate D2E/DX2                !
 ! A2    A(3,2,5)              118.3342         estimate D2E/DX2                !
 ! A3    A(3,2,15)             107.2978         estimate D2E/DX2                !
 ! A4    A(5,2,15)             134.3668         estimate D2E/DX2                !
 ! A5    A(1,3,2)              119.0414         estimate D2E/DX2                !
 ! A6    A(1,3,4)              118.3271         estimate D2E/DX2                !
 ! A7    A(2,3,4)              122.6315         estimate D2E/DX2                !
 ! A8    A(3,4,6)              118.1694         estimate D2E/DX2                !
 ! A9    A(3,4,9)              119.4119         estimate D2E/DX2                !
 ! A10   A(6,4,9)              122.4186         estimate D2E/DX2                !
 ! A11   A(2,5,7)              123.3496         estimate D2E/DX2                !
 ! A12   A(2,5,10)             115.832          estimate D2E/DX2                !
 ! A13   A(7,5,10)             120.8184         estimate D2E/DX2                !
 ! A14   A(4,6,7)              119.6513         estimate D2E/DX2                !
 ! A15   A(4,6,11)             119.9667         estimate D2E/DX2                !
 ! A16   A(7,6,11)             120.382          estimate D2E/DX2                !
 ! A17   A(5,7,6)              117.8639         estimate D2E/DX2                !
 ! A18   A(5,7,12)             120.5506         estimate D2E/DX2                !
 ! A19   A(6,7,12)             121.5855         estimate D2E/DX2                !
 ! A20   A(1,8,13)             159.5294         estimate D2E/DX2                !
 ! A21   A(1,8,15)             129.3503         estimate D2E/DX2                !
 ! A22   A(8,13,14)            121.2243         estimate D2E/DX2                !
 ! A23   A(14,13,15)           106.8012         estimate D2E/DX2                !
 ! A24   A(2,15,8)              74.5948         estimate D2E/DX2                !
 ! A25   A(2,15,13)            144.7717         estimate D2E/DX2                !
 ! D1    D(8,1,3,2)              0.4232         estimate D2E/DX2                !
 ! D2    D(8,1,3,4)           -179.5823         estimate D2E/DX2                !
 ! D3    D(3,1,8,13)             4.1107         estimate D2E/DX2                !
 ! D4    D(3,1,8,15)            -0.4785         estimate D2E/DX2                !
 ! D5    D(5,2,3,1)           -179.8646         estimate D2E/DX2                !
 ! D6    D(5,2,3,4)              0.1411         estimate D2E/DX2                !
 ! D7    D(15,2,3,1)            -0.2046         estimate D2E/DX2                !
 ! D8    D(15,2,3,4)           179.8011         estimate D2E/DX2                !
 ! D9    D(3,2,5,7)             -0.1121         estimate D2E/DX2                !
 ! D10   D(3,2,5,10)           179.8324         estimate D2E/DX2                !
 ! D11   D(15,2,5,7)          -179.6581         estimate D2E/DX2                !
 ! D12   D(15,2,5,10)            0.2865         estimate D2E/DX2                !
 ! D13   D(3,2,15,8)            -0.0003         estimate D2E/DX2                !
 ! D14   D(3,2,15,13)           -5.7168         estimate D2E/DX2                !
 ! D15   D(5,2,15,8)           179.5811         estimate D2E/DX2                !
 ! D16   D(5,2,15,13)          173.8646         estimate D2E/DX2                !
 ! D17   D(1,3,4,6)            179.9187         estimate D2E/DX2                !
 ! D18   D(1,3,4,9)              0.0211         estimate D2E/DX2                !
 ! D19   D(2,3,4,6)             -0.0869         estimate D2E/DX2                !
 ! D20   D(2,3,4,9)           -179.9845         estimate D2E/DX2                !
 ! D21   D(3,4,6,7)             -0.0001         estimate D2E/DX2                !
 ! D22   D(3,4,6,11)          -179.9445         estimate D2E/DX2                !
 ! D23   D(9,4,6,7)            179.8942         estimate D2E/DX2                !
 ! D24   D(9,4,6,11)            -0.0502         estimate D2E/DX2                !
 ! D25   D(2,5,7,6)              0.0291         estimate D2E/DX2                !
 ! D26   D(2,5,7,12)           179.968          estimate D2E/DX2                !
 ! D27   D(10,5,7,6)          -179.9128         estimate D2E/DX2                !
 ! D28   D(10,5,7,12)            0.0261         estimate D2E/DX2                !
 ! D29   D(4,6,7,5)              0.0272         estimate D2E/DX2                !
 ! D30   D(4,6,7,12)          -179.911          estimate D2E/DX2                !
 ! D31   D(11,6,7,5)           179.9714         estimate D2E/DX2                !
 ! D32   D(11,6,7,12)            0.0332         estimate D2E/DX2                !
 ! D33   D(1,8,13,14)         -110.3582         estimate D2E/DX2                !
 ! D34   D(1,8,15,2)             0.3164         estimate D2E/DX2                !
 ! D35   D(8,13,14,15)          87.5843         estimate D2E/DX2                !
 ! D36   D(14,13,15,2)         125.4771         estimate D2E/DX2                !
 --------------------------------------------------------------------------------
 Trust Radius=3.00D-01 FncErr=1.00D-07 GrdErr=1.00D-06
 Number of steps in this run=     88 maximum allowed number of steps=    100.
 GradGradGradGradGradGradGradGradGradGradGradGradGradGradGradGradGradGrad

 Leave Link  103 at Fri Aug 27 00:35:36 2021, MaxMem= 17179869184 cpu:         0.1
 (Enter /public3/home/sc51754/softwares/g09e01/l202.exe)
                          Input orientation:                          
 ---------------------------------------------------------------------
 Center     Atomic      Atomic             Coordinates (Angstroms)
 Number     Number       Type             X           Y           Z
 ---------------------------------------------------------------------
      1          8           0        1.216003    1.448553   -0.002617
      2          7           0        0.305942   -0.666194   -0.005465
      3          6           0        0.137014    0.655155   -0.000094
      4          6           0       -1.129757    1.255183    0.008257
      5          6           0       -0.783175   -1.446498   -0.005634
      6          6           0       -2.238124    0.435485    0.009108
      7          6           0       -2.071986   -0.950998    0.001732
      8          1           0        2.030216    0.900227   -0.015295
      9          1           0       -1.206308    2.332099    0.012077
     10          1           0       -0.599059   -2.513820   -0.012944
     11          1           0       -3.229823    0.867678    0.014558
     12          1           0       -2.917952   -1.621952    0.000735
     13          8           0        3.095711   -0.587217   -0.085025
     14          1           0        3.593966   -0.879251    0.682533
     15          1           0        2.209819   -1.002278   -0.022484
 ---------------------------------------------------------------------
                    Distance matrix (angstroms):
                    1          2          3          4          5
     1  O    0.000000
     2  N    2.302254   0.000000
     3  C    1.339292   1.332114   0.000000
     4  C    2.353742   2.398564   1.401718   0.000000
     5  C    3.518244   1.339795   2.294281   2.723856   0.000000
     6  C    3.599644   2.772396   2.385292   1.378544   2.378856
     7  C    4.070471   2.394934   2.731192   2.398973   1.380800
     8  H    0.981715   2.329569   1.909059   3.179934   3.663657
     9  H    2.578461   3.358120   2.148675   1.079640   3.802256
    10  H    4.358320   2.057378   3.253363   3.806241   1.083111
    11  H    4.483646   3.854192   3.373570   2.135527   3.367774
    12  H    5.149524   3.362589   3.810254   3.387566   2.141984
    13  O    2.772085   2.792020   3.210076   4.610609   3.973717
    14  H    3.397471   3.365982   3.843293   5.227238   4.467069
    15  H    2.644738   1.933388   2.654073   4.031109   3.025827
                    6          7          8          9         10
     6  C    0.000000
     7  C    1.396421   0.000000
     8  H    4.293636   4.500598   0.000000
     9  H    2.159120   3.395325   3.539222   0.000000
    10  H    3.374229   2.147590   4.309154   4.883883   0.000000
    11  H    1.081798   2.155999   5.260224   2.497829   4.284414
    12  H    2.166860   1.079740   5.553918   4.308639   2.484528
    13  O    5.431812   5.181212   1.831019   5.199923   4.167532
    14  H    6.016253   5.707158   2.469579   5.814199   4.553786
    15  H    4.674651   4.282181   1.910977   4.773802   3.189772
                   11         12         13         14         15
    11  H    0.000000
    12  H    2.509126   0.000000
    13  O    6.491457   6.102637   0.000000
    14  H    7.075454   6.589501   0.960566   0.000000
    15  H    5.752201   5.165130   0.980302   1.558219   0.000000
 Stoichiometry    C5H7NO2
 Framework group  C1[X(C5H7NO2)]
 Deg. of freedom    39
 Full point group                 C1      NOp   1
 Largest Abelian subgroup         C1      NOp   1
 Largest concise Abelian subgroup C1      NOp   1
                         Standard orientation:                         
 ---------------------------------------------------------------------
 Center     Atomic      Atomic             Coordinates (Angstroms)
 Number     Number       Type             X           Y           Z
 ---------------------------------------------------------------------
      1          8           0        1.216003    1.448553   -0.002617
      2          7           0        0.305942   -0.666194   -0.005465
      3          6           0        0.137014    0.655155   -0.000094
      4          6           0       -1.129757    1.255183    0.008257
      5          6           0       -0.783175   -1.446498   -0.005634
      6          6           0       -2.238124    0.435485    0.009108
      7          6           0       -2.071986   -0.950998    0.001732
      8          1           0        2.030216    0.900227   -0.015295
      9          1           0       -1.206308    2.332099    0.012077
     10          1           0       -0.599059   -2.513820   -0.012944
     11          1           0       -3.229823    0.867678    0.014558
     12          1           0       -2.917952   -1.621952    0.000735
     13          8           0        3.095711   -0.587217   -0.085025
     14          1           0        3.593966   -0.879251    0.682533
     15          1           0        2.209819   -1.002278   -0.022484
 ---------------------------------------------------------------------
 Rotational constants (GHZ):      4.0123302      1.4179596      1.0501753
 Leave Link  202 at Fri Aug 27 00:35:37 2021, MaxMem= 17179869184 cpu:         3.1
 (Enter /public3/home/sc51754/softwares/g09e01/l301.exe)
 General basis read from cards:  (5D, 7F)
 Centers:       8      9     10     11     12     14     15
 S 4 1.00
     Exponent=  7.5423000000D+01 Coefficients=  2.4065000000D-03
     Exponent=  1.1350000000D+01 Coefficients=  1.8487000000D-02
     Exponent=  2.5993000000D+00 Coefficients=  8.9742000000D-02
     Exponent=  7.3513000000D-01 Coefficients=  2.8111000000D-01
 S 1 1.00
     Exponent=  2.3167000000D-01 Coefficients=  1.0000000000D+00
 S 1 1.00
     Exponent=  7.4147000000D-02 Coefficients=  1.0000000000D+00
 P 1 1.00
     Exponent=  1.6000000000D+00 Coefficients=  1.0000000000D+00
 P 1 1.00
     Exponent=  4.5000000000D-01 Coefficients=  1.0000000000D+00
 D 1 1.00
     Exponent=  1.2500000000D+00 Coefficients=  1.0000000000D+00
 ****
 Centers:       3      4      5      6      7
 S 7 1.00
     Exponent=  7.8571000000D+03 Coefficients=  5.6825000000D-04
     Exponent=  1.1787000000D+03 Coefficients=  4.3915000000D-03
     Exponent=  2.6832000000D+02 Coefficients=  2.2504000000D-02
     Exponent=  7.5948000000D+01 Coefficients=  8.6653000000D-02
     Exponent=  2.4559000000D+01 Coefficients=  2.4405000000D-01
     Exponent=  8.6212000000D+00 Coefficients=  4.4148000000D-01
     Exponent=  3.1278000000D+00 Coefficients=  3.5332000000D-01
 S 7 1.00
     Exponent=  1.1787000000D+03 Coefficients= -5.9492000000D-07
     Exponent=  2.6832000000D+02 Coefficients= -6.2748000000D-05
     Exponent=  7.5948000000D+01 Coefficients= -7.5773000000D-04
     Exponent=  2.4559000000D+01 Coefficients= -7.3308000000D-03
     Exponent=  8.6212000000D+00 Coefficients= -3.8932000000D-02
     Exponent=  3.1278000000D+00 Coefficients= -8.8908000000D-02
     Exponent=  8.2202000000D-01 Coefficients=  2.1689000000D-01
 S 1 1.00
     Exponent=  3.3017000000D-01 Coefficients=  1.0000000000D+00
 S 1 1.00
     Exponent=  1.1463000000D-01 Coefficients=  1.0000000000D+00
 P 4 1.00
     Exponent=  3.3775000000D+01 Coefficients=  6.0294000000D-03
     Exponent=  7.6766000000D+00 Coefficients=  4.3228000000D-02
     Exponent=  2.2357000000D+00 Coefficients=  1.6301000000D-01
     Exponent=  7.6447000000D-01 Coefficients=  3.6504000000D-01
 P 1 1.00
     Exponent=  2.6232000000D-01 Coefficients=  1.0000000000D+00
 P 1 1.00
     Exponent=  8.4638000000D-02 Coefficients=  1.0000000000D+00
 D 1 1.00
     Exponent=  1.4000000000D+00 Coefficients=  1.0000000000D+00
 D 1 1.00
     Exponent=  4.5000000000D-01 Coefficients=  1.0000000000D+00
 F 1 1.00
     Exponent=  9.5000000000D-01 Coefficients=  1.0000000000D+00
 ****
 Centers:       2
 S 7 1.00
     Exponent=  1.1101000000D+04 Coefficients=  5.4570000000D-04
     Exponent=  1.6653000000D+03 Coefficients=  4.2181000000D-03
     Exponent=  3.7908000000D+02 Coefficients=  2.1645000000D-02
     Exponent=  1.0730000000D+02 Coefficients=  8.3776000000D-02
     Exponent=  3.4747000000D+01 Coefficients=  2.3881000000D-01
     Exponent=  1.2249000000D+01 Coefficients=  4.3994000000D-01
     Exponent=  4.4743000000D+00 Coefficients=  3.6364000000D-01
 S 7 1.00
     Exponent=  1.6653000000D+03 Coefficients= -1.5006000000D-06
     Exponent=  3.7908000000D+02 Coefficients= -5.8753000000D-05
     Exponent=  1.0730000000D+02 Coefficients= -7.7453000000D-04
     Exponent=  3.4747000000D+01 Coefficients= -7.2161000000D-03
     Exponent=  1.2249000000D+01 Coefficients= -3.9338000000D-02
     Exponent=  4.4743000000D+00 Coefficients= -9.0611000000D-02
     Exponent=  1.2404000000D+00 Coefficients=  1.9882000000D-01
 S 1 1.00
     Exponent=  4.8743000000D-01 Coefficients=  1.0000000000D+00
 S 1 1.00
     Exponent=  1.6484000000D-01 Coefficients=  1.0000000000D+00
 P 4 1.00
     Exponent=  4.7934000000D+01 Coefficients=  6.1706000000D-03
     Exponent=  1.0999000000D+01 Coefficients=  4.4260000000D-02
     Exponent=  3.2472000000D+00 Coefficients=  1.6825000000D-01
     Exponent=  1.1114000000D+00 Coefficients=  3.6848000000D-01
 P 1 1.00
     Exponent=  3.7988000000D-01 Coefficients=  1.0000000000D+00
 P 1 1.00
     Exponent=  1.2068000000D-01 Coefficients=  1.0000000000D+00
 D 1 1.00
     Exponent=  1.8000000000D+00 Coefficients=  1.0000000000D+00
 D 1 1.00
     Exponent=  5.5000000000D-01 Coefficients=  1.0000000000D+00
 F 1 1.00
     Exponent=  1.0200000000D+00 Coefficients=  1.0000000000D+00
 ****
 Centers:       1     13
 S 7 1.00
     Exponent=  1.4782000000D+04 Coefficients=  5.3519000000D-04
     Exponent=  2.2173000000D+03 Coefficients=  4.1375000000D-03
     Exponent=  5.0474000000D+02 Coefficients=  2.1245000000D-02
     Exponent=  1.4287000000D+02 Coefficients=  8.2453000000D-02
     Exponent=  4.6300000000D+01 Coefficients=  2.3671000000D-01
     Exponent=  1.6337000000D+01 Coefficients=  4.4039000000D-01
     Exponent=  5.9828000000D+00 Coefficients=  3.6465000000D-01
 S 7 1.00
     Exponent=  2.2173000000D+03 Coefficients= -1.9275000000D-06
     Exponent=  5.0474000000D+02 Coefficients= -5.7964000000D-05
     Exponent=  1.4287000000D+02 Coefficients= -7.9494000000D-04
     Exponent=  4.6300000000D+01 Coefficients= -7.3125000000D-03
     Exponent=  1.6337000000D+01 Coefficients= -4.0574000000D-02
     Exponent=  5.9828000000D+00 Coefficients= -9.1594000000D-02
     Exponent=  1.6718000000D+00 Coefficients=  2.0940000000D-01
 S 1 1.00
     Exponent=  6.4662000000D-01 Coefficients=  1.0000000000D+00
 S 1 1.00
     Exponent=  2.1669000000D-01 Coefficients=  1.0000000000D+00
 P 4 1.00
     Exponent=  6.0424000000D+01 Coefficients=  6.8949000000D-03
     Exponent=  1.3935000000D+01 Coefficients=  4.9005000000D-02
     Exponent=  4.1531000000D+00 Coefficients=  1.8255000000D-01
     Exponent=  1.4158000000D+00 Coefficients=  3.7633000000D-01
 P 1 1.00
     Exponent=  4.7549000000D-01 Coefficients=  1.0000000000D+00
 P 1 1.00
     Exponent=  1.4529000000D-01 Coefficients=  1.0000000000D+00
 D 1 1.00
     Exponent=  2.2000000000D+00 Coefficients=  1.0000000000D+00
 D 1 1.00
     Exponent=  6.5000000000D-01 Coefficients=  1.0000000000D+00
 F 1 1.00
     Exponent=  1.1000000000D+00 Coefficients=  1.0000000000D+00
 ****
 Ernie: Thresh=  0.10000D-02 Tol=  0.10000D-05 Strict=F.
 Ernie:  8 primitive shells out of 263 were deleted.
 There are   385 symmetry adapted cartesian basis functions of A   symmetry.
 There are   338 symmetry adapted basis functions of A   symmetry.
   338 basis functions,   566 primitive gaussians,   385 cartesian basis functions
    30 alpha electrons       30 beta electrons
       nuclear repulsion energy       357.6226221683 Hartrees.
 IExCor=  402 DFT=T Ex+Corr=BHandHLYP ExCW=0 ScaHFX=  0.500000
 ScaDFX=  0.500000  0.500000  1.000000  1.000000 ScalE2=  1.000000  1.000000
 IRadAn=      0 IRanWt=     -1 IRanGd=            0 ICorTp=0 IEmpDi=  4
 NAtoms=   15 NActive=   15 NUniq=   15 SFac= 1.00D+00 NAtFMM=   60 NAOKFM=F Big=F
 Integral buffers will be    131072 words long.
 Raffenetti 2 integral format.
 Two-electron integral symmetry is turned on.
 Leave Link  301 at Fri Aug 27 00:35:37 2021, MaxMem= 17179869184 cpu:         1.3
 (Enter /public3/home/sc51754/softwares/g09e01/l302.exe)
 NPDir=0 NMtPBC=     1 NCelOv=     1 NCel=       1 NClECP=     1 NCelD=      1
         NCelK=      1 NCelE2=     1 NClLst=     1 CellRange=     0.0.
 One-electron integrals computed using PRISM.
 NBasis=   338 RedAO= T EigKep=  1.46D-04  NBF=   338
 NBsUse=   338 1.00D-06 EigRej= -1.00D+00 NBFU=   338
 Precomputing XC quadrature grid using
 IXCGrd= 4 IRadAn=           0 IRanWt=          -1 IRanGd=           0 AccXCQ= 0.00D+00.
 Generated NRdTot=       0 NPtTot=           0 NUsed=           0 NTot=          32
 NSgBfM=   384   384   384   384   385 MxSgAt=    15 MxSgA2=    15.
 Leave Link  302 at Fri Aug 27 00:35:38 2021, MaxMem= 17179869184 cpu:        50.5
 (Enter /public3/home/sc51754/softwares/g09e01/l303.exe)
 DipDrv:  MaxL=1.
 Leave Link  303 at Fri Aug 27 00:35:38 2021, MaxMem= 17179869184 cpu:        14.6
 (Enter /public3/home/sc51754/softwares/g09e01/l401.exe)
 ExpMin= 7.41D-02 ExpMax= 1.48D+04 ExpMxC= 5.05D+02 IAcc=2 IRadAn=         4 AccDes= 0.00D+00
 Harris functional with IExCor=  402 and IRadAn=       4 diagonalized for initial guess.
 HarFok:  IExCor=  402 AccDes= 0.00D+00 IRadAn=         4 IDoV= 1 UseB2=F ITyADJ=14
 ICtDFT=  3500011 ScaDFX=  1.000000  1.000000  1.000000  1.000000
 FoFCou: FMM=F IPFlag=           0 FMFlag=      100000 FMFlg1=           0
         NFxFlg=           0 DoJE=T BraDBF=F KetDBF=T FulRan=T
         wScrn=  0.000000 ICntrl=     500 IOpCl=  0 I1Cent=   200000004 NGrid=           0
         NMat0=    1 NMatS0=      1 NMatT0=    0 NMatD0=    1 NMtDS0=    0 NMtDT0=    0
 Petite list used in FoFCou.
 Harris En= -400.184772173998    
 JPrj=0 DoOrth=F DoCkMO=F.
 Leave Link  401 at Fri Aug 27 00:35:39 2021, MaxMem= 17179869184 cpu:        54.0
 (Enter /public3/home/sc51754/softwares/g09e01/l502.exe)
 Closed shell SCF:
 Using DIIS extrapolation, IDIIS=  1040.
 Integral symmetry usage will be decided dynamically.
 Keep R1 ints in memory in canonical form, NReq=1670404686.
 IVT=      490665 IEndB=      490665 NGot= 17179869184 MDV= 15538220534
 LenX= 15538220534 LenY= 15538071868
 Requested convergence on RMS density matrix=1.00D-08 within 128 cycles.
 Requested convergence on MAX density matrix=1.00D-06.
 Requested convergence on             energy=1.00D-06.
 No special actions if energy rises.
 FoFCou: FMM=F IPFlag=           0 FMFlag=           0 FMFlg1=           0
         NFxFlg=           0 DoJE=F BraDBF=F KetDBF=F FulRan=T
         wScrn=  0.000000 ICntrl=     600 IOpCl=  0 I1Cent=           0 NGrid=           0
         NMat0=    1 NMatS0=  57291 NMatT0=    0 NMatD0=    1 NMtDS0=    0 NMtDT0=    0
 Symmetry not used in FoFCou.
 Integral accuracy reduced to 1.0D-05 until final iterations.

 Cycle   1  Pass 0  IDiag  1:
 E= -399.631275539331    
 DIIS: error= 3.01D-02 at cycle   1 NSaved=   1.
 NSaved= 1 IEnMin= 1 EnMin= -399.631275539331     IErMin= 1 ErrMin= 3.01D-02
 ErrMax= 3.01D-02  0.00D+00 EMaxC= 1.00D-01 BMatC= 3.63D-01 BMatP= 3.63D-01
 IDIUse=3 WtCom= 6.99D-01 WtEn= 3.01D-01
 Coeff-Com:  0.100D+01
 Coeff-En:   0.100D+01
 Coeff:      0.100D+01
 Gap=     0.295 Goal=   None    Shift=    0.000
 GapD=    0.295 DampG=1.000 DampE=0.500 DampFc=0.5000 IDamp=-1.
 Damping current iteration by 5.00D-01
 RMSDP=2.20D-03 MaxDP=1.30D-01              OVMax= 1.75D-01

 Cycle   2  Pass 0  IDiag  1:
 E= -399.764545960729     Delta-E=       -0.133270421398 Rises=F Damp=T
 DIIS: error= 9.65D-03 at cycle   2 NSaved=   2.
 NSaved= 2 IEnMin= 2 EnMin= -399.764545960729     IErMin= 2 ErrMin= 9.65D-03
 ErrMax= 9.65D-03  0.00D+00 EMaxC= 1.00D-01 BMatC= 2.40D-02 BMatP= 3.63D-01
 IDIUse=3 WtCom= 9.04D-01 WtEn= 9.65D-02
 Coeff-Com: -0.773D-01 0.108D+01
 Coeff-En:   0.000D+00 0.100D+01
 Coeff:     -0.698D-01 0.107D+01
 Gap=     0.323 Goal=   None    Shift=    0.000
 RMSDP=5.50D-04 MaxDP=3.41D-02 DE=-1.33D-01 OVMax= 8.85D-02

 Cycle   3  Pass 0  IDiag  1:
 E= -399.894229753969     Delta-E=       -0.129683793240 Rises=F Damp=F
 DIIS: error= 3.23D-03 at cycle   3 NSaved=   3.
 NSaved= 3 IEnMin= 3 EnMin= -399.894229753969     IErMin= 3 ErrMin= 3.23D-03
 ErrMax= 3.23D-03  0.00D+00 EMaxC= 1.00D-01 BMatC= 6.23D-03 BMatP= 2.40D-02
 IDIUse=3 WtCom= 9.68D-01 WtEn= 3.23D-02
 Coeff-Com: -0.837D-01 0.331D+00 0.753D+00
 Coeff-En:   0.000D+00 0.000D+00 0.100D+01
 Coeff:     -0.810D-01 0.320D+00 0.761D+00
 Gap=     0.290 Goal=   None    Shift=    0.000
 RMSDP=2.00D-04 MaxDP=1.05D-02 DE=-1.30D-01 OVMax= 2.51D-02

 Cycle   4  Pass 0  IDiag  1:
 E= -399.897842234729     Delta-E=       -0.003612480761 Rises=F Damp=F
 DIIS: error= 2.21D-03 at cycle   4 NSaved=   4.
 NSaved= 4 IEnMin= 4 EnMin= -399.897842234729     IErMin= 4 ErrMin= 2.21D-03
 ErrMax= 2.21D-03  0.00D+00 EMaxC= 1.00D-01 BMatC= 1.32D-03 BMatP= 6.23D-03
 IDIUse=3 WtCom= 9.78D-01 WtEn= 2.21D-02
 Coeff-Com: -0.330D-01 0.640D-01 0.366D+00 0.603D+00
 Coeff-En:   0.000D+00 0.000D+00 0.146D+00 0.854D+00
 Coeff:     -0.323D-01 0.626D-01 0.361D+00 0.608D+00
 Gap=     0.290 Goal=   None    Shift=    0.000
 RMSDP=8.27D-05 MaxDP=6.16D-03 DE=-3.61D-03 OVMax= 1.35D-02

 Cycle   5  Pass 0  IDiag  1:
 E= -399.898952861302     Delta-E=       -0.001110626573 Rises=F Damp=F
 DIIS: error= 5.09D-04 at cycle   5 NSaved=   5.
 NSaved= 5 IEnMin= 5 EnMin= -399.898952861302     IErMin= 5 ErrMin= 5.09D-04
 ErrMax= 5.09D-04  0.00D+00 EMaxC= 1.00D-01 BMatC= 6.59D-05 BMatP= 1.32D-03
 IDIUse=3 WtCom= 9.95D-01 WtEn= 5.09D-03
 Coeff-Com: -0.891D-02 0.870D-02 0.108D+00 0.261D+00 0.632D+00
 Coeff-En:   0.000D+00 0.000D+00 0.000D+00 0.000D+00 0.100D+01
 Coeff:     -0.887D-02 0.866D-02 0.107D+00 0.259D+00 0.634D+00
 Gap=     0.289 Goal=   None    Shift=    0.000
 RMSDP=2.04D-05 MaxDP=1.28D-03 DE=-1.11D-03 OVMax= 3.56D-03

 Cycle   6  Pass 0  IDiag  1:
 E= -399.899008554517     Delta-E=       -0.000055693215 Rises=F Damp=F
 DIIS: error= 1.32D-04 at cycle   6 NSaved=   6.
 NSaved= 6 IEnMin= 6 EnMin= -399.899008554517     IErMin= 6 ErrMin= 1.32D-04
 ErrMax= 1.32D-04  0.00D+00 EMaxC= 1.00D-01 BMatC= 7.48D-06 BMatP= 6.59D-05
 IDIUse=3 WtCom= 9.99D-01 WtEn= 1.32D-03
 Coeff-Com: -0.190D-02-0.730D-03 0.250D-01 0.806D-01 0.316D+00 0.581D+00
 Coeff-En:   0.000D+00 0.000D+00 0.000D+00 0.000D+00 0.000D+00 0.100D+01
 Coeff:     -0.190D-02-0.729D-03 0.250D-01 0.805D-01 0.316D+00 0.581D+00
 Gap=     0.290 Goal=   None    Shift=    0.000
 RMSDP=5.38D-06 MaxDP=2.58D-04 DE=-5.57D-05 OVMax= 7.32D-04

 Initial convergence to 1.0D-05 achieved.  Increase integral accuracy.
 Cycle   7  Pass 1  IDiag  1:
 E= -399.899035722032     Delta-E=       -0.000027167515 Rises=F Damp=F
 DIIS: error= 1.51D-05 at cycle   1 NSaved=   1.
 NSaved= 1 IEnMin= 1 EnMin= -399.899035722032     IErMin= 1 ErrMin= 1.51D-05
 ErrMax= 1.51D-05  0.00D+00 EMaxC= 1.00D-01 BMatC= 1.76D-07 BMatP= 1.76D-07
 IDIUse=1 WtCom= 1.00D+00 WtEn= 0.00D+00
 Coeff-Com:  0.100D+01
 Coeff:      0.100D+01
 Gap=     0.290 Goal=   None    Shift=    0.000
 RMSDP=5.38D-06 MaxDP=2.58D-04 DE=-2.72D-05 OVMax= 2.77D-04

 Cycle   8  Pass 1  IDiag  1:
 E= -399.899035910558     Delta-E=       -0.000000188526 Rises=F Damp=F
 DIIS: error= 1.64D-05 at cycle   2 NSaved=   2.
 NSaved= 2 IEnMin= 2 EnMin= -399.899035910558     IErMin= 1 ErrMin= 1.51D-05
 ErrMax= 1.64D-05  0.00D+00 EMaxC= 1.00D-01 BMatC= 9.51D-08 BMatP= 1.76D-07
 IDIUse=1 WtCom= 1.00D+00 WtEn= 0.00D+00
 Coeff-Com:  0.397D+00 0.603D+00
 Coeff:      0.397D+00 0.603D+00
 Gap=     0.290 Goal=   None    Shift=    0.000
 RMSDP=8.09D-07 MaxDP=4.04D-05 DE=-1.89D-07 OVMax= 1.16D-04

 Cycle   9  Pass 1  IDiag  1:
 E= -399.899035987138     Delta-E=       -0.000000076580 Rises=F Damp=F
 DIIS: error= 6.02D-06 at cycle   3 NSaved=   3.
 NSaved= 3 IEnMin= 3 EnMin= -399.899035987138     IErMin= 3 ErrMin= 6.02D-06
 ErrMax= 6.02D-06  0.00D+00 EMaxC= 1.00D-01 BMatC= 1.48D-08 BMatP= 9.51D-08
 IDIUse=1 WtCom= 1.00D+00 WtEn= 0.00D+00
 Coeff-Com: -0.582D-01 0.247D+00 0.812D+00
 Coeff:     -0.582D-01 0.247D+00 0.812D+00
 Gap=     0.290 Goal=   None    Shift=    0.000
 RMSDP=4.06D-07 MaxDP=1.37D-05 DE=-7.66D-08 OVMax= 7.15D-05

 Cycle  10  Pass 1  IDiag  1:
 E= -399.899036003594     Delta-E=       -0.000000016456 Rises=F Damp=F
 DIIS: error= 2.19D-06 at cycle   4 NSaved=   4.
 NSaved= 4 IEnMin= 4 EnMin= -399.899036003594     IErMin= 4 ErrMin= 2.19D-06
 ErrMax= 2.19D-06  0.00D+00 EMaxC= 1.00D-01 BMatC= 1.43D-09 BMatP= 1.48D-08
 IDIUse=1 WtCom= 1.00D+00 WtEn= 0.00D+00
 Coeff-Com: -0.554D-01 0.599D-01 0.339D+00 0.657D+00
 Coeff:     -0.554D-01 0.599D-01 0.339D+00 0.657D+00
 Gap=     0.290 Goal=   None    Shift=    0.000
 RMSDP=1.08D-07 MaxDP=5.94D-06 DE=-1.65D-08 OVMax= 1.94D-05

 Cycle  11  Pass 1  IDiag  1:
 E= -399.899036005129     Delta-E=       -0.000000001535 Rises=F Damp=F
 DIIS: error= 7.12D-07 at cycle   5 NSaved=   5.
 NSaved= 5 IEnMin= 5 EnMin= -399.899036005129     IErMin= 5 ErrMin= 7.12D-07
 ErrMax= 7.12D-07  0.00D+00 EMaxC= 1.00D-01 BMatC= 1.78D-10 BMatP= 1.43D-09
 IDIUse=1 WtCom= 1.00D+00 WtEn= 0.00D+00
 Coeff-Com: -0.101D-01-0.205D-01-0.134D-01 0.246D+00 0.798D+00
 Coeff:     -0.101D-01-0.205D-01-0.134D-01 0.246D+00 0.798D+00
 Gap=     0.290 Goal=   None    Shift=    0.000
 RMSDP=4.81D-08 MaxDP=2.40D-06 DE=-1.54D-09 OVMax= 9.75D-06

 Cycle  12  Pass 1  IDiag  1:
 E= -399.899036005409     Delta-E=       -0.000000000280 Rises=F Damp=F
 DIIS: error= 3.43D-07 at cycle   6 NSaved=   6.
 NSaved= 6 IEnMin= 6 EnMin= -399.899036005409     IErMin= 6 ErrMin= 3.43D-07
 ErrMax= 3.43D-07  0.00D+00 EMaxC= 1.00D-01 BMatC= 2.00D-11 BMatP= 1.78D-10
 IDIUse=1 WtCom= 1.00D+00 WtEn= 0.00D+00
 Coeff-Com:  0.369D-02-0.149D-01-0.456D-01-0.341D-02 0.273D+00 0.787D+00
 Coeff:      0.369D-02-0.149D-01-0.456D-01-0.341D-02 0.273D+00 0.787D+00
 Gap=     0.290 Goal=   None    Shift=    0.000
 RMSDP=1.79D-08 MaxDP=5.21D-07 DE=-2.80D-10 OVMax= 3.33D-06

 Cycle  13  Pass 1  IDiag  1:
 E= -399.899036005437     Delta-E=       -0.000000000028 Rises=F Damp=F
 DIIS: error= 1.01D-07 at cycle   7 NSaved=   7.
 NSaved= 7 IEnMin= 7 EnMin= -399.899036005437     IErMin= 7 ErrMin= 1.01D-07
 ErrMax= 1.01D-07  0.00D+00 EMaxC= 1.00D-01 BMatC= 3.18D-12 BMatP= 2.00D-11
 IDIUse=1 WtCom= 1.00D+00 WtEn= 0.00D+00
 Coeff-Com:  0.257D-02-0.430D-02-0.162D-01-0.280D-01 0.347D-01 0.336D+00
 Coeff-Com:  0.675D+00
 Coeff:      0.257D-02-0.430D-02-0.162D-01-0.280D-01 0.347D-01 0.336D+00
 Coeff:      0.675D+00
 Gap=     0.290 Goal=   None    Shift=    0.000
 RMSDP=6.24D-09 MaxDP=2.53D-07 DE=-2.80D-11 OVMax= 1.35D-06

 SCF Done:  E(RBHandHLYP) =  -399.899036005     A.U. after   13 cycles
            NFock= 13  Conv=0.62D-08     -V/T= 2.0040
 KE= 3.983174911195D+02 PE=-1.650793773943D+03 EE= 4.949546246502D+02
 Leave Link  502 at Fri Aug 27 00:35:59 2021, MaxMem= 17179869184 cpu:       326.2
 (Enter /public3/home/sc51754/softwares/g09e01/l601.exe)
 Copying SCF densities to generalized density rwf, IOpCl= 0 IROHF=0.

 **********************************************************************

            Population analysis using the SCF density.

 **********************************************************************

 Orbital symmetries:
       Occupied  (A) (A) (A) (A) (A) (A) (A) (A) (A) (A) (A) (A)
                 (A) (A) (A) (A) (A) (A) (A) (A) (A) (A) (A) (A)
                 (A) (A) (A) (A) (A) (A)
       Virtual   (A) (A) (A) (A) (A) (A) (A) (A) (A) (A) (A) (A)
                 (A) (A) (A) (A) (A) (A) (A) (A) (A) (A) (A) (A)
                 (A) (A) (A) (A) (A) (A) (A) (A) (A) (A) (A) (A)
                 (A) (A) (A) (A) (A) (A) (A) (A) (A) (A) (A) (A)
                 (A) (A) (A) (A) (A) (A) (A) (A) (A) (A) (A) (A)
                 (A) (A) (A) (A) (A) (A) (A) (A) (A) (A) (A) (A)
                 (A) (A) (A) (A) (A) (A) (A) (A) (A) (A) (A) (A)
                 (A) (A) (A) (A) (A) (A) (A) (A) (A) (A) (A) (A)
                 (A) (A) (A) (A) (A) (A) (A) (A) (A) (A) (A) (A)
                 (A) (A) (A) (A) (A) (A) (A) (A) (A) (A) (A) (A)
                 (A) (A) (A) (A) (A) (A) (A) (A) (A) (A) (A) (A)
                 (A) (A) (A) (A) (A) (A) (A) (A) (A) (A) (A) (A)
                 (A) (A) (A) (A) (A) (A) (A) (A) (A) (A) (A) (A)
                 (A) (A) (A) (A) (A) (A) (A) (A) (A) (A) (A) (A)
                 (A) (A) (A) (A) (A) (A) (A) (A) (A) (A) (A) (A)
                 (A) (A) (A) (A) (A) (A) (A) (A) (A) (A) (A) (A)
                 (A) (A) (A) (A) (A) (A) (A) (A) (A) (A) (A) (A)
                 (A) (A) (A) (A) (A) (A) (A) (A) (A) (A) (A) (A)
                 (A) (A) (A) (A) (A) (A) (A) (A) (A) (A) (A) (A)
                 (A) (A) (A) (A) (A) (A) (A) (A) (A) (A) (A) (A)
                 (A) (A) (A) (A) (A) (A) (A) (A) (A) (A) (A) (A)
                 (A) (A) (A) (A) (A) (A) (A) (A) (A) (A) (A) (A)
                 (A) (A) (A) (A) (A) (A) (A) (A) (A) (A) (A) (A)
                 (A) (A) (A) (A) (A) (A) (A) (A) (A) (A) (A) (A)
                 (A) (A) (A) (A) (A) (A) (A) (A) (A) (A) (A) (A)
                 (A) (A) (A) (A) (A) (A) (A) (A)
 The electronic state is 1-A.
 Alpha  occ. eigenvalues --  -19.70041 -19.67914 -14.80772 -10.69334 -10.63605
 Alpha  occ. eigenvalues --  -10.61552 -10.59630 -10.59404  -1.21308  -1.14695
 Alpha  occ. eigenvalues --   -1.07498  -0.93182  -0.87460  -0.75062  -0.73031
 Alpha  occ. eigenvalues --   -0.64340  -0.62317  -0.59657  -0.56799  -0.52887
 Alpha  occ. eigenvalues --   -0.51545  -0.49483  -0.48542  -0.46758  -0.44579
 Alpha  occ. eigenvalues --   -0.42635  -0.40113  -0.35481  -0.34735  -0.28860
 Alpha virt. eigenvalues --    0.00096   0.03207   0.04067   0.05105   0.06575
 Alpha virt. eigenvalues --    0.08344   0.09880   0.12809   0.14579   0.17617
 Alpha virt. eigenvalues --    0.18056   0.19222   0.19837   0.21439   0.22358
 Alpha virt. eigenvalues --    0.22869   0.23709   0.24530   0.26737   0.29049
 Alpha virt. eigenvalues --    0.29886   0.31953   0.32436   0.32763   0.33677
 Alpha virt. eigenvalues --    0.34377   0.35232   0.36506   0.37030   0.38436
 Alpha virt. eigenvalues --    0.40134   0.41584   0.42128   0.43264   0.43671
 Alpha virt. eigenvalues --    0.46279   0.46648   0.48568   0.49568   0.52192
 Alpha virt. eigenvalues --    0.54703   0.56350   0.56744   0.58006   0.59680
 Alpha virt. eigenvalues --    0.63572   0.68191   0.68472   0.70185   0.70583
 Alpha virt. eigenvalues --    0.72148   0.73407   0.74653   0.78096   0.79992
 Alpha virt. eigenvalues --    0.83393   0.85285   0.87952   0.88682   0.91474
 Alpha virt. eigenvalues --    0.95248   0.96516   0.97859   0.99293   1.00924
 Alpha virt. eigenvalues --    1.02270   1.04454   1.05142   1.06746   1.09117
 Alpha virt. eigenvalues --    1.10567   1.15243   1.16585   1.17266   1.19676
 Alpha virt. eigenvalues --    1.21087   1.22188   1.22804   1.24136   1.25799
 Alpha virt. eigenvalues --    1.27819   1.28460   1.31552   1.33448   1.35144
 Alpha virt. eigenvalues --    1.36699   1.38063   1.39440   1.40935   1.42108
 Alpha virt. eigenvalues --    1.49501   1.49952   1.52226   1.52744   1.56561
 Alpha virt. eigenvalues --    1.58658   1.59189   1.60459   1.62848   1.64509
 Alpha virt. eigenvalues --    1.66266   1.67131   1.69725   1.70938   1.73842
 Alpha virt. eigenvalues --    1.75386   1.76076   1.78234   1.79261   1.82573
 Alpha virt. eigenvalues --    1.86552   1.89848   1.90869   1.93816   1.95737
 Alpha virt. eigenvalues --    1.96525   1.97989   1.99021   2.00298   2.05428
 Alpha virt. eigenvalues --    2.08570   2.09022   2.11252   2.15061   2.18673
 Alpha virt. eigenvalues --    2.22785   2.24479   2.25381   2.27951   2.29419
 Alpha virt. eigenvalues --    2.30222   2.34258   2.35828   2.36460   2.38565
 Alpha virt. eigenvalues --    2.42588   2.51265   2.55394   2.62743   2.74665
 Alpha virt. eigenvalues --    2.81579   2.92005   2.98416   3.07092   3.08316
 Alpha virt. eigenvalues --    3.11734   3.16178   3.27091   3.30543   3.32309
 Alpha virt. eigenvalues --    3.35288   3.37838   3.38234   3.42741   3.47089
 Alpha virt. eigenvalues --    3.49600   3.50444   3.51235   3.53562   3.54973
 Alpha virt. eigenvalues --    3.57567   3.59793   3.62047   3.64740   3.69085
 Alpha virt. eigenvalues --    3.70224   3.72010   3.73645   3.74362   3.76100
 Alpha virt. eigenvalues --    3.80503   3.81169   3.82662   3.85577   3.86855
 Alpha virt. eigenvalues --    3.90226   3.92289   3.93267   3.95741   3.99790
 Alpha virt. eigenvalues --    4.02548   4.04196   4.05975   4.07003   4.08916
 Alpha virt. eigenvalues --    4.11867   4.13039   4.16265   4.17435   4.17849
 Alpha virt. eigenvalues --    4.19547   4.20292   4.21877   4.25412   4.28554
 Alpha virt. eigenvalues --    4.29211   4.29385   4.30636   4.32493   4.34087
 Alpha virt. eigenvalues --    4.34968   4.37355   4.40086   4.41509   4.43108
 Alpha virt. eigenvalues --    4.43945   4.44216   4.45574   4.46036   4.50914
 Alpha virt. eigenvalues --    4.51386   4.52674   4.53405   4.55442   4.56232
 Alpha virt. eigenvalues --    4.57185   4.57426   4.58886   4.60511   4.62465
 Alpha virt. eigenvalues --    4.62936   4.63656   4.65598   4.67914   4.70216
 Alpha virt. eigenvalues --    4.71778   4.74194   4.76583   4.77514   4.77864
 Alpha virt. eigenvalues --    4.80741   4.84708   4.88369   4.89216   4.93815
 Alpha virt. eigenvalues --    4.96335   5.00431   5.00767   5.01960   5.03493
 Alpha virt. eigenvalues --    5.04887   5.09222   5.09754   5.13919   5.15558
 Alpha virt. eigenvalues --    5.18224   5.22194   5.23690   5.26979   5.32564
 Alpha virt. eigenvalues --    5.33112   5.36336   5.36680   5.41463   5.46426
 Alpha virt. eigenvalues --    5.47247   5.49080   5.52081   5.54128   5.56530
 Alpha virt. eigenvalues --    5.57085   5.59673   5.60679   5.66712   5.69021
 Alpha virt. eigenvalues --    5.74735   5.78010   5.79943   5.82515   5.91504
 Alpha virt. eigenvalues --    5.92360   5.95035   5.98967   6.06123   6.11163
 Alpha virt. eigenvalues --    6.15969   6.18810   6.19998   6.20271   6.25106
 Alpha virt. eigenvalues --    6.35142   6.38992   6.40123   6.41947   6.43715
 Alpha virt. eigenvalues --    6.46382   6.48958   6.54035   6.58148   6.66539
 Alpha virt. eigenvalues --    6.68206   6.77554   6.79271   6.88112   7.07935
 Alpha virt. eigenvalues --    7.11691   7.13053   7.29413   7.52069   7.61566
 Alpha virt. eigenvalues --    9.46442  12.36393  12.92682  15.73372  15.76394
 Alpha virt. eigenvalues --   17.67285  18.96063  22.68792
          Condensed to atoms (all electrons):
               1          2          3          4          5          6
     1  O    7.943250  -0.083424   0.302794  -0.056079   0.004351   0.007927
     2  N   -0.083424   6.769259   0.485333  -0.020159   0.499715  -0.034146
     3  C    0.302794   0.485333   4.311299   0.547574  -0.077541  -0.052341
     4  C   -0.056079  -0.020159   0.547574   4.770986  -0.036471   0.544794
     5  C    0.004351   0.499715  -0.077541  -0.036471   4.500194  -0.076958
     6  C    0.007927  -0.034146  -0.052341   0.544794  -0.076958   4.642648
     7  C   -0.000183  -0.028373  -0.049498  -0.050656   0.555405   0.511736
     8  H    0.359585   0.003822  -0.023237   0.005330   0.000020  -0.000995
     9  H    0.003662   0.005735  -0.029818   0.436804  -0.001579  -0.029926
    10  H   -0.000441  -0.040476   0.004569  -0.003553   0.446771   0.007683
    11  H   -0.000328  -0.001634   0.005890  -0.032235   0.006400   0.433984
    12  H    0.000037   0.005688  -0.000690   0.005736  -0.024976  -0.029832
    13  O   -0.025817  -0.040906  -0.003039   0.000500  -0.000400   0.000182
    14  H    0.001127   0.002448   0.000241   0.000097   0.000042  -0.000014
    15  H   -0.000196   0.019445  -0.002647   0.000621   0.002344  -0.000308
               7          8          9         10         11         12
     1  O   -0.000183   0.359585   0.003662  -0.000441  -0.000328   0.000037
     2  N   -0.028373   0.003822   0.005735  -0.040476  -0.001634   0.005688
     3  C   -0.049498  -0.023237  -0.029818   0.004569   0.005890  -0.000690
     4  C   -0.050656   0.005330   0.436804  -0.003553  -0.032235   0.005736
     5  C    0.555405   0.000020  -0.001579   0.446771   0.006400  -0.024976
     6  C    0.511736  -0.000995  -0.029926   0.007683   0.433984  -0.029832
     7  C    4.858818   0.000164   0.006141  -0.056600  -0.036704   0.434150
     8  H    0.000164   0.379015   0.000215  -0.000023   0.000003  -0.000003
     9  H    0.006141   0.000215   0.575516   0.000143  -0.005550  -0.000123
    10  H   -0.056600  -0.000023   0.000143   0.607127  -0.000141  -0.003147
    11  H   -0.036704   0.000003  -0.005550  -0.000141   0.595030  -0.005326
    12  H    0.434150  -0.000003  -0.000123  -0.003147  -0.005326   0.592558
    13  O   -0.000374   0.040236  -0.000002   0.000223  -0.000003   0.000006
    14  H    0.000054  -0.002832  -0.000001  -0.000014  -0.000000  -0.000001
    15  H    0.000912  -0.006480  -0.000038  -0.000641   0.000017  -0.000024
              13         14         15
     1  O   -0.025817   0.001127  -0.000196
     2  N   -0.040906   0.002448   0.019445
     3  C   -0.003039   0.000241  -0.002647
     4  C    0.000500   0.000097   0.000621
     5  C   -0.000400   0.000042   0.002344
     6  C    0.000182  -0.000014  -0.000308
     7  C   -0.000374   0.000054   0.000912
     8  H    0.040236  -0.002832  -0.006480
     9  H   -0.000002  -0.000001  -0.000038
    10  H    0.000223  -0.000014  -0.000641
    11  H   -0.000003  -0.000000   0.000017
    12  H    0.000006  -0.000001  -0.000024
    13  O    7.797671   0.359158   0.347200
    14  H    0.359158   0.434933  -0.020155
    15  H    0.347200  -0.020155   0.401790
 Mulliken charges:
               1
     1  O   -0.456266
     2  N   -0.542327
     3  C    0.581111
     4  C   -0.113288
     5  C    0.202683
     6  C    0.075567
     7  C   -0.144991
     8  H    0.245180
     9  H    0.038820
    10  H    0.038521
    11  H    0.040598
    12  H    0.025948
    13  O   -0.474635
    14  H    0.224915
    15  H    0.258161
 Sum of Mulliken charges =  -0.00000
 Mulliken charges with hydrogens summed into heavy atoms:
               1
     1  O   -0.211085
     2  N   -0.542327
     3  C    0.581111
     4  C   -0.074468
     5  C    0.241204
     6  C    0.116165
     7  C   -0.119043
    13  O    0.008442
 Electronic spatial extent (au):  <R**2>=           1069.8474
 Charge=             -0.0000 electrons
 Dipole moment (field-independent basis, Debye):
    X=             -2.0021    Y=             -1.4217    Z=              1.3851  Tot=              2.8192
 Quadrupole moment (field-independent basis, Debye-Ang):
   XX=            -42.1005   YY=            -44.8514   ZZ=            -49.6258
   XY=             -2.9905   XZ=              5.4906   YZ=             -1.3759
 Traceless Quadrupole moment (field-independent basis, Debye-Ang):
   XX=              3.4254   YY=              0.6746   ZZ=             -4.0999
   XY=             -2.9905   XZ=              5.4906   YZ=             -1.3759
 Octapole moment (field-independent basis, Debye-Ang**2):
  XXX=             10.5618  YYY=             -8.6057  ZZZ=              1.1276  XYY=             -0.8153
  XXY=             -4.2001  XXZ=             20.7694  XZZ=             13.2171  YZZ=              0.3052
  YYZ=              1.3214  XYZ=             -5.2965
 Hexadecapole moment (field-independent basis, Debye-Ang**3):
 XXXX=           -833.5334 YYYY=           -353.9112 ZZZZ=            -54.9440 XXXY=            -22.8177
 XXXZ=             78.2962 YYYX=            -14.1071 YYYZ=             -1.5773 ZZZX=              5.2460
 ZZZY=             -1.4492 XXYY=           -200.7963 XXZZ=           -167.6224 YYZZ=            -77.3702
 XXYZ=            -19.1182 YYXZ=              5.4366 ZZXY=             -4.2394
 N-N= 3.576226221683D+02 E-N=-1.650793774249D+03  KE= 3.983174911195D+02
 No NMR shielding tensors so no spin-rotation constants.
 Leave Link  601 at Fri Aug 27 00:36:00 2021, MaxMem= 17179869184 cpu:        47.8
 (Enter /public3/home/sc51754/softwares/g09e01/l701.exe)
 Compute integral first derivatives.
 ... and contract with generalized density number  0.
 Leave Link  701 at Fri Aug 27 00:36:01 2021, MaxMem= 17179869184 cpu:        62.9
 (Enter /public3/home/sc51754/softwares/g09e01/l702.exe)
 L702 exits ... SP integral derivatives will be done elsewhere.
 Leave Link  702 at Fri Aug 27 00:36:01 2021, MaxMem= 17179869184 cpu:         0.2
 (Enter /public3/home/sc51754/softwares/g09e01/l703.exe)
 Compute integral first derivatives, UseDBF=F ICtDFT=           0.
 Integral derivatives from FoFJK, PRISM(SPDF).
 Calling FoFJK, ICntrl=      2127 FMM=F ISym2X=0 I1Cent= 0 IOpClX= 0 NMat=1 NMatS=1 NMatT=0.
 FoFJK:  IHMeth= 1 ICntrl=    2127 DoSepK=F KAlg= 0 I1Cent=   0 FoldK=F
 IRaf=         0 NMat=   1 IRICut=       1 DoRegI=T DoRafI=F ISym2E= 0.
 FoFCou: FMM=F IPFlag=           0 FMFlag=      100000 FMFlg1=         800
         NFxFlg=           0 DoJE=F BraDBF=F KetDBF=F FulRan=T
         wScrn=  0.000000 ICntrl=    2127 IOpCl=  0 I1Cent=           0 NGrid=           0
         NMat0=    1 NMatS0=      1 NMatT0=    0 NMatD0=    1 NMtDS0=    0 NMtDT0=    0
 Symmetry not used in FoFCou.
 Leave Link  703 at Fri Aug 27 00:36:05 2021, MaxMem= 17179869184 cpu:       196.3
 (Enter /public3/home/sc51754/softwares/g09e01/l716.exe)
 Dipole        =-7.87677323D-01-5.59343033D-01 5.44948752D-01
 ***** Axes restored to original set *****
 -------------------------------------------------------------------
 Center     Atomic                   Forces (Hartrees/Bohr)
 Number     Number              X              Y              Z
 -------------------------------------------------------------------
      1        8          -0.000144239   -0.016311086    0.000085911
      2        7          -0.010446381    0.008228821    0.000286660
      3        6           0.002103256   -0.004177282   -0.000084438
      4        6           0.000001785   -0.004036653   -0.000072847
      5        6           0.000165047    0.007021444    0.000004060
      6        6           0.005462386   -0.000586015   -0.000018886
      7        6           0.004496935    0.000669970   -0.000041050
      8        1          -0.010754669    0.007372461   -0.000293264
      9        1           0.000610331   -0.005903200   -0.000026028
     10        1          -0.000956413    0.006102759    0.000049921
     11        1           0.005315567   -0.002272059   -0.000027118
     12        1           0.004589901    0.003603996    0.000004238
     13        8          -0.006607377   -0.008739625    0.011405061
     14        1          -0.006087864    0.003609367   -0.009939913
     15        1           0.012251733    0.005417103   -0.001332307
 -------------------------------------------------------------------
 Cartesian Forces:  Max     0.016311086 RMS     0.005720438
 Leave Link  716 at Fri Aug 27 00:36:05 2021, MaxMem= 17179869184 cpu:         0.6
 (Enter /public3/home/sc51754/softwares/g09e01/l103.exe)

 GradGradGradGradGradGradGradGradGradGradGradGradGradGradGradGradGradGrad
 Berny optimization.
 FormGI is forming the generalized inverse of G from B-inverse, IUseBI=4.
 Internal  Forces:  Max     0.014354013 RMS     0.004645294
 Search for a local minimum.
 Step number   1 out of a maximum of   88
 All quantities printed in internal units (Hartrees-Bohrs-Radians)
 RMS Force = .46453D-02 SwitMx=.10000D-02 MixMth= 1
 Mixed Optimization -- RFO/linear search
 Second derivative matrix not updated -- first step.
 ITU=  0
     Eigenvalues ---    0.00525   0.00832   0.01684   0.02094   0.02184
     Eigenvalues ---    0.02225   0.02239   0.02286   0.02319   0.02409
     Eigenvalues ---    0.02460   0.05224   0.06028   0.06507   0.08515
     Eigenvalues ---    0.13089   0.16000   0.16000   0.16000   0.16000
     Eigenvalues ---    0.19207   0.20418   0.22000   0.22270   0.23481
     Eigenvalues ---    0.35621   0.35778   0.36026   0.36038   0.41939
     Eigenvalues ---    0.43696   0.46841   0.47322   0.48462   0.48884
     Eigenvalues ---    0.52273   0.55339   0.55352   0.56565
 RFO step:  Lambda=-3.40852382D-03 EMin= 5.24515301D-03
 Linear search not attempted -- first point.
 Iteration  1 RMS(Cart)=  0.01638362 RMS(Int)=  0.00003037
 Iteration  2 RMS(Cart)=  0.00001894 RMS(Int)=  0.00000868
 Iteration  3 RMS(Cart)=  0.00000000 RMS(Int)=  0.00000868
 ITry= 1 IFail=0 DXMaxC= 5.16D-02 DCOld= 1.00D+10 DXMaxT= 3.00D-01 DXLimC= 3.00D+00 Rises=F
 Variable       Old X    -DE/DX   Delta X   Delta X   Delta X     New X
                                 (Linear)    (Quad)   (Total)
    R1        2.53090  -0.01220   0.00000  -0.02360  -0.02359   2.50731
    R2        1.85517  -0.01355   0.00000  -0.02623  -0.02622   1.82895
    R3        2.51733  -0.01435   0.00000  -0.02690  -0.02689   2.49044
    R4        2.53185  -0.01248   0.00000  -0.02216  -0.02215   2.50969
    R5        3.65357  -0.00090   0.00000  -0.00659  -0.00660   3.64697
    R6        2.64886  -0.01035   0.00000  -0.02294  -0.02294   2.62592
    R7        2.60507  -0.01150   0.00000  -0.02254  -0.02255   2.58252
    R8        2.04022  -0.00593   0.00000  -0.01631  -0.01631   2.02392
    R9        2.60933  -0.01175   0.00000  -0.02363  -0.02363   2.58570
   R10        2.04678  -0.00618   0.00000  -0.01718  -0.01718   2.02961
   R11        2.63885  -0.00970   0.00000  -0.01995  -0.01996   2.61890
   R12        2.04430  -0.00578   0.00000  -0.01600  -0.01600   2.02830
   R13        2.04041  -0.00584   0.00000  -0.01605  -0.01605   2.02437
   R14        3.46012   0.00048   0.00000  -0.00789  -0.00789   3.45223
   R15        3.61122  -0.00294   0.00000  -0.01419  -0.01420   3.59703
   R16        1.81521  -0.01220   0.00000  -0.02190  -0.02190   1.79330
   R17        1.85250  -0.01283   0.00000  -0.02599  -0.02599   1.82651
    A1        1.91487   0.00238   0.00000   0.00560   0.00563   1.92050
    A2        2.06532  -0.00005   0.00000  -0.00335  -0.00334   2.06198
    A3        1.87270   0.00026   0.00000   0.00145   0.00144   1.87414
    A4        2.34514  -0.00021   0.00000   0.00188   0.00189   2.34703
    A5        2.07766   0.00139   0.00000  -0.00089  -0.00089   2.07677
    A6        2.06520  -0.00221   0.00000  -0.00344  -0.00345   2.06175
    A7        2.14032   0.00082   0.00000   0.00434   0.00434   2.14466
    A8        2.06244  -0.00050   0.00000  -0.00223  -0.00223   2.06021
    A9        2.08413   0.00006   0.00000  -0.00007  -0.00007   2.08406
   A10        2.13661   0.00044   0.00000   0.00230   0.00230   2.13891
   A11        2.15286   0.00115   0.00000   0.00360   0.00360   2.15646
   A12        2.02165  -0.00067   0.00000  -0.00240  -0.00240   2.01925
   A13        2.10868  -0.00048   0.00000  -0.00120  -0.00120   2.10748
   A14        2.08831  -0.00044   0.00000   0.00044   0.00043   2.08874
   A15        2.09381   0.00018   0.00000  -0.00047  -0.00047   2.09335
   A16        2.10106   0.00026   0.00000   0.00003   0.00003   2.10110
   A17        2.05711  -0.00099   0.00000  -0.00280  -0.00280   2.05431
   A18        2.10400   0.00046   0.00000   0.00122   0.00122   2.10522
   A19        2.12207   0.00052   0.00000   0.00158   0.00158   2.12365
   A20        2.78431  -0.00264   0.00000  -0.00325  -0.00326   2.78105
   A21        2.25759   0.00086   0.00000   0.00227   0.00228   2.25987
   A22        2.11576   0.00020   0.00000   0.00344   0.00344   2.11920
   A23        1.86403  -0.00004   0.00000   0.00213   0.00214   1.86617
   A24        1.30192  -0.00489   0.00000  -0.00843  -0.00845   1.29347
   A25        2.52674  -0.00193   0.00000  -0.00282  -0.00283   2.52391
    D1        0.00739  -0.00009   0.00000   0.00026   0.00027   0.00766
    D2       -3.13430  -0.00006   0.00000   0.00057   0.00058  -3.13372
    D3        0.07175  -0.00040   0.00000  -0.00638  -0.00635   0.06539
    D4       -0.00835   0.00022   0.00000   0.00119   0.00117  -0.00718
    D5       -3.13923   0.00003   0.00000   0.00063   0.00063  -3.13860
    D6        0.00246  -0.00000   0.00000   0.00031   0.00031   0.00277
    D7       -0.00357  -0.00004   0.00000  -0.00131  -0.00130  -0.00487
    D8        3.13812  -0.00007   0.00000  -0.00163  -0.00163   3.13649
    D9       -0.00196  -0.00002   0.00000  -0.00055  -0.00055  -0.00250
   D10        3.13867  -0.00002   0.00000  -0.00069  -0.00069   3.13798
   D11       -3.13562   0.00008   0.00000   0.00205   0.00205  -3.13357
   D12        0.00500   0.00007   0.00000   0.00191   0.00191   0.00691
   D13       -0.00000   0.00010   0.00000   0.00125   0.00123   0.00123
   D14       -0.09978   0.00014   0.00000   0.01102   0.01103  -0.08875
   D15        3.13428   0.00001   0.00000  -0.00117  -0.00118   3.13310
   D16        3.03451   0.00005   0.00000   0.00860   0.00861   3.04312
   D17        3.14017  -0.00001   0.00000  -0.00015  -0.00015   3.14002
   D18        0.00037  -0.00002   0.00000  -0.00023  -0.00023   0.00013
   D19       -0.00152   0.00002   0.00000   0.00018   0.00017  -0.00134
   D20       -3.14132   0.00001   0.00000   0.00009   0.00009  -3.14123
   D21       -0.00000  -0.00002   0.00000  -0.00044  -0.00044  -0.00044
   D22       -3.14062  -0.00001   0.00000  -0.00012  -0.00012  -3.14074
   D23        3.13975  -0.00001   0.00000  -0.00035  -0.00035   3.13939
   D24       -0.00088  -0.00000   0.00000  -0.00003  -0.00003  -0.00091
   D25        0.00051   0.00001   0.00000   0.00029   0.00029   0.00080
   D26        3.14103   0.00000   0.00000   0.00011   0.00011   3.14114
   D27       -3.14007   0.00002   0.00000   0.00044   0.00044  -3.13963
   D28        0.00046   0.00001   0.00000   0.00025   0.00025   0.00071
   D29        0.00048   0.00000   0.00000   0.00022   0.00022   0.00070
   D30       -3.14004   0.00001   0.00000   0.00041   0.00041  -3.13963
   D31        3.14109  -0.00001   0.00000  -0.00011  -0.00011   3.14099
   D32        0.00058   0.00000   0.00000   0.00008   0.00008   0.00066
   D33       -1.92611   0.00003   0.00000   0.00788   0.00789  -1.91823
   D34        0.00552  -0.00022   0.00000  -0.00163  -0.00160   0.00392
   D35        1.52863   0.00070   0.00000   0.00316   0.00315   1.53178
   D36        2.18999   0.00006   0.00000  -0.00673  -0.00672   2.18326
         Item               Value     Threshold  Converged?
 Maximum Force            0.014354     0.000450     NO 
 RMS     Force            0.004645     0.000300     NO 
 Maximum Displacement     0.051565     0.001800     NO 
 RMS     Displacement     0.016389     0.001200     NO 
 Predicted change in Energy=-1.717423D-03
 Lowest energy point so far.  Saving SCF results.
 GradGradGradGradGradGradGradGradGradGradGradGradGradGradGradGradGradGrad

 Leave Link  103 at Fri Aug 27 00:36:06 2021, MaxMem= 17179869184 cpu:        45.5
 (Enter /public3/home/sc51754/softwares/g09e01/l202.exe)
                          Input orientation:                          
 ---------------------------------------------------------------------
 Center     Atomic      Atomic             Coordinates (Angstroms)
 Number     Number       Type             X           Y           Z
 ---------------------------------------------------------------------
      1          8           0        1.200762    1.432016   -0.002394
      2          7           0        0.301476   -0.661654   -0.004533
      3          6           0        0.132341    0.645321    0.000473
      4          6           0       -1.121790    1.243667    0.008410
      5          6           0       -0.779502   -1.433185   -0.005064
      6          6           0       -2.221026    0.431687    0.009459
      7          6           0       -2.057522   -0.944476    0.002155
      8          1           0        2.006838    0.896489   -0.015110
      9          1           0       -1.194667    2.312190    0.011852
     10          1           0       -0.596297   -2.491439   -0.012708
     11          1           0       -3.204516    0.861516    0.014716
     12          1           0       -2.896448   -1.610641    0.000947
     13          8           0        3.074237   -0.584603   -0.081278
     14          1           0        3.566679   -0.873786    0.676634
     15          1           0        2.201922   -0.996932   -0.024118
 ---------------------------------------------------------------------
                    Distance matrix (angstroms):
                    1          2          3          4          5
     1  O    0.000000
     2  N    2.278634   0.000000
     3  C    1.326809   1.317882   0.000000
     4  C    2.330202   2.378255   1.389577   0.000000
     5  C    3.482934   1.328071   2.269730   2.698681   0.000000
     6  C    3.565028   2.749291   2.363060   1.366613   2.357106
     7  C    4.032884   2.375901   2.706096   2.379832   1.368293
     8  H    0.967838   2.310018   1.891314   3.147920   3.631966
     9  H    2.552055   3.329032   2.130617   1.071011   3.768353
    10  H    4.315440   2.038179   3.220302   3.771949   1.074022
    11  H    4.442099   3.822616   3.343884   2.117505   3.338673
    12  H    5.103421   3.335764   3.776629   3.361032   2.124379
    13  O    2.753704   2.774894   3.189695   4.577910   3.946797
    14  H    3.372738   3.342236   3.815699   5.187665   4.434741
    15  H    2.627276   1.929894   2.642114   4.008541   3.013233
                    6          7          8          9         10
     6  C    0.000000
     7  C    1.385861   0.000000
     8  H    4.253408   4.461892   0.000000
     9  H    2.142361   3.369048   3.500653   0.000000
    10  H    3.344383   2.128026   4.272514   4.840816   0.000000
    11  H    1.073329   2.139476   5.211557   2.478701   4.248042
    12  H    2.151133   1.071249   5.507102   4.276071   2.463064
    13  O    5.392670   5.145039   1.826842   5.159808   4.136853
    14  H    5.970503   5.664941   2.458757   5.767390   4.519111
    15  H    4.648069   4.259849   1.903465   4.742193   3.172336
                   11         12         13         14         15
    11  H    0.000000
    12  H    2.491316   0.000000
    13  O    6.443852   6.058762   0.000000
    14  H    7.021288   6.539993   0.948976   0.000000
    15  H    5.717072   5.135236   0.966549   1.539084   0.000000
 Stoichiometry    C5H7NO2
 Framework group  C1[X(C5H7NO2)]
 Deg. of freedom    39
 Full point group                 C1      NOp   1
 RotChk:  IX=0 Diff= 1.78D-03
 Largest Abelian subgroup         C1      NOp   1
 Largest concise Abelian subgroup C1      NOp   1
                         Standard orientation:                         
 ---------------------------------------------------------------------
 Center     Atomic      Atomic             Coordinates (Angstroms)
 Number     Number       Type             X           Y           Z
 ---------------------------------------------------------------------
      1          8           0        1.200557    1.435074   -0.003137
      2          7           0        0.303786   -0.659675   -0.005503
      3          6           0        0.133082    0.647094   -0.000143
      4          6           0       -1.121764    1.243931    0.008298
      5          6           0       -0.776263   -1.432504   -0.005901
      6          6           0       -2.220023    0.430631    0.009476
      7          6           0       -2.054868   -0.945333    0.001803
      8          1           0        2.007272    0.900519   -0.016211
      9          1           0       -1.195924    2.312365    0.012011
     10          1           0       -0.591789   -2.490535   -0.013846
     11          1           0       -3.204028    0.859276    0.015119
     12          1           0       -2.892993   -1.612506    0.000682
     13          8           0        3.076431   -0.579274   -0.083035
     14          1           0        3.569440   -0.868042    0.674666
     15          1           0        2.204629   -0.992664   -0.025718
 ---------------------------------------------------------------------
 Rotational constants (GHZ):      4.0877544      1.4395697      1.0671267
 Leave Link  202 at Fri Aug 27 00:36:06 2021, MaxMem= 17179869184 cpu:         6.3
 (Enter /public3/home/sc51754/softwares/g09e01/l301.exe)
 Basis read from rwf:  (5D, 7F)
 No pseudopotential information found on rwf file.
 There are   385 symmetry adapted cartesian basis functions of A   symmetry.
 There are   338 symmetry adapted basis functions of A   symmetry.
   338 basis functions,   566 primitive gaussians,   385 cartesian basis functions
    30 alpha electrons       30 beta electrons
       nuclear repulsion energy       360.7473354006 Hartrees.
 IExCor=  402 DFT=T Ex+Corr=BHandHLYP ExCW=0 ScaHFX=  0.500000
 ScaDFX=  0.500000  0.500000  1.000000  1.000000 ScalE2=  1.000000  1.000000
 IRadAn=      0 IRanWt=     -1 IRanGd=            0 ICorTp=0 IEmpDi=  4
 NAtoms=   15 NActive=   15 NUniq=   15 SFac= 1.00D+00 NAtFMM=   60 NAOKFM=F Big=F
 Integral buffers will be    131072 words long.
 Raffenetti 2 integral format.
 Two-electron integral symmetry is turned on.
 No density basis found on file   724.
 Leave Link  301 at Fri Aug 27 00:36:06 2021, MaxMem= 17179869184 cpu:         1.5
 (Enter /public3/home/sc51754/softwares/g09e01/l302.exe)
 NPDir=0 NMtPBC=     1 NCelOv=     1 NCel=       1 NClECP=     1 NCelD=      1
         NCelK=      1 NCelE2=     1 NClLst=     1 CellRange=     0.0.
 One-electron integrals computed using PRISM.
 NBasis=   338 RedAO= T EigKep=  1.38D-04  NBF=   338
 NBsUse=   338 1.00D-06 EigRej= -1.00D+00 NBFU=   338
 Precomputing XC quadrature grid using
 IXCGrd= 4 IRadAn=           0 IRanWt=          -1 IRanGd=           0 AccXCQ= 0.00D+00.
 Generated NRdTot=       0 NPtTot=           0 NUsed=           0 NTot=          32
 NSgBfM=   384   384   384   385   385 MxSgAt=    15 MxSgA2=    15.
 Leave Link  302 at Fri Aug 27 00:36:07 2021, MaxMem= 17179869184 cpu:        46.1
 (Enter /public3/home/sc51754/softwares/g09e01/l303.exe)
 DipDrv:  MaxL=1.
 Leave Link  303 at Fri Aug 27 00:36:08 2021, MaxMem= 17179869184 cpu:        14.2
 (Enter /public3/home/sc51754/softwares/g09e01/l401.exe)
 Initial guess from the checkpoint file:  "HY_H2O_BHandHLYP_PC2_OPT_FREQ.chk"
 B after Tr=    -0.000000   -0.000000   -0.000000
         Rot=    1.000000    0.000002    0.000005   -0.000558 Ang=   0.06 deg.
 Guess basis will be translated and rotated to current coordinates.
 JPrj=2 DoOrth=T DoCkMO=T.
 Generating alternative initial guess.
 ExpMin= 7.41D-02 ExpMax= 1.48D+04 ExpMxC= 5.05D+02 IAcc=2 IRadAn=         4 AccDes= 0.00D+00
 Harris functional with IExCor=  402 and IRadAn=       4 diagonalized for initial guess.
 HarFok:  IExCor=  402 AccDes= 0.00D+00 IRadAn=         4 IDoV= 1 UseB2=F ITyADJ=14
 ICtDFT=  3500011 ScaDFX=  1.000000  1.000000  1.000000  1.000000
 FoFCou: FMM=F IPFlag=           0 FMFlag=      100000 FMFlg1=           0
         NFxFlg=           0 DoJE=T BraDBF=F KetDBF=T FulRan=T
         wScrn=  0.000000 ICntrl=     500 IOpCl=  0 I1Cent=   200000004 NGrid=           0
         NMat0=    1 NMatS0=      1 NMatT0=    0 NMatD0=    1 NMtDS0=    0 NMtDT0=    0
 Petite list used in FoFCou.
 Harris En= -400.192265630623    
 Leave Link  401 at Fri Aug 27 00:36:09 2021, MaxMem= 17179869184 cpu:        75.5
 (Enter /public3/home/sc51754/softwares/g09e01/l502.exe)
 Closed shell SCF:
 Using DIIS extrapolation, IDIIS=  1040.
 Integral symmetry usage will be decided dynamically.
 Keep R1 ints in memory in canonical form, NReq=1670404686.
 IVT=      490665 IEndB=      490665 NGot= 17179869184 MDV= 15538220534
 LenX= 15538220534 LenY= 15538071868
 Requested convergence on RMS density matrix=1.00D-08 within 128 cycles.
 Requested convergence on MAX density matrix=1.00D-06.
 Requested convergence on             energy=1.00D-06.
 No special actions if energy rises.
 FoFCou: FMM=F IPFlag=           0 FMFlag=           0 FMFlg1=           0
         NFxFlg=           0 DoJE=F BraDBF=F KetDBF=F FulRan=T
         wScrn=  0.000000 ICntrl=     600 IOpCl=  0 I1Cent=           0 NGrid=           0
         NMat0=    1 NMatS0=  57291 NMatT0=    0 NMatD0=    1 NMtDS0=    0 NMtDT0=    0
 Symmetry not used in FoFCou.
 Integral accuracy reduced to 1.0D-05 until final iterations.

 Cycle   1  Pass 0  IDiag  1:
 E= -399.900141735228    
 DIIS: error= 1.10D-03 at cycle   1 NSaved=   1.
 NSaved= 1 IEnMin= 1 EnMin= -399.900141735228     IErMin= 1 ErrMin= 1.10D-03
 ErrMax= 1.10D-03  0.00D+00 EMaxC= 1.00D-01 BMatC= 6.47D-04 BMatP= 6.47D-04
 IDIUse=3 WtCom= 9.89D-01 WtEn= 1.10D-02
 Coeff-Com:  0.100D+01
 Coeff-En:   0.100D+01
 Coeff:      0.100D+01
 Gap=     0.704 Goal=   None    Shift=    0.000
 GapD=    0.704 DampG=2.000 DampE=1.000 DampFc=2.0000 IDamp=-1.
 RMSDP=6.83D-05 MaxDP=2.53D-03              OVMax= 4.03D-03

 Cycle   2  Pass 0  IDiag  1:
 E= -399.900604826681     Delta-E=       -0.000463091453 Rises=F Damp=F
 DIIS: error= 3.39D-04 at cycle   2 NSaved=   2.
 NSaved= 2 IEnMin= 2 EnMin= -399.900604826681     IErMin= 2 ErrMin= 3.39D-04
 ErrMax= 3.39D-04  0.00D+00 EMaxC= 1.00D-01 BMatC= 5.37D-05 BMatP= 6.47D-04
 IDIUse=3 WtCom= 9.97D-01 WtEn= 3.39D-03
 Coeff-Com:  0.119D+00 0.881D+00
 Coeff-En:   0.000D+00 0.100D+01
 Coeff:      0.118D+00 0.882D+00
 Gap=     0.293 Goal=   None    Shift=    0.000
 RMSDP=2.74D-05 MaxDP=1.74D-03 DE=-4.63D-04 OVMax= 1.79D-03

 Cycle   3  Pass 0  IDiag  1:
 E= -399.900634602448     Delta-E=       -0.000029775767 Rises=F Damp=F
 DIIS: error= 1.84D-04 at cycle   3 NSaved=   3.
 NSaved= 3 IEnMin= 3 EnMin= -399.900634602448     IErMin= 3 ErrMin= 1.84D-04
 ErrMax= 1.84D-04  0.00D+00 EMaxC= 1.00D-01 BMatC= 2.04D-05 BMatP= 5.37D-05
 IDIUse=3 WtCom= 9.98D-01 WtEn= 1.84D-03
 Coeff-Com: -0.181D-01 0.369D+00 0.650D+00
 Coeff-En:   0.000D+00 0.182D+00 0.818D+00
 Coeff:     -0.181D-01 0.368D+00 0.650D+00
 Gap=     0.293 Goal=   None    Shift=    0.000
 RMSDP=9.29D-06 MaxDP=4.65D-04 DE=-2.98D-05 OVMax= 9.75D-04

 Initial convergence to 1.0D-05 achieved.  Increase integral accuracy.
 Cycle   4  Pass 1  IDiag  1:
 E= -399.900676725371     Delta-E=       -0.000042122923 Rises=F Damp=F
 DIIS: error= 4.52D-05 at cycle   1 NSaved=   1.
 NSaved= 1 IEnMin= 1 EnMin= -399.900676725371     IErMin= 1 ErrMin= 4.52D-05
 ErrMax= 4.52D-05  0.00D+00 EMaxC= 1.00D-01 BMatC= 9.52D-07 BMatP= 9.52D-07
 IDIUse=1 WtCom= 1.00D+00 WtEn= 0.00D+00
 Coeff-Com:  0.100D+01
 Coeff:      0.100D+01
 Gap=     0.293 Goal=   None    Shift=    0.000
 RMSDP=9.29D-06 MaxDP=4.65D-04 DE=-4.21D-05 OVMax= 5.41D-04

 Cycle   5  Pass 1  IDiag  1:
 E= -399.900676481040     Delta-E=        0.000000244331 Rises=F Damp=F
 DIIS: error= 5.26D-05 at cycle   2 NSaved=   2.
 NSaved= 2 IEnMin= 1 EnMin= -399.900676725371     IErMin= 1 ErrMin= 4.52D-05
 ErrMax= 5.26D-05  0.00D+00 EMaxC= 1.00D-01 BMatC= 1.33D-06 BMatP= 9.52D-07
 IDIUse=1 WtCom= 1.00D+00 WtEn= 0.00D+00
 Coeff-Com:  0.543D+00 0.457D+00
 Coeff:      0.543D+00 0.457D+00
 Gap=     0.293 Goal=   None    Shift=    0.000
 RMSDP=2.22D-06 MaxDP=1.50D-04 DE= 2.44D-07 OVMax= 3.52D-04

 Cycle   6  Pass 1  IDiag  1:
 E= -399.900677563000     Delta-E=       -0.000001081960 Rises=F Damp=F
 DIIS: error= 7.25D-06 at cycle   3 NSaved=   3.
 NSaved= 3 IEnMin= 3 EnMin= -399.900677563000     IErMin= 3 ErrMin= 7.25D-06
 ErrMax= 7.25D-06  0.00D+00 EMaxC= 1.00D-01 BMatC= 1.39D-08 BMatP= 9.52D-07
[...]
    A9        2.08326  -0.00000   0.00000  -0.00004  -0.00004   2.08323
   A10        2.13892   0.00000   0.00000   0.00003   0.00003   2.13895
   A11        2.15487  -0.00000   0.00000  -0.00000  -0.00000   2.15487
   A12        2.02226   0.00000   0.00000   0.00000   0.00000   2.02227
   A13        2.10605  -0.00000   0.00000  -0.00000  -0.00000   2.10605
   A14        2.08888  -0.00001   0.00000  -0.00003  -0.00003   2.08885
   A15        2.09374   0.00000   0.00000   0.00000   0.00000   2.09374
   A16        2.10056   0.00001   0.00000   0.00003   0.00003   2.10059
   A17        2.05380   0.00001   0.00000   0.00003   0.00003   2.05383
   A18        2.10603  -0.00001   0.00000  -0.00007  -0.00007   2.10596
   A19        2.12335   0.00000   0.00000   0.00004   0.00004   2.12339
   A20        2.78655  -0.00001   0.00000  -0.00095  -0.00095   2.78560
   A21        2.27270  -0.00001   0.00000  -0.00095  -0.00095   2.27175
   A22        2.19465   0.00002   0.00000   0.00329   0.00328   2.19793
   A23        1.87727   0.00001   0.00000   0.00019   0.00019   1.87746
   A24        1.26989   0.00001   0.00000   0.00092   0.00092   1.27080
   A25        2.48457   0.00003   0.00000   0.00187   0.00187   2.48644
    D1        0.01057   0.00000   0.00000   0.00069   0.00069   0.01126
    D2       -3.13133   0.00000   0.00000   0.00076   0.00076  -3.13057
    D3        0.06650  -0.00000   0.00000   0.00239   0.00239   0.06889
    D4       -0.00701   0.00000   0.00000   0.00042   0.00042  -0.00659
    D5       -3.13927   0.00000   0.00000   0.00010   0.00010  -3.13918
    D6        0.00264  -0.00000   0.00000   0.00002   0.00002   0.00266
    D7       -0.00902  -0.00000   0.00000  -0.00127  -0.00127  -0.01029
    D8        3.13289  -0.00000   0.00000  -0.00135  -0.00135   3.13154
    D9       -0.00223   0.00000   0.00000  -0.00003  -0.00003  -0.00226
   D10        3.13864   0.00000   0.00000   0.00002   0.00002   3.13865
   D11       -3.12875   0.00001   0.00000   0.00179   0.00179  -3.12696
   D12        0.01212   0.00000   0.00000   0.00184   0.00184   0.01396
   D13        0.00407   0.00000   0.00000   0.00097   0.00097   0.00504
   D14       -0.07850   0.00000   0.00000  -0.00018  -0.00018  -0.07869
   D15        3.13177  -0.00000   0.00000  -0.00071  -0.00071   3.13106
   D16        3.04919  -0.00000   0.00000  -0.00186  -0.00186   3.04733
   D17        3.14041  -0.00000   0.00000  -0.00004  -0.00004   3.14037
   D18        0.00057  -0.00000   0.00000  -0.00004  -0.00004   0.00053
   D19       -0.00150   0.00000   0.00000   0.00003   0.00003  -0.00146
   D20       -3.14135   0.00000   0.00000   0.00004   0.00004  -3.14131
   D21       -0.00014  -0.00000   0.00000  -0.00008  -0.00008  -0.00021
   D22       -3.14070  -0.00000   0.00000   0.00002   0.00002  -3.14069
   D23        3.13965  -0.00000   0.00000  -0.00008  -0.00008   3.13957
   D24       -0.00092   0.00000   0.00000   0.00001   0.00001  -0.00091
   D25        0.00066  -0.00000   0.00000  -0.00001  -0.00001   0.00065
   D26        3.14124  -0.00000   0.00000   0.00001   0.00001   3.14125
   D27       -3.14017  -0.00000   0.00000  -0.00006  -0.00006  -3.14023
   D28        0.00041  -0.00000   0.00000  -0.00004  -0.00004   0.00037
   D29        0.00053   0.00000   0.00000   0.00007   0.00007   0.00060
   D30       -3.14004   0.00000   0.00000   0.00005   0.00005  -3.13999
   D31        3.14109  -0.00000   0.00000  -0.00002  -0.00002   3.14106
   D32        0.00052  -0.00000   0.00000  -0.00004  -0.00004   0.00048
   D33       -1.94734   0.00000   0.00000  -0.00270  -0.00269  -1.95004
   D34        0.00190  -0.00000   0.00000  -0.00092  -0.00092   0.00098
   D35        1.59099  -0.00000   0.00000  -0.00016  -0.00016   1.59083
   D36        2.26051   0.00001   0.00000   0.00432   0.00432   2.26483
         Item               Value     Threshold  Converged?
 Maximum Force            0.000025     0.000450     YES
 RMS     Force            0.000007     0.000300     YES
 Maximum Displacement     0.005581     0.001800     NO 
 RMS     Displacement     0.001273     0.001200     NO 
 Predicted change in Energy=-1.345093D-07
 GradGradGradGradGradGradGradGradGradGradGradGradGradGradGradGradGradGrad

 Leave Link  103 at Fri Aug 27 00:41:28 2021, MaxMem= 17179869184 cpu:        25.2
 (Enter /public3/home/sc51754/softwares/g09e01/l9999.exe)
 1\1\GINC-S1512\Freq\RBHandHLYP\Gen\C5H7N1O2\SC51754\27-Aug-2021\0\\#P 
 Geom=AllCheck Guess=TCheck SCRF=Check GenChk RBHandHLYP/ChkBas Freq\\H
 Y_H2O_BHandHLYP_PC2_OPT_FREQ\\0,1\O,1.1941295452,1.4327768946,0.005197
 0483\N,0.2913097493,-0.6596628137,0.0029148724\C,0.1263930816,0.647062
 0256,0.0044804888\C,-1.1308945895,1.2464382286,0.0058033773\C,-0.78922
 55551,-1.433290429,-0.0004971506\C,-2.2311708645,0.4345074341,0.003639
 1471\C,-2.068235733,-0.9440308058,0.0000681697\H,2.0018464209,0.903253
 3645,-0.0051497814\H,-1.2032906877,2.3155055694,0.0068215225\H,-0.6074
 670348,-2.4927610448,-0.0045244108\H,-3.2152044585,0.8646796666,0.0037
 508384\H,-2.9080995605,-1.6096933715,-0.0031194457\O,3.0906760861,-0.5
 708874083,-0.068828479\H,3.6258117599,-0.895655929,0.6437691144\H,2.23
 59088408,-1.0120693813,-0.0148833114\\Version=EM64L-G09RevE.01\State=1
 -A\HF=-399.9007808\RMSD=1.655e-09\RMSF=1.187e-05\ZeroPoint=0.1231122\T
 hermal=0.1308886\Dipole=-0.6896179,-0.5833507,0.5079305\DipoleDeriv=-1
 .5694643,-0.5467612,-0.007469,-0.4652336,-0.6846534,0.0015629,-0.00672
 42,0.0011459,-0.3754825,-0.92023,0.113308,-0.0045212,-0.3611702,-0.591
 1446,-0.0006699,-0.008675,0.0034075,-0.2698173,1.6179097,0.7786223,0.0
 044279,0.5902294,0.6536693,-0.000385,-0.0012272,-0.0006432,0.2351571,-
 0.5860638,-0.432928,-0.0022103,0.0992461,-0.013114,-0.0002597,0.001892
 2,-0.001642,-0.1722896,0.5351334,-0.2914321,0.0008029,0.1971797,0.3459
 935,0.0051303,-0.0011114,0.0032401,-0.0037421,0.2726542,0.1089632,0.00
 07259,0.0464884,0.4860059,0.0013602,0.0005931,0.0013404,-0.0785394,-0.
 2321635,0.3477267,0.000451,0.0830218,-0.4286733,-0.0004798,0.0019503,0
 .0004384,-0.1818201,0.7363913,-0.1116362,0.0035205,-0.273506,0.3611363
 ,-0.0092922,0.0004058,-0.0072755,0.2924071,0.0758938,0.0059478,-0.0001
 875,0.0060019,-0.0302993,-0.0003302,0.0002819,0.0002338,0.1579675,0.06
 33329,0.0269046,-0.0003612,-0.012274,-0.0925349,-0.000522,-0.0005269,-
 0.0004565,0.1111329,-0.0444922,0.0583895,-0.0000938,0.0605932,0.061782
 7,-0.0001169,-0.0003278,-0.0002067,0.1265284,-0.0129233,-0.0693065,-0.
 0006085,-0.0684989,0.0092187,-0.0004301,-0.0005716,-0.0007676,0.160884
 8,-1.1310476,0.1379524,0.005795,0.1547082,-0.6015906,-0.1160483,0.0385
 732,-0.1026677,-0.4712565,0.340971,-0.0134602,-0.0130327,0.0117558,0.2
 831852,0.0725217,-0.0321234,0.0593767,0.2365764,0.8540984,-0.1122903,0
 .0127612,-0.0685418,0.2410184,0.047959,0.0075912,0.0444765,0.2322932\P
 olar=91.9786977,2.0883743,80.4828845,1.0114541,-0.2285848,43.3835044\P
 G=C01 [X(C5H7N1O2)]\NImag=0\\0.68938132,-0.05842566,0.45163044,-0.0049
 8857,0.00333803,0.04253311,0.01554274,-0.05681366,0.00006204,0.5231385
 0,-0.02401811,-0.06849096,-0.00022766,0.11602018,0.67497293,0.00010466
 ,-0.00007049,0.00769270,0.00088775,0.00139385,0.10223193,-0.28150602,-
 0.08215824,0.00096999,-0.17716489,0.01812665,-0.00026885,0.79566215,-0
 .12675857,-0.19386837,0.00004727,0.06447892,-0.33697626,-0.00039657,0.
 02121671,0.75091901,-0.00007852,-0.00069560,-0.05832379,0.00001775,-0.
 00023605,-0.08042844,-0.00036953,0.00097726,0.21032561,-0.07331909,0.0
 0623247,-0.00008217,0.03806327,0.09673754,0.00028775,-0.25606072,0.033
 41297,0.00012472,0.71623229,-0.03327983,0.01923829,0.00011318,0.035421
 48,-0.02917191,-0.00007303,0.11468984,-0.18102282,-0.00023350,0.034918
 77,0.82425206,0.00014598,0.00018726,0.01146607,-0.00005256,0.00006001,
 0.02185821,0.00019578,-0.00043368,-0.08573387,0.00016530,0.00098806,0.
 13569573,-0.01098071,0.01012178,-0.00008895,-0.28943819,-0.08532098,-0
 .00027892,0.06549737,-0.10287345,-0.00016544,-0.08810381,-0.00194923,-
 0.00005724,0.72444445,0.00231091,0.00170102,-0.00001622,-0.12478378,-0
 .20980211,-0.00046479,-0.02905948,-0.07946846,-0.00012379,-0.01488899,
 -0.00147924,-0.00004043,-0.03284317,0.81388022,-0.00001036,0.00000339,
 0.01105851,-0.00059665,-0.00062361,-0.07066634,-0.00002604,-0.00021066
 ,-0.00306905,-0.00011565,0.00005017,-0.00574577,0.00042083,0.00213874,
 0.17581053,0.00465526,0.00468541,0.00009386,-0.01261462,-0.02992300,-0
 .00010217,-0.06454606,0.00904770,0.00001291,-0.30923419,-0.15428034,-0
 .00045372,0.02788343,0.04307146,0.00016870,0.80191475,0.01974522,-0.00
 546234,0.00005985,-0.03997050,-0.07952178,-0.00023504,-0.05672859,0.09
 002499,0.00014335,-0.08161795,-0.23712043,-0.00027796,0.10608018,-0.00
 970537,0.00003027,-0.01866500,0.71498622,0.00002756,0.00000497,0.00484
 897,-0.00005286,-0.00019154,-0.00813234,-0.00015023,0.00022630,0.00258
 091,-0.00035025,-0.00041243,-0.06516391,0.00024258,0.00000769,0.009000
 97,0.00037744,0.00128682,0.16084014,0.00383334,-0.00735730,0.00001330,
 -0.07671946,-0.06658925,-0.00028959,-0.03804722,0.06057175,0.00006194,
 0.05676478,-0.02770619,0.00001793,-0.33358254,0.12005237,0.00015170,-0
 .14715460,-0.01494368,-0.00011057,0.78343331,-0.01504353,-0.00050469,-
 0.00008715,0.00893051,0.07492775,0.00019803,0.04752002,-0.05572643,-0.
 00009606,-0.07714013,-0.03662097,-0.00012556,0.03865857,-0.18373257,-0
 .00035130,0.06048217,-0.33599688,-0.00069415,0.05412217,0.73037130,0.0
 0000842,0.00000938,-0.00122456,-0.00016709,0.00005191,0.02377823,0.000
 06798,-0.00008431,-0.00936976,-0.00009689,-0.00016602,0.00857609,-0.00
 006891,-0.00023349,-0.07592596,0.00003381,-0.00082327,-0.07040515,0.00
 081036,0.00191622,0.13545695,-0.33239199,0.17776702,0.00394402,0.00275
 737,0.00934286,-0.00010659,-0.05286194,0.00707692,0.00035435,0.0031333
 8,-0.00294343,-0.00001925,0.00025851,-0.00012043,-0.00003493,-0.001685
 91,-0.00077507,0.00000925,0.00060106,0.00180188,0.00001250,0.37472082,
 0.22064703,-0.20054836,-0.00353153,0.00261550,-0.00164358,0.00002978,-
 0.02255960,0.02751312,0.00042105,-0.00833603,-0.00436467,0.00001000,-0
 .00227371,-0.00142560,-0.00002002,0.00040295,0.00366331,-0.00002178,0.
 00135522,-0.00244429,0.00000769,-0.18343790,0.18558482,0.00513808,-0.0
 0337554,-0.01714811,-0.00012332,0.00004752,-0.00275646,-0.00039152,-0.
 00007959,-0.00096811,0.00004498,-0.00004430,0.00363892,0.00004591,-0.0
 0000752,-0.00065221,-0.00006407,-0.00004762,0.00156277,-0.00002221,0.0
 0004971,0.00039558,-0.00438972,0.00447529,0.02228816,0.00198767,-0.000
 98083,-0.00000548,-0.00642623,0.00542518,-0.00000617,0.00567509,0.0305
 8100,0.00002656,-0.06637739,0.02230156,0.00003334,-0.00216295,-0.00137
 819,-0.00000290,0.00832151,-0.02856611,-0.00002569,-0.00402916,-0.0029
 4004,-0.00001311,-0.00011821,0.00010171,-0.00000283,0.06103121,-0.0006
 4661,0.00128610,0.00000914,0.00292455,-0.00012070,-0.00000685,-0.00383
 373,-0.01095432,-0.00000703,0.02480748,-0.36332840,-0.00032660,0.00042
 834,0.00107822,0.00000652,0.00348778,-0.01258575,-0.00001774,-0.003514
 52,0.00084964,-0.00000387,0.00026209,-0.00000947,-0.00000039,-0.023840
 90,0.38342703,-0.00000191,-0.00001114,-0.00227941,0.00001465,-0.000045
 19,0.00592274,-0.00004738,0.00000102,0.00267409,0.00007025,-0.00024350
 ,-0.03746359,0.00002776,0.00001350,-0.00030294,-0.00000859,-0.00008267
 ,0.00265734,-0.00003452,-0.00001235,0.00922175,-0.00000385,0.00000632,
 -0.00066510,-0.00001190,0.00035245,0.02651561,-0.00030392,-0.00128855,
 0.00000302,0.00330528,-0.03608052,-0.00011894,-0.00275591,-0.00413052,
 -0.00001741,-0.00071960,-0.00074917,-0.00000231,-0.07575313,0.06111895
 ,0.00016328,-0.00608336,0.00186493,-0.00000699,0.00158147,0.03074017,0
 .00010422,0.00038829,-0.00013547,-0.00000073,0.00016352,-0.00001479,0.
 00000070,0.07947849,-0.00040405,-0.00124013,0.00000207,-0.00658338,-0.
 02203251,-0.00008282,-0.00253212,0.00175459,-0.00007342,0.00011569,0.0
 0055022,0.00000742,0.05891220,-0.33932907,-0.00104961,0.00254340,0.000
 63685,-0.00003781,-0.00072096,-0.00680711,-0.00005920,0.00037658,-0.00
 002406,-0.00000366,0.00009272,-0.00008084,0.00000770,-0.05207472,0.366
 62891,-0.00001082,-0.00000109,0.00022207,0.00004435,-0.00000755,-0.002
 81272,0.00001660,-0.00004197,0.01056485,-0.00002443,0.00000645,-0.0005
 8152,0.00010818,-0.00120708,-0.04719205,-0.00001031,0.00001284,0.00820
 353,0.00002062,-0.00001652,0.00848993,-0.00000298,-0.00000608,-0.00018
 612,-0.00000162,0.00000075,-0.00159050,-0.00010345,0.00125851,0.029664
 32,-0.00172517,0.00076510,0.00001079,0.00019229,-0.00076994,0.00000170
 ,-0.00160220,-0.00394799,-0.00002140,-0.01904592,0.01335148,0.00000059
 ,0.00193146,0.00051909,-0.00000885,-0.31114840,0.10684276,0.00001601,0
 .00147924,-0.00049734,-0.00000788,0.00001902,-0.00037730,-0.00000574,0
 .00120012,-0.00022103,0.00000341,-0.00006428,-0.00014905,0.00000015,0.
 32821420,-0.00092230,0.00073969,0.00000963,-0.00089984,-0.00047278,0.0
 0000331,-0.00402225,-0.00195119,-0.00002481,-0.01906676,0.01342212,-0.
 00001122,0.00016320,-0.00699403,-0.00004015,0.10758392,-0.11357437,-0.
 00005258,0.03181411,-0.00570671,0.00000283,-0.00018385,-0.00022704,-0.
 00000198,0.00075857,0.00086876,0.00001143,0.00160865,-0.00044195,0.000
 00437,-0.11605497,0.11299844,-0.00001808,-0.00000933,-0.00058352,0.000
 00519,0.00000628,-0.00309264,-0.00000381,-0.00001233,0.01082751,-0.000
 04660,0.00004836,0.00655987,-0.00000928,-0.00004822,0.00777612,-0.0000
 1107,-0.00004557,-0.04739932,0.00008212,-0.00004449,0.00606332,0.00000
 080,-0.00000304,-0.00042939,0.00000259,0.00000225,-0.00522140,0.000003
 95,-0.00000028,-0.00059217,-0.00000325,0.00008630,0.02994231,0.0003235
 4,-0.00036010,0.00000317,-0.00570304,0.00264196,-0.00001088,-0.0003928
 6,0.00214454,0.00000119,0.00122078,0.00173783,-0.00000735,-0.01678870,
 -0.02366424,-0.00010190,0.00901887,0.00523149,0.00002911,-0.24906764,-
 0.14497979,-0.00071816,0.00008573,0.00019762,-0.00000334,0.00030868,0.
 00034664,-0.00000132,0.00080445,0.00044640,0.00000935,0.00061660,-0.00
 072729,0.00000476,0.25949203,-0.00031236,0.00044528,0.00000483,0.00365
 362,0.00066419,-0.00002744,0.00148912,-0.00152361,-0.00000267,0.002361
 53,-0.00530800,-0.00003454,0.01114103,0.01269441,0.00005543,-0.0280014
 3,-0.01394323,-0.00008603,-0.14593748,-0.17921975,-0.00064217,0.000023
 12,-0.00011767,0.00000081,-0.00133005,-0.00054852,-0.00000165,-0.00070
 906,0.00056564,0.00001554,0.00045386,0.00129786,0.00001713,0.15718866,
 0.18488801,-0.00001076,-0.00000444,-0.00130781,0.00000255,-0.00002464,
 0.00892594,0.00000904,0.00000208,0.00032161,0.00000391,-0.00002267,0.0
 0672902,0.00001797,0.00002185,-0.00007497,-0.00006281,-0.00002244,0.00
 146750,-0.00075396,-0.00068707,-0.03543225,0.00000574,-0.00000148,-0.0
 0001727,-0.00000647,-0.00000141,0.00052079,0.00000199,0.00002474,-0.00
 407239,0.00000755,0.00001419,-0.00382051,0.00078866,0.00069936,0.02671
 371,-0.00826417,0.01011765,0.00004984,-0.01733853,-0.00291475,-0.00064
 459,0.00143524,-0.00111396,0.00013231,-0.00083091,0.00037217,0.0000755
 4,0.00040827,0.00521305,0.00000354,-0.00016984,-0.00016919,-0.00001273
 ,-0.00187175,-0.00055112,0.00006637,-0.00136743,-0.00682002,0.00001417
 ,-0.00022887,0.00014285,-0.00000063,-0.00014909,-0.00053173,-0.0000369
 0,-0.00017348,0.00000828,-0.00001031,-0.00049412,0.00009991,0.00000551
 ,0.61945475,0.01875727,-0.00412094,0.00164776,-0.00062657,0.00704106,-
 0.00039645,-0.01060048,-0.00924542,-0.00014083,0.00334807,0.00172952,-
 0.00006862,0.00136513,-0.00009444,-0.00001949,-0.00059852,-0.00164739,
 -0.00001754,-0.00041893,0.00148665,0.00002526,-0.00840441,0.00203151,-
 0.00474721,-0.00041166,0.00015992,-0.00000747,0.00031579,0.00017360,-0
 .00001807,0.00012355,0.00007377,0.00000940,-0.00000887,0.00006507,0.00
 000145,0.10266426,0.22633741,-0.00104593,0.00203544,0.00487782,-0.0016
 6698,0.00002512,0.00573197,-0.00026209,-0.00056545,-0.00084606,0.00010
 687,0.00006713,-0.00059505,0.00001955,0.00004565,0.00014422,-0.0000460
 4,-0.00010485,0.00006294,-0.00006539,0.00007343,-0.00048148,0.00061670
 ,-0.00267960,-0.00865407,-0.00000781,0.00000775,-0.00000854,0.00002926
 ,0.00000091,0.00014272,0.00000487,0.00000426,0.00006676,-0.00001474,0.
 00000152,-0.00006647,0.21072622,-0.18985529,0.36809314,0.00123867,0.00
 017423,0.00038588,-0.00161713,-0.00056751,0.00144062,-0.00078312,-0.00
 041758,-0.00024860,0.00020426,0.00004207,-0.00013429,-0.00054241,0.000
 17961,0.00001005,-0.00001391,-0.00004287,0.00001943,0.00002471,-0.0001
 1950,-0.00012195,-0.00168433,0.00078980,-0.00074016,0.00000664,0.00000
 930,-0.00000397,-0.00005963,-0.00003524,0.00003650,0.00002143,-0.00000
 477,0.00001658,-0.00000975,0.00001663,-0.00001371,-0.20266840,0.072834
 33,-0.20980185,0.22408583,0.00173528,-0.00170424,-0.00123893,-0.001324
 05,0.00024141,0.00034590,-0.00015004,-0.00062605,0.00009653,0.00008328
 ,0.00009672,0.00002975,0.00009485,0.00041967,-0.00000483,0.00001612,-0
 .00002463,0.00001092,-0.00009761,-0.00005932,-0.00001498,-0.00095394,0
 .00258910,0.00337412,-0.00001907,0.00001113,0.00000708,-0.00005607,-0.
 00007100,-0.00000935,0.00000825,0.00000095,-0.00000539,-0.00003298,0.0
 0000636,0.00000138,0.10559007,-0.09101447,0.16486757,-0.09244984,0.082
 46015,0.00184212,-0.00166996,-0.00030817,0.00121746,0.00011651,-0.0002
 2746,-0.00044356,-0.00005045,0.00008518,0.00010997,-0.00001025,0.00000
 645,-0.00002424,-0.00011365,0.00000653,0.00002015,0.00000507,-0.000006
 76,0.00009351,0.00000996,0.00000330,-0.00142663,0.00247555,0.00050684,
 0.00000398,-0.00000256,0.00001407,-0.00002400,0.00001904,0.00002125,0.
 00000880,-0.00000209,0.00000410,0.00002300,0.00000094,0.00001097,-0.25
 042436,0.14684705,-0.32722666,0.24430675,-0.14898021,0.32659489,-0.008
 47148,-0.00247931,-0.00037076,0.00402264,-0.00211030,-0.00089580,0.007
 45110,0.01071156,0.00016918,-0.00192713,-0.00192702,0.00009224,-0.0030
 7105,-0.00572715,-0.00002081,0.00085708,0.00171438,-0.00001207,0.00275
 444,-0.00098404,0.00009034,0.00814563,-0.00216979,0.00050049,0.0006483
 7,-0.00033744,-0.00000270,0.00016742,0.00054426,-0.00004527,0.00008509
 ,-0.00005469,-0.00001358,0.00058543,-0.00013709,0.00000480,-0.38774167
 ,-0.17833895,0.00140736,-0.01820288,-0.01244424,0.00471707,0.39469701,
 -0.00338471,0.00089921,-0.00013026,-0.00304298,-0.00961475,-0.00021740
 ,0.00860220,0.00115122,-0.00000444,-0.00096794,-0.00087247,0.00003612,
 -0.00170471,0.00225734,0.00003516,0.00014739,0.00027081,-0.00000510,-0
 .00062969,-0.00081660,0.00001403,0.00016855,-0.01057713,0.00036037,0.0
 0020614,-0.00005278,0.00000449,-0.00040965,-0.00028314,0.00000925,-0.0
 0004647,-0.00003350,-0.00000106,-0.00016186,0.00003398,-0.00000091,-0.
 21210747,-0.13297585,0.02607641,0.01959137,0.00767425,0.00135505,0.193
 73984,0.14293941,-0.00110186,0.00025913,-0.00152389,0.00040772,-0.0003
 4495,-0.00802533,0.00070361,0.00062108,0.00135932,-0.00019777,-0.00006
 764,0.00075336,-0.00018980,0.00002777,-0.00016759,0.00005190,0.0001012
 3,-0.00011760,0.00002476,-0.00013271,0.00085401,0.00104057,-0.00116215
 ,0.00308455,0.00001749,-0.00001240,0.00000507,-0.00003261,-0.00001361,
 -0.00028122,-0.00000674,-0.00000349,-0.00010104,-0.00000155,-0.0000010
 7,0.00010212,0.04005603,0.04674005,-0.04124126,-0.03515129,-0.01847957
 ,0.00051547,-0.00562048,-0.02753169,0.04478401\\-0.00001688,-0.0000005
 0,-0.00000229,-0.00000658,0.00003663,-0.00000776,0.00002345,0.00000738
 ,-0.00000888,-0.00000168,0.,0.00000979,-0.00000294,-0.00000570,0.00000
 521,0.00000421,0.00000064,-0.00000785,0.00000473,-0.00001417,0.0000052
 3,0.00000478,-0.00000941,0.00000963,-0.00000432,-0.00000049,0.00000140
 ,0.00000145,0.00000091,-0.00000332,-0.00000119,-0.00000395,0.00000137,
 -0.00000444,0.00000142,0.00000044,-0.00000778,0.00001830,-0.00001665,-
 0.00000435,0.00001342,0.00001259,0.00001156,-0.00004448,0.00000109\\\@


 LOGIC IS A SYSTEMATIC METHOD OF COMING TO THE
 WRONG CONCLUSION WITH CONFIDENCE.
 Job cpu time:       0 days  1 hours  2 minutes 54.6 seconds.
 File lengths (MBytes):  RWF=    137 Int=      0 D2E=      0 Chk=      9 Scr=      1
 Normal termination of Gaussian 09 at Fri Aug 27 00:41:28 2021.
