 Entering Gaussian System, Link 0=g09
 AtFile(1): pc-2.gbs
            -H     0
            S    4   1.00
                  0.754230D+02           0.240650D-02
                  0.113500D+02           0.184870D-01
                  0.259930D+01           0.897420D-01
                  0.735130D+00           0.281110D+00
            S    1   1.00
                  0.231670D+00           0.100000D+01
            S    1   1.00
                  0.741470D-01           0.100000D+01
            P    1   1.00
                  0.160000D+01           0.100000D+01
            P    1   1.00
                  0.450000D+00           0.100000D+01
            D    1   1.00
                  0.125000D+01           0.100000D+01
            ****
            -C     0
            S    7   1.00
                  0.785710D+04           0.568250D-03
                  0.117870D+04           0.439150D-02
                  0.268320D+03           0.225040D-01
                  0.759480D+02           0.866530D-01
                  0.245590D+02           0.244050D+00
                  0.862120D+01           0.441480D+00
                  0.312780D+01           0.353320D+00
            S    7   1.00
                  0.117870D+04          -0.594920D-06
                  0.268320D+03          -0.627480D-04
                  0.759480D+02          -0.757730D-03
                  0.245590D+02          -0.733080D-02
                  0.862120D+01          -0.389320D-01
                  0.312780D+01          -0.889080D-01
                  0.822020D+00           0.216890D+00
            S    1   1.00
                  0.330170D+00           0.100000D+01
            S    1   1.00
                  0.114630D+00           0.100000D+01
            P    4   1.00
                  0.337750D+02           0.602940D-02
                  0.767660D+01           0.432280D-01
                  0.223570D+01           0.163010D+00
                  0.764470D+00           0.365040D+00
            P    1   1.00
                  0.262320D+00           0.100000D+01
            P    1   1.00
                  0.846380D-01           0.100000D+01
            D    1   1.00
                  0.140000D+01           0.100000D+01
            D    1   1.00
                  0.450000D+00           0.100000D+01
            F    1   1.00
                  0.950000D+00           0.100000D+01
            ****
            -N     0
            S    7   1.00
                  0.111010D+05           0.545700D-03
                  0.166530D+04           0.421810D-02
                  0.379080D+03           0.216450D-01
                  0.107300D+03           0.837760D-01
                  0.347470D+02           0.238810D+00
                  0.122490D+02           0.439940D+00
                  0.447430D+01           0.363640D+00
            S    7   1.00
                  0.166530D+04          -0.150060D-05
                  0.379080D+03          -0.587530D-04
                  0.107300D+03          -0.774530D-03
                  0.347470D+02          -0.721610D-02
                  0.122490D+02          -0.393380D-01
                  0.447430D+01          -0.906110D-01
                  0.124040D+01           0.198820D+00
            S    1   1.00
                  0.487430D+00           0.100000D+01
            S    1   1.00
                  0.164840D+00           0.100000D+01
            P    4   1.00
                  0.479340D+02           0.617060D-02
                  0.109990D+02           0.442600D-01
                  0.324720D+01           0.168250D+00
                  0.111140D+01           0.368480D+00
            P    1   1.00
                  0.379880D+00           0.100000D+01
            P    1   1.00
                  0.120680D+00           0.100000D+01
            D    1   1.00
                  0.180000D+01           0.100000D+01
            D    1   1.00
                  0.550000D+00           0.100000D+01
            F    1   1.00
                  0.102000D+01           0.100000D+01
            ****
            -O     0
            S    7   1.00
                  0.147820D+05           0.535190D-03
                  0.221730D+04           0.413750D-02
                  0.504740D+03           0.212450D-01
                  0.142870D+03           0.824530D-01
                  0.463000D+02           0.236710D+00
                  0.163370D+02           0.440390D+00
                  0.598280D+01           0.364650D+00
            S    7   1.00
                  0.221730D+04          -0.192750D-05
                  0.504740D+03          -0.579640D-04
                  0.142870D+03          -0.794940D-03
                  0.463000D+02          -0.731250D-02
                  0.163370D+02          -0.405740D-01
                  0.598280D+01          -0.915940D-01
                  0.167180D+01           0.209400D+00
            S    1   1.00
                  0.646620D+00           0.100000D+01
            S    1   1.00
                  0.216690D+00           0.100000D+01
            P    4   1.00
                  0.604240D+02           0.689490D-02
                  0.139350D+02           0.490050D-01
                  0.415310D+01           0.182550D+00
                  0.141580D+01           0.376330D+00
            P    1   1.00
                  0.475490D+00           0.100000D+01
            P    1   1.00
                  0.145290D+00           0.100000D+01
            D    1   1.00
                  0.220000D+01           0.100000D+01
            D    1   1.00
                  0.650000D+00           0.100000D+01
            F    1   1.00
                  0.110000D+01           0.100000D+01
            ****
 Initial command:
 /public3/home/sc51754/softwares/g09e01/l1.exe "./Gau-26048.inp" -scrdir="./"
 Entering Link 1 = /public3/home/sc51754/softwares/g09e01/l1.exe PID=     26049.
  
 Copyright (c) 1988,1990,1992,1993,1995,1998,2003,2009,2015,
            Gaussian, Inc.  All Rights Reserved.
  
 This is part of the Gaussian(R) 09 program.  It is based on
 the Gaussian(R) 03 system (copyright 2003, Gaussian, Inc.),
 the Gaussian(R) 98 system (copyright 1998, Gaussian, Inc.),
 the Gaussian(R) 94 system (copyright 1995, Gaussian, Inc.),
 the Gaussian 92(TM) system (copyright 1992, Gaussian, Inc.),
 the Gaussian 90(TM) system (copyright 1990, Gaussian, Inc.),
 the Gaussian 88(TM) system (copyright 1988, Gaussian, Inc.),
 the Gaussian 86(TM) system (copyright 1986, Carnegie Mellon
 University), and the Gaussian 82(TM) system (copyright 1983,
 Carnegie Mellon University). Gaussian is a federally registered
 trademark of Gaussian, Inc.
  
 This software contains proprietary and confidential information,
 including trade secrets, belonging to Gaussian, Inc.
  
 This software is provided under written license and may be
 used, copied, transmitted, or stored only in accord with that
 written license.
  
 The following legend is applicable only to US Government
 contracts under FAR:
  
                    RESTRICTED RIGHTS LEGEND
  
 Use, reproduction and disclosure by the US Government is
 subject to restrictions as set forth in subparagraphs (a)
 and (c) of the Commercial Computer Software - Restricted
 Rights clause in FAR 52.227-19.
  
 Gaussian, Inc.
 340 Quinnipiac St., Bldg. 40, Wallingford CT 06492
  
  
 ---------------------------------------------------------------
 Warning -- This program may not be used in any manner that
 competes with the business of Gaussian, Inc. or will provide
 assistance to any competitor of Gaussian, Inc.  The licensee
 of this program is prohibited from giving any competitor of
 Gaussian, Inc. access to this program.  By using this program,
 the user acknowledges that Gaussian, Inc. is engaged in the
 business of creating and licensing software in the field of
 computational chemistry and represents and warrants to the
 licensee that it is not a competitor of Gaussian, Inc. and that
 it will not use this program in any manner prohibited above.
 ---------------------------------------------------------------
  

 Cite this work as:
 Gaussian 09, Revision E.01,
 M. J. Frisch, G. W. Trucks, H. B. Schlegel, G. E. Scuseria, 
 M. A. Robb, J. R. Cheeseman, G. Scalmani, V. Barone, B. Mennucci, 
 G. A. Petersson, H. Nakatsuji, M. Caricato, X. Li, H. P. Hratchian, 
 A. F. Izmaylov, J. Bloino, G. Zheng, J. L. Sonnenberg, M. Hada, 
 M. Ehara, K. Toyota, R. Fukuda, J. Hasegawa, M. Ishida, T. Nakajima, 
 Y. Honda, O. Kitao, H. Nakai, T. Vreven, J. A. Montgomery, Jr., 
 J. E. Peralta, F. Ogliaro, M. Bearpark, J. J. Heyd, E. Brothers, 
 K. N. Kudin, V. N. Staroverov, T. Keith, R. Kobayashi, J. Normand, 
 K. Raghavachari, A. Rendell, J. C. Burant, S. S. Iyengar, J. Tomasi, 
 M. Cossi, N. Rega, J. M. Millam, M. Klene, J. E. Knox, J. B. Cross, 
 V. Bakken, C. Adamo, J. Jaramillo, R. Gomperts, R. E. Stratmann, 
 O. Yazyev, A. J. Austin, R. Cammi, C. Pomelli, J. W. Ochterski, 
 R. L. Martin, K. Morokuma, V. G. Zakrzewski, G. A. Voth, 
 P. Salvador, J. J. Dannenberg, S. Dapprich, A. D. Daniels, 
 O. Farkas, J. B. Foresman, J. V. Ortiz, J. Cioslowski, 
 and D. J. Fox, Gaussian, Inc., Wallingford CT, 2013.
 
 ******************************************
 Gaussian 09:  EM64L-G09RevE.01 30-Nov-2015
                27-Aug-2021 
 ******************************************
 %nprocshared=64
 Will use up to   64 processors via shared memory.
 %mem=128GB
 %chk=PY_H2O_BHandHLYP_PC2_OPT_FREQ.chk
 -------------------------
 #p opt freq BHandHLYP/gen
 -------------------------
 1/14=-1,18=20,19=15,26=3,38=1/1,3;
 2/9=110,12=2,17=6,18=5,40=1/2;
 3/5=7,11=2,16=1,25=1,30=1,71=1,74=-3/1,2,3;
 4//1;
 5/5=2,38=5/2;
 6/7=2,8=2,9=2,10=2,28=1/1;
 7//1,2,3,16;
 1/14=-1,18=20,19=15,26=3/3(2);
 2/9=110/2;
 99//99;
 2/9=110/2;
 3/5=7,6=1,11=2,16=1,25=1,30=1,71=1,74=-3,82=7/1,2,3;
 4/5=5,16=3,69=1/1;
 5/5=2,38=5/2;
 7//1,2,3,16;
 1/14=-1,18=20,19=15,26=3/3(-5);
 2/9=110/2;
 6/7=2,8=2,9=2,10=2,19=2,28=1/1;
 99/9=1/99;
 Leave Link    1 at Fri Aug 27 00:39:34 2021, MaxMem= 17179869184 cpu:         2.4
 (Enter /public3/home/sc51754/softwares/g09e01/l101.exe)
 -----------------------------
 PY_H2O_BHandHLYP_PC2_OPT_FREQ
 -----------------------------
 Symbolic Z-matrix:
 Charge =  0 Multiplicity = 1
 O                     1.26148   1.38785   0.00541 
 N                     0.24943  -0.65888   0.01158 
 C                     0.21021   0.736     0.00592 
 C                    -1.11959   1.28763   0.00047 
 C                    -0.84358  -1.46082   0.0067 
 C                    -2.21816   0.48191  -0.00352 
 C                    -2.09559  -0.93059  -0.00106 
 H                     2.7014    0.27314  -0.04162 
 H                    -1.19683   2.36437  -0.00254 
 H                    -0.64999  -2.52343   0.00862 
 H                    -3.20534   0.92605  -0.00928 
 H                    -2.96087  -1.57362  -0.00584 
 O                     3.10667  -0.61979  -0.08598 
 H                     3.83344  -0.62425   0.54074 
 H                     1.18728  -1.05929   0.02234 
 
 Add virtual bond connecting atoms H8         and O1         Dist= 3.44D+00.
 Add virtual bond connecting atoms O13        and H15        Dist= 3.73D+00.
 NAtoms=     15 NQM=       15 NQMF=       0 NMMI=      0 NMMIF=      0
                NMic=       0 NMicF=      0.
                    Isotopes and Nuclear Properties:
 (Nuclear quadrupole moments (NQMom) in fm**2, nuclear magnetic moments (NMagM)
  in nuclear magnetons)

  Atom         1           2           3           4           5           6           7           8           9          10
 IAtWgt=          16          14          12          12          12          12          12           1           1           1
 AtmWgt=  15.9949146  14.0030740  12.0000000  12.0000000  12.0000000  12.0000000  12.0000000   1.0078250   1.0078250   1.0078250
 NucSpn=           0           2           0           0           0           0           0           1           1           1
 AtZEff=   0.0000000   0.0000000   0.0000000   0.0000000   0.0000000   0.0000000   0.0000000   0.0000000   0.0000000   0.0000000
 NQMom=    0.0000000   2.0440000   0.0000000   0.0000000   0.0000000   0.0000000   0.0000000   0.0000000   0.0000000   0.0000000
 NMagM=    0.0000000   0.4037610   0.0000000   0.0000000   0.0000000   0.0000000   0.0000000   2.7928460   2.7928460   2.7928460
 AtZNuc=   8.0000000   7.0000000   6.0000000   6.0000000   6.0000000   6.0000000   6.0000000   1.0000000   1.0000000   1.0000000

  Atom        11          12          13          14          15
 IAtWgt=           1           1          16           1           1
 AtmWgt=   1.0078250   1.0078250  15.9949146   1.0078250   1.0078250
 NucSpn=           1           1           0           1           1
 AtZEff=   0.0000000   0.0000000   0.0000000   0.0000000   0.0000000
 NQMom=    0.0000000   0.0000000   0.0000000   0.0000000   0.0000000
 NMagM=    2.7928460   2.7928460   0.0000000   2.7928460   2.7928460
 AtZNuc=   1.0000000   1.0000000   8.0000000   1.0000000   1.0000000
 Leave Link  101 at Fri Aug 27 00:39:35 2021, MaxMem= 17179869184 cpu:         9.3
 (Enter /public3/home/sc51754/softwares/g09e01/l103.exe)

 GradGradGradGradGradGradGradGradGradGradGradGradGradGradGradGradGradGrad
 Berny optimization.
 Initialization pass.
                           ----------------------------
                           !    Initial Parameters    !
                           ! (Angstroms and Degrees)  !
 --------------------------                            --------------------------
 ! Name  Definition              Value          Derivative Info.                !
 --------------------------------------------------------------------------------
 ! R1    R(1,3)                  1.237          estimate D2E/DX2                !
 ! R2    R(1,8)                  1.8216         estimate D2E/DX2                !
 ! R3    R(2,3)                  1.3954         estimate D2E/DX2                !
 ! R4    R(2,5)                  1.3556         estimate D2E/DX2                !
 ! R5    R(2,15)                 1.0198         estimate D2E/DX2                !
 ! R6    R(3,4)                  1.4397         estimate D2E/DX2                !
 ! R7    R(4,6)                  1.3624         estimate D2E/DX2                !
 ! R8    R(4,9)                  1.0795         estimate D2E/DX2                !
 ! R9    R(5,7)                  1.3597         estimate D2E/DX2                !
 ! R10   R(5,10)                 1.0801         estimate D2E/DX2                !
 ! R11   R(6,7)                  1.4178         estimate D2E/DX2                !
 ! R12   R(6,11)                 1.0825         estimate D2E/DX2                !
 ! R13   R(7,12)                 1.0781         estimate D2E/DX2                !
 ! R14   R(8,13)                 0.9816         estimate D2E/DX2                !
 ! R15   R(13,14)                0.9597         estimate D2E/DX2                !
 ! R16   R(13,15)                1.972          estimate D2E/DX2                !
 ! A1    A(3,1,8)              110.4468         estimate D2E/DX2                !
 ! A2    A(3,2,5)              124.6558         estimate D2E/DX2                !
 ! A3    A(3,2,15)             114.7312         estimate D2E/DX2                !
 ! A4    A(5,2,15)             120.6129         estimate D2E/DX2                !
 ! A5    A(1,3,2)              120.1911         estimate D2E/DX2                !
 ! A6    A(1,3,4)              125.6683         estimate D2E/DX2                !
 ! A7    A(2,3,4)              114.1406         estimate D2E/DX2                !
 ! A8    A(3,4,6)              121.2133         estimate D2E/DX2                !
 ! A9    A(3,4,9)              116.6328         estimate D2E/DX2                !
 ! A10   A(6,4,9)              122.1537         estimate D2E/DX2                !
 ! A11   A(2,5,7)              120.7801         estimate D2E/DX2                !
 ! A12   A(2,5,10)             115.9423         estimate D2E/DX2                !
 ! A13   A(7,5,10)             123.2776         estimate D2E/DX2                !
 ! A14   A(4,6,7)              121.2972         estimate D2E/DX2                !
 ! A15   A(4,6,11)             119.5197         estimate D2E/DX2                !
 ! A16   A(7,6,11)             119.1831         estimate D2E/DX2                !
 ! A17   A(5,7,6)              117.9124         estimate D2E/DX2                !
 ! A18   A(5,7,12)             120.4308         estimate D2E/DX2                !
 ! A19   A(6,7,12)             121.6568         estimate D2E/DX2                !
 ! A20   A(1,8,13)             152.1528         estimate D2E/DX2                !
 ! A21   A(8,13,14)            106.7015         estimate D2E/DX2                !
 ! A22   A(8,13,15)             78.3702         estimate D2E/DX2                !
 ! A23   A(14,13,15)           134.4412         estimate D2E/DX2                !
 ! A24   A(2,15,13)            143.8035         estimate D2E/DX2                !
 ! D1    D(8,1,3,2)              1.8252         estimate D2E/DX2                !
 ! D2    D(8,1,3,4)           -178.1461         estimate D2E/DX2                !
 ! D3    D(3,1,8,13)             2.218          estimate D2E/DX2                !
 ! D4    D(5,2,3,1)           -179.6964         estimate D2E/DX2                !
 ! D5    D(5,2,3,4)              0.278          estimate D2E/DX2                !
 ! D6    D(15,2,3,1)             0.4507         estimate D2E/DX2                !
 ! D7    D(15,2,3,4)          -179.5749         estimate D2E/DX2                !
 ! D8    D(3,2,5,7)             -0.1672         estimate D2E/DX2                !
 ! D9    D(3,2,5,10)           179.7881         estimate D2E/DX2                !
 ! D10   D(15,2,5,7)           179.6776         estimate D2E/DX2                !
 ! D11   D(15,2,5,10)           -0.3671         estimate D2E/DX2                !
 ! D12   D(3,2,15,13)           -6.1898         estimate D2E/DX2                !
 ! D13   D(5,2,15,13)          173.9508         estimate D2E/DX2                !
 ! D14   D(1,3,4,6)            179.7501         estimate D2E/DX2                !
 ! D15   D(1,3,4,9)             -0.1145         estimate D2E/DX2                !
 ! D16   D(2,3,4,6)             -0.2227         estimate D2E/DX2                !
 ! D17   D(2,3,4,9)            179.9126         estimate D2E/DX2                !
 ! D18   D(3,4,6,7)              0.0669         estimate D2E/DX2                !
 ! D19   D(3,4,6,11)          -179.8963         estimate D2E/DX2                !
 ! D20   D(9,4,6,7)            179.924          estimate D2E/DX2                !
 ! D21   D(9,4,6,11)            -0.0392         estimate D2E/DX2                !
 ! D22   D(2,5,7,6)             -0.0156         estimate D2E/DX2                !
 ! D23   D(2,5,7,12)           179.9426         estimate D2E/DX2                !
 ! D24   D(10,5,7,6)          -179.9675         estimate D2E/DX2                !
 ! D25   D(10,5,7,12)           -0.0093         estimate D2E/DX2                !
 ! D26   D(4,6,7,5)              0.0605         estimate D2E/DX2                !
 ! D27   D(4,6,7,12)          -179.8972         estimate D2E/DX2                !
 ! D28   D(11,6,7,5)          -179.9762         estimate D2E/DX2                !
 ! D29   D(11,6,7,12)            0.0661         estimate D2E/DX2                !
 ! D30   D(1,8,13,14)         -137.6226         estimate D2E/DX2                !
 ! D31   D(1,8,13,15)           -4.4198         estimate D2E/DX2                !
 ! D32   D(8,13,15,2)            7.3388         estimate D2E/DX2                !
 ! D33   D(14,13,15,2)         109.4095         estimate D2E/DX2                !
 --------------------------------------------------------------------------------
 Trust Radius=3.00D-01 FncErr=1.00D-07 GrdErr=1.00D-06
 Number of steps in this run=     83 maximum allowed number of steps=    100.
 GradGradGradGradGradGradGradGradGradGradGradGradGradGradGradGradGradGrad

 Leave Link  103 at Fri Aug 27 00:39:35 2021, MaxMem= 17179869184 cpu:         0.1
 (Enter /public3/home/sc51754/softwares/g09e01/l202.exe)
                          Input orientation:                          
 ---------------------------------------------------------------------
 Center     Atomic      Atomic             Coordinates (Angstroms)
 Number     Number       Type             X           Y           Z
 ---------------------------------------------------------------------
      1          8           0        1.261476    1.387852    0.005408
      2          7           0        0.249425   -0.658880    0.011581
      3          6           0        0.210209    0.735997    0.005920
      4          6           0       -1.119592    1.287625    0.000474
      5          6           0       -0.843575   -1.460822    0.006702
      6          6           0       -2.218160    0.481905   -0.003521
      7          6           0       -2.095586   -0.930593   -0.001061
      8          1           0        2.701404    0.273138   -0.041623
      9          1           0       -1.196826    2.364370   -0.002539
     10          1           0       -0.649991   -2.523426    0.008616
     11          1           0       -3.205344    0.926047   -0.009282
     12          1           0       -2.960874   -1.573618   -0.005843
     13          8           0        3.106669   -0.619787   -0.085978
     14          1           0        3.833439   -0.624251    0.540740
     15          1           0        1.187279   -1.059291    0.022340
 ---------------------------------------------------------------------
                    Distance matrix (angstroms):
                    1          2          3          4          5
     1  O    0.000000
     2  N    2.283286   0.000000
     3  C    1.236963   1.395440   0.000000
     4  C    2.383182   2.379751   1.439685   0.000000
     5  C    3.542059   1.355649   2.436488   2.762279   0.000000
     6  C    3.595648   2.718565   2.441645   1.362370   2.379869
     7  C    4.079840   2.360734   2.845042   2.423439   1.359682
     8  H    1.821590   2.623679   2.534275   3.953602   3.946622
     9  H    2.645165   3.351400   2.152073   1.079516   3.841480
    10  H    4.353368   2.070142   3.371022   3.839883   1.080095
    11  H    4.490653   3.801034   3.420870   2.116883   3.357879
    12  H    5.157390   3.338124   3.923038   3.402509   2.120339
    13  O    2.728315   2.859176   3.199387   4.637561   4.039846
    14  H    3.309098   3.623033   3.906930   5.336635   4.781162
    15  H    2.448326   1.019811   2.044014   3.290919   2.070227
                    6          7          8          9         10
     6  C    0.000000
     7  C    1.417809   0.000000
     8  H    4.924139   4.945880   0.000000
     9  H    2.141681   3.415341   4.423910   0.000000
    10  H    3.389884   2.151036   4.365220   4.918303   0.000000
    11  H    1.082510   2.163040   5.942811   2.470418   4.292903
    12  H    2.185590   1.078066   5.955937   4.315046   2.498504
    13  O    5.438228   5.212223   0.981592   5.237578   4.212515
    14  H    6.175893   5.961605   1.557548   5.876272   4.898078
    15  H    3.738043   3.285470   2.017928   4.172053   2.349349
                   11         12         13         14         15
    11  H    0.000000
    12  H    2.511594   0.000000
    13  O    6.498999   6.142580   0.000000
    14  H    7.228445   6.882059   0.959682   0.000000
    15  H    4.820550   4.180012   1.972043   2.731330   0.000000
 Stoichiometry    C5H7NO2
 Framework group  C1[X(C5H7NO2)]
 Deg. of freedom    39
 Full point group                 C1      NOp   1
 Largest Abelian subgroup         C1      NOp   1
 Largest concise Abelian subgroup C1      NOp   1
                         Standard orientation:                         
 ---------------------------------------------------------------------
 Center     Atomic      Atomic             Coordinates (Angstroms)
 Number     Number       Type             X           Y           Z
 ---------------------------------------------------------------------
      1          8           0        1.261476    1.387852    0.005408
      2          7           0        0.249425   -0.658880    0.011581
      3          6           0        0.210209    0.735997    0.005920
      4          6           0       -1.119592    1.287625    0.000474
      5          6           0       -0.843575   -1.460822    0.006702
      6          6           0       -2.218160    0.481905   -0.003521
      7          6           0       -2.095586   -0.930593   -0.001061
      8          1           0        2.701404    0.273138   -0.041623
      9          1           0       -1.196826    2.364370   -0.002539
     10          1           0       -0.649991   -2.523426    0.008616
     11          1           0       -3.205344    0.926047   -0.009282
     12          1           0       -2.960874   -1.573618   -0.005843
     13          8           0        3.106669   -0.619787   -0.085978
     14          1           0        3.833439   -0.624251    0.540740
     15          1           0        1.187279   -1.059291    0.022340
 ---------------------------------------------------------------------
 Rotational constants (GHZ):      4.0248921      1.3974909      1.0390436
 Leave Link  202 at Fri Aug 27 00:39:35 2021, MaxMem= 17179869184 cpu:         5.5
 (Enter /public3/home/sc51754/softwares/g09e01/l301.exe)
 General basis read from cards:  (5D, 7F)
 Centers:       8      9     10     11     12     14     15
 S 4 1.00
     Exponent=  7.5423000000D+01 Coefficients=  2.4065000000D-03
     Exponent=  1.1350000000D+01 Coefficients=  1.8487000000D-02
     Exponent=  2.5993000000D+00 Coefficients=  8.9742000000D-02
     Exponent=  7.3513000000D-01 Coefficients=  2.8111000000D-01
 S 1 1.00
     Exponent=  2.3167000000D-01 Coefficients=  1.0000000000D+00
 S 1 1.00
     Exponent=  7.4147000000D-02 Coefficients=  1.0000000000D+00
 P 1 1.00
     Exponent=  1.6000000000D+00 Coefficients=  1.0000000000D+00
 P 1 1.00
     Exponent=  4.5000000000D-01 Coefficients=  1.0000000000D+00
 D 1 1.00
     Exponent=  1.2500000000D+00 Coefficients=  1.0000000000D+00
 ****
 Centers:       3      4      5      6      7
 S 7 1.00
     Exponent=  7.8571000000D+03 Coefficients=  5.6825000000D-04
     Exponent=  1.1787000000D+03 Coefficients=  4.3915000000D-03
     Exponent=  2.6832000000D+02 Coefficients=  2.2504000000D-02
     Exponent=  7.5948000000D+01 Coefficients=  8.6653000000D-02
     Exponent=  2.4559000000D+01 Coefficients=  2.4405000000D-01
     Exponent=  8.6212000000D+00 Coefficients=  4.4148000000D-01
     Exponent=  3.1278000000D+00 Coefficients=  3.5332000000D-01
 S 7 1.00
     Exponent=  1.1787000000D+03 Coefficients= -5.9492000000D-07
     Exponent=  2.6832000000D+02 Coefficients= -6.2748000000D-05
     Exponent=  7.5948000000D+01 Coefficients= -7.5773000000D-04
     Exponent=  2.4559000000D+01 Coefficients= -7.3308000000D-03
     Exponent=  8.6212000000D+00 Coefficients= -3.8932000000D-02
     Exponent=  3.1278000000D+00 Coefficients= -8.8908000000D-02
     Exponent=  8.2202000000D-01 Coefficients=  2.1689000000D-01
 S 1 1.00
     Exponent=  3.3017000000D-01 Coefficients=  1.0000000000D+00
 S 1 1.00
     Exponent=  1.1463000000D-01 Coefficients=  1.0000000000D+00
 P 4 1.00
     Exponent=  3.3775000000D+01 Coefficients=  6.0294000000D-03
     Exponent=  7.6766000000D+00 Coefficients=  4.3228000000D-02
     Exponent=  2.2357000000D+00 Coefficients=  1.6301000000D-01
     Exponent=  7.6447000000D-01 Coefficients=  3.6504000000D-01
 P 1 1.00
     Exponent=  2.6232000000D-01 Coefficients=  1.0000000000D+00
 P 1 1.00
     Exponent=  8.4638000000D-02 Coefficients=  1.0000000000D+00
 D 1 1.00
     Exponent=  1.4000000000D+00 Coefficients=  1.0000000000D+00
 D 1 1.00
     Exponent=  4.5000000000D-01 Coefficients=  1.0000000000D+00
 F 1 1.00
     Exponent=  9.5000000000D-01 Coefficients=  1.0000000000D+00
 ****
 Centers:       2
 S 7 1.00
     Exponent=  1.1101000000D+04 Coefficients=  5.4570000000D-04
     Exponent=  1.6653000000D+03 Coefficients=  4.2181000000D-03
     Exponent=  3.7908000000D+02 Coefficients=  2.1645000000D-02
     Exponent=  1.0730000000D+02 Coefficients=  8.3776000000D-02
     Exponent=  3.4747000000D+01 Coefficients=  2.3881000000D-01
     Exponent=  1.2249000000D+01 Coefficients=  4.3994000000D-01
     Exponent=  4.4743000000D+00 Coefficients=  3.6364000000D-01
 S 7 1.00
     Exponent=  1.6653000000D+03 Coefficients= -1.5006000000D-06
     Exponent=  3.7908000000D+02 Coefficients= -5.8753000000D-05
     Exponent=  1.0730000000D+02 Coefficients= -7.7453000000D-04
     Exponent=  3.4747000000D+01 Coefficients= -7.2161000000D-03
     Exponent=  1.2249000000D+01 Coefficients= -3.9338000000D-02
     Exponent=  4.4743000000D+00 Coefficients= -9.0611000000D-02
     Exponent=  1.2404000000D+00 Coefficients=  1.9882000000D-01
 S 1 1.00
     Exponent=  4.8743000000D-01 Coefficients=  1.0000000000D+00
 S 1 1.00
     Exponent=  1.6484000000D-01 Coefficients=  1.0000000000D+00
 P 4 1.00
     Exponent=  4.7934000000D+01 Coefficients=  6.1706000000D-03
     Exponent=  1.0999000000D+01 Coefficients=  4.4260000000D-02
     Exponent=  3.2472000000D+00 Coefficients=  1.6825000000D-01
     Exponent=  1.1114000000D+00 Coefficients=  3.6848000000D-01
 P 1 1.00
     Exponent=  3.7988000000D-01 Coefficients=  1.0000000000D+00
 P 1 1.00
     Exponent=  1.2068000000D-01 Coefficients=  1.0000000000D+00
 D 1 1.00
     Exponent=  1.8000000000D+00 Coefficients=  1.0000000000D+00
 D 1 1.00
     Exponent=  5.5000000000D-01 Coefficients=  1.0000000000D+00
 F 1 1.00
     Exponent=  1.0200000000D+00 Coefficients=  1.0000000000D+00
 ****
 Centers:       1     13
 S 7 1.00
     Exponent=  1.4782000000D+04 Coefficients=  5.3519000000D-04
     Exponent=  2.2173000000D+03 Coefficients=  4.1375000000D-03
     Exponent=  5.0474000000D+02 Coefficients=  2.1245000000D-02
     Exponent=  1.4287000000D+02 Coefficients=  8.2453000000D-02
     Exponent=  4.6300000000D+01 Coefficients=  2.3671000000D-01
     Exponent=  1.6337000000D+01 Coefficients=  4.4039000000D-01
     Exponent=  5.9828000000D+00 Coefficients=  3.6465000000D-01
 S 7 1.00
     Exponent=  2.2173000000D+03 Coefficients= -1.9275000000D-06
     Exponent=  5.0474000000D+02 Coefficients= -5.7964000000D-05
     Exponent=  1.4287000000D+02 Coefficients= -7.9494000000D-04
     Exponent=  4.6300000000D+01 Coefficients= -7.3125000000D-03
     Exponent=  1.6337000000D+01 Coefficients= -4.0574000000D-02
     Exponent=  5.9828000000D+00 Coefficients= -9.1594000000D-02
     Exponent=  1.6718000000D+00 Coefficients=  2.0940000000D-01
 S 1 1.00
     Exponent=  6.4662000000D-01 Coefficients=  1.0000000000D+00
 S 1 1.00
     Exponent=  2.1669000000D-01 Coefficients=  1.0000000000D+00
 P 4 1.00
     Exponent=  6.0424000000D+01 Coefficients=  6.8949000000D-03
     Exponent=  1.3935000000D+01 Coefficients=  4.9005000000D-02
     Exponent=  4.1531000000D+00 Coefficients=  1.8255000000D-01
     Exponent=  1.4158000000D+00 Coefficients=  3.7633000000D-01
 P 1 1.00
     Exponent=  4.7549000000D-01 Coefficients=  1.0000000000D+00
 P 1 1.00
     Exponent=  1.4529000000D-01 Coefficients=  1.0000000000D+00
 D 1 1.00
     Exponent=  2.2000000000D+00 Coefficients=  1.0000000000D+00
 D 1 1.00
     Exponent=  6.5000000000D-01 Coefficients=  1.0000000000D+00
 F 1 1.00
     Exponent=  1.1000000000D+00 Coefficients=  1.0000000000D+00
 ****
 Ernie: Thresh=  0.10000D-02 Tol=  0.10000D-05 Strict=F.
 Ernie:  8 primitive shells out of 263 were deleted.
 There are   385 symmetry adapted cartesian basis functions of A   symmetry.
 There are   338 symmetry adapted basis functions of A   symmetry.
   338 basis functions,   566 primitive gaussians,   385 cartesian basis functions
    30 alpha electrons       30 beta electrons
       nuclear repulsion energy       356.8539014902 Hartrees.
 IExCor=  402 DFT=T Ex+Corr=BHandHLYP ExCW=0 ScaHFX=  0.500000
 ScaDFX=  0.500000  0.500000  1.000000  1.000000 ScalE2=  1.000000  1.000000
 IRadAn=      0 IRanWt=     -1 IRanGd=            0 ICorTp=0 IEmpDi=  4
 NAtoms=   15 NActive=   15 NUniq=   15 SFac= 1.00D+00 NAtFMM=   60 NAOKFM=F Big=F
 Integral buffers will be    131072 words long.
 Raffenetti 2 integral format.
 Two-electron integral symmetry is turned on.
 Leave Link  301 at Fri Aug 27 00:39:35 2021, MaxMem= 17179869184 cpu:         1.7
 (Enter /public3/home/sc51754/softwares/g09e01/l302.exe)
 NPDir=0 NMtPBC=     1 NCelOv=     1 NCel=       1 NClECP=     1 NCelD=      1
         NCelK=      1 NCelE2=     1 NClLst=     1 CellRange=     0.0.
 One-electron integrals computed using PRISM.
 NBasis=   338 RedAO= T EigKep=  1.57D-04  NBF=   338
 NBsUse=   338 1.00D-06 EigRej= -1.00D+00 NBFU=   338
 Precomputing XC quadrature grid using
 IXCGrd= 4 IRadAn=           0 IRanWt=          -1 IRanGd=           0 AccXCQ= 0.00D+00.
 Generated NRdTot=       0 NPtTot=           0 NUsed=           0 NTot=          32
 NSgBfM=   385   385   385   385   385 MxSgAt=    15 MxSgA2=    15.
 Leave Link  302 at Fri Aug 27 00:39:36 2021, MaxMem= 17179869184 cpu:        50.7
 (Enter /public3/home/sc51754/softwares/g09e01/l303.exe)
 DipDrv:  MaxL=1.
 Leave Link  303 at Fri Aug 27 00:39:36 2021, MaxMem= 17179869184 cpu:        14.5
 (Enter /public3/home/sc51754/softwares/g09e01/l401.exe)
 ExpMin= 7.41D-02 ExpMax= 1.48D+04 ExpMxC= 5.05D+02 IAcc=2 IRadAn=         4 AccDes= 0.00D+00
 Harris functional with IExCor=  402 and IRadAn=       4 diagonalized for initial guess.
 HarFok:  IExCor=  402 AccDes= 0.00D+00 IRadAn=         4 IDoV= 1 UseB2=F ITyADJ=14
 ICtDFT=  3500011 ScaDFX=  1.000000  1.000000  1.000000  1.000000
 FoFCou: FMM=F IPFlag=           0 FMFlag=      100000 FMFlg1=           0
         NFxFlg=           0 DoJE=T BraDBF=F KetDBF=T FulRan=T
         wScrn=  0.000000 ICntrl=     500 IOpCl=  0 I1Cent=   200000004 NGrid=           0
         NMat0=    1 NMatS0=      1 NMatT0=    0 NMatD0=    1 NMtDS0=    0 NMtDT0=    0
 Petite list used in FoFCou.
 Harris En= -400.202621339576    
 JPrj=0 DoOrth=F DoCkMO=F.
 Leave Link  401 at Fri Aug 27 00:39:37 2021, MaxMem= 17179869184 cpu:        52.6
 (Enter /public3/home/sc51754/softwares/g09e01/l502.exe)
 Closed shell SCF:
 Using DIIS extrapolation, IDIIS=  1040.
 Integral symmetry usage will be decided dynamically.
 Keep R1 ints in memory in canonical form, NReq=1670404686.
 IVT=      490665 IEndB=      490665 NGot= 17179869184 MDV= 15538220534
 LenX= 15538220534 LenY= 15538071868
 Requested convergence on RMS density matrix=1.00D-08 within 128 cycles.
 Requested convergence on MAX density matrix=1.00D-06.
 Requested convergence on             energy=1.00D-06.
 No special actions if energy rises.
 FoFCou: FMM=F IPFlag=           0 FMFlag=           0 FMFlg1=           0
         NFxFlg=           0 DoJE=F BraDBF=F KetDBF=F FulRan=T
         wScrn=  0.000000 ICntrl=     600 IOpCl=  0 I1Cent=           0 NGrid=           0
         NMat0=    1 NMatS0=  57291 NMatT0=    0 NMatD0=    1 NMtDS0=    0 NMtDT0=    0
 Symmetry not used in FoFCou.
 Integral accuracy reduced to 1.0D-05 until final iterations.

 Cycle   1  Pass 0  IDiag  1:
 E= -399.605449802173    
 DIIS: error= 3.53D-02 at cycle   1 NSaved=   1.
 NSaved= 1 IEnMin= 1 EnMin= -399.605449802173     IErMin= 1 ErrMin= 3.53D-02
 ErrMax= 3.53D-02  0.00D+00 EMaxC= 1.00D-01 BMatC= 4.01D-01 BMatP= 4.01D-01
 IDIUse=3 WtCom= 6.47D-01 WtEn= 3.53D-01
 Coeff-Com:  0.100D+01
 Coeff-En:   0.100D+01
 Coeff:      0.100D+01
 Gap=     0.244 Goal=   None    Shift=    0.000
 GapD=    0.244 DampG=1.000 DampE=0.500 DampFc=0.5000 IDamp=-1.
 Damping current iteration by 5.00D-01
 RMSDP=2.48D-03 MaxDP=1.30D-01              OVMax= 2.14D-01

 Cycle   2  Pass 0  IDiag  1:
 E= -399.744146428755     Delta-E=       -0.138696626582 Rises=F Damp=T
 DIIS: error= 9.08D-03 at cycle   2 NSaved=   2.
 NSaved= 2 IEnMin= 2 EnMin= -399.744146428755     IErMin= 2 ErrMin= 9.08D-03
 ErrMax= 9.08D-03  0.00D+00 EMaxC= 1.00D-01 BMatC= 2.84D-02 BMatP= 4.01D-01
 IDIUse=3 WtCom= 9.09D-01 WtEn= 9.08D-02
 Coeff-Com: -0.153D-01 0.102D+01
 Coeff-En:   0.000D+00 0.100D+01
 Coeff:     -0.139D-01 0.101D+01
 Gap=     0.318 Goal=   None    Shift=    0.000
 RMSDP=6.47D-04 MaxDP=3.56D-02 DE=-1.39D-01 OVMax= 1.17D-01

 Cycle   3  Pass 0  IDiag  1:
 E= -399.889904920855     Delta-E=       -0.145758492100 Rises=F Damp=F
 DIIS: error= 6.33D-03 at cycle   3 NSaved=   3.
 NSaved= 3 IEnMin= 3 EnMin= -399.889904920855     IErMin= 3 ErrMin= 6.33D-03
 ErrMax= 6.33D-03  0.00D+00 EMaxC= 1.00D-01 BMatC= 1.32D-02 BMatP= 2.84D-02
 IDIUse=3 WtCom= 9.37D-01 WtEn= 6.33D-02
 Coeff-Com: -0.761D-01 0.404D+00 0.672D+00
 Coeff-En:   0.000D+00 0.000D+00 0.100D+01
 Coeff:     -0.713D-01 0.378D+00 0.693D+00
 Gap=     0.259 Goal=   None    Shift=    0.000
 RMSDP=2.92D-04 MaxDP=1.71D-02 DE=-1.46D-01 OVMax= 4.49D-02

 Cycle   4  Pass 0  IDiag  1:
 E= -399.897805481155     Delta-E=       -0.007900560299 Rises=F Damp=F
 DIIS: error= 2.55D-03 at cycle   4 NSaved=   4.
 NSaved= 4 IEnMin= 4 EnMin= -399.897805481155     IErMin= 4 ErrMin= 2.55D-03
 ErrMax= 2.55D-03  0.00D+00 EMaxC= 1.00D-01 BMatC= 3.03D-03 BMatP= 1.32D-02
 IDIUse=3 WtCom= 9.74D-01 WtEn= 2.55D-02
 Coeff-Com: -0.339D-01 0.752D-01 0.367D+00 0.591D+00
 Coeff-En:   0.000D+00 0.000D+00 0.172D+00 0.828D+00
 Coeff:     -0.330D-01 0.733D-01 0.362D+00 0.597D+00
 Gap=     0.261 Goal=   None    Shift=    0.000
 RMSDP=1.13D-04 MaxDP=6.42D-03 DE=-7.90D-03 OVMax= 1.27D-02

 Cycle   5  Pass 0  IDiag  1:
 E= -399.900182610227     Delta-E=       -0.002377129072 Rises=F Damp=F
 DIIS: error= 5.60D-04 at cycle   5 NSaved=   5.
 NSaved= 5 IEnMin= 5 EnMin= -399.900182610227     IErMin= 5 ErrMin= 5.60D-04
 ErrMax= 5.60D-04  0.00D+00 EMaxC= 1.00D-01 BMatC= 1.22D-04 BMatP= 3.03D-03
 IDIUse=3 WtCom= 9.94D-01 WtEn= 5.60D-03
 Coeff-Com: -0.989D-02 0.768D-02 0.115D+00 0.257D+00 0.630D+00
 Coeff-En:   0.000D+00 0.000D+00 0.000D+00 0.000D+00 0.100D+01
 Coeff:     -0.983D-02 0.764D-02 0.115D+00 0.255D+00 0.633D+00
 Gap=     0.260 Goal=   None    Shift=    0.000
 RMSDP=2.51D-05 MaxDP=1.40D-03 DE=-2.38D-03 OVMax= 3.80D-03

 Cycle   6  Pass 0  IDiag  1:
 E= -399.900272520716     Delta-E=       -0.000089910490 Rises=F Damp=F
 DIIS: error= 1.33D-04 at cycle   6 NSaved=   6.
 NSaved= 6 IEnMin= 6 EnMin= -399.900272520716     IErMin= 6 ErrMin= 1.33D-04
 ErrMax= 1.33D-04  0.00D+00 EMaxC= 1.00D-01 BMatC= 9.89D-06 BMatP= 1.22D-04
 IDIUse=3 WtCom= 9.99D-01 WtEn= 1.33D-03
 Coeff-Com: -0.118D-02-0.268D-02 0.165D-01 0.503D-01 0.257D+00 0.680D+00
 Coeff-En:   0.000D+00 0.000D+00 0.000D+00 0.000D+00 0.000D+00 0.100D+01
 Coeff:     -0.118D-02-0.267D-02 0.164D-01 0.502D-01 0.257D+00 0.681D+00
 Gap=     0.261 Goal=   None    Shift=    0.000
 RMSDP=7.94D-06 MaxDP=2.94D-04 DE=-8.99D-05 OVMax= 1.23D-03

 Initial convergence to 1.0D-05 achieved.  Increase integral accuracy.
 Cycle   7  Pass 1  IDiag  1:
 E= -399.900308571682     Delta-E=       -0.000036050966 Rises=F Damp=F
 DIIS: error= 5.39D-05 at cycle   1 NSaved=   1.
 NSaved= 1 IEnMin= 1 EnMin= -399.900308571682     IErMin= 1 ErrMin= 5.39D-05
 ErrMax= 5.39D-05  0.00D+00 EMaxC= 1.00D-01 BMatC= 7.29D-07 BMatP= 7.29D-07
 IDIUse=1 WtCom= 1.00D+00 WtEn= 0.00D+00
 Coeff-Com:  0.100D+01
 Coeff:      0.100D+01
 Gap=     0.261 Goal=   None    Shift=    0.000
 RMSDP=7.94D-06 MaxDP=2.94D-04 DE=-3.61D-05 OVMax= 8.64D-04

 Cycle   8  Pass 1  IDiag  1:
 E= -399.900309730751     Delta-E=       -0.000001159068 Rises=F Damp=F
 DIIS: error= 5.09D-05 at cycle   2 NSaved=   2.
 NSaved= 2 IEnMin= 2 EnMin= -399.900309730751     IErMin= 2 ErrMin= 5.09D-05
 ErrMax= 5.09D-05  0.00D+00 EMaxC= 1.00D-01 BMatC= 4.81D-07 BMatP= 7.29D-07
 IDIUse=1 WtCom= 1.00D+00 WtEn= 0.00D+00
 Coeff-Com:  0.433D+00 0.567D+00
 Coeff:      0.433D+00 0.567D+00
 Gap=     0.261 Goal=   None    Shift=    0.000
 RMSDP=1.85D-06 MaxDP=1.44D-04 DE=-1.16D-06 OVMax= 4.08D-04

 Cycle   9  Pass 1  IDiag  1:
 E= -399.900310263727     Delta-E=       -0.000000532977 Rises=F Damp=F
 DIIS: error= 1.82D-05 at cycle   3 NSaved=   3.
 NSaved= 3 IEnMin= 3 EnMin= -399.900310263727     IErMin= 3 ErrMin= 1.82D-05
 ErrMax= 1.82D-05  0.00D+00 EMaxC= 1.00D-01 BMatC= 8.47D-08 BMatP= 4.81D-07
 IDIUse=1 WtCom= 1.00D+00 WtEn= 0.00D+00
 Coeff-Com: -0.182D+00 0.191D+00 0.992D+00
 Coeff:     -0.182D+00 0.191D+00 0.992D+00
 Gap=     0.261 Goal=   None    Shift=    0.000
 RMSDP=1.39D-06 MaxDP=6.27D-05 DE=-5.33D-07 OVMax= 2.99D-04

 Cycle  10  Pass 1  IDiag  1:
 E= -399.900310424070     Delta-E=       -0.000000160343 Rises=F Damp=F
 DIIS: error= 7.40D-06 at cycle   4 NSaved=   4.
 NSaved= 4 IEnMin= 4 EnMin= -399.900310424070     IErMin= 4 ErrMin= 7.40D-06
 ErrMax= 7.40D-06  0.00D+00 EMaxC= 1.00D-01 BMatC= 8.58D-09 BMatP= 8.47D-08
 IDIUse=1 WtCom= 1.00D+00 WtEn= 0.00D+00
 Coeff-Com: -0.137D+00 0.210D-01 0.386D+00 0.730D+00
 Coeff:     -0.137D+00 0.210D-01 0.386D+00 0.730D+00
 Gap=     0.261 Goal=   None    Shift=    0.000
 RMSDP=4.20D-07 MaxDP=2.19D-05 DE=-1.60D-07 OVMax= 1.05D-04

 Cycle  11  Pass 1  IDiag  1:
 E= -399.900310438249     Delta-E=       -0.000000014179 Rises=F Damp=F
 DIIS: error= 1.75D-06 at cycle   5 NSaved=   5.
 NSaved= 5 IEnMin= 5 EnMin= -399.900310438249     IErMin= 5 ErrMin= 1.75D-06
 ErrMax= 1.75D-06  0.00D+00 EMaxC= 1.00D-01 BMatC= 1.60D-09 BMatP= 8.58D-09
 IDIUse=1 WtCom= 1.00D+00 WtEn= 0.00D+00
 Coeff-Com: -0.339D-01-0.122D-01 0.226D-01 0.335D+00 0.688D+00
 Coeff:     -0.339D-01-0.122D-01 0.226D-01 0.335D+00 0.688D+00
 Gap=     0.261 Goal=   None    Shift=    0.000
 RMSDP=1.31D-07 MaxDP=6.11D-06 DE=-1.42D-08 OVMax= 1.82D-05

 Cycle  12  Pass 1  IDiag  1:
 E= -399.900310439759     Delta-E=       -0.000000001510 Rises=F Damp=F
 DIIS: error= 6.29D-07 at cycle   6 NSaved=   6.
 NSaved= 6 IEnMin= 6 EnMin= -399.900310439759     IErMin= 6 ErrMin= 6.29D-07
 ErrMax= 6.29D-07  0.00D+00 EMaxC= 1.00D-01 BMatC= 1.45D-10 BMatP= 1.60D-09
 IDIUse=1 WtCom= 1.00D+00 WtEn= 0.00D+00
 Coeff-Com:  0.273D-02-0.599D-02-0.376D-01 0.702D-01 0.286D+00 0.685D+00
 Coeff:      0.273D-02-0.599D-02-0.376D-01 0.702D-01 0.286D+00 0.685D+00
 Gap=     0.261 Goal=   None    Shift=    0.000
 RMSDP=4.12D-08 MaxDP=2.21D-06 DE=-1.51D-09 OVMax= 8.84D-06

 Cycle  13  Pass 1  IDiag  1:
 E= -399.900310439906     Delta-E=       -0.000000000147 Rises=F Damp=F
 DIIS: error= 2.14D-07 at cycle   7 NSaved=   7.
 NSaved= 7 IEnMin= 7 EnMin= -399.900310439906     IErMin= 7 ErrMin= 2.14D-07
 ErrMax= 2.14D-07  0.00D+00 EMaxC= 1.00D-01 BMatC= 2.40D-11 BMatP= 1.45D-10
 IDIUse=1 WtCom= 1.00D+00 WtEn= 0.00D+00
 Coeff-Com:  0.556D-02-0.194D-02-0.217D-01-0.117D-01 0.141D-01 0.301D+00
 Coeff-Com:  0.715D+00
 Coeff:      0.556D-02-0.194D-02-0.217D-01-0.117D-01 0.141D-01 0.301D+00
 Coeff:      0.715D+00
 Gap=     0.261 Goal=   None    Shift=    0.000
 RMSDP=1.69D-08 MaxDP=5.84D-07 DE=-1.47D-10 OVMax= 2.85D-06

 Cycle  14  Pass 1  IDiag  1:
 E= -399.900310439919     Delta-E=       -0.000000000012 Rises=F Damp=F
 DIIS: error= 7.02D-08 at cycle   8 NSaved=   8.
 NSaved= 8 IEnMin= 8 EnMin= -399.900310439919     IErMin= 8 ErrMin= 7.02D-08
 ErrMax= 7.02D-08  0.00D+00 EMaxC= 1.00D-01 BMatC= 1.20D-12 BMatP= 2.40D-11
 IDIUse=1 WtCom= 1.00D+00 WtEn= 0.00D+00
 Coeff-Com:  0.900D-03 0.241D-04-0.153D-02-0.474D-02-0.234D-01 0.143D-01
 Coeff-Com:  0.179D+00 0.835D+00
 Coeff:      0.900D-03 0.241D-04-0.153D-02-0.474D-02-0.234D-01 0.143D-01
 Coeff:      0.179D+00 0.835D+00
 Gap=     0.261 Goal=   None    Shift=    0.000
 RMSDP=4.04D-09 MaxDP=2.16D-07 DE=-1.24D-11 OVMax= 7.39D-07

 SCF Done:  E(RBHandHLYP) =  -399.900310440     A.U. after   14 cycles
            NFock= 14  Conv=0.40D-08     -V/T= 2.0040
 KE= 3.983146984530D+02 PE=-1.649183593946D+03 EE= 4.941146835626D+02
 Leave Link  502 at Fri Aug 27 00:39:59 2021, MaxMem= 17179869184 cpu:       345.3
 (Enter /public3/home/sc51754/softwares/g09e01/l601.exe)
 Copying SCF densities to generalized density rwf, IOpCl= 0 IROHF=0.

 **********************************************************************

            Population analysis using the SCF density.

 **********************************************************************

 Orbital symmetries:
       Occupied  (A) (A) (A) (A) (A) (A) (A) (A) (A) (A) (A) (A)
                 (A) (A) (A) (A) (A) (A) (A) (A) (A) (A) (A) (A)
                 (A) (A) (A) (A) (A) (A)
       Virtual   (A) (A) (A) (A) (A) (A) (A) (A) (A) (A) (A) (A)
                 (A) (A) (A) (A) (A) (A) (A) (A) (A) (A) (A) (A)
                 (A) (A) (A) (A) (A) (A) (A) (A) (A) (A) (A) (A)
                 (A) (A) (A) (A) (A) (A) (A) (A) (A) (A) (A) (A)
                 (A) (A) (A) (A) (A) (A) (A) (A) (A) (A) (A) (A)
                 (A) (A) (A) (A) (A) (A) (A) (A) (A) (A) (A) (A)
                 (A) (A) (A) (A) (A) (A) (A) (A) (A) (A) (A) (A)
                 (A) (A) (A) (A) (A) (A) (A) (A) (A) (A) (A) (A)
                 (A) (A) (A) (A) (A) (A) (A) (A) (A) (A) (A) (A)
                 (A) (A) (A) (A) (A) (A) (A) (A) (A) (A) (A) (A)
                 (A) (A) (A) (A) (A) (A) (A) (A) (A) (A) (A) (A)
                 (A) (A) (A) (A) (A) (A) (A) (A) (A) (A) (A) (A)
                 (A) (A) (A) (A) (A) (A) (A) (A) (A) (A) (A) (A)
                 (A) (A) (A) (A) (A) (A) (A) (A) (A) (A) (A) (A)
                 (A) (A) (A) (A) (A) (A) (A) (A) (A) (A) (A) (A)
                 (A) (A) (A) (A) (A) (A) (A) (A) (A) (A) (A) (A)
                 (A) (A) (A) (A) (A) (A) (A) (A) (A) (A) (A) (A)
                 (A) (A) (A) (A) (A) (A) (A) (A) (A) (A) (A) (A)
                 (A) (A) (A) (A) (A) (A) (A) (A) (A) (A) (A) (A)
                 (A) (A) (A) (A) (A) (A) (A) (A) (A) (A) (A) (A)
                 (A) (A) (A) (A) (A) (A) (A) (A) (A) (A) (A) (A)
                 (A) (A) (A) (A) (A) (A) (A) (A) (A) (A) (A) (A)
                 (A) (A) (A) (A) (A) (A) (A) (A) (A) (A) (A) (A)
                 (A) (A) (A) (A) (A) (A) (A) (A) (A) (A) (A) (A)
                 (A) (A) (A) (A) (A) (A) (A) (A) (A) (A) (A) (A)
                 (A) (A) (A) (A) (A) (A) (A) (A)
 The electronic state is 1-A.
 Alpha  occ. eigenvalues --  -19.66547 -19.64059 -14.85939 -10.70215 -10.65881
 Alpha  occ. eigenvalues --  -10.62240 -10.60006 -10.59772  -1.18196  -1.13229
 Alpha  occ. eigenvalues --   -1.09333  -0.94583  -0.87850  -0.75984  -0.73918
 Alpha  occ. eigenvalues --   -0.65236  -0.61096  -0.59283  -0.56900  -0.54723
 Alpha  occ. eigenvalues --   -0.52095  -0.51860  -0.47177  -0.46539  -0.44894
 Alpha  occ. eigenvalues --   -0.41694  -0.38955  -0.36872  -0.34143  -0.27532
 Alpha virt. eigenvalues --   -0.01472   0.03675   0.04029   0.05326   0.06253
 Alpha virt. eigenvalues --    0.07914   0.09951   0.12990   0.15094   0.16578
 Alpha virt. eigenvalues --    0.17183   0.18531   0.19160   0.20893   0.21844
 Alpha virt. eigenvalues --    0.22204   0.23367   0.24880   0.25989   0.28815
 Alpha virt. eigenvalues --    0.29921   0.31739   0.31858   0.32253   0.32789
 Alpha virt. eigenvalues --    0.33625   0.34982   0.35758   0.37883   0.38861
 Alpha virt. eigenvalues --    0.40066   0.40960   0.41779   0.43994   0.44508
 Alpha virt. eigenvalues --    0.45666   0.46763   0.49296   0.50671   0.53159
 Alpha virt. eigenvalues --    0.54204   0.56649   0.57120   0.59203   0.60360
 Alpha virt. eigenvalues --    0.62017   0.65480   0.68522   0.69041   0.69274
 Alpha virt. eigenvalues --    0.72347   0.72950   0.77055   0.80258   0.81745
 Alpha virt. eigenvalues --    0.82614   0.85096   0.87200   0.87609   0.90844
 Alpha virt. eigenvalues --    0.93417   0.95575   0.98122   0.98699   0.99326
 Alpha virt. eigenvalues --    1.01586   1.04548   1.06573   1.08050   1.11434
 Alpha virt. eigenvalues --    1.13803   1.14014   1.16016   1.18934   1.19562
 Alpha virt. eigenvalues --    1.20803   1.21764   1.23667   1.24046   1.26725
 Alpha virt. eigenvalues --    1.27466   1.29428   1.31854   1.33439   1.34046
 Alpha virt. eigenvalues --    1.34280   1.36957   1.40185   1.42528   1.46018
 Alpha virt. eigenvalues --    1.47892   1.48856   1.49560   1.52663   1.54033
 Alpha virt. eigenvalues --    1.54861   1.55526   1.56005   1.58897   1.60936
 Alpha virt. eigenvalues --    1.64812   1.66907   1.68468   1.73248   1.73892
 Alpha virt. eigenvalues --    1.74886   1.75994   1.76266   1.81268   1.81671
 Alpha virt. eigenvalues --    1.86875   1.87792   1.89763   1.94481   1.95083
 Alpha virt. eigenvalues --    1.97487   1.98353   2.00226   2.02174   2.05673
 Alpha virt. eigenvalues --    2.10509   2.11777   2.12256   2.16272   2.16621
 Alpha virt. eigenvalues --    2.20269   2.22468   2.25822   2.26366   2.30946
 Alpha virt. eigenvalues --    2.32191   2.32811   2.34200   2.37223   2.41224
 Alpha virt. eigenvalues --    2.42081   2.54393   2.62925   2.64795   2.73259
 Alpha virt. eigenvalues --    2.79277   2.96940   3.01300   3.03826   3.05657
 Alpha virt. eigenvalues --    3.06279   3.13380   3.28162   3.31182   3.31511
 Alpha virt. eigenvalues --    3.33171   3.35245   3.36179   3.39985   3.42188
 Alpha virt. eigenvalues --    3.44053   3.46479   3.49528   3.53083   3.53695
 Alpha virt. eigenvalues --    3.57544   3.58719   3.61932   3.65573   3.66416
 Alpha virt. eigenvalues --    3.68190   3.70248   3.75459   3.75701   3.77470
 Alpha virt. eigenvalues --    3.78814   3.79606   3.83223   3.83444   3.87550
 Alpha virt. eigenvalues --    3.91161   3.96034   3.98540   4.01847   4.02082
 Alpha virt. eigenvalues --    4.05285   4.05854   4.06765   4.08221   4.10346
 Alpha virt. eigenvalues --    4.13846   4.15055   4.17241   4.18167   4.19490
 Alpha virt. eigenvalues --    4.20317   4.21597   4.23924   4.25822   4.27432
 Alpha virt. eigenvalues --    4.28912   4.29613   4.32609   4.33019   4.34040
 Alpha virt. eigenvalues --    4.35483   4.36669   4.38419   4.39220   4.41147
 Alpha virt. eigenvalues --    4.41340   4.43884   4.44099   4.45100   4.45317
 Alpha virt. eigenvalues --    4.47264   4.48964   4.51756   4.53589   4.56104
 Alpha virt. eigenvalues --    4.57026   4.58138   4.58903   4.59797   4.60574
 Alpha virt. eigenvalues --    4.62798   4.63655   4.65821   4.66318   4.69866
 Alpha virt. eigenvalues --    4.70488   4.70556   4.74086   4.74657   4.77649
 Alpha virt. eigenvalues --    4.80466   4.82348   4.84931   4.89638   4.94013
 Alpha virt. eigenvalues --    4.96375   4.98553   5.00073   5.01125   5.04384
 Alpha virt. eigenvalues --    5.05192   5.07712   5.08006   5.09366   5.11322
 Alpha virt. eigenvalues --    5.14253   5.19120   5.22241   5.26483   5.30434
 Alpha virt. eigenvalues --    5.32390   5.36502   5.38061   5.43099   5.44633
 Alpha virt. eigenvalues --    5.46745   5.47943   5.53154   5.53525   5.54688
 Alpha virt. eigenvalues --    5.60460   5.60908   5.67192   5.69169   5.70716
 Alpha virt. eigenvalues --    5.72486   5.75820   5.82243   5.83325   5.85632
 Alpha virt. eigenvalues --    5.89825   5.93695   5.98593   6.04673   6.08601
 Alpha virt. eigenvalues --    6.09255   6.12034   6.17320   6.22744   6.24157
 Alpha virt. eigenvalues --    6.26364   6.32792   6.35939   6.40205   6.41563
 Alpha virt. eigenvalues --    6.45692   6.48327   6.54633   6.59327   6.66176
 Alpha virt. eigenvalues --    6.68802   6.70887   6.77163   6.95957   7.06955
 Alpha virt. eigenvalues --    7.12632   7.16435   7.27712   7.38036   7.59841
 Alpha virt. eigenvalues --    9.67458  12.50908  13.38890  14.94236  15.61596
 Alpha virt. eigenvalues --   18.25282  18.62442  23.08964
          Condensed to atoms (all electrons):
               1          2          3          4          5          6
     1  O    8.216890  -0.101641   0.531776  -0.058984   0.008557   0.005537
     2  N   -0.101641   6.388779   0.394254  -0.042563   0.388434  -0.020070
     3  C    0.531776   0.394254   4.227348   0.474506  -0.040995  -0.042121
     4  C   -0.058984  -0.042563   0.474506   4.846345  -0.031173   0.574296
     5  C    0.008557   0.388434  -0.040995  -0.031173   4.518422  -0.083060
     6  C    0.005537  -0.020070  -0.042121   0.574296  -0.083060   4.652635
     7  C    0.001871  -0.057268  -0.023818  -0.072117   0.631028   0.469435
     8  H    0.028920   0.001511  -0.002352   0.000500   0.001503  -0.000189
     9  H    0.003279   0.004547  -0.033515   0.444611  -0.000290  -0.030280
    10  H   -0.000615  -0.035789   0.002161  -0.002941   0.430444   0.006846
    11  H   -0.000407  -0.001979   0.005862  -0.028770   0.007059   0.426935
    12  H    0.000025   0.005204  -0.000855   0.004839  -0.025644  -0.028182
    13  O   -0.035641  -0.029182   0.001097  -0.000136  -0.003597   0.000124
    14  H    0.002717   0.000475   0.000511   0.000091   0.000001  -0.000013
    15  H    0.000783   0.405372  -0.019827   0.005407  -0.022371  -0.002319
               7          8          9         10         11         12
     1  O    0.001871   0.028920   0.003279  -0.000615  -0.000407   0.000025
     2  N   -0.057268   0.001511   0.004547  -0.035789  -0.001979   0.005204
     3  C   -0.023818  -0.002352  -0.033515   0.002161   0.005862  -0.000855
     4  C   -0.072117   0.000500   0.444611  -0.002941  -0.028770   0.004839
     5  C    0.631028   0.001503  -0.000290   0.430444   0.007059  -0.025644
     6  C    0.469435  -0.000189  -0.030280   0.006846   0.426935  -0.028182
     7  C    4.811009  -0.000020   0.005366  -0.032626  -0.037485   0.437213
     8  H   -0.000020   0.384406   0.000125   0.000113   0.000001  -0.000008
     9  H    0.005366   0.000125   0.571441   0.000211  -0.006247  -0.000112
    10  H   -0.032626   0.000113   0.000211   0.589648  -0.000258  -0.003064
    11  H   -0.037485   0.000001  -0.006247  -0.000258   0.596267  -0.005358
    12  H    0.437213  -0.000008  -0.000112  -0.003064  -0.005358   0.585686
    13  O   -0.000136   0.346515   0.000012  -0.000616  -0.000002   0.000017
    14  H    0.000024  -0.019430  -0.000002  -0.000033   0.000000   0.000000
    15  H    0.003944  -0.007934  -0.000350  -0.007127   0.000168   0.000013
              13         14         15
     1  O   -0.035641   0.002717   0.000783
     2  N   -0.029182   0.000475   0.405372
     3  C    0.001097   0.000511  -0.019827
     4  C   -0.000136   0.000091   0.005407
     5  C   -0.003597   0.000001  -0.022371
     6  C    0.000124  -0.000013  -0.002319
     7  C   -0.000136   0.000024   0.003944
     8  H    0.346515  -0.019430  -0.007934
     9  H    0.000012  -0.000002  -0.000350
    10  H   -0.000616  -0.000033  -0.007127
    11  H   -0.000002   0.000000   0.000168
    12  H    0.000017   0.000000   0.000013
    13  O    7.823108   0.357021   0.040578
    14  H    0.357021   0.442588  -0.002743
    15  H    0.040578  -0.002743   0.426251
 Mulliken charges:
               1
     1  O   -0.603067
     2  N   -0.300085
     3  C    0.525968
     4  C   -0.113910
     5  C    0.221681
     6  C    0.070426
     7  C   -0.136418
     8  H    0.266338
     9  H    0.041204
    10  H    0.053644
    11  H    0.044213
    12  H    0.030226
    13  O   -0.499164
    14  H    0.218792
    15  H    0.180153
 Sum of Mulliken charges =  -0.00000
 Mulliken charges with hydrogens summed into heavy atoms:
               1
     1  O   -0.603067
     2  N   -0.119932
     3  C    0.525968
     4  C   -0.072707
     5  C    0.275325
     6  C    0.114639
     7  C   -0.106192
    13  O   -0.014034
 Electronic spatial extent (au):  <R**2>=           1080.2711
 Charge=             -0.0000 electrons
 Dipole moment (field-independent basis, Debye):
    X=             -2.6946    Y=             -2.3022    Z=              1.1508  Tot=              3.7263
 Quadrupole moment (field-independent basis, Debye-Ang):
   XX=            -41.3850   YY=            -45.7657   ZZ=            -50.0230
   XY=             -2.3285   XZ=              4.8883   YZ=             -0.9089
 Traceless Quadrupole moment (field-independent basis, Debye-Ang):
   XX=              4.3396   YY=             -0.0411   ZZ=             -4.2984
   XY=             -2.3285   XZ=              4.8883   YZ=             -0.9089
 Octapole moment (field-independent basis, Debye-Ang**2):
  XXX=             22.7734  YYY=            -12.9806  ZZZ=              0.7789  XYY=             -6.8616
  XXY=              0.7025  XXZ=             19.1953  XZZ=             11.8092  YZZ=              0.5730
  YYZ=              0.6283  XYZ=             -3.3876
 Hexadecapole moment (field-independent basis, Debye-Ang**3):
 XXXX=           -759.1384 YYYY=           -348.8361 ZZZZ=            -54.9288 XXXY=             -5.7646
 XXXZ=             77.8101 YYYX=            -13.9575 YYYZ=             -0.9223 ZZZX=              3.7615
 ZZZY=             -0.5992 XXYY=           -219.9127 XXZZ=           -175.6231 YYZZ=            -78.0368
 XXYZ=            -13.0116 YYXZ=              2.8930 ZZXY=             -2.5816
 N-N= 3.568539014902D+02 E-N=-1.649183585191D+03  KE= 3.983146984530D+02
 No NMR shielding tensors so no spin-rotation constants.
 Leave Link  601 at Fri Aug 27 00:40:01 2021, MaxMem= 17179869184 cpu:        58.0
 (Enter /public3/home/sc51754/softwares/g09e01/l701.exe)
 Compute integral first derivatives.
 ... and contract with generalized density number  0.
 Leave Link  701 at Fri Aug 27 00:40:02 2021, MaxMem= 17179869184 cpu:        71.5
 (Enter /public3/home/sc51754/softwares/g09e01/l702.exe)
 L702 exits ... SP integral derivatives will be done elsewhere.
 Leave Link  702 at Fri Aug 27 00:40:02 2021, MaxMem= 17179869184 cpu:         0.4
 (Enter /public3/home/sc51754/softwares/g09e01/l703.exe)
 Compute integral first derivatives, UseDBF=F ICtDFT=           0.
 Integral derivatives from FoFJK, PRISM(SPDF).
 Calling FoFJK, ICntrl=      2127 FMM=F ISym2X=0 I1Cent= 0 IOpClX= 0 NMat=1 NMatS=1 NMatT=0.
 FoFJK:  IHMeth= 1 ICntrl=    2127 DoSepK=F KAlg= 0 I1Cent=   0 FoldK=F
 IRaf=         0 NMat=   1 IRICut=       1 DoRegI=T DoRafI=F ISym2E= 0.
 FoFCou: FMM=F IPFlag=           0 FMFlag=      100000 FMFlg1=         800
         NFxFlg=           0 DoJE=F BraDBF=F KetDBF=F FulRan=T
         wScrn=  0.000000 ICntrl=    2127 IOpCl=  0 I1Cent=           0 NGrid=           0
         NMat0=    1 NMatS0=      1 NMatT0=    0 NMatD0=    1 NMtDS0=    0 NMtDT0=    0
 Symmetry not used in FoFCou.
 Leave Link  703 at Fri Aug 27 00:40:05 2021, MaxMem= 17179869184 cpu:       191.0
 (Enter /public3/home/sc51754/softwares/g09e01/l716.exe)
 Dipole        =-1.06013790D+00-9.05766135D-01 4.52769702D-01
 ***** Axes restored to original set *****
 -------------------------------------------------------------------
 Center     Atomic                   Forces (Hartrees/Bohr)
 Number     Number              X              Y              Z
 -------------------------------------------------------------------
      1        8          -0.019832147   -0.013283861    0.000198287
      2        7           0.001668567    0.005586094    0.000130097
      3        6           0.011744164   -0.000993746   -0.000006073
      4        6          -0.004537923   -0.003307102   -0.000084034
      5        6          -0.004094440    0.007066650   -0.000023890
      6        6           0.007494120    0.003900221    0.000036751
      7        6           0.007249238   -0.004073677    0.000020722
      8        1           0.005390567   -0.011453809   -0.001026879
      9        1           0.000381103   -0.005874400    0.000007857
     10        1          -0.001057079    0.005838387   -0.000013714
     11        1           0.005468991   -0.002201801    0.000034590
     12        1           0.004651038    0.003400023    0.000027117
     13        8           0.002862454    0.011847365    0.009287097
     14        1          -0.009127859    0.000050219   -0.008201712
     15        1          -0.008260794    0.003499436   -0.000386215
 -------------------------------------------------------------------
 Cartesian Forces:  Max     0.019832147 RMS     0.006230097
 Leave Link  716 at Fri Aug 27 00:40:05 2021, MaxMem= 17179869184 cpu:         0.3
 (Enter /public3/home/sc51754/softwares/g09e01/l103.exe)

 GradGradGradGradGradGradGradGradGradGradGradGradGradGradGradGradGradGrad
 Berny optimization.
 FormGI is forming the generalized inverse of G from B-inverse, IUseBI=4.
 Internal  Forces:  Max     0.022638712 RMS     0.005156101
 Search for a local minimum.
 Step number   1 out of a maximum of   83
 All quantities printed in internal units (Hartrees-Bohrs-Radians)
 RMS Force = .51561D-02 SwitMx=.10000D-02 MixMth= 1
 Mixed Optimization -- RFO/linear search
 Second derivative matrix not updated -- first step.
 ITU=  0
     Eigenvalues ---    0.00646   0.00900   0.01671   0.02019   0.02045
     Eigenvalues ---    0.02138   0.02190   0.02305   0.02392   0.02435
     Eigenvalues ---    0.02516   0.04986   0.06334   0.06909   0.09520
     Eigenvalues ---    0.16000   0.16000   0.16000   0.16000   0.19047
     Eigenvalues ---    0.20437   0.21968   0.22000   0.22256   0.23654
     Eigenvalues ---    0.35693   0.35983   0.36053   0.36229   0.38136
     Eigenvalues ---    0.40185   0.42590   0.44184   0.49041   0.49982
     Eigenvalues ---    0.52121   0.53321   0.55542   0.84771
 RFO step:  Lambda=-3.56970792D-03 EMin= 6.46442552D-03
 Linear search not attempted -- first point.
 Iteration  1 RMS(Cart)=  0.01720938 RMS(Int)=  0.00001717
 Iteration  2 RMS(Cart)=  0.00001683 RMS(Int)=  0.00000579
 Iteration  3 RMS(Cart)=  0.00000000 RMS(Int)=  0.00000579
 ITry= 1 IFail=0 DXMaxC= 5.45D-02 DCOld= 1.00D+10 DXMaxT= 3.00D-01 DXLimC= 3.00D+00 Rises=F
 Variable       Old X    -DE/DX   Delta X   Delta X   Delta X     New X
                                 (Linear)    (Quad)   (Total)
    R1        2.33752  -0.02264   0.00000  -0.02672  -0.02671   2.31081
    R2        3.44231  -0.00035   0.00000  -0.00990  -0.00990   3.43241
    R3        2.63700  -0.01441   0.00000  -0.03257  -0.03256   2.60444
    R4        2.56181  -0.00996   0.00000  -0.01879  -0.01878   2.54302
    R5        1.92716  -0.00997   0.00000  -0.02115  -0.02115   1.90602
    R6        2.72061  -0.00774   0.00000  -0.01929  -0.01929   2.70132
    R7        2.57451  -0.01418   0.00000  -0.02641  -0.02641   2.54809
    R8        2.03999  -0.00589   0.00000  -0.01617  -0.01617   2.02382
    R9        2.56943  -0.01452   0.00000  -0.02725  -0.02725   2.54217
   R10        2.04108  -0.00593   0.00000  -0.01633  -0.01633   2.02476
   R11        2.67927  -0.00607   0.00000  -0.01361  -0.01361   2.66566
   R12        2.04565  -0.00589   0.00000  -0.01634  -0.01634   2.02931
   R13        2.03725  -0.00576   0.00000  -0.01575  -0.01575   2.02150
   R14        1.85494  -0.01367   0.00000  -0.02611  -0.02612   1.82882
   R15        1.81354  -0.01227   0.00000  -0.02195  -0.02195   1.79159
   R16        3.72662  -0.00164   0.00000  -0.01438  -0.01438   3.71224
    A1        1.92766   0.00329   0.00000   0.00428   0.00429   1.93195
    A2        2.17565  -0.00010   0.00000  -0.00215  -0.00214   2.17351
    A3        2.00244   0.00080   0.00000   0.00380   0.00380   2.00623
    A4        2.10509  -0.00070   0.00000  -0.00164  -0.00165   2.10344
    A5        2.09773   0.00129   0.00000  -0.00167  -0.00167   2.09606
    A6        2.19333  -0.00200   0.00000  -0.00345  -0.00346   2.18987
    A7        1.99213   0.00071   0.00000   0.00512   0.00513   1.99725
    A8        2.11557  -0.00110   0.00000  -0.00452  -0.00452   2.11105
    A9        2.03563   0.00059   0.00000   0.00251   0.00251   2.03813
   A10        2.13199   0.00051   0.00000   0.00201   0.00201   2.13400
   A11        2.10801   0.00110   0.00000   0.00310   0.00310   2.11111
   A12        2.02357  -0.00056   0.00000  -0.00159  -0.00159   2.02198
   A13        2.15160  -0.00054   0.00000  -0.00151  -0.00151   2.15009
   A14        2.11704   0.00022   0.00000   0.00212   0.00211   2.11914
   A15        2.08601  -0.00035   0.00000  -0.00254  -0.00253   2.08348
   A16        2.08014   0.00013   0.00000   0.00042   0.00042   2.08056
   A17        2.05796  -0.00083   0.00000  -0.00366  -0.00367   2.05429
   A18        2.10191   0.00037   0.00000   0.00155   0.00156   2.10347
   A19        2.12331   0.00046   0.00000   0.00211   0.00212   2.12543
   A20        2.65557  -0.00163   0.00000  -0.00293  -0.00295   2.65262
   A21        1.86229   0.00111   0.00000   0.00116   0.00117   1.86347
   A22        1.36782  -0.00255   0.00000  -0.00271  -0.00273   1.36509
   A23        2.34644   0.00048   0.00000   0.00304   0.00303   2.34947
   A24        2.50984  -0.00123   0.00000  -0.00049  -0.00049   2.50936
    D1        0.03186   0.00025   0.00000   0.00165   0.00166   0.03351
    D2       -3.10924   0.00022   0.00000   0.00182   0.00182  -3.10741
    D3        0.03871  -0.00000   0.00000  -0.00751  -0.00752   0.03119
    D4       -3.13629  -0.00003   0.00000   0.00009   0.00009  -3.13621
    D5        0.00485   0.00000   0.00000  -0.00006  -0.00007   0.00479
    D6        0.00787   0.00002   0.00000  -0.00059  -0.00059   0.00728
    D7       -3.13417   0.00005   0.00000  -0.00074  -0.00074  -3.13491
    D8       -0.00292   0.00001   0.00000  -0.00003  -0.00003  -0.00295
    D9        3.13789   0.00001   0.00000  -0.00023  -0.00023   3.13766
   D10        3.13597  -0.00004   0.00000   0.00069   0.00069   3.13665
   D11       -0.00641  -0.00004   0.00000   0.00049   0.00049  -0.00592
   D12       -0.10803  -0.00014   0.00000   0.00109   0.00108  -0.10695
   D13        3.03601  -0.00009   0.00000   0.00044   0.00044   3.03645
   D14        3.13723   0.00002   0.00000   0.00007   0.00007   3.13730
   D15       -0.00200   0.00002   0.00000   0.00002   0.00002  -0.00198
   D16       -0.00389  -0.00001   0.00000   0.00023   0.00023  -0.00366
   D17        3.14007  -0.00001   0.00000   0.00018   0.00018   3.14024
   D18        0.00117   0.00001   0.00000  -0.00030  -0.00030   0.00087
   D19       -3.13978   0.00000   0.00000  -0.00015  -0.00015  -3.13993
   D20        3.14027   0.00000   0.00000  -0.00025  -0.00025   3.14002
   D21       -0.00068  -0.00000   0.00000  -0.00009  -0.00009  -0.00078
   D22       -0.00027  -0.00002   0.00000  -0.00002  -0.00002  -0.00029
   D23        3.14059  -0.00001   0.00000   0.00000   0.00000   3.14059
   D24       -3.14103  -0.00002   0.00000   0.00020   0.00020  -3.14083
   D25       -0.00016  -0.00000   0.00000   0.00022   0.00022   0.00006
   D26        0.00106   0.00001   0.00000   0.00018   0.00018   0.00123
   D27       -3.13980  -0.00001   0.00000   0.00016   0.00016  -3.13964
   D28       -3.14118   0.00001   0.00000   0.00002   0.00002  -3.14116
   D29        0.00115  -0.00000   0.00000   0.00000   0.00000   0.00116
   D30       -2.40197   0.00006   0.00000   0.00406   0.00406  -2.39791
   D31       -0.07714   0.00000   0.00000   0.00664   0.00663  -0.07051
   D32        0.12809   0.00021   0.00000  -0.00298  -0.00299   0.12509
   D33        1.90956  -0.00068   0.00000  -0.00396  -0.00397   1.90558
         Item               Value     Threshold  Converged?
 Maximum Force            0.022639     0.000450     NO 
 RMS     Force            0.005156     0.000300     NO 
 Maximum Displacement     0.054497     0.001800     NO 
 RMS     Displacement     0.017214     0.001200     NO 
 Predicted change in Energy=-1.798224D-03
 Lowest energy point so far.  Saving SCF results.
 GradGradGradGradGradGradGradGradGradGradGradGradGradGradGradGradGradGrad

 Leave Link  103 at Fri Aug 27 00:40:06 2021, MaxMem= 17179869184 cpu:        52.1
 (Enter /public3/home/sc51754/softwares/g09e01/l202.exe)
                          Input orientation:                          
 ---------------------------------------------------------------------
 Center     Atomic      Atomic             Coordinates (Angstroms)
 Number     Number       Type             X           Y           Z
 ---------------------------------------------------------------------
      1          8           0        1.244111    1.369943    0.007016
      2          7           0        0.246114   -0.652163    0.012639
      3          6           0        0.204932    0.725418    0.007036
      4          6           0       -1.113598    1.277547    0.000814
      5          6           0       -0.839158   -1.447831    0.007181
      6          6           0       -2.199955    0.478816   -0.003562
      7          6           0       -2.079317   -0.926620   -0.001140
      8          1           0        2.684758    0.264831   -0.041967
      9          1           0       -1.189326    2.345821   -0.002375
     10          1           0       -0.645830   -2.501698    0.008948
     11          1           0       -3.178652    0.920737   -0.009757
     12          1           0       -2.937158   -1.565689   -0.006363
     13          8           0        3.085554   -0.615051   -0.083797
     14          1           0        3.804600   -0.617741    0.534099
     15          1           0        1.172877   -1.050053    0.023160
 ---------------------------------------------------------------------
                    Distance matrix (angstroms):
                    1          2          3          4          5
     1  O    0.000000
     2  N    2.254982   0.000000
     3  C    1.222827   1.378209   0.000000
     4  C    2.359527   2.360665   1.429477   0.000000
     5  C    3.504263   1.345709   2.411044   2.739168   0.000000
     6  C    3.557501   2.694927   2.417521   1.348393   2.358782
     7  C    4.039732   2.341611   2.819058   2.406442   1.345260
     8  H    1.816352   2.605925   2.522713   3.931276   3.918368
     9  H    2.621840   3.323947   2.137697   1.070960   3.809791
    10  H    4.308304   2.053377   3.337376   3.808092   1.071455
    11  H    4.445549   3.768759   3.389258   2.095680   3.329209
    12  H    5.108926   3.311814   3.888712   3.377782   2.101352
    13  O    2.709125   2.841320   3.178536   4.606730   4.013124
    14  H    3.284023   3.596655   3.878078   5.297658   4.746702
    15  H    2.421098   1.008621   2.022246   3.262850   2.051040
                    6          7          8          9         10
     6  C    0.000000
     7  C    1.410605   0.000000
     8  H    4.889549   4.910970   0.000000
     9  H    2.122989   3.391306   4.397797   0.000000
    10  H    3.361387   2.129756   4.330022   4.877906   0.000000
    11  H    1.073863   2.149730   5.900071   2.447108   4.257770
    12  H    2.173356   1.069734   5.912530   4.284256   2.475184
    13  O    5.398110   5.174920   0.967770   5.200769   4.182256
    14  H    6.127496   5.916280   1.537801   5.831793   4.861215
    15  H    3.703262   3.254626   2.004731   4.136740   2.327052
                   11         12         13         14         15
    11  H    0.000000
    12  H    2.498128   0.000000
    13  O    6.450148   6.097768   0.000000
    14  H    7.171367   6.829496   0.948067   0.000000
    15  H    4.777123   4.142360   1.964434   2.715496   0.000000
 Stoichiometry    C5H7NO2
 Framework group  C1[X(C5H7NO2)]
 Deg. of freedom    39
 Full point group                 C1      NOp   1
 RotChk:  IX=0 Diff= 1.76D-03
 Largest Abelian subgroup         C1      NOp   1
 Largest concise Abelian subgroup C1      NOp   1
                         Standard orientation:                         
 ---------------------------------------------------------------------
 Center     Atomic      Atomic             Coordinates (Angstroms)
 Number     Number       Type             X           Y           Z
 ---------------------------------------------------------------------
      1          8           0        1.243959    1.372891    0.005842
      2          7           0        0.248430   -0.650429    0.011977
      3          6           0        0.205567    0.727101    0.006188
      4          6           0       -1.113637    1.277620    0.000183
      5          6           0       -0.835873   -1.447420    0.006876
      6          6           0       -2.199020    0.477565   -0.003835
      7          6           0       -2.076668   -0.927722   -0.001241
      8          1           0        2.685942    0.269530   -0.043307
      9          1           0       -1.190668    2.345801   -0.003141
     10          1           0       -0.641259   -2.501050    0.008749
     11          1           0       -3.178257    0.918292   -0.009873
     12          1           0       -2.933731   -1.567837   -0.006179
     13          8           0        3.087801   -0.609868   -0.085103
     14          1           0        3.806988   -0.611594    0.532632
     15          1           0        1.175679   -1.047187    0.022346
 ---------------------------------------------------------------------
 Rotational constants (GHZ):      4.1014080      1.4193384      1.0561734
 Leave Link  202 at Fri Aug 27 00:40:07 2021, MaxMem= 17179869184 cpu:         2.3
 (Enter /public3/home/sc51754/softwares/g09e01/l301.exe)
 Basis read from rwf:  (5D, 7F)
 No pseudopotential information found on rwf file.
 There are   385 symmetry adapted cartesian basis functions of A   symmetry.
 There are   338 symmetry adapted basis functions of A   symmetry.
   338 basis functions,   566 primitive gaussians,   385 cartesian basis functions
    30 alpha electrons       30 beta electrons
       nuclear repulsion energy       360.0397568550 Hartrees.
 IExCor=  402 DFT=T Ex+Corr=BHandHLYP ExCW=0 ScaHFX=  0.500000
 ScaDFX=  0.500000  0.500000  1.000000  1.000000 ScalE2=  1.000000  1.000000
 IRadAn=      0 IRanWt=     -1 IRanGd=            0 ICorTp=0 IEmpDi=  4
 NAtoms=   15 NActive=   15 NUniq=   15 SFac= 1.00D+00 NAtFMM=   60 NAOKFM=F Big=F
 Integral buffers will be    131072 words long.
 Raffenetti 2 integral format.
 Two-electron integral symmetry is turned on.
 No density basis found on file   724.
 Leave Link  301 at Fri Aug 27 00:40:07 2021, MaxMem= 17179869184 cpu:         1.2
 (Enter /public3/home/sc51754/softwares/g09e01/l302.exe)
 NPDir=0 NMtPBC=     1 NCelOv=     1 NCel=       1 NClECP=     1 NCelD=      1
         NCelK=      1 NCelE2=     1 NClLst=     1 CellRange=     0.0.
 One-electron integrals computed using PRISM.
 NBasis=   338 RedAO= T EigKep=  1.49D-04  NBF=   338
 NBsUse=   338 1.00D-06 EigRej= -1.00D+00 NBFU=   338
 Precomputing XC quadrature grid using
 IXCGrd= 4 IRadAn=           0 IRanWt=          -1 IRanGd=           0 AccXCQ= 0.00D+00.
 Generated NRdTot=       0 NPtTot=           0 NUsed=           0 NTot=          32
 NSgBfM=   385   385   385   385   385 MxSgAt=    15 MxSgA2=    15.
 Leave Link  302 at Fri Aug 27 00:40:08 2021, MaxMem= 17179869184 cpu:        52.4
 (Enter /public3/home/sc51754/softwares/g09e01/l303.exe)
 DipDrv:  MaxL=1.
 Leave Link  303 at Fri Aug 27 00:40:08 2021, MaxMem= 17179869184 cpu:        11.5
 (Enter /public3/home/sc51754/softwares/g09e01/l401.exe)
 Initial guess from the checkpoint file:  "PY_H2O_BHandHLYP_PC2_OPT_FREQ.chk"
 B after Tr=     0.000000    0.000000   -0.000000
         Rot=    1.000000    0.000014    0.000013   -0.000696 Ang=   0.08 deg.
 Guess basis will be translated and rotated to current coordinates.
 JPrj=2 DoOrth=T DoCkMO=T.
 Generating alternative initial guess.
 ExpMin= 7.41D-02 ExpMax= 1.48D+04 ExpMxC= 5.05D+02 IAcc=2 IRadAn=         4 AccDes= 0.00D+00
 Harris functional with IExCor=  402 and IRadAn=       4 diagonalized for initial guess.
 HarFok:  IExCor=  402 AccDes= 0.00D+00 IRadAn=         4 IDoV= 1 UseB2=F ITyADJ=14
 ICtDFT=  3500011 ScaDFX=  1.000000  1.000000  1.000000  1.000000
 FoFCou: FMM=F IPFlag=           0 FMFlag=      100000 FMFlg1=           0
         NFxFlg=           0 DoJE=T BraDBF=F KetDBF=T FulRan=T
         wScrn=  0.000000 ICntrl=     500 IOpCl=  0 I1Cent=   200000004 NGrid=           0
         NMat0=    1 NMatS0=      1 NMatT0=    0 NMatD0=    1 NMtDS0=    0 NMtDT0=    0
 Petite list used in FoFCou.
 Harris En= -400.210025125359    
 Leave Link  401 at Fri Aug 27 00:40:09 2021, MaxMem= 17179869184 cpu:        76.3
 (Enter /public3/home/sc51754/softwares/g09e01/l502.exe)
 Closed shell SCF:
 Using DIIS extrapolation, IDIIS=  1040.
 Integral symmetry usage will be decided dynamically.
 Keep R1 ints in memory in canonical form, NReq=1670404686.
 IVT=      490665 IEndB=      490665 NGot= 17179869184 MDV= 15538220534
 LenX= 15538220534 LenY= 15538071868
 Requested convergence on RMS density matrix=1.00D-08 within 128 cycles.
 Requested convergence on MAX density matrix=1.00D-06.
 Requested convergence on             energy=1.00D-06.
 No special actions if energy rises.
 FoFCou: FMM=F IPFlag=           0 FMFlag=           0 FMFlg1=           0
         NFxFlg=           0 DoJE=F BraDBF=F KetDBF=F FulRan=T
         wScrn=  0.000000 ICntrl=     600 IOpCl=  0 I1Cent=           0 NGrid=           0
         NMat0=    1 NMatS0=  57291 NMatT0=    0 NMatD0=    1 NMtDS0=    0 NMtDT0=    0
 Symmetry not used in FoFCou.
 Integral accuracy reduced to 1.0D-05 until final iterations.

 Cycle   1  Pass 0  IDiag  1:
 E= -399.901464769140    
 DIIS: error= 1.21D-03 at cycle   1 NSaved=   1.
 NSaved= 1 IEnMin= 1 EnMin= -399.901464769140     IErMin= 1 ErrMin= 1.21D-03
 ErrMax= 1.21D-03  0.00D+00 EMaxC= 1.00D-01 BMatC= 6.62D-04 BMatP= 6.62D-04
 IDIUse=3 WtCom= 9.88D-01 WtEn= 1.21D-02
 Coeff-Com:  0.100D+01
 Coeff-En:   0.100D+01
 Coeff:      0.100D+01
 Gap=     0.660 Goal=   None    Shift=    0.000
 GapD=    0.660 DampG=2.000 DampE=1.000 DampFc=2.0000 IDamp=-1.
 RMSDP=6.51D-05 MaxDP=2.42D-03              OVMax= 4.45D-03

 Cycle   2  Pass 0  IDiag  1:
 E= -399.901944865962     Delta-E=       -0.000480096822 Rises=F Damp=F
 DIIS: error= 4.46D-04 at cycle   2 NSaved=   2.
 NSaved= 2 IEnMin= 2 EnMin= -399.901944865962     IErMin= 2 ErrMin= 4.46D-04
 ErrMax= 4.46D-04  0.00D+00 EMaxC= 1.00D-01 BMatC= 6.22D-05 BMatP= 6.62D-04
 IDIUse=3 WtCom= 9.96D-01 WtEn= 4.46D-03
 Coeff-Com:  0.134D+00 0.866D+00
 Coeff-En:   0.000D+00 0.100D+01
 Coeff:      0.133D+00 0.867D+00
 Gap=     0.265 Goal=   None    Shift=    0.000
 RMSDP=2.89D-05 MaxDP=1.85D-03 DE=-4.80D-04 OVMax= 2.00D-03

 Cycle   3  Pass 0  IDiag  1:
 E= -399.901976116056     Delta-E=       -0.000031250094 Rises=F Damp=F
 DIIS: error= 2.65D-04 at cycle   3 NSaved=   3.
 NSaved= 3 IEnMin= 3 EnMin= -399.901976116056     IErMin= 3 ErrMin= 2.65D-04
 ErrMax= 2.65D-04  0.00D+00 EMaxC= 1.00D-01 BMatC= 2.85D-05 BMatP= 6.22D-05
 IDIUse=3 WtCom= 9.97D-01 WtEn= 2.65D-03
 Coeff-Com: -0.120D-01 0.393D+00 0.619D+00
 Coeff-En:   0.000D+00 0.251D+00 0.749D+00
 Coeff:     -0.119D-01 0.393D+00 0.619D+00
 Gap=     0.265 Goal=   None    Shift=    0.000
 RMSDP=1.14D-05 MaxDP=6.70D-04 DE=-3.13D-05 OVMax= 1.58D-03

 Cycle   4  Pass 0  IDiag  1:
 E= -399.901998743820     Delta-E=       -0.000022627764 Rises=F Damp=F
 DIIS: error= 6.73D-05 at cycle   4 NSaved=   4.
 NSaved= 4 IEnMin= 4 EnMin= -399.901998743820     IErMin= 4 ErrMin= 6.73D-05
 ErrMax= 6.73D-05  0.00D+00 EMaxC= 1.00D-01 BMatC= 2.70D-06 BMatP= 2.85D-05
 IDIUse=1 WtCom= 1.00D+00 WtEn= 0.00D+00
 Coeff-Com: -0.143D-01 0.131D+00 0.308D+00 0.575D+00
 Coeff:     -0.143D-01 0.131D+00 0.308D+00 0.575D+00
 Gap=     0.265 Goal=   None    Shift=    0.000
 RMSDP=3.57D-06 MaxDP=2.03D-04 DE=-2.26D-05 OVMax= 3.72D-04

 Initial convergence to 1.0D-05 achieved.  Increase integral accuracy.
 Cycle   5  Pass 1  IDiag  1:
 E= -399.902026541717     Delta-E=       -0.000027797897 Rises=F Damp=F
 DIIS: error= 3.15D-05 at cycle   1 NSaved=   1.
 NSaved= 1 IEnMin= 1 EnMin= -399.902026541717     IErMin= 1 ErrMin= 3.15D-05
 ErrMax= 3.15D-05  0.00D+00 EMaxC= 1.00D-01 BMatC= 2.24D-07 BMatP= 2.24D-07
 IDIUse=1 WtCom= 1.00D+00 WtEn= 0.00D+00
 Coeff-Com:  0.100D+01
 Coeff:      0.100D+01
 Gap=     0.265 Goal=   None    Shift=    0.000
 RMSDP=3.57D-06 MaxDP=2.03D-04 DE=-2.78D-05 OVMax= 3.68D-04

 Cycle   6  Pass 1  IDiag  1:
 E= -399.902026625118     Delta-E=       -0.000000083402 Rises=F Damp=F
 DIIS: error= 2.89D-05 at cycle   2 NSaved=   2.
 NSaved= 2 IEnMin= 2 EnMin= -399.902026625118     IErMin= 2 ErrMin= 2.89D-05
 ErrMax= 2.89D-05  0.00D+00 EMaxC= 1.00D-01 BMatC= 2.59D-07 BMatP= 2.24D-07
 IDIUse=1 WtCom= 1.00D+00 WtEn= 0.00D+00
 Coeff-Com:  0.520D+00 0.480D+00
 Coeff:      0.520D+00 0.480D+00
 Gap=     0.265 Goal=   None    Shift=    0.000
 RMSDP=1.06D-06 MaxDP=6.98D-05 DE=-8.34D-08 OVMax= 1.15D-04

[...]
   A11        2.11228  -0.00000   0.00000  -0.00003  -0.00003   2.11225
   A12        2.02127  -0.00000   0.00000  -0.00002  -0.00002   2.02125
   A13        2.14963   0.00000   0.00000   0.00005   0.00005   2.14969
   A14        2.11784  -0.00000   0.00000  -0.00000  -0.00000   2.11784
   A15        2.08597   0.00001   0.00000   0.00006   0.00006   2.08603
   A16        2.07937  -0.00001   0.00000  -0.00005  -0.00005   2.07932
   A17        2.05391   0.00000   0.00000   0.00002   0.00002   2.05393
   A18        2.10569   0.00000   0.00000   0.00003   0.00003   2.10572
   A19        2.12359  -0.00000   0.00000  -0.00005  -0.00005   2.12354
   A20        2.61741   0.00001   0.00000   0.00043   0.00043   2.61784
   A21        1.87781   0.00000   0.00000  -0.00005  -0.00005   1.87776
   A22        1.39122  -0.00001   0.00000  -0.00067  -0.00067   1.39055
   A23        2.48920  -0.00000   0.00000   0.00020   0.00020   2.48940
   A24        2.50766   0.00001   0.00000  -0.00004  -0.00004   2.50762
    D1        0.03588   0.00000   0.00000   0.00019   0.00019   0.03608
    D2       -3.10510  -0.00000   0.00000   0.00015   0.00015  -3.10495
    D3        0.01435   0.00001   0.00000   0.00245   0.00245   0.01680
    D4       -3.13715  -0.00000   0.00000   0.00006   0.00006  -3.13709
    D5        0.00390   0.00000   0.00000   0.00009   0.00009   0.00400
    D6        0.00604  -0.00000   0.00000  -0.00026  -0.00025   0.00579
    D7       -3.13609  -0.00000   0.00000  -0.00022  -0.00022  -3.13631
    D8       -0.00249  -0.00000   0.00000  -0.00009  -0.00009  -0.00257
    D9        3.13833  -0.00000   0.00000  -0.00005  -0.00005   3.13828
   D10        3.13743   0.00000   0.00000   0.00024   0.00024   3.13767
   D11       -0.00494   0.00000   0.00000   0.00028   0.00028  -0.00466
   D12       -0.10322  -0.00000   0.00000  -0.00079  -0.00079  -0.10401
   D13        3.03990  -0.00000   0.00000  -0.00109  -0.00109   3.03881
   D14        3.13807   0.00000   0.00000  -0.00003  -0.00003   3.13804
   D15       -0.00162   0.00000   0.00000  -0.00001  -0.00001  -0.00162
   D16       -0.00295  -0.00000   0.00000  -0.00007  -0.00007  -0.00302
   D17        3.14055  -0.00000   0.00000  -0.00005  -0.00005   3.14050
   D18        0.00071   0.00000   0.00000   0.00004   0.00004   0.00075
   D19       -3.14020   0.00000   0.00000   0.00001   0.00001  -3.14019
   D20        3.14029   0.00000   0.00000   0.00001   0.00001   3.14030
   D21       -0.00062  -0.00000   0.00000  -0.00001  -0.00001  -0.00063
   D22       -0.00012   0.00000   0.00000   0.00004   0.00004  -0.00007
   D23        3.14087   0.00000   0.00000   0.00004   0.00004   3.14092
   D24       -3.14088  -0.00000   0.00000   0.00000   0.00000  -3.14087
   D25        0.00012  -0.00000   0.00000  -0.00000  -0.00000   0.00012
   D26        0.00092  -0.00000   0.00000  -0.00002  -0.00002   0.00090
   D27       -3.14006  -0.00000   0.00000  -0.00002  -0.00002  -3.14008
   D28       -3.14136   0.00000   0.00000   0.00000   0.00000  -3.14135
   D29        0.00084   0.00000   0.00000   0.00001   0.00001   0.00085
   D30       -2.53618  -0.00000   0.00000  -0.00259  -0.00259  -2.53877
   D31       -0.05508  -0.00001   0.00000  -0.00257  -0.00257  -0.05766
   D32        0.11778   0.00001   0.00000   0.00187   0.00187   0.11965
   D33        1.96023  -0.00000   0.00000   0.00094   0.00094   1.96117
         Item               Value     Threshold  Converged?
 Maximum Force            0.000021     0.000450     YES
 RMS     Force            0.000006     0.000300     YES
 Maximum Displacement     0.002190     0.001800     NO 
 RMS     Displacement     0.000537     0.001200     YES
 Predicted change in Energy=-6.219153D-08
 GradGradGradGradGradGradGradGradGradGradGradGradGradGradGradGradGradGrad

 Leave Link  103 at Fri Aug 27 00:47:10 2021, MaxMem= 17179869184 cpu:        63.4
 (Enter /public3/home/sc51754/softwares/g09e01/l9999.exe)
 1\1\GINC-T1413\Freq\RBHandHLYP\Gen\C5H7N1O2\SC51754\27-Aug-2021\0\\#P 
 Geom=AllCheck Guess=TCheck SCRF=Check GenChk RBHandHLYP/ChkBas Freq\\P
 Y_H2O_BHandHLYP_PC2_OPT_FREQ\\0,1\O,1.2385690999,1.3723065141,0.022466
 8821\N,0.2413150897,-0.6517564501,0.0228492843\C,0.2026635678,0.724978
 8943,0.0154969026\C,-1.1211385106,1.2787424717,-0.0011161429\C,-0.8465
 233298,-1.4484056936,0.0111852946\C,-2.2081382598,0.4813081762,-0.0118
 415086\C,-2.0868927556,-0.9279612717,-0.0062999989\H,2.7026345871,0.26
 70525522,-0.0189368958\H,-1.1944449745,2.3476583165,-0.0062790092\H,-0
 .6529440473,-2.5029207247,0.0160161679\H,-3.1879967578,0.9221144748,-0
 .0255167179\H,-2.9460144519,-1.5658620376,-0.0161471027\O,3.0784451488
 ,-0.6221249472,-0.0518652916\H,3.8742849406,-0.6158736035,0.4623720835
 \H,1.1661336534,-1.0529906713,0.0395500525\\Version=EM64L-G09RevE.01\S
 tate=1-A\HF=-399.9021242\RMSD=3.535e-09\RMSF=1.290e-05\ZeroPoint=0.123
 1443\Thermal=0.1310905\Dipole=-0.9334086,-0.8750006,0.3687347\DipoleDe
 riv=-1.8648022,-0.6395,-0.0135262,-0.4993716,-0.8767238,-0.0058813,-0.
 0116782,-0.0092396,-0.4347248,-0.8142967,0.2634566,-0.008515,-0.690478
 6,-0.5605036,-0.0051673,-0.0101512,0.0058129,-0.211983,1.9412902,0.880
 1786,0.0160155,0.8305553,0.9420338,0.0051183,0.011239,0.0034697,0.3003
 08,-0.7405575,-0.5189368,-0.0050089,0.0853562,-0.0321995,-0.0000418,-0
 .0047355,-0.0069375,-0.2015596,0.7660868,-0.3818927,0.011037,0.2893765
 ,0.1075207,0.0045566,0.0070162,-0.0033216,0.0107937,0.2995116,0.097396
 7,0.0043577,0.1409411,0.679111,-0.0007273,0.0034901,-0.001393,-0.05960
 75,-0.2925781,0.4151429,-0.0018886,0.0445541,-0.516501,0.0022543,0.000
 6619,0.0067515,-0.2296212,0.7543534,-0.136286,-0.0237431,-0.3734328,0.
 3394704,-0.0356394,-0.0333661,-0.0285568,0.2641655,0.0627262,-0.004803
 2,-0.0012372,0.0103892,-0.0158579,0.0007267,-0.0007216,0.0008681,0.156
 861,0.0643615,0.0201894,-0.001143,0.0000549,-0.0184214,0.0007892,-0.00
 11599,0.0001573,0.1426229,-0.0459382,0.0613116,-0.0023149,0.0631473,0.
 0568509,0.0009701,-0.0025647,0.0009504,0.125964,0.0115127,-0.0543005,-
 0.0019852,-0.0581119,0.0117456,-0.0003351,-0.0022452,-0.0004367,0.1712
 02,-1.0239832,0.1217697,0.0902976,0.2902959,-0.5989466,0.0769185,0.106
 5197,0.0527084,-0.5823407,0.2670631,-0.0099881,-0.0681024,-0.0634743,0
 .2938699,-0.0433389,-0.0689269,-0.0234184,0.2942904,0.6152505,-0.11373
 83,0.0057566,-0.0698012,0.1885517,-0.0002027,0.0066224,0.0025852,0.253
 6293\Polar=94.885595,5.726958,80.2251565,1.2187356,-0.2053984,43.00936
 64\PG=C01 [X(C5H7N1O2)]\NImag=0\\0.57993337,0.29241092,0.31159123,0.00
 376117,0.00142794,0.04156509,0.01610439,-0.07248192,0.00036176,0.91521
 600,-0.04884636,-0.07717961,-0.00003766,-0.01956415,0.71735501,0.00059
 325,-0.00028336,0.02039393,0.01173871,-0.00336479,0.09564862,-0.499765
 53,-0.23099105,-0.00292649,-0.19095514,0.01357250,-0.00202138,0.913770
 82,-0.22332454,-0.24399948,-0.00145617,0.06131636,-0.22883142,0.001273
 23,0.13673638,0.66843555,-0.00317802,-0.00165596,-0.08202376,-0.001821
 92,0.00093150,-0.07108144,0.00669851,-0.00056830,0.22520189,-0.0845657
 0,-0.00574601,-0.00103509,0.03274869,0.05035900,0.00023872,-0.20699792
 ,0.04745491,-0.00155791,0.71303538,-0.03263183,0.02272133,-0.00025133,
 0.04101701,-0.02186139,0.00067251,0.07676138,-0.16517578,0.00104018,0.
 08605318,0.82096768,-0.00094246,0.00017818,0.02304173,0.00013607,0.000
 85590,0.00875975,-0.00161481,0.00056057,-0.08706551,0.00650057,-0.0015
 0638,0.12822360,-0.01673745,0.01500746,-0.00037146,-0.28448670,-0.0599
 9754,-0.00272955,0.05890056,-0.08280969,0.00106977,-0.06022963,-0.0052
 8424,-0.00075605,0.79708764,-0.00241820,-0.00008619,0.00002921,-0.1178
 6072,-0.22662526,-0.00076626,-0.02003937,-0.04589604,-0.00013355,-0.00
 686996,-0.00201505,-0.00010126,-0.08533991,0.81427457,-0.00030549,0.00
 023533,0.00616690,-0.00267205,-0.00027628,-0.05333701,0.00089588,-0.00
 079391,-0.00306308,-0.00074104,-0.00003938,-0.00030206,0.00861235,-0.0
 0293223,0.15755532,0.00422883,0.00603193,-0.00001478,-0.01109448,-0.00
 854871,-0.00004941,-0.04736278,-0.01203084,-0.00053120,-0.35412838,-0.
 17490708,-0.00297962,0.01790639,0.03975800,0.00001461,0.82300489,0.028
 11322,-0.00226427,0.00031494,-0.04219975,-0.04442411,-0.00046097,-0.04
 101814,0.06201737,-0.00066927,-0.12147963,-0.25592885,-0.00074889,0.08
 668122,-0.01879423,0.00117964,0.02105078,0.69616154,-0.00009912,0.0000
 8542,0.00452761,0.00008807,0.00000422,-0.00611452,-0.00042425,-0.00030
 179,0.00006871,-0.00325183,-0.00152930,-0.06163171,-0.00015374,0.00060
 624,0.00844861,0.00818270,-0.00139992,0.15816528,0.00855513,-0.0069688
 8,0.00012546,-0.08315025,-0.03649070,-0.00122487,-0.02654509,0.0420277
 9,-0.00036364,0.04276800,-0.02794672,0.00053121,-0.39376152,0.14251482
 ,-0.00460407,-0.13635004,-0.01771466,-0.00083982,0.84584541,-0.0186563
 6,-0.00137922,-0.00020456,0.00646860,0.04872372,-0.00001111,0.03397277
 ,-0.02974931,0.00046396,-0.05725836,-0.03631988,-0.00058890,0.08670260
 ,-0.19255710,0.00147009,0.04172013,-0.29448343,0.00115710,0.03044198,0
 .69100298,0.00019563,-0.00005635,-0.00029271,-0.00127641,-0.00056841,0
 .01391868,-0.00037444,0.00056521,-0.00800540,0.00065860,-0.00023648,0.
 00846123,-0.00448780,0.00222334,-0.07116836,-0.00103988,0.00033826,-0.
 06748263,0.00936703,-0.00107212,0.12703475,0.01464360,-0.00246169,-0.0
 0075197,-0.00086331,0.00600142,-0.00027275,-0.01890911,-0.01075459,0.0
 0001338,0.00493046,0.00139212,0.00016896,0.00003328,-0.00062236,-0.000
 02725,-0.00053672,-0.00257038,0.00001116,-0.00001889,0.00190714,0.0000
 1035,0.11462335,-0.01436578,-0.01180483,0.00071572,0.00181428,-0.00402
 863,0.00028415,0.01105738,0.01581946,0.00005431,-0.00554928,-0.0019831
 3,-0.00017227,-0.00217138,-0.00178515,-0.00002635,0.00069764,0.0036020
 8,-0.00001706,0.00153363,-0.00244234,0.00001860,-0.15057599,0.42638794
 ,0.00029084,0.00010388,-0.00857628,-0.00058209,-0.00011100,-0.00101569
 ,-0.00024167,-0.00028389,0.00107980,0.00007292,0.00001855,0.00092910,0
 .00015264,0.00020627,-0.00016589,-0.00005769,-0.00012627,0.00010812,-0
 .00015916,0.00008199,0.00007138,0.01602067,0.01714814,0.03263163,0.002
 08836,-0.00298399,0.00004944,-0.00644314,0.00395989,-0.00015923,0.0044
 3368,0.03220773,-0.00012017,-0.06448634,0.02339775,-0.00038773,-0.0023
 3174,-0.00103677,-0.00001784,0.00727488,-0.02930406,0.00016367,-0.0038
 2319,-0.00261200,-0.00016057,-0.00011879,0.00021404,-0.00001187,0.0612
 1337,0.00027265,0.00219533,-0.00001658,0.00260556,-0.00046735,0.000055
 76,-0.00443705,-0.01027153,0.00002063,0.02585254,-0.36449012,0.0015917
 0,0.00079609,0.00101561,0.00000585,0.00320410,-0.01304901,0.00010408,-
 0.00358665,0.00119739,-0.00000415,0.00004688,-0.00007609,0.00000962,-0
 .02449229,0.38402276,0.00006630,-0.00006220,-0.00253032,-0.00014587,0.
 00004574,0.00475193,-0.00001150,0.00044859,0.00310346,-0.00037709,0.00
 163425,-0.03695657,0.00000101,-0.00001073,-0.00069596,0.00001590,-0.00
 033499,0.00347769,-0.00017307,0.00000093,0.01010920,-0.00001452,0.0000
 0704,-0.00000539,0.00051051,-0.00171070,0.02634470,-0.00102480,-0.0023
 8187,0.00001170,0.00627931,-0.03775986,0.00015056,-0.00404754,0.001648
 27,-0.00014467,-0.00010887,-0.00055339,0.00000420,-0.07839213,0.062395
 69,-0.00060746,-0.00605999,0.00146312,-0.00020186,0.00359032,0.0298783
 5,-0.00013147,0.00032745,-0.00026803,0.00001223,0.00016526,0.00000102,
 0.00001673,0.07704540,-0.00068271,-0.00194413,0.00001129,0.00164033,-0
 .02113733,0.00007591,-0.00298897,0.00476090,-0.00006985,0.00027998,0.0
 0063155,0.00000161,0.05524396,-0.35263269,0.00145304,0.00235843,0.0005
 1236,0.00004690,-0.00063397,-0.00529421,0.00001529,0.00027944,-0.00018
 119,-0.00000464,0.00004447,-0.00006318,-0.00000210,-0.05555272,0.37445
 741,-0.00002202,-0.00002959,-0.00008045,0.00008579,-0.00033088,0.00317
 402,-0.00009015,0.00000399,0.00578020,-0.00001596,-0.00000481,-0.00025
 418,-0.00064634,0.00141525,-0.04369398,-0.00021082,0.00006855,0.008920
 49,-0.00002265,0.00042150,0.00826372,-0.00001327,-0.00000333,-0.000004
 98,0.00001417,-0.00000419,-0.00119783,0.00077213,-0.00151807,0.0279465
 1,-0.00215401,0.00037835,0.00001492,0.00019669,-0.00043137,0.00001581,
 -0.00057617,-0.00422810,-0.00016637,-0.02061436,0.01347185,-0.00041432
 ,0.00158734,0.00027730,-0.00004556,-0.30693321,0.10910047,-0.00357799,
 0.00219084,-0.00092840,-0.00004467,0.00023466,-0.00017733,-0.00000819,
 0.00126620,-0.00024402,0.00009985,0.00002350,-0.00013313,0.00000827,0.
 32436238,-0.00094464,0.00067626,-0.00001410,-0.00117348,0.00042067,-0.
 00002126,-0.00316345,-0.00306529,0.00001572,-0.01968125,0.01355701,-0.
 00026914,-0.00005176,-0.00717197,0.00003488,0.11014963,-0.11540843,0.0
 0158448,0.03114263,-0.00680193,0.00042788,0.00005260,-0.00007856,-0.00
 000163,0.00052144,0.00088984,-0.00001870,0.00158843,-0.00037696,0.0000
 2369,-0.11771716,0.11593104,-0.00000875,-0.00002828,-0.00242384,0.0000
 1381,-0.00001645,-0.00100675,-0.00014796,0.00001646,0.01325420,-0.0002
 6854,0.00018790,0.00825110,-0.00004386,0.00002767,0.00502458,-0.003615
 40,0.00155589,-0.04802367,-0.00013276,0.00002961,0.00533025,-0.0000130
 1,0.00001294,-0.00011594,0.00008957,-0.00003661,-0.00652663,0.00000294
 ,-0.00000212,-0.00053460,0.00406094,-0.00173771,0.02979619,0.00022677,
 -0.00027521,0.00001175,-0.00396957,0.00445429,-0.00018538,-0.00017217,
 0.00112350,-0.00000934,0.00076259,0.00159895,-0.00005059,-0.01885860,-
 0.02181415,-0.00020196,0.00869936,0.00488070,0.00009811,-0.26045500,-0
 .14488066,-0.00266342,0.00006842,0.00008857,-0.00001788,0.00026538,0.0
 0029136,-0.00000575,0.00085293,0.00024913,0.00008681,0.00051699,-0.000
 70617,0.00004170,0.27255666,-0.00046194,0.00050810,-0.00000693,0.00400
 406,-0.00030062,0.00007890,0.00138450,-0.00143680,0.00001732,0.0024730
 2,-0.00538200,0.00005950,0.01258998,0.01291413,0.00012748,-0.02809229,
 -0.01273079,-0.00034496,-0.14721886,-0.17142611,-0.00160254,0.00005172
 ,-0.00012453,0.00000869,-0.00129692,-0.00056532,-0.00001072,-0.0006076
 2,0.00065213,-0.00002224,0.00048452,0.00129790,-0.00000141,0.15619054,
 0.17592263,0.00001114,-0.00001913,-0.00054437,-0.00019058,0.00007003,0
 .00867507,-0.00000372,0.00002405,-0.00031809,-0.00005190,0.00005124,0.
 00421897,-0.00026507,-0.00032683,-0.00031215,0.00019823,0.00011760,0.0
 0009961,-0.00268790,-0.00159811,-0.03137283,0.00000397,-0.00000086,0.0
 0003208,-0.00000151,0.00000832,0.00052662,0.00008520,-0.00000710,-0.00
 550953,0.00003714,-0.00001911,-0.00235422,0.00289269,0.00169776,0.0252
 6253,-0.01266916,0.01226159,0.00018994,-0.01199817,-0.00442287,-0.0004
 5738,0.00402560,0.00108243,0.00021539,-0.00118689,-0.00009743,-0.00000
 112,0.00211603,0.00450886,-0.00003137,-0.00010692,-0.00017349,-0.00001
 716,-0.00208779,-0.00030239,0.00000156,-0.10083125,0.17205830,-0.00514
 587,-0.00013560,0.00010604,0.00001052,-0.00004782,-0.00024753,0.000003
 10,-0.00019439,-0.00000947,-0.00000187,-0.00033158,0.00011053,0.000006
 07,0.52584210,0.02171804,-0.00172305,0.00055056,-0.00095967,0.00503701
 ,-0.00081367,-0.01061110,-0.01175814,-0.00002256,0.00415515,0.00172545
 ,-0.00002147,0.00147586,0.00038236,-0.00003215,-0.00049437,-0.00265323
 ,0.00000482,-0.00082771,0.00192710,-0.00000443,0.12604776,-0.42681170,
 -0.04374420,-0.00020738,0.00006805,-0.00000057,0.00034420,0.00020905,0
 .00002189,0.00014806,0.00007574,0.00001135,-0.00000603,0.00007598,0.00
 002353,-0.16182511,0.48350255,-0.00097233,0.00115173,0.00573341,-0.002
 00688,-0.00032094,0.00281201,0.00043278,0.00008875,-0.00070225,-0.0001
 2061,0.00003167,-0.00058715,-0.00032748,0.00021237,0.00021136,0.000048
 73,0.00006524,0.00001145,0.00001292,-0.00019296,-0.00010681,-0.0169828
 5,-0.01511264,-0.02731185,0.00001448,-0.00000455,-0.00002483,-0.000033
 32,-0.00004871,-0.00007317,0.00000340,0.00000038,0.00006287,-0.0000196
 0,0.00000695,-0.00007941,0.27125723,0.03964139,0.19602892,0.00071567,0
 .00100484,0.00055867,-0.00012662,-0.00043371,0.00029015,-0.00088961,-0
 .00051035,-0.00014364,0.00025712,0.00008416,-0.00007417,-0.00028622,0.
 00019386,0.00001601,-0.00003206,-0.00011980,0.00000417,-0.00001275,-0.
 00003781,-0.00000932,-0.01477872,-0.00685831,-0.01150336,-0.00000282,0
 .00001233,-0.00000690,-0.00001980,-0.00003104,-0.00001779,0.00001329,-
 0.00000476,0.00000868,-0.00001304,0.00001632,-0.00001104,-0.40474722,0
 .02012949,-0.25319491,0.42024830,0.00254662,-0.00222746,-0.00097491,-0
 .00200357,0.00033520,0.00038009,-0.00091830,-0.00109450,-0.00004439,0.
 00020063,0.00018039,0.00011348,0.00029362,0.00062668,0.00001923,0.0000
 0052,-0.00015537,0.00000500,-0.00030112,0.00001313,-0.00000165,0.03668
 513,0.00590207,0.02627379,-0.00003662,0.00002127,-0.00000369,-0.000008
 80,-0.00003368,-0.00002610,-0.00000013,0.00000434,-0.00001604,-0.00004
 808,0.00002080,-0.00001342,-0.02504240,-0.04650203,-0.02638994,-0.0141
 1127,0.04282807,0.00076754,-0.00092893,-0.00007793,0.00205755,0.000292
 81,0.00014021,-0.00021760,0.00013111,0.00000432,0.00005858,-0.00004498
 ,-0.00003689,0.00005773,-0.00036396,0.00002144,0.00000536,0.00003334,-
 0.00000097,0.00014887,0.00007913,-0.00002608,0.00158504,-0.00267876,-0
 .00018114,0.00000461,-0.00000498,0.00001759,0.00000790,0.00004166,0.00
 004503,0.00000583,-0.00000064,0.00001135,0.00003265,-0.00001221,0.0000
 0746,-0.26736559,0.00233450,-0.17118064,0.26489715,0.00177731,0.171351
 74,-0.00957947,-0.00280448,0.00001497,-0.37745770,0.13814818,-0.005927
 25,0.01509040,0.01006073,0.00003984,-0.00218416,-0.00235571,-0.0001201
 4,-0.02254725,0.00635292,-0.00028476,0.00149022,0.00329040,0.00001789,
 0.00325482,-0.00641559,-0.00004521,0.00119556,-0.00749774,0.00117847,0
 .00063450,-0.00042856,0.00001387,0.00141679,0.00017432,0.00006874,0.00
 008026,-0.00000260,0.00001452,-0.00014915,0.00037245,-0.00002272,0.002
 35306,0.00091281,0.00188843,-0.00032551,0.00274378,-0.00204561,0.38672
 762,-0.00272908,0.00491599,-0.00008742,0.13737704,-0.14701587,0.002900
 87,0.04068253,-0.00975499,0.00062028,-0.00024390,-0.00662723,0.0000473
 7,-0.02313629,0.01835032,-0.00042524,-0.00089788,-0.00240164,-0.000005
 24,-0.00597158,-0.00241078,-0.00004244,-0.00547920,-0.00239538,0.00042
 069,0.00162472,-0.00042764,0.00001785,-0.00018677,0.00043998,-0.000015
 67,-0.00000093,0.00005035,-0.00000319,-0.00114673,0.00057450,-0.000007
 96,0.00199293,-0.00355512,0.00087127,0.00066605,0.00008109,-0.00065542
 ,-0.14255092,0.15017642,-0.00015768,-0.00011866,-0.00487899,-0.0057859
 4,0.00282618,-0.02571883,0.00004681,0.00029210,0.00376695,-0.00010941,
 -0.00002364,0.00494861,-0.00011217,-0.00008554,-0.00468971,0.00003327,
 0.00006687,-0.00057408,0.00002246,-0.00003655,0.00526562,0.00026210,-0
 .00022963,0.00252506,0.00001247,-0.00001420,-0.00039366,0.00005519,0.0
 0000687,-0.00278125,0.00001093,-0.00000474,-0.00074489,-0.00000980,0.0
 0000443,0.00166826,0.00133654,0.00205101,-0.00479391,-0.00081372,-0.00
 109874,-0.00009548,0.00520896,-0.00363575,0.02649629\\0.00000382,-0.00
 001556,0.00000800,-0.00001716,-0.00002128,-0.00000801,-0.00000046,0.00
 002812,0.00000667,0.00001684,0.00000098,-0.00000234,0.00003345,0.00001
 042,0.00000497,-0.00000650,-0.00001534,0.00000447,-0.00001913,0.000012
 62,-0.00000091,0.00000189,0.00001726,-0.00002918,-0.00000421,0.0000001
 9,0.00000002,-0.00000265,-0.00000281,-0.00000106,0.00000162,0.00000594
 ,0.00000102,0.00000355,-0.00000062,0.00000045,-0.00002724,-0.00000261,
 0.00002309,-0.00000340,-0.00000327,-0.00000255,0.00001959,-0.00001403,
 -0.00000463\\\@


 THERE IS AN OLD, OLD RECIPE IN MAINE FOR STEWING COOT. PLACE THE
 BIRD IN A KETTLE OF WATER WITH A RED BUILDING BRICK FREE OF MORTAR AND
 BLEMISHES. PARBOIL THE COOT AND BRICK TOGETHER FOR THREE HOURS.
 POUR OFF THE WATER, REFILL THE KETTLE, AND AGAIN PARBOIL FOR THREE HOURS.
 ONCE AGAIN POUR OFF THE WATER, FOR THE LAST TIME ADD FRESH WATER,
 AND LET THE COOT AND BRICK SIMMER TOGETHER OVERNIGHT. IN THE MORNING,
 THROW AWAY THE COOT AND EAT THE BRICK.
 Job cpu time:       0 days  1 hours  5 minutes 28.0 seconds.
 File lengths (MBytes):  RWF=    137 Int=      0 D2E=      0 Chk=      9 Scr=      1
 Normal termination of Gaussian 09 at Fri Aug 27 00:47:10 2021.
