 Entering Gaussian System, Link 0=g09
 AtFile(1): pc-2.gbs
            -H     0
            S    4   1.00
                  0.754230D+02           0.240650D-02
                  0.113500D+02           0.184870D-01
                  0.259930D+01           0.897420D-01
                  0.735130D+00           0.281110D+00
            S    1   1.00
                  0.231670D+00           0.100000D+01
            S    1   1.00
                  0.741470D-01           0.100000D+01
            P    1   1.00
                  0.160000D+01           0.100000D+01
            P    1   1.00
                  0.450000D+00           0.100000D+01
            D    1   1.00
                  0.125000D+01           0.100000D+01
            ****
            -C     0
            S    7   1.00
                  0.785710D+04           0.568250D-03
                  0.117870D+04           0.439150D-02
                  0.268320D+03           0.225040D-01
                  0.759480D+02           0.866530D-01
                  0.245590D+02           0.244050D+00
                  0.862120D+01           0.441480D+00
                  0.312780D+01           0.353320D+00
            S    7   1.00
                  0.117870D+04          -0.594920D-06
                  0.268320D+03          -0.627480D-04
                  0.759480D+02          -0.757730D-03
                  0.245590D+02          -0.733080D-02
                  0.862120D+01          -0.389320D-01
                  0.312780D+01          -0.889080D-01
                  0.822020D+00           0.216890D+00
            S    1   1.00
                  0.330170D+00           0.100000D+01
            S    1   1.00
                  0.114630D+00           0.100000D+01
            P    4   1.00
                  0.337750D+02           0.602940D-02
                  0.767660D+01           0.432280D-01
                  0.223570D+01           0.163010D+00
                  0.764470D+00           0.365040D+00
            P    1   1.00
                  0.262320D+00           0.100000D+01
            P    1   1.00
                  0.846380D-01           0.100000D+01
            D    1   1.00
                  0.140000D+01           0.100000D+01
            D    1   1.00
                  0.450000D+00           0.100000D+01
            F    1   1.00
                  0.950000D+00           0.100000D+01
            ****
            -N     0
            S    7   1.00
                  0.111010D+05           0.545700D-03
                  0.166530D+04           0.421810D-02
                  0.379080D+03           0.216450D-01
                  0.107300D+03           0.837760D-01
                  0.347470D+02           0.238810D+00
                  0.122490D+02           0.439940D+00
                  0.447430D+01           0.363640D+00
            S    7   1.00
                  0.166530D+04          -0.150060D-05
                  0.379080D+03          -0.587530D-04
                  0.107300D+03          -0.774530D-03
                  0.347470D+02          -0.721610D-02
                  0.122490D+02          -0.393380D-01
                  0.447430D+01          -0.906110D-01
                  0.124040D+01           0.198820D+00
            S    1   1.00
                  0.487430D+00           0.100000D+01
            S    1   1.00
                  0.164840D+00           0.100000D+01
            P    4   1.00
                  0.479340D+02           0.617060D-02
                  0.109990D+02           0.442600D-01
                  0.324720D+01           0.168250D+00
                  0.111140D+01           0.368480D+00
            P    1   1.00
                  0.379880D+00           0.100000D+01
            P    1   1.00
                  0.120680D+00           0.100000D+01
            D    1   1.00
                  0.180000D+01           0.100000D+01
            D    1   1.00
                  0.550000D+00           0.100000D+01
            F    1   1.00
                  0.102000D+01           0.100000D+01
            ****
            -O     0
            S    7   1.00
                  0.147820D+05           0.535190D-03
                  0.221730D+04           0.413750D-02
                  0.504740D+03           0.212450D-01
                  0.142870D+03           0.824530D-01
                  0.463000D+02           0.236710D+00
                  0.163370D+02           0.440390D+00
                  0.598280D+01           0.364650D+00
            S    7   1.00
                  0.221730D+04          -0.192750D-05
                  0.504740D+03          -0.579640D-04
                  0.142870D+03          -0.794940D-03
                  0.463000D+02          -0.731250D-02
                  0.163370D+02          -0.405740D-01
                  0.598280D+01          -0.915940D-01
                  0.167180D+01           0.209400D+00
            S    1   1.00
                  0.646620D+00           0.100000D+01
            S    1   1.00
                  0.216690D+00           0.100000D+01
            P    4   1.00
                  0.604240D+02           0.689490D-02
                  0.139350D+02           0.490050D-01
                  0.415310D+01           0.182550D+00
                  0.141580D+01           0.376330D+00
            P    1   1.00
                  0.475490D+00           0.100000D+01
            P    1   1.00
                  0.145290D+00           0.100000D+01
            D    1   1.00
                  0.220000D+01           0.100000D+01
            D    1   1.00
                  0.650000D+00           0.100000D+01
            F    1   1.00
                  0.110000D+01           0.100000D+01
            ****
 Initial command:
 /public3/home/sc51754/softwares/g09e01/l1.exe "./Gau-4970.inp" -scrdir="./"
 Entering Link 1 = /public3/home/sc51754/softwares/g09e01/l1.exe PID=      4971.
  
 Copyright (c) 1988,1990,1992,1993,1995,1998,2003,2009,2015,
            Gaussian, Inc.  All Rights Reserved.
  
 This is part of the Gaussian(R) 09 program.  It is based on
 the Gaussian(R) 03 system (copyright 2003, Gaussian, Inc.),
 the Gaussian(R) 98 system (copyright 1998, Gaussian, Inc.),
 the Gaussian(R) 94 system (copyright 1995, Gaussian, Inc.),
 the Gaussian 92(TM) system (copyright 1992, Gaussian, Inc.),
 the Gaussian 90(TM) system (copyright 1990, Gaussian, Inc.),
 the Gaussian 88(TM) system (copyright 1988, Gaussian, Inc.),
 the Gaussian 86(TM) system (copyright 1986, Carnegie Mellon
 University), and the Gaussian 82(TM) system (copyright 1983,
 Carnegie Mellon University). Gaussian is a federally registered
 trademark of Gaussian, Inc.
  
 This software contains proprietary and confidential information,
 including trade secrets, belonging to Gaussian, Inc.
  
 This software is provided under written license and may be
 used, copied, transmitted, or stored only in accord with that
 written license.
  
 The following legend is applicable only to US Government
 contracts under FAR:
  
                    RESTRICTED RIGHTS LEGEND
  
 Use, reproduction and disclosure by the US Government is
 subject to restrictions as set forth in subparagraphs (a)
 and (c) of the Commercial Computer Software - Restricted
 Rights clause in FAR 52.227-19.
  
 Gaussian, Inc.
 340 Quinnipiac St., Bldg. 40, Wallingford CT 06492
  
  
 ---------------------------------------------------------------
 Warning -- This program may not be used in any manner that
 competes with the business of Gaussian, Inc. or will provide
 assistance to any competitor of Gaussian, Inc.  The licensee
 of this program is prohibited from giving any competitor of
 Gaussian, Inc. access to this program.  By using this program,
 the user acknowledges that Gaussian, Inc. is engaged in the
 business of creating and licensing software in the field of
 computational chemistry and represents and warrants to the
 licensee that it is not a competitor of Gaussian, Inc. and that
 it will not use this program in any manner prohibited above.
 ---------------------------------------------------------------
  

 Cite this work as:
 Gaussian 09, Revision E.01,
 M. J. Frisch, G. W. Trucks, H. B. Schlegel, G. E. Scuseria, 
 M. A. Robb, J. R. Cheeseman, G. Scalmani, V. Barone, B. Mennucci, 
 G. A. Petersson, H. Nakatsuji, M. Caricato, X. Li, H. P. Hratchian, 
 A. F. Izmaylov, J. Bloino, G. Zheng, J. L. Sonnenberg, M. Hada, 
 M. Ehara, K. Toyota, R. Fukuda, J. Hasegawa, M. Ishida, T. Nakajima, 
 Y. Honda, O. Kitao, H. Nakai, T. Vreven, J. A. Montgomery, Jr., 
 J. E. Peralta, F. Ogliaro, M. Bearpark, J. J. Heyd, E. Brothers, 
 K. N. Kudin, V. N. Staroverov, T. Keith, R. Kobayashi, J. Normand, 
 K. Raghavachari, A. Rendell, J. C. Burant, S. S. Iyengar, J. Tomasi, 
 M. Cossi, N. Rega, J. M. Millam, M. Klene, J. E. Knox, J. B. Cross, 
 V. Bakken, C. Adamo, J. Jaramillo, R. Gomperts, R. E. Stratmann, 
 O. Yazyev, A. J. Austin, R. Cammi, C. Pomelli, J. W. Ochterski, 
 R. L. Martin, K. Morokuma, V. G. Zakrzewski, G. A. Voth, 
 P. Salvador, J. J. Dannenberg, S. Dapprich, A. D. Daniels, 
 O. Farkas, J. B. Foresman, J. V. Ortiz, J. Cioslowski, 
 and D. J. Fox, Gaussian, Inc., Wallingford CT, 2013.
 
 ******************************************
 Gaussian 09:  EM64L-G09RevE.01 30-Nov-2015
                28-Aug-2021 
 ******************************************
 %nprocshared=64
 Will use up to   64 processors via shared memory.
 %mem=128GB
 %chk=TST_H2O_BHandHLYP.chk
 ----------------------------------------------------------------------
 #p opt=(calcfc,qst3,maxcycle=200) freq gen geom=connectivity bhandhlyp
 ----------------------------------------------------------------------
 1/5=1,6=200,10=4,14=-1,18=20,26=3,27=203,38=1,57=2/1,3;
 2/9=110,12=2,17=6,18=5,40=1/2;
 3/5=7,11=2,16=1,25=1,30=1,71=2,74=-3,140=1/1,2,3;
 4//1;
 5/5=2,38=5/2;
 8/6=4,10=90,11=11/1;
 11/6=1,8=1,9=11,15=111,16=1/1,2,10;
 10/6=1,13=1/2;
 6/7=2,8=2,9=2,10=2,28=1/1;
 7/10=1,18=20,25=1/1,2,3,16;
 1/5=1,6=200,10=4,14=-1,18=20,26=3,27=203/3(2);
 2/9=110/2;
 99//99;
 2/9=110/2;
 3/5=7,6=1,11=2,16=1,25=1,30=1,71=1,74=-3,82=7/1,2,3;
 4/5=5,16=3,69=1/1;
 5/5=2,38=5/2;
 7//1,2,3,16;
 1/5=1,6=200,14=-1,18=20,26=3,27=203/3(-5);
 2/9=110/2;
 6/7=2,8=2,9=2,10=2,19=2,28=1/1;
 99/9=1/99;
 Leave Link    1 at Sat Aug 28 23:53:37 2021, MaxMem= 17179869184 cpu:        15.0
 (Enter /public3/home/sc51754/softwares/g09e01/l101.exe)
 -----------------------------
 HY_H2O_BHandHLYP_PC2_OPT_FREQ
 -----------------------------
 Symbolic Z-matrix:
 Charge =  0 Multiplicity = 1
 O                     1.19789   1.43306   0.00016 
 N                     0.29716  -0.66028  -0.00247 
 C                     0.13094   0.64628   0.00135 
 C                    -1.12693   1.24439   0.00702 
 C                    -0.78261  -1.43498  -0.00393 
 C                    -2.2264    0.43136   0.00682 
 C                    -2.0621   -0.94701   0.00089 
 H                     2.0061    0.90436  -0.01318 
 H                    -1.2004    2.31338   0.00971 
 H                    -0.5998   -2.49427  -0.00992 
 H                    -3.21086   0.86054   0.01028 
 H                    -2.9013   -1.61351  -0.00086 
 O                     3.09623  -0.56859  -0.08193 
 H                     3.63368  -0.8938    0.62872 
 H                     2.24205  -1.01071  -0.0262 
 
 Add virtual bond connecting atoms O13        and H8         Dist= 3.47D+00.
 Add virtual bond connecting atoms H15        and N2         Dist= 3.73D+00.
 Add virtual bond connecting atoms H15        and H8         Dist= 3.65D+00.
 Add atom     13 valence  3 ND=      2 dihedral       8     13     14     15
 -----------------------------
 PY_H2O_BHandHLYP_PC2_OPT_FREQ
 -----------------------------
 Symbolic Z-matrix:
 Charge =  0 Multiplicity = 1
 O                     1.24132   1.37733   0.00897 
 N                     0.24929  -0.64929   0.0143 
 C                     0.20706   0.72734   0.00754 
 C                    -1.11824   1.2777   -0.00162 
 C                    -0.83655  -1.44874   0.00842 
 C                    -2.20322   0.47747  -0.00657 
 C                    -2.07833  -0.93148  -0.00208 
 H                     2.70797   0.27586  -0.04082 
 H                    -1.19432   2.34642  -0.00609 
 H                    -0.64023  -2.50275   0.0119 
 H                    -3.18427   0.91576  -0.01472 
 H                    -2.93585  -1.57159  -0.00736 
 O                     3.08588  -0.61234  -0.07606 
 H                     3.88453  -0.60418   0.43378 
 H                     1.17522  -1.04815   0.02579 
 
 Add virtual bond connecting atoms H8         and O1         Dist= 3.47D+00.
 Add virtual bond connecting atoms O13        and H15        Dist= 3.71D+00.
 -----------------
 TST_H2O_BHandHLYP
 -----------------
 Symbolic Z-matrix:
 Charge =  0 Multiplicity = 1
 O                     1.26259   1.41763   0.00087 
 N                     0.36186  -0.67571  -0.00176 
 C                     0.19565   0.63085   0.00206 
 C                    -1.06223   1.22896   0.00773 
 C                    -0.7179   -1.45041  -0.00322 
 C                    -2.1617    0.41593   0.00753 
 C                    -1.99739  -0.96244   0.0016 
 H                     2.23235   0.63923  -0.03218 
 H                    -1.13569   2.29795   0.01042 
 H                    -0.5351   -2.50969  -0.00921 
 H                    -3.14616   0.84511   0.01099 
 H                    -2.8366   -1.62894  -0.00015 
 O                     2.64846  -0.37837  -0.06874 
 H                     3.18592  -0.70358   0.64191 
 H                     1.68207  -0.87857  -0.00569 
 
 NAtoms=     15 NQM=       15 NQMF=       0 NMMI=      0 NMMIF=      0
                NMic=       0 NMicF=      0.
                    Isotopes and Nuclear Properties:
 (Nuclear quadrupole moments (NQMom) in fm**2, nuclear magnetic moments (NMagM)
  in nuclear magnetons)

  Atom         1           2           3           4           5           6           7           8           9          10
 IAtWgt=          16          14          12          12          12          12          12           1           1           1
 AtmWgt=  15.9949146  14.0030740  12.0000000  12.0000000  12.0000000  12.0000000  12.0000000   1.0078250   1.0078250   1.0078250
 NucSpn=           0           2           0           0           0           0           0           1           1           1
 AtZEff=   0.0000000   0.0000000   0.0000000   0.0000000   0.0000000   0.0000000   0.0000000   0.0000000   0.0000000   0.0000000
 NQMom=    0.0000000   2.0440000   0.0000000   0.0000000   0.0000000   0.0000000   0.0000000   0.0000000   0.0000000   0.0000000
 NMagM=    0.0000000   0.4037610   0.0000000   0.0000000   0.0000000   0.0000000   0.0000000   2.7928460   2.7928460   2.7928460
 AtZNuc=   8.0000000   7.0000000   6.0000000   6.0000000   6.0000000   6.0000000   6.0000000   1.0000000   1.0000000   1.0000000

  Atom        11          12          13          14          15
 IAtWgt=           1           1          16           1           1
 AtmWgt=   1.0078250   1.0078250  15.9949146   1.0078250   1.0078250
 NucSpn=           1           1           0           1           1
 AtZEff=   0.0000000   0.0000000   0.0000000   0.0000000   0.0000000
 NQMom=    0.0000000   0.0000000   0.0000000   0.0000000   0.0000000
 NMagM=    2.7928460   2.7928460   0.0000000   2.7928460   2.7928460
 AtZNuc=   1.0000000   1.0000000   8.0000000   1.0000000   1.0000000
 Leave Link  101 at Sat Aug 28 23:53:38 2021, MaxMem= 17179869184 cpu:        16.1
 (Enter /public3/home/sc51754/softwares/g09e01/l103.exe)

 GradGradGradGradGradGradGradGradGradGradGradGradGradGradGradGradGradGrad
 Berny optimization.
 Initialization pass.
                           ----------------------------
                           !    Initial Parameters    !
                           ! (Angstroms and Degrees)  !
 --------------------------                            --------------------------
 ! Name  Definition        TS        Reactant  Product Derivative Info.         !
 --------------------------------------------------------------------------------
 ! R1    R(1,3)             1.3257    1.3257    1.2215 calculate D2E/DX2 analyti!
 ! R2    R(1,8)             1.244     0.9659    1.8349 calculate D2E/DX2 analyti!
 ! R3    R(2,3)             1.3171    1.3171    1.3773 calculate D2E/DX2 analyti!
 ! R4    R(2,5)             1.3289    1.3289    1.3484 calculate D2E/DX2 analyti!
 ! R5    R(2,15)            1.3357    1.9764    1.0082 calculate D2E/DX2 analyti!
 ! R6    R(3,4)             1.3928    1.3928    1.4351 calculate D2E/DX2 analyti!
 ! R7    R(4,6)             1.3674    1.3674    1.3482 calculate D2E/DX2 analyti!
 ! R8    R(4,9)             1.0715    1.0715    1.0714 calculate D2E/DX2 analyti!
 ! R9    R(5,7)             1.3694    1.3694    1.3452 calculate D2E/DX2 analyti!
 ! R10   R(5,10)            1.075     1.075     1.0721 calculate D2E/DX2 analyti!
 ! R11   R(6,7)             1.3881    1.3881    1.4145 calculate D2E/DX2 analyti!
 ! R12   R(6,11)            1.074     1.074     1.0745 calculate D2E/DX2 analyti!
 ! R13   R(7,12)            1.0717    1.0717    1.0701 calculate D2E/DX2 analyti!
 ! R14   R(8,13)            1.1       1.8338    0.9659 calculate D2E/DX2 analyti!
 ! R15   R(8,15)            1.6147    1.9296    2.0265 calculate D2E/DX2 analyti!
 ! R16   R(13,14)           0.9485    0.9485    0.9475 calculate D2E/DX2 analyti!
 ! R17   R(13,15)           1.09      0.9634    1.9624 calculate D2E/DX2 analyti!
 ! A1    A(3,1,8)         104.8372  110.4021  110.9353 calculate D2E/DX2 analyti!
 ! A2    A(3,2,5)         118.4085  118.4085  124.6028 calculate D2E/DX2 analyti!
 ! A3    A(3,2,15)        105.9865  107.4648  115.0634 calculate D2E/DX2 analyti!
 ! A4    A(5,2,15)        135.6049  134.1224  120.3338 calculate D2E/DX2 analyti!
 ! A5    A(1,3,2)         119.1552  119.1552  120.3897 calculate D2E/DX2 analyti!
 ! A6    A(1,3,4)         118.1636  118.1636  125.3002 calculate D2E/DX2 analyti!
 ! A7    A(2,3,4)         122.6812  122.6812  114.3101 calculate D2E/DX2 analyti!
 ! A8    A(3,4,6)         118.0869  118.0869  121.0384 calculate D2E/DX2 analyti!
 ! A9    A(3,4,9)         119.3623  119.3623  116.6247 calculate D2E/DX2 analyti!
 ! A10   A(6,4,9)         122.5508  122.5508  122.3368 calculate D2E/DX2 analyti!
 ! A11   A(2,5,7)         123.465   123.465   121.0248 calculate D2E/DX2 analyti!
 ! A12   A(2,5,10)        115.8671  115.8671  115.8103 calculate D2E/DX2 analyti!
 ! A13   A(7,5,10)        120.6679  120.6679  123.1649 calculate D2E/DX2 analyti!
 ! A14   A(4,6,7)         119.6842  119.6842  121.3434 calculate D2E/DX2 analyti!
 ! A15   A(4,6,11)        119.9625  119.9625  119.5174 calculate D2E/DX2 analyti!
 ! A16   A(7,6,11)        120.3533  120.3533  119.1392 calculate D2E/DX2 analyti!
 ! A17   A(5,7,6)         117.6741  117.6741  117.6802 calculate D2E/DX2 analyti!
 ! A18   A(5,7,12)        120.6666  120.6666  120.6473 calculate D2E/DX2 analyti!
 ! A19   A(6,7,12)        121.6592  121.6592  121.6725 calculate D2E/DX2 analyti!
 ! A20   A(1,8,13)        151.0041  159.6576  149.9665 calculate D2E/DX2 analyti!
 ! A21   A(1,8,15)        108.7888  130.2161   77.6868 calculate D2E/DX2 analyti!
 ! A22   A(8,13,14)       120.4399  125.7441  107.5905 calculate D2E/DX2 analyti!
 ! A23   A(8,13,15)        95.0036   80.757    79.7108 calculate D2E/DX2 analyti!
 ! A24   A(14,13,15)      107.5598  107.5598  142.6208 calculate D2E/DX2 analyti!
 ! A25   A(2,15,8)        101.1937   72.7591  115.8338 calculate D2E/DX2 analyti!
 ! A26   A(2,15,13)       143.783   142.3556  143.6784 calculate D2E/DX2 analyti!
 ! D1    D(8,1,3,2)         1.3422    0.6057    2.0558 calculate D2E/DX2 analyti!
 ! D2    D(8,1,3,4)      -178.6754 -179.4119 -177.9092 calculate D2E/DX2 analyti!
 ! D3    D(3,1,8,13)        0.8317    3.8102    0.8221 calculate D2E/DX2 analyti!
 ! D4    D(3,1,8,15)       -1.8619   -0.4019   -2.2557 calculate D2E/DX2 analyti!
 ! D5    D(5,2,3,1)      -179.8671 -179.8671 -179.7452 calculate D2E/DX2 analyti!
 ! D6    D(5,2,3,4)         0.1514    0.1514    0.2235 calculate D2E/DX2 analyti!
 ! D7    D(15,2,3,1)        0.0243   -0.517     0.3464 calculate D2E/DX2 analyti!
 ! D8    D(15,2,3,4)     -179.9572  179.5015 -179.6849 calculate D2E/DX2 analyti!
 ! D9    D(3,2,5,7)        -0.1277   -0.1277   -0.1425 calculate D2E/DX2 analyti!
 ! D10   D(3,2,5,10)      179.8306  179.8306  179.8129 calculate D2E/DX2 analyti!
 ! D11   D(15,2,5,7)     -179.9785 -179.2641  179.7613 calculate D2E/DX2 analyti!
 ! D12   D(15,2,5,10)      -0.0202    0.6942   -0.2832 calculate D2E/DX2 analyti!
 ! D13   D(3,2,15,8)       -1.0499    0.2334   -2.4039 calculate D2E/DX2 analyti!
 ! D14   D(3,2,15,13)      -5.5125   -4.498    -5.9141 calculate D2E/DX2 analyti!
 ! D15   D(5,2,15,8)      178.8135  179.4371  177.6835 calculate D2E/DX2 analyti!
 ! D16   D(5,2,15,13)     174.351   174.7057  174.1733 calculate D2E/DX2 analyti!
 ! D17   D(1,3,4,6)       179.9325  179.9325  179.7981 calculate D2E/DX2 analyti!
 ! D18   D(1,3,4,9)         0.0325    0.0325   -0.0927 calculate D2E/DX2 analyti!
 ! D19   D(2,3,4,6)        -0.0859   -0.0859   -0.1688 calculate D2E/DX2 analyti!
 ! D20   D(2,3,4,9)      -179.9858 -179.9858  179.9403 calculate D2E/DX2 analyti!
 ! D21   D(3,4,6,7)        -0.0079   -0.0079    0.0406 calculate D2E/DX2 analyti!
 ! D22   D(3,4,6,11)     -179.949  -179.949  -179.92   calculate D2E/DX2 analyti!
 ! D23   D(9,4,6,7)       179.8887  179.8887  179.9251 calculate D2E/DX2 analyti!
 ! D24   D(9,4,6,11)       -0.0525   -0.0525   -0.0355 calculate D2E/DX2 analyti!
 ! D25   D(2,5,7,6)         0.0379    0.0379   -0.0068 calculate D2E/DX2 analyti!
 ! D26   D(2,5,7,12)      179.9798  179.9798  179.9588 calculate D2E/DX2 analyti!
 ! D27   D(10,5,7,6)     -179.9185 -179.9185 -179.9589 calculate D2E/DX2 analyti!
 ! D28   D(10,5,7,12)       0.0234    0.0234    0.0067 calculate D2E/DX2 analyti!
 ! D29   D(4,6,7,5)         0.0302    0.0302    0.0528 calculate D2E/DX2 analyti!
 ! D30   D(4,6,7,12)     -179.911  -179.911  -179.9124 calculate D2E/DX2 analyti!
 ! D31   D(11,6,7,5)      179.9712  179.9712 -179.9864 calculate D2E/DX2 analyti!
 ! D32   D(11,6,7,12)       0.0299    0.0299    0.0483 calculate D2E/DX2 analyti!
 ! D33   D(1,8,13,14)    -117.5418 -111.5744 -145.3122 calculate D2E/DX2 analyti!
 ! D34   D(1,8,13,15)      -3.7934   -6.535    -3.1561 calculate D2E/DX2 analyti!
 ! D35   D(1,8,15,2)        1.943     0.1089    2.819  calculate D2E/DX2 analyti!
 ! D36   D(8,13,14,15)    106.9814   91.1567   96.1036 calculate D2E/DX2 analyti!
 ! D37   D(8,13,15,2)       6.4577    4.8177    6.7484 calculate D2E/DX2 analyti!
 ! D38   D(14,13,15,2)    130.592   129.5178  112.3131 calculate D2E/DX2 analyti!
 --------------------------------------------------------------------------------
 Trust Radius=3.00D-01 FncErr=1.00D-07 GrdErr=1.00D-06
 Number of steps in this run=    100 maximum allowed number of steps=    100.
 Search for a saddle point of order  1.
 GradGradGradGradGradGradGradGradGradGradGradGradGradGradGradGradGradGrad

 Leave Link  103 at Sat Aug 28 23:53:38 2021, MaxMem= 17179869184 cpu:         1.2
 (Enter /public3/home/sc51754/softwares/g09e01/l202.exe)
                          Input orientation:                          
 ---------------------------------------------------------------------
 Center     Atomic      Atomic             Coordinates (Angstroms)
 Number     Number       Type             X           Y           Z
 ---------------------------------------------------------------------
      1          8           0        1.262594    1.417633    0.000869
      2          7           0        0.361864   -0.675706   -0.001765
      3          6           0        0.195646    0.630849    0.002060
      4          6           0       -1.062232    1.228960    0.007728
      5          6           0       -0.717903   -1.450413   -0.003216
      6          6           0       -2.161698    0.415930    0.007527
      7          6           0       -1.997395   -0.962438    0.001603
      8          1           0        2.232355    0.639229   -0.032184
      9          1           0       -1.135694    2.297952    0.010419
     10          1           0       -0.535097   -2.509694   -0.009210
     11          1           0       -3.146157    0.845113    0.010985
     12          1           0       -2.836599   -1.628938   -0.000149
     13          8           0        2.648463   -0.378375   -0.068743
     14          1           0        3.185917   -0.703585    0.641906
     15          1           0        1.682065   -0.878575   -0.005690
 ---------------------------------------------------------------------
                    Distance matrix (angstroms):
                    1          2          3          4          5
     1  O    0.000000
     2  N    2.278901   0.000000
     3  C    1.325673   1.317091   0.000000
     4  C    2.332479   2.378212   1.392848   0.000000
     5  C    3.485409   1.328936   2.272939   2.701430   0.000000
     6  C    3.567804   2.749567   2.367127   1.367422   2.359639
     7  C    4.036368   2.376621   2.710718   2.382602   1.369395
     8  H    1.243962   2.286639   2.037014   3.347189   3.615448
     9  H    2.554768   3.329485   2.133487   1.071517   3.771601
    10  H    4.319224   2.041594   3.224457   3.775671   1.074956
    11  H    4.445781   3.823515   3.348677   2.118984   3.341565
    12  H    5.107346   3.337487   3.781686   3.363929   2.126206
    13  O    2.269608   2.306822   2.653273   4.044580   3.533550
    14  H    2.934223   2.896612   3.336440   4.709955   4.026629
    15  H    2.334217   1.335703   2.118457   3.460209   2.467155
                    6          7          8          9         10
     6  C    0.000000
     7  C    1.388139   0.000000
     8  H    4.399902   4.522971   0.000000
     9  H    2.143525   3.372351   3.754588   0.000000
    10  H    3.347445   2.128951   4.192259   4.845055   0.000000
    11  H    1.073950   2.141724   5.382624   2.480464   4.251208
    12  H    2.153378   1.071676   5.553368   4.279446   2.464290
    13  O    4.875898   4.682956   1.100000   4.635605   3.831595
    14  H    5.500248   5.229122   1.779558   5.299464   4.187114
    15  H    4.055913   3.680423   1.614698   4.246216   2.752521
                   11         12         13         14         15
    11  H    0.000000
    12  H    2.493367   0.000000
    13  O    5.922913   5.626235   0.000000
    14  H    6.549174   6.126925   0.948494   0.000000
    15  H    5.126705   4.580546   1.090000   1.646685   0.000000
 Stoichiometry    C5H7NO2
 Framework group  C1[X(C5H7NO2)]
 Deg. of freedom    39
 Full point group                 C1      NOp   1
 Largest Abelian subgroup         C1      NOp   1
 Largest concise Abelian subgroup C1      NOp   1
                         Standard orientation:                         
 ---------------------------------------------------------------------
 Center     Atomic      Atomic             Coordinates (Angstroms)
 Number     Number       Type             X           Y           Z
 ---------------------------------------------------------------------
      1          8           0        1.391874    1.295541   -0.002164
      2          7           0        0.324702   -0.718043   -0.006139
      3          6           0        0.264763    0.597669   -0.000027
      4          6           0       -0.940579    1.295592    0.009040
      5          6           0       -0.814213   -1.402835   -0.006601
      6          6           0       -2.102228    0.574194    0.009810
      7          6           0       -2.050012   -0.812937    0.001495
      8          1           0        2.295403    0.441276   -0.038313
      9          1           0       -0.927293    2.367017    0.013478
     10          1           0       -0.717735   -2.473424   -0.014545
     11          1           0       -3.048721    1.081622    0.015870
     12          1           0       -2.940398   -1.409343    0.000415
     13          8           0        2.627734   -0.606599   -0.077223
     14          1           0        3.138432   -0.975406    0.631867
     15          1           0        1.624149   -1.027066   -0.012996
 ---------------------------------------------------------------------
 Rotational constants (GHZ):      4.3013665      1.6640860      1.2026629
 Leave Link  202 at Sat Aug 28 23:53:38 2021, MaxMem= 17179869184 cpu:         4.5
 (Enter /public3/home/sc51754/softwares/g09e01/l301.exe)
 General basis read from cards:  (5D, 7F)
 Centers:       8      9     10     11     12     14     15
 S 4 1.00
     Exponent=  7.5423000000D+01 Coefficients=  2.4065000000D-03
     Exponent=  1.1350000000D+01 Coefficients=  1.8487000000D-02
     Exponent=  2.5993000000D+00 Coefficients=  8.9742000000D-02
     Exponent=  7.3513000000D-01 Coefficients=  2.8111000000D-01
 S 1 1.00
     Exponent=  2.3167000000D-01 Coefficients=  1.0000000000D+00
 S 1 1.00
     Exponent=  7.4147000000D-02 Coefficients=  1.0000000000D+00
 P 1 1.00
     Exponent=  1.6000000000D+00 Coefficients=  1.0000000000D+00
 P 1 1.00
     Exponent=  4.5000000000D-01 Coefficients=  1.0000000000D+00
 D 1 1.00
     Exponent=  1.2500000000D+00 Coefficients=  1.0000000000D+00
 ****
 Centers:       3      4      5      6      7
 S 7 1.00
     Exponent=  7.8571000000D+03 Coefficients=  5.6825000000D-04
     Exponent=  1.1787000000D+03 Coefficients=  4.3915000000D-03
     Exponent=  2.6832000000D+02 Coefficients=  2.2504000000D-02
     Exponent=  7.5948000000D+01 Coefficients=  8.6653000000D-02
     Exponent=  2.4559000000D+01 Coefficients=  2.4405000000D-01
     Exponent=  8.6212000000D+00 Coefficients=  4.4148000000D-01
     Exponent=  3.1278000000D+00 Coefficients=  3.5332000000D-01
 S 7 1.00
     Exponent=  1.1787000000D+03 Coefficients= -5.9492000000D-07
     Exponent=  2.6832000000D+02 Coefficients= -6.2748000000D-05
     Exponent=  7.5948000000D+01 Coefficients= -7.5773000000D-04
     Exponent=  2.4559000000D+01 Coefficients= -7.3308000000D-03
     Exponent=  8.6212000000D+00 Coefficients= -3.8932000000D-02
     Exponent=  3.1278000000D+00 Coefficients= -8.8908000000D-02
     Exponent=  8.2202000000D-01 Coefficients=  2.1689000000D-01
 S 1 1.00
     Exponent=  3.3017000000D-01 Coefficients=  1.0000000000D+00
 S 1 1.00
     Exponent=  1.1463000000D-01 Coefficients=  1.0000000000D+00
 P 4 1.00
     Exponent=  3.3775000000D+01 Coefficients=  6.0294000000D-03
     Exponent=  7.6766000000D+00 Coefficients=  4.3228000000D-02
     Exponent=  2.2357000000D+00 Coefficients=  1.6301000000D-01
     Exponent=  7.6447000000D-01 Coefficients=  3.6504000000D-01
 P 1 1.00
     Exponent=  2.6232000000D-01 Coefficients=  1.0000000000D+00
 P 1 1.00
     Exponent=  8.4638000000D-02 Coefficients=  1.0000000000D+00
 D 1 1.00
     Exponent=  1.4000000000D+00 Coefficients=  1.0000000000D+00
 D 1 1.00
     Exponent=  4.5000000000D-01 Coefficients=  1.0000000000D+00
 F 1 1.00
     Exponent=  9.5000000000D-01 Coefficients=  1.0000000000D+00
 ****
 Centers:       2
 S 7 1.00
     Exponent=  1.1101000000D+04 Coefficients=  5.4570000000D-04
     Exponent=  1.6653000000D+03 Coefficients=  4.2181000000D-03
     Exponent=  3.7908000000D+02 Coefficients=  2.1645000000D-02
     Exponent=  1.0730000000D+02 Coefficients=  8.3776000000D-02
     Exponent=  3.4747000000D+01 Coefficients=  2.3881000000D-01
     Exponent=  1.2249000000D+01 Coefficients=  4.3994000000D-01
     Exponent=  4.4743000000D+00 Coefficients=  3.6364000000D-01
 S 7 1.00
     Exponent=  1.6653000000D+03 Coefficients= -1.5006000000D-06
     Exponent=  3.7908000000D+02 Coefficients= -5.8753000000D-05
     Exponent=  1.0730000000D+02 Coefficients= -7.7453000000D-04
     Exponent=  3.4747000000D+01 Coefficients= -7.2161000000D-03
     Exponent=  1.2249000000D+01 Coefficients= -3.9338000000D-02
     Exponent=  4.4743000000D+00 Coefficients= -9.0611000000D-02
     Exponent=  1.2404000000D+00 Coefficients=  1.9882000000D-01
 S 1 1.00
     Exponent=  4.8743000000D-01 Coefficients=  1.0000000000D+00
 S 1 1.00
     Exponent=  1.6484000000D-01 Coefficients=  1.0000000000D+00
 P 4 1.00
     Exponent=  4.7934000000D+01 Coefficients=  6.1706000000D-03
     Exponent=  1.0999000000D+01 Coefficients=  4.4260000000D-02
     Exponent=  3.2472000000D+00 Coefficients=  1.6825000000D-01
     Exponent=  1.1114000000D+00 Coefficients=  3.6848000000D-01
 P 1 1.00
     Exponent=  3.7988000000D-01 Coefficients=  1.0000000000D+00
 P 1 1.00
     Exponent=  1.2068000000D-01 Coefficients=  1.0000000000D+00
 D 1 1.00
     Exponent=  1.8000000000D+00 Coefficients=  1.0000000000D+00
 D 1 1.00
     Exponent=  5.5000000000D-01 Coefficients=  1.0000000000D+00
 F 1 1.00
     Exponent=  1.0200000000D+00 Coefficients=  1.0000000000D+00
 ****
 Centers:       1     13
 S 7 1.00
     Exponent=  1.4782000000D+04 Coefficients=  5.3519000000D-04
     Exponent=  2.2173000000D+03 Coefficients=  4.1375000000D-03
     Exponent=  5.0474000000D+02 Coefficients=  2.1245000000D-02
     Exponent=  1.4287000000D+02 Coefficients=  8.2453000000D-02
     Exponent=  4.6300000000D+01 Coefficients=  2.3671000000D-01
     Exponent=  1.6337000000D+01 Coefficients=  4.4039000000D-01
     Exponent=  5.9828000000D+00 Coefficients=  3.6465000000D-01
 S 7 1.00
     Exponent=  2.2173000000D+03 Coefficients= -1.9275000000D-06
     Exponent=  5.0474000000D+02 Coefficients= -5.7964000000D-05
     Exponent=  1.4287000000D+02 Coefficients= -7.9494000000D-04
     Exponent=  4.6300000000D+01 Coefficients= -7.3125000000D-03
     Exponent=  1.6337000000D+01 Coefficients= -4.0574000000D-02
     Exponent=  5.9828000000D+00 Coefficients= -9.1594000000D-02
     Exponent=  1.6718000000D+00 Coefficients=  2.0940000000D-01
 S 1 1.00
     Exponent=  6.4662000000D-01 Coefficients=  1.0000000000D+00
 S 1 1.00
     Exponent=  2.1669000000D-01 Coefficients=  1.0000000000D+00
 P 4 1.00
     Exponent=  6.0424000000D+01 Coefficients=  6.8949000000D-03
     Exponent=  1.3935000000D+01 Coefficients=  4.9005000000D-02
     Exponent=  4.1531000000D+00 Coefficients=  1.8255000000D-01
     Exponent=  1.4158000000D+00 Coefficients=  3.7633000000D-01
 P 1 1.00
     Exponent=  4.7549000000D-01 Coefficients=  1.0000000000D+00
 P 1 1.00
     Exponent=  1.4529000000D-01 Coefficients=  1.0000000000D+00
 D 1 1.00
     Exponent=  2.2000000000D+00 Coefficients=  1.0000000000D+00
 D 1 1.00
     Exponent=  6.5000000000D-01 Coefficients=  1.0000000000D+00
 F 1 1.00
     Exponent=  1.1000000000D+00 Coefficients=  1.0000000000D+00
 ****
 Ernie: Thresh=  0.10000D-02 Tol=  0.10000D-05 Strict=F.
 Ernie:  8 primitive shells out of 263 were deleted.
 There are   385 symmetry adapted cartesian basis functions of A   symmetry.
 There are   338 symmetry adapted basis functions of A   symmetry.
   338 basis functions,   566 primitive gaussians,   385 cartesian basis functions
    30 alpha electrons       30 beta electrons
       nuclear repulsion energy       372.4106435537 Hartrees.
 IExCor=  402 DFT=T Ex+Corr=BHandHLYP ExCW=0 ScaHFX=  0.500000
 ScaDFX=  0.500000  0.500000  1.000000  1.000000 ScalE2=  1.000000  1.000000
 IRadAn=      0 IRanWt=     -1 IRanGd=            0 ICorTp=0 IEmpDi=  4
 NAtoms=   15 NActive=   15 NUniq=   15 SFac= 1.00D+00 NAtFMM=   60 NAOKFM=F Big=F
 Integral buffers will be    131072 words long.
 Raffenetti 2 integral format.
 Two-electron integral symmetry is turned on.
 Leave Link  301 at Sat Aug 28 23:53:39 2021, MaxMem= 17179869184 cpu:         2.8
 (Enter /public3/home/sc51754/softwares/g09e01/l302.exe)
 NPDir=0 NMtPBC=     1 NCelOv=     1 NCel=       1 NClECP=     1 NCelD=      1
         NCelK=      1 NCelE2=     1 NClLst=     1 CellRange=     0.0.
 One-electron integrals computed using PRISM.
 NBasis=   338 RedAO= T EigKep=  1.40D-04  NBF=   338
 NBsUse=   338 1.00D-06 EigRej= -1.00D+00 NBFU=   338
 Precomputing XC quadrature grid using
 IXCGrd= 4 IRadAn=           0 IRanWt=          -1 IRanGd=           0 AccXCQ= 0.00D+00.
 Generated NRdTot=       0 NPtTot=           0 NUsed=           0 NTot=          32
 NSgBfM=   385   385   385   385   385 MxSgAt=    15 MxSgA2=    15.
 Leave Link  302 at Sat Aug 28 23:53:40 2021, MaxMem= 17179869184 cpu:        54.3
 (Enter /public3/home/sc51754/softwares/g09e01/l303.exe)
 DipDrv:  MaxL=1.
 Leave Link  303 at Sat Aug 28 23:53:40 2021, MaxMem= 17179869184 cpu:         2.8
 (Enter /public3/home/sc51754/softwares/g09e01/l401.exe)
 ExpMin= 7.41D-02 ExpMax= 1.48D+04 ExpMxC= 5.05D+02 IAcc=2 IRadAn=         4 AccDes= 0.00D+00
 Harris functional with IExCor=  402 and IRadAn=       4 diagonalized for initial guess.
 HarFok:  IExCor=  402 AccDes= 0.00D+00 IRadAn=         4 IDoV= 1 UseB2=F ITyADJ=14
 ICtDFT=  3500011 ScaDFX=  1.000000  1.000000  1.000000  1.000000
 FoFCou: FMM=F IPFlag=           0 FMFlag=      100000 FMFlg1=           0
         NFxFlg=           0 DoJE=T BraDBF=F KetDBF=T FulRan=T
         wScrn=  0.000000 ICntrl=     500 IOpCl=  0 I1Cent=   200000004 NGrid=           0
         NMat0=    1 NMatS0=      1 NMatT0=    0 NMatD0=    1 NMtDS0=    0 NMtDT0=    0
 Petite list used in FoFCou.
 Harris En= -400.160129015419    
 JPrj=0 DoOrth=F DoCkMO=F.
 Leave Link  401 at Sat Aug 28 23:53:41 2021, MaxMem= 17179869184 cpu:        50.4
 (Enter /public3/home/sc51754/softwares/g09e01/l502.exe)
 Closed shell SCF:
 Using DIIS extrapolation, IDIIS=  1040.
 Integral symmetry usage will be decided dynamically.
 Keep R1 ints in memory in canonical form, NReq=1670404686.
 IVT=      490665 IEndB=      490665 NGot= 17179869184 MDV= 15538220534
 LenX= 15538220534 LenY= 15538071868
 Requested convergence on RMS density matrix=1.00D-08 within 128 cycles.
 Requested convergence on MAX density matrix=1.00D-06.
 Requested convergence on             energy=1.00D-06.
 No special actions if energy rises.
 FoFCou: FMM=F IPFlag=           0 FMFlag=           0 FMFlg1=           0
         NFxFlg=           0 DoJE=F BraDBF=F KetDBF=F FulRan=T
         wScrn=  0.000000 ICntrl=     600 IOpCl=  0 I1Cent=           0 NGrid=           0
         NMat0=    1 NMatS0=  57291 NMatT0=    0 NMatD0=    1 NMtDS0=    0 NMtDT0=    0
 Symmetry not used in FoFCou.
 Integral accuracy reduced to 1.0D-05 until final iterations.

 Cycle   1  Pass 0  IDiag  1:
 E= -399.584405041602    
 DIIS: error= 2.91D-02 at cycle   1 NSaved=   1.
 NSaved= 1 IEnMin= 1 EnMin= -399.584405041602     IErMin= 1 ErrMin= 2.91D-02
 ErrMax= 2.91D-02  0.00D+00 EMaxC= 1.00D-01 BMatC= 3.74D-01 BMatP= 3.74D-01
 IDIUse=3 WtCom= 7.09D-01 WtEn= 2.91D-01
 Coeff-Com:  0.100D+01
 Coeff-En:   0.100D+01
 Coeff:      0.100D+01
 Gap=     0.257 Goal=   None    Shift=    0.000
 GapD=    0.257 DampG=1.000 DampE=0.500 DampFc=0.5000 IDamp=-1.
 Damping current iteration by 5.00D-01
 RMSDP=2.44D-03 MaxDP=1.35D-01              OVMax= 1.78D-01

 Cycle   2  Pass 0  IDiag  1:
 E= -399.721761005436     Delta-E=       -0.137355963834 Rises=F Damp=T
 DIIS: error= 9.81D-03 at cycle   2 NSaved=   2.
 NSaved= 2 IEnMin= 2 EnMin= -399.721761005436     IErMin= 2 ErrMin= 9.81D-03
 ErrMax= 9.81D-03  0.00D+00 EMaxC= 1.00D-01 BMatC= 2.60D-02 BMatP= 3.74D-01
 IDIUse=3 WtCom= 9.02D-01 WtEn= 9.81D-02
 Coeff-Com: -0.894D-01 0.109D+01
 Coeff-En:   0.000D+00 0.100D+01
 Coeff:     -0.806D-01 0.108D+01
 Gap=     0.313 Goal=   None    Shift=    0.000
 RMSDP=6.16D-04 MaxDP=3.43D-02 DE=-1.37D-01 OVMax= 9.48D-02

 Cycle   3  Pass 0  IDiag  1:
 E= -399.852414027977     Delta-E=       -0.130653022542 Rises=F Damp=F
 DIIS: error= 3.22D-03 at cycle   3 NSaved=   3.
 NSaved= 3 IEnMin= 3 EnMin= -399.852414027977     IErMin= 3 ErrMin= 3.22D-03
 ErrMax= 3.22D-03  0.00D+00 EMaxC= 1.00D-01 BMatC= 9.64D-03 BMatP= 2.60D-02
 IDIUse=3 WtCom= 9.68D-01 WtEn= 3.22D-02
 Coeff-Com: -0.959D-01 0.404D+00 0.692D+00
 Coeff-En:   0.000D+00 0.000D+00 0.100D+01
 Coeff:     -0.928D-01 0.391D+00 0.702D+00
 Gap=     0.271 Goal=   None    Shift=    0.000
 RMSDP=2.58D-04 MaxDP=1.50D-02 DE=-1.31D-01 OVMax= 3.33D-02

 Cycle   4  Pass 0  IDiag  1:
 E= -399.857881093859     Delta-E=       -0.005467065882 Rises=F Damp=F
 DIIS: error= 1.96D-03 at cycle   4 NSaved=   4.
 NSaved= 4 IEnMin= 4 EnMin= -399.857881093859     IErMin= 4 ErrMin= 1.96D-03
 ErrMax= 1.96D-03  0.00D+00 EMaxC= 1.00D-01 BMatC= 2.25D-03 BMatP= 9.64D-03
 IDIUse=3 WtCom= 9.80D-01 WtEn= 1.96D-02
 Coeff-Com: -0.384D-01 0.764D-01 0.369D+00 0.593D+00
 Coeff-En:   0.000D+00 0.000D+00 0.184D+00 0.816D+00
 Coeff:     -0.376D-01 0.749D-01 0.365D+00 0.598D+00
 Gap=     0.273 Goal=   None    Shift=    0.000
 RMSDP=1.01D-04 MaxDP=6.99D-03 DE=-5.47D-03 OVMax= 1.19D-02

 Cycle   5  Pass 0  IDiag  1:
 E= -399.859729398187     Delta-E=       -0.001848304328 Rises=F Damp=F
 DIIS: error= 3.01D-04 at cycle   5 NSaved=   5.
 NSaved= 5 IEnMin= 5 EnMin= -399.859729398187     IErMin= 5 ErrMin= 3.01D-04
 ErrMax= 3.01D-04  0.00D+00 EMaxC= 1.00D-01 BMatC= 5.61D-05 BMatP= 2.25D-03
 IDIUse=3 WtCom= 9.97D-01 WtEn= 3.01D-03
 Coeff-Com: -0.894D-02 0.795D-02 0.921D-01 0.216D+00 0.693D+00
 Coeff-En:   0.000D+00 0.000D+00 0.000D+00 0.000D+00 0.100D+01
 Coeff:     -0.891D-02 0.792D-02 0.918D-01 0.216D+00 0.694D+00
 Gap=     0.273 Goal=   None    Shift=    0.000
 RMSDP=1.83D-05 MaxDP=8.70D-04 DE=-1.85D-03 OVMax= 2.29D-03

 Cycle   6  Pass 0  IDiag  1:
 E= -399.859771156416     Delta-E=       -0.000041758229 Rises=F Damp=F
 DIIS: error= 1.09D-04 at cycle   6 NSaved=   6.
 NSaved= 6 IEnMin= 6 EnMin= -399.859771156416     IErMin= 6 ErrMin= 1.09D-04
 ErrMax= 1.09D-04  0.00D+00 EMaxC= 1.00D-01 BMatC= 6.84D-06 BMatP= 5.61D-05
 IDIUse=3 WtCom= 9.99D-01 WtEn= 1.09D-03
 Coeff-Com: -0.183D-02-0.860D-03 0.177D-01 0.589D-01 0.318D+00 0.608D+00
 Coeff-En:   0.000D+00 0.000D+00 0.000D+00 0.000D+00 0.000D+00 0.100D+01
 Coeff:     -0.183D-02-0.859D-03 0.177D-01 0.588D-01 0.318D+00 0.609D+00
 Gap=     0.273 Goal=   None    Shift=    0.000
 RMSDP=5.54D-06 MaxDP=3.06D-04 DE=-4.18D-05 OVMax= 5.95D-04

 Initial convergence to 1.0D-05 achieved.  Increase integral accuracy.
 Cycle   7  Pass 1  IDiag  1:
 E= -399.859746351992     Delta-E=        0.000024804424 Rises=F Damp=F
 DIIS: error= 2.08D-05 at cycle   1 NSaved=   1.
 NSaved= 1 IEnMin= 1 EnMin= -399.859746351992     IErMin= 1 ErrMin= 2.08D-05
 ErrMax= 2.08D-05  0.00D+00 EMaxC= 1.00D-01 BMatC= 2.73D-07 BMatP= 2.73D-07
 IDIUse=1 WtCom= 1.00D+00 WtEn= 0.00D+00
 Coeff-Com:  0.100D+01
 Coeff:      0.100D+01
 Gap=     0.273 Goal=   None    Shift=    0.000
 RMSDP=5.54D-06 MaxDP=3.06D-04 DE= 2.48D-05 OVMax= 4.07D-04

 Cycle   8  Pass 1  IDiag  1:
 E= -399.859746803781     Delta-E=       -0.000000451789 Rises=F Damp=F
 DIIS: error= 1.82D-05 at cycle   2 NSaved=   2.
 NSaved= 2 IEnMin= 2 EnMin= -399.859746803781     IErMin= 2 ErrMin= 1.82D-05
 ErrMax= 1.82D-05  0.00D+00 EMaxC= 1.00D-01 BMatC= 9.48D-08 BMatP= 2.73D-07
 IDIUse=1 WtCom= 1.00D+00 WtEn= 0.00D+00
 Coeff-Com:  0.310D+00 0.690D+00
 Coeff:      0.310D+00 0.690D+00
 Gap=     0.273 Goal=   None    Shift=    0.000
 RMSDP=1.02D-06 MaxDP=4.10D-05 DE=-4.52D-07 OVMax= 1.80D-04

 Cycle   9  Pass 1  IDiag  1:
 E= -399.859746896863     Delta-E=       -0.000000093082 Rises=F Damp=F
 DIIS: error= 8.37D-06 at cycle   3 NSaved=   3.
 NSaved= 3 IEnMin= 3 EnMin= -399.859746896863     IErMin= 3 ErrMin= 8.37D-06
 ErrMax= 8.37D-06  0.00D+00 EMaxC= 1.00D-01 BMatC= 2.67D-08 BMatP= 9.48D-08
 IDIUse=1 WtCom= 1.00D+00 WtEn= 0.00D+00
 Coeff-Com: -0.835D-01 0.302D+00 0.782D+00
 Coeff:     -0.835D-01 0.302D+00 0.782D+00
 Gap=     0.273 Goal=   None    Shift=    0.000
 RMSDP=5.82D-07 MaxDP=2.06D-05 DE=-9.31D-08 OVMax= 1.25D-04

 Cycle  10  Pass 1  IDiag  1:
 E= -399.859746932179     Delta-E=       -0.000000035316 Rises=F Damp=F
 DIIS: error= 2.55D-06 at cycle   4 NSaved=   4.
 NSaved= 4 IEnMin= 4 EnMin= -399.859746932179     IErMin= 4 ErrMin= 2.55D-06
 ErrMax= 2.55D-06  0.00D+00 EMaxC= 1.00D-01 BMatC= 2.41D-09 BMatP= 2.67D-08
 IDIUse=1 WtCom= 1.00D+00 WtEn= 0.00D+00
 Coeff-Com: -0.642D-01 0.377D-01 0.274D+00 0.752D+00
 Coeff:     -0.642D-01 0.377D-01 0.274D+00 0.752D+00
 Gap=     0.273 Goal=   None    Shift=    0.000
 RMSDP=1.99D-07 MaxDP=8.15D-06 DE=-3.53D-08 OVMax= 4.15D-05

 Cycle  11  Pass 1  IDiag  1:
 E= -399.859746936420     Delta-E=       -0.000000004241 Rises=F Damp=F
 DIIS: error= 1.12D-06 at cycle   5 NSaved=   5.
 NSaved= 5 IEnMin= 5 EnMin= -399.859746936420     IErMin= 5 ErrMin= 1.12D-06
 ErrMax= 1.12D-06  0.00D+00 EMaxC= 1.00D-01 BMatC= 3.69D-10 BMatP= 2.41D-09
 IDIUse=1 WtCom= 1.00D+00 WtEn= 0.00D+00
 Coeff-Com: -0.699D-02-0.402D-01-0.490D-01 0.247D+00 0.850D+00
 Coeff:     -0.699D-02-0.402D-01-0.490D-01 0.247D+00 0.850D+00
 Gap=     0.273 Goal=   None    Shift=    0.000
 RMSDP=1.02D-07 MaxDP=3.08D-06 DE=-4.24D-09 OVMax= 2.61D-05

 Cycle  12  Pass 1  IDiag  1:
 E= -399.859746937226     Delta-E=       -0.000000000806 Rises=F Damp=F
 DIIS: error= 5.08D-07 at cycle   6 NSaved=   6.
 NSaved= 6 IEnMin= 6 EnMin= -399.859746937226     IErMin= 6 ErrMin= 5.08D-07
 ErrMax= 5.08D-07  0.00D+00 EMaxC= 1.00D-01 BMatC= 8.05D-11 BMatP= 3.69D-10
 IDIUse=1 WtCom= 1.00D+00 WtEn= 0.00D+00
 Coeff-Com:  0.638D-02-0.214D-01-0.564D-01-0.941D-02 0.384D+00 0.697D+00
 Coeff:      0.638D-02-0.214D-01-0.564D-01-0.941D-02 0.384D+00 0.697D+00
 Gap=     0.273 Goal=   None    Shift=    0.000
 RMSDP=3.14D-08 MaxDP=9.57D-07 DE=-8.06D-10 OVMax= 5.43D-06

 Cycle  13  Pass 1  IDiag  1:
 E= -399.859746937333     Delta-E=       -0.000000000107 Rises=F Damp=F
 DIIS: error= 9.90D-08 at cycle   7 NSaved=   7.
 NSaved= 7 IEnMin= 7 EnMin= -399.859746937333     IErMin= 7 ErrMin= 9.90D-08
 ErrMax= 9.90D-08  0.00D+00 EMaxC= 1.00D-01 BMatC= 5.50D-12 BMatP= 8.05D-11
 IDIUse=1 WtCom= 1.00D+00 WtEn= 0.00D+00
 Coeff-Com:  0.297D-02-0.497D-02-0.173D-01-0.315D-01 0.725D-01 0.240D+00
 Coeff-Com:  0.738D+00
 Coeff:      0.297D-02-0.497D-02-0.173D-01-0.315D-01 0.725D-01 0.240D+00
 Coeff:      0.738D+00
 Gap=     0.273 Goal=   None    Shift=    0.000
 RMSDP=9.90D-09 MaxDP=4.33D-07 DE=-1.07D-10 OVMax= 1.86D-06

 SCF Done:  E(RBHandHLYP) =  -399.859746937     A.U. after   13 cycles
            NFock= 13  Conv=0.99D-08     -V/T= 2.0025
 KE= 3.988554054667D+02 PE=-1.681067492333D+03 EE= 5.099416963756D+02
 Leave Link  502 at Sat Aug 28 23:54:03 2021, MaxMem= 17179869184 cpu:       357.5
 (Enter /public3/home/sc51754/softwares/g09e01/l801.exe)
 DoSCS=F DFT=T ScalE2(SS,OS)=  1.000000  1.000000
 Range of M.O.s used for correlation:     1   338
 NBasis=   338 NAE=    30 NBE=    30 NFC=     0 NFV=     0
 NROrb=    338 NOA=    30 NOB=    30 NVA=   308 NVB=   308

 **** Warning!!: The largest alpha MO coefficient is  0.15362930D+02

 Leave Link  801 at Sat Aug 28 23:54:04 2021, MaxMem= 17179869184 cpu:         0.9
 (Enter /public3/home/sc51754/softwares/g09e01/l1101.exe)
 Using compressed storage, NAtomX=    15.
 Will process     16 centers per pass.
 Leave Link 1101 at Sat Aug 28 23:54:05 2021, MaxMem= 17179869184 cpu:        55.5
 (Enter /public3/home/sc51754/softwares/g09e01/l1102.exe)
 Symmetrizing basis deriv contribution to polar:
 IMax=3 JMax=2 DiffMx= 0.00D+00
 Leave Link 1102 at Sat Aug 28 23:54:05 2021, MaxMem= 17179869184 cpu:         7.5
 (Enter /public3/home/sc51754/softwares/g09e01/l1110.exe)
 Forming Gx(P) for the SCF density, NAtomX=    15.
 Integral derivatives from FoFJK, PRISM(SPDF).
 Do as many integral derivatives as possible in FoFJK.
 G2DrvN: MDV=   17179868960.
 G2DrvN: will do    16 centers at a time, making    1 passes.
 Calling FoFCou, ICntrl=  3107 FMM=F I1Cent=   0 AccDes= 0.00D+00.
 FoFJK:  IHMeth= 1 ICntrl=    3107 DoSepK=F KAlg= 0 I1Cent=   0 FoldK=F
 IRaf=         0 NMat=   1 IRICut=       1 DoRegI=T DoRafI=F ISym2E= 0.
 FoFCou: FMM=F IPFlag=           0 FMFlag=      100000 FMFlg1=           0
         NFxFlg=           0 DoJE=F BraDBF=F KetDBF=F FulRan=T
         wScrn=  0.000000 ICntrl=    3107 IOpCl=  0 I1Cent=           0 NGrid=           0
         NMat0=    1 NMatS0=      1 NMatT0=    0 NMatD0=    1 NMtDS0=    0 NMtDT0=    0
 Symmetry not used in FoFCou.
 End of G2Drv F.D. properties file   721 does not exist.
 End of G2Drv F.D. properties file   722 does not exist.
 End of G2Drv F.D. properties file   788 does not exist.
 Leave Link 1110 at Sat Aug 28 23:54:16 2021, MaxMem= 17179869184 cpu:       678.9
 (Enter /public3/home/sc51754/softwares/g09e01/l1002.exe)
 Minotr:  Closed shell wavefunction.
          IDoAtm=111111111111111
          Direct CPHF calculation.
          Differentiating once with respect to nuclear coordinates.
          Requested convergence is 1.0D-08 RMS, and 1.0D-07 maximum.
          Secondary convergence is 1.0D-12 RMS, and 1.0D-12 maximum.
          NewPWx=T KeepS1=F KeepF1=F KeepIn=T MapXYZ=F SortEE=F KeepMc=T.
          MDV=   17179868692 using IRadAn=       2.
 Generate precomputed XC quadrature information.
 Keep R1 ints in memory in canonical form, NReq=1669919891.
 FoFCou: FMM=F IPFlag=           0 FMFlag=           0 FMFlg1=           0
         NFxFlg=           0 DoJE=F BraDBF=F KetDBF=F FulRan=T
         wScrn=  0.000000 ICntrl=     600 IOpCl=  0 I1Cent=           0 NGrid=           0
         NMat0=    1 NMatS0=  57291 NMatT0=    0 NMatD0=    1 NMtDS0=    0 NMtDT0=    0
 Symmetry not used in FoFCou.
          Solving linear equations simultaneously, MaxMat=       0.
          There are    48 degrees of freedom in the 1st order CPHF.  IDoFFX=6 NUNeed=     0.
     42 vectors produced by pass  0 Test12= 1.92D-14 2.08D-09 XBig12= 9.65D-02 1.03D-01.
 AX will form    42 AO Fock derivatives at one time.
     42 vectors produced by pass  1 Test12= 1.92D-14 2.08D-09 XBig12= 9.46D-03 2.78D-02.
     42 vectors produced by pass  2 Test12= 1.92D-14 2.08D-09 XBig12= 2.79D-04 2.68D-03.
     42 vectors produced by pass  3 Test12= 1.92D-14 2.08D-09 XBig12= 2.17D-06 3.34D-04.
     42 vectors produced by pass  4 Test12= 1.92D-14 2.08D-09 XBig12= 1.38D-08 2.88D-05.
     42 vectors produced by pass  5 Test12= 1.92D-14 2.08D-09 XBig12= 5.98D-11 1.05D-06.
     32 vectors produced by pass  6 Test12= 1.92D-14 2.08D-09 XBig12= 1.92D-13 4.88D-08.
      5 vectors produced by pass  7 Test12= 1.92D-14 2.08D-09 XBig12= 1.25D-15 4.87D-09.
 InvSVY:  IOpt=1 It=  1 EMax= 2.44D-15
 Solved reduced A of dimension   289 with    42 vectors.
 End of Minotr F.D. properties file   721 does not exist.
 End of Minotr F.D. properties file   722 does not exist.
 End of Minotr F.D. properties file   788 does not exist.
 Leave Link 1002 at Sat Aug 28 23:54:33 2021, MaxMem= 17179869184 cpu:      1076.1
 (Enter /public3/home/sc51754/softwares/g09e01/l601.exe)
 Copying SCF densities to generalized density rwf, IOpCl= 0 IROHF=0.

 **********************************************************************

            Population analysis using the SCF density.

 **********************************************************************

 Orbital symmetries:
       Occupied  (A) (A) (A) (A) (A) (A) (A) (A) (A) (A) (A) (A)
                 (A) (A) (A) (A) (A) (A) (A) (A) (A) (A) (A) (A)
                 (A) (A) (A) (A) (A) (A)
       Virtual   (A) (A) (A) (A) (A) (A) (A) (A) (A) (A) (A) (A)
                 (A) (A) (A) (A) (A) (A) (A) (A) (A) (A) (A) (A)
                 (A) (A) (A) (A) (A) (A) (A) (A) (A) (A) (A) (A)
                 (A) (A) (A) (A) (A) (A) (A) (A) (A) (A) (A) (A)
                 (A) (A) (A) (A) (A) (A) (A) (A) (A) (A) (A) (A)
                 (A) (A) (A) (A) (A) (A) (A) (A) (A) (A) (A) (A)
                 (A) (A) (A) (A) (A) (A) (A) (A) (A) (A) (A) (A)
                 (A) (A) (A) (A) (A) (A) (A) (A) (A) (A) (A) (A)
                 (A) (A) (A) (A) (A) (A) (A) (A) (A) (A) (A) (A)
                 (A) (A) (A) (A) (A) (A) (A) (A) (A) (A) (A) (A)
                 (A) (A) (A) (A) (A) (A) (A) (A) (A) (A) (A) (A)
                 (A) (A) (A) (A) (A) (A) (A) (A) (A) (A) (A) (A)
                 (A) (A) (A) (A) (A) (A) (A) (A) (A) (A) (A) (A)
                 (A) (A) (A) (A) (A) (A) (A) (A) (A) (A) (A) (A)
                 (A) (A) (A) (A) (A) (A) (A) (A) (A) (A) (A) (A)
                 (A) (A) (A) (A) (A) (A) (A) (A) (A) (A) (A) (A)
                 (A) (A) (A) (A) (A) (A) (A) (A) (A) (A) (A) (A)
                 (A) (A) (A) (A) (A) (A) (A) (A) (A) (A) (A) (A)
                 (A) (A) (A) (A) (A) (A) (A) (A) (A) (A) (A) (A)
                 (A) (A) (A) (A) (A) (A) (A) (A) (A) (A) (A) (A)
                 (A) (A) (A) (A) (A) (A) (A) (A) (A) (A) (A) (A)
                 (A) (A) (A) (A) (A) (A) (A) (A) (A) (A) (A) (A)
                 (A) (A) (A) (A) (A) (A) (A) (A) (A) (A) (A) (A)
                 (A) (A) (A) (A) (A) (A) (A) (A) (A) (A) (A) (A)
                 (A) (A) (A) (A) (A) (A) (A) (A) (A) (A) (A) (A)
                 (A) (A) (A) (A) (A) (A) (A) (A)
 The electronic state is 1-A.
 Alpha  occ. eigenvalues --  -19.69673 -19.63160 -14.81127 -10.67585 -10.63547
 Alpha  occ. eigenvalues --  -10.60707 -10.58596 -10.58221  -1.20951  -1.14271
 Alpha  occ. eigenvalues --   -1.07388  -0.93591  -0.86714  -0.75565  -0.72117
 Alpha  occ. eigenvalues --   -0.66492  -0.64616  -0.58810  -0.57027  -0.54345
 Alpha  occ. eigenvalues --   -0.51437  -0.50450  -0.48074  -0.46391  -0.44383
 Alpha  occ. eigenvalues --   -0.39717  -0.37579  -0.35241  -0.34193  -0.27007
 Alpha virt. eigenvalues --    0.00276   0.03597   0.04491   0.05137   0.06714
 Alpha virt. eigenvalues --    0.08497   0.10558   0.13985   0.14369   0.17593
 Alpha virt. eigenvalues --    0.18303   0.19748   0.20459   0.21183   0.22692
 Alpha virt. eigenvalues --    0.23255   0.24173   0.25042   0.27504   0.29637
 Alpha virt. eigenvalues --    0.30661   0.32910   0.33126   0.34314   0.34993
 Alpha virt. eigenvalues --    0.36054   0.36311   0.37593   0.39570   0.39908
 Alpha virt. eigenvalues --    0.41036   0.43418   0.44011   0.44565   0.46365
 Alpha virt. eigenvalues --    0.46825   0.48013   0.49926   0.51771   0.52296
 Alpha virt. eigenvalues --    0.55168   0.57461   0.57680   0.59743   0.62827
 Alpha virt. eigenvalues --    0.64872   0.68686   0.69630   0.70315   0.70421
 Alpha virt. eigenvalues --    0.73176   0.74058   0.75272   0.78535   0.81770
 Alpha virt. eigenvalues --    0.84079   0.86799   0.88459   0.89365   0.91672
 Alpha virt. eigenvalues --    0.95583   0.97332   0.98843   1.00647   1.01866
 Alpha virt. eigenvalues --    1.04209   1.05474   1.06963   1.11581   1.13441
 Alpha virt. eigenvalues --    1.15231   1.16381   1.18870   1.21521   1.21872
 Alpha virt. eigenvalues --    1.23122   1.23989   1.24258   1.26455   1.28917
 Alpha virt. eigenvalues --    1.29915   1.31881   1.34198   1.35160   1.35926
 Alpha virt. eigenvalues --    1.39733   1.40785   1.43250   1.46618   1.50561
 Alpha virt. eigenvalues --    1.51465   1.53294   1.55400   1.56781   1.59714
 Alpha virt. eigenvalues --    1.60220   1.61896   1.63538   1.65130   1.67915
 Alpha virt. eigenvalues --    1.68816   1.70896   1.74212   1.76274   1.77009
 Alpha virt. eigenvalues --    1.78379   1.80931   1.82437   1.83927   1.89250
 Alpha virt. eigenvalues --    1.90117   1.91475   1.95568   1.97475   1.98049
 Alpha virt. eigenvalues --    1.98914   2.00575   2.05272   2.08471   2.11312
 Alpha virt. eigenvalues --    2.14291   2.16886   2.19438   2.20236   2.21041
 Alpha virt. eigenvalues --    2.24206   2.27374   2.28671   2.33942   2.34538
 Alpha virt. eigenvalues --    2.36193   2.40305   2.41197   2.42070   2.45453
 Alpha virt. eigenvalues --    2.47273   2.61247   2.72804   2.78464   2.89815
 Alpha virt. eigenvalues --    2.96029   2.96585   3.00073   3.08185   3.09070
 Alpha virt. eigenvalues --    3.24687   3.28968   3.30521   3.32334   3.34722
 Alpha virt. eigenvalues --    3.36037   3.39101   3.39590   3.43749   3.46418
 Alpha virt. eigenvalues --    3.49073   3.49785   3.55320   3.55461   3.58413
 Alpha virt. eigenvalues --    3.60191   3.61872   3.65223   3.67887   3.71326
 Alpha virt. eigenvalues --    3.71868   3.73736   3.75666   3.76099   3.77815
 Alpha virt. eigenvalues --    3.78942   3.81597   3.83555   3.88618   3.89206
 Alpha virt. eigenvalues --    3.91994   3.93350   3.98168   4.02604   4.03011
 Alpha virt. eigenvalues --    4.05905   4.09695   4.10251   4.10424   4.14176
 Alpha virt. eigenvalues --    4.17141   4.18206   4.19593   4.20220   4.21448
 Alpha virt. eigenvalues --    4.23500   4.24619   4.27352   4.28461   4.30503
 Alpha virt. eigenvalues --    4.31068   4.32596   4.33660   4.36423   4.37227
 Alpha virt. eigenvalues --    4.37928   4.38889   4.41387   4.42586   4.44499
 Alpha virt. eigenvalues --    4.45483   4.47020   4.47220   4.47999   4.49136
 Alpha virt. eigenvalues --    4.51467   4.54139   4.54499   4.56293   4.58067
 Alpha virt. eigenvalues --    4.59326   4.60231   4.60981   4.61314   4.63329
 Alpha virt. eigenvalues --    4.64684   4.66005   4.69725   4.70953   4.71212
 Alpha virt. eigenvalues --    4.74311   4.76194   4.80245   4.81543   4.88545
 Alpha virt. eigenvalues --    4.89064   4.90706   4.95953   4.97965   5.00110
 Alpha virt. eigenvalues --    5.02224   5.04843   5.07457   5.09881   5.10967
 Alpha virt. eigenvalues --    5.14033   5.16588   5.18603   5.21151   5.24487
 Alpha virt. eigenvalues --    5.27622   5.30799   5.35466   5.37443   5.40244
 Alpha virt. eigenvalues --    5.42368   5.45506   5.47848   5.49579   5.52416
 Alpha virt. eigenvalues --    5.54090   5.55255   5.58188   5.61064   5.63507
 Alpha virt. eigenvalues --    5.65949   5.68683   5.70400   5.71345   5.73743
 Alpha virt. eigenvalues --    5.78672   5.79250   5.81209   5.86394   5.89140
 Alpha virt. eigenvalues --    5.92137   5.97688   5.99093   6.11329   6.14760
 Alpha virt. eigenvalues --    6.19460   6.20574   6.30108   6.31402   6.36167
 Alpha virt. eigenvalues --    6.43406   6.48522   6.53697   6.55764   6.63227
 Alpha virt. eigenvalues --    6.66200   6.66859   6.71739   6.75039   6.80439
 Alpha virt. eigenvalues --    6.85003   6.90611   6.96181   7.02750   7.19112
 Alpha virt. eigenvalues --    7.31700   7.35063   7.46520   7.71230   7.95110
 Alpha virt. eigenvalues --    9.67210  12.38445  13.31376  15.51223  17.41930
 Alpha virt. eigenvalues --   18.44267  18.97316  22.96607
          Condensed to atoms (all electrons):
               1          2          3          4          5          6
     1  O    8.346981  -0.096496   0.386900  -0.069475   0.005322   0.007790
     2  N   -0.096496   6.813200   0.452526  -0.020062   0.459169  -0.030963
     3  C    0.386900   0.452526   4.271771   0.543893  -0.064691  -0.053928
     4  C   -0.069475  -0.020062   0.543893   4.774449  -0.042405   0.551413
     5  C    0.005322   0.459169  -0.064691  -0.042405   4.496745  -0.077448
     6  C    0.007790  -0.030963  -0.053928   0.551413  -0.077448   4.648202
     7  C    0.001019  -0.031895  -0.040538  -0.057434   0.582190   0.493416
     8  H    0.211007  -0.000502  -0.011594   0.003708  -0.000255  -0.000848
     9  H    0.003412   0.006116  -0.030163   0.445170  -0.001243  -0.032387
    10  H   -0.000709  -0.045284   0.002961  -0.003237   0.445316   0.008435
    11  H   -0.000519  -0.001780   0.007237  -0.030857   0.007060   0.432769
    12  H    0.000048   0.005094  -0.001376   0.006092  -0.025092  -0.029664
    13  O   -0.148345  -0.167516  -0.003446  -0.003652   0.000881   0.000876
    14  H    0.007229   0.006135   0.001133   0.000457  -0.000515  -0.000082
    15  H    0.002625   0.152192  -0.013561   0.002004  -0.001862  -0.001441
               7          8          9         10         11         12
     1  O    0.001019   0.211007   0.003412  -0.000709  -0.000519   0.000048
     2  N   -0.031895  -0.000502   0.006116  -0.045284  -0.001780   0.005094
     3  C   -0.040538  -0.011594  -0.030163   0.002961   0.007237  -0.001376
     4  C   -0.057434   0.003708   0.445170  -0.003237  -0.030857   0.006092
     5  C    0.582190  -0.000255  -0.001243   0.445316   0.007060  -0.025092
     6  C    0.493416  -0.000848  -0.032387   0.008435   0.432769  -0.029664
     7  C    4.848107   0.000271   0.005897  -0.050168  -0.039828   0.437407
     8  H    0.000271   0.285101   0.000445   0.000099   0.000003  -0.000007
     9  H    0.005897   0.000445   0.572243   0.000194  -0.005720  -0.000138
    10  H   -0.050168   0.000099   0.000194   0.613684  -0.000148  -0.003501
    11  H   -0.039828   0.000003  -0.005720  -0.000148   0.602587  -0.005957
    12  H    0.437407  -0.000007  -0.000138  -0.003501  -0.005957   0.596463
    13  O   -0.001858   0.211146   0.000109   0.000578  -0.000016   0.000025
    14  H    0.000189  -0.010050  -0.000018  -0.000177   0.000002  -0.000004
    15  H    0.001760  -0.012627  -0.000197  -0.002351   0.000072  -0.000030
              13         14         15
     1  O   -0.148345   0.007229   0.002625
     2  N   -0.167516   0.006135   0.152192
     3  C   -0.003446   0.001133  -0.013561
     4  C   -0.003652   0.000457   0.002004
     5  C    0.000881  -0.000515  -0.001862
     6  C    0.000876  -0.000082  -0.001441
     7  C   -0.001858   0.000189   0.001760
     8  H    0.211146  -0.010050  -0.012627
     9  H    0.000109  -0.000018  -0.000197
    10  H    0.000578  -0.000177  -0.002351
    11  H   -0.000016   0.000002   0.000072
    12  H    0.000025  -0.000004  -0.000030
    13  O    7.900058   0.356113   0.264983
    14  H    0.356113   0.431907  -0.008757
    15  H    0.264983  -0.008757   0.322366
 Mulliken charges:
               1
     1  O   -0.656787
     2  N   -0.499933
     3  C    0.552877
     4  C   -0.100064
     5  C    0.216828
     6  C    0.083860
     7  C   -0.148535
     8  H    0.324103
     9  H    0.036278
    10  H    0.034308
    11  H    0.035097
    12  H    0.020642
    13  O   -0.409936
    14  H    0.216438
    15  H    0.294825
 Sum of Mulliken charges =  -0.00000
 Mulliken charges with hydrogens summed into heavy atoms:
               1
     1  O   -0.656787
     2  N   -0.499933
     3  C    0.552877
     4  C   -0.063786
     5  C    0.251136
     6  C    0.118957
     7  C   -0.127893
    13  O    0.425430
 APT charges:
               1
     1  O   -0.489845
     2  N   -0.482271
     3  C    0.114164
     4  C   -0.492833
     5  C   -0.275852
     6  C   -0.320413
     7  C   -0.478623
     8  H    0.328601
     9  H    0.436906
    10  H    0.415263
    11  H    0.552931
    12  H    0.567974
    13  O   -0.799121
    14  H    0.725268
    15  H    0.197852
 Sum of APT charges =  -0.00000
 APT charges with hydrogens summed into heavy atoms:
               1
     1  O   -0.489845
     2  N   -0.482271
     3  C    0.114164
     4  C   -0.055927
     5  C    0.139411
     6  C    0.232517
     7  C    0.089351
    13  O    0.452600
 Electronic spatial extent (au):  <R**2>=            948.4771
 Charge=             -0.0000 electrons
 Dipole moment (field-independent basis, Debye):
    X=             -1.3115    Y=             -2.7236    Z=              1.2736  Tot=              3.2802
 Quadrupole moment (field-independent basis, Debye-Ang):
   XX=            -40.1640   YY=            -45.5153   ZZ=            -49.4815
   XY=             -5.8817   XZ=              4.4800   YZ=             -1.4806
 Traceless Quadrupole moment (field-independent basis, Debye-Ang):
   XX=              4.8896   YY=             -0.4617   ZZ=             -4.4279
   XY=             -5.8817   XZ=              4.4800   YZ=             -1.4806
 Octapole moment (field-independent basis, Debye-Ang**2):
  XXX=             21.4730  YYY=            -11.2935  ZZZ=              0.9527  XYY=             -2.0420
  XXY=             -9.6793  XXZ=             14.8629  XZZ=             12.2298  YZZ=             -0.7737
  YYZ=              1.5448  XYZ=             -4.9915
 Hexadecapole moment (field-independent basis, Debye-Ang**3):
 XXXX=           -688.8567 YYYY=           -334.6826 ZZZZ=            -54.3803 XXXY=            -32.4861
 XXXZ=             49.3842 YYYX=            -21.2660 YYYZ=             -1.9134 ZZZX=              4.0951
 ZZZY=             -1.4820 XXYY=           -181.4067 XXZZ=           -147.6456 YYZZ=            -74.1256
 XXYZ=            -15.6232 YYXZ=              5.4433 ZZXY=             -4.7999
 N-N= 3.724106435537D+02 E-N=-1.681067460576D+03  KE= 3.988554054667D+02
  Exact polarizability:   0.000   0.000   0.000   0.000   0.000   0.000
 Approx polarizability: 114.617   5.294 105.176   0.897  -0.603  57.371
 No NMR shielding tensors so no spin-rotation constants.
 Leave Link  601 at Sat Aug 28 23:54:34 2021, MaxMem= 17179869184 cpu:        44.9
 (Enter /public3/home/sc51754/softwares/g09e01/l701.exe)
 Compute integral second derivatives.
 ... and contract with generalized density number  0.
 Leave Link  701 at Sat Aug 28 23:54:36 2021, MaxMem= 17179869184 cpu:        84.8
 (Enter /public3/home/sc51754/softwares/g09e01/l702.exe)
 L702 exits ... SP integral derivatives will be done elsewhere.
 Leave Link  702 at Sat Aug 28 23:54:36 2021, MaxMem= 17179869184 cpu:         0.8
 (Enter /public3/home/sc51754/softwares/g09e01/l703.exe)
 Compute integral second derivatives, UseDBF=F ICtDFT=           0.
 Integral derivatives from FoFJK, PRISM(SPDF).
 Calling FoFJK, ICntrl=    100147 FMM=F ISym2X=0 I1Cent= 0 IOpClX= 0 NMat=1 NMatS=1 NMatT=0.
 FoFJK:  IHMeth= 1 ICntrl=  100147 DoSepK=F KAlg= 0 I1Cent=   0 FoldK=F
 IRaf=         0 NMat=   1 IRICut=       1 DoRegI=T DoRafI=F ISym2E= 0.
 FoFCou: FMM=F IPFlag=           0 FMFlag=      100000 FMFlg1=         800
         NFxFlg=           0 DoJE=F BraDBF=F KetDBF=F FulRan=T
         wScrn=  0.000000 ICntrl=  100147 IOpCl=  0 I1Cent=           0 NGrid=           0
         NMat0=    1 NMatS0=      1 NMatT0=    0 NMatD0=    1 NMtDS0=    0 NMtDT0=    0
 Symmetry not used in FoFCou.
 Leave Link  703 at Sat Aug 28 23:54:53 2021, MaxMem= 17179869184 cpu:      1063.4
 (Enter /public3/home/sc51754/softwares/g09e01/l716.exe)
 Dipole        =-5.15967429D-01-1.07153943D+00 5.01072652D-01
 Polarizability= 0.00000000D+00 0.00000000D+00 0.00000000D+00
                 0.00000000D+00 0.00000000D+00 0.00000000D+00
 ***** Axes restored to original set *****
 -------------------------------------------------------------------
 Center     Atomic                   Forces (Hartrees/Bohr)
 Number     Number              X              Y              Z
 -------------------------------------------------------------------
      1        8          -0.024951528   -0.019637109   -0.001481894
      2        7          -0.025788438   -0.017725242    0.001223456
      3        6           0.043700811    0.057110512    0.000194771
      4        6          -0.018954980   -0.007890244    0.000086834
      5        6          -0.010414179   -0.008797490   -0.000001264
      6        6           0.003669134    0.010721594    0.000029332
      7        6           0.006519702   -0.008505266   -0.000076942
      8        1          -0.021666871    0.022432427    0.006757883
      9        1           0.001817910   -0.001045644   -0.000010959
     10        1          -0.000209396    0.000151266   -0.000017791
     11        1          -0.000531119   -0.000250590   -0.000010488
     12        1           0.000839608   -0.000422407   -0.000023760
     13        8           0.043431835   -0.041003966   -0.002573761
     14        1           0.006658216    0.006812563    0.001305906
     15        1          -0.004120705    0.008049596   -0.005401324
 -------------------------------------------------------------------
 Cartesian Forces:  Max     0.057110512 RMS     0.016875295
 FormGI is forming the generalized inverse of G from B-inverse, IUseBI=4.
 Leave Link  716 at Sat Aug 28 23:54:53 2021, MaxMem= 17179869184 cpu:        12.3
 (Enter /public3/home/sc51754/softwares/g09e01/l103.exe)

 GradGradGradGradGradGradGradGradGradGradGradGradGradGradGradGradGradGrad
 Berny optimization.
 Red2BG is reusing G-inverse.
 Internal  Forces:  Max     0.029650420 RMS     0.007727581
 Search for a saddle point.
 Step number   1 out of a maximum of  100
 All quantities printed in internal units (Hartrees-Bohrs-Radians)
 Second derivative matrix not updated -- analytic derivatives used.
 ITU=  0
 LST/QST climbing along tangent vector
     Eigenvalues ---   -0.01830   0.00134   0.00425   0.00594   0.00964
     Eigenvalues ---    0.01323   0.01835   0.02007   0.02263   0.02516
     Eigenvalues ---    0.03023   0.03146   0.03372   0.03729   0.04755
     Eigenvalues ---    0.05900   0.07428   0.10934   0.11528   0.12815
     Eigenvalues ---    0.13904   0.15947   0.21007   0.21460   0.22490
     Eigenvalues ---    0.25732   0.26065   0.29806   0.36634   0.37515
     Eigenvalues ---    0.38027   0.38550   0.38794   0.45119   0.46489
     Eigenvalues ---    0.50072   0.52484   0.58193   0.583531000.00000
     Eigenvalues --- 1000.000001000.000001000.000001000.000001000.00000
     Eigenvalues --- 1000.000001000.000001000.000001000.000001000.00000
     Eigenvalues --- 1000.000001000.000001000.000001000.000001000.00000
     Eigenvalues --- 1000.000001000.000001000.000001000.000001000.00000
     Eigenvalues --- 1000.000001000.000001000.000001000.000001000.00000
     Eigenvalues --- 1000.000001000.000001000.000001000.000001000.00000
     Eigenvalues --- 1000.000001000.000001000.000001000.000001000.00000
     Eigenvalues --- 1000.000001000.000001000.000001000.000001000.00000
     Eigenvalues --- 1000.00000
 Eigenvectors required to have negative eigenvalues:
                          R5        R14       R17       R2        A21
   1                    0.49772   0.47521  -0.44069  -0.40121   0.23925
                          A25       A24       D33       A22       D36
   1                   -0.22360  -0.13441   0.12417   0.09733  -0.06156
 QST in optimization variable space.
                        Tangent   TS vect  // Eig F  Eigenval
   1         R1        -0.05175   0.05175   0.01080  -0.01830
   2         R2         0.40121  -0.40121   0.00040   0.00134
   3         R3         0.02415  -0.02415   0.00018   0.00425
   4         R4         0.00885  -0.00885   0.00042   0.00594
   5         R5        -0.49772   0.49772  -0.00137   0.00964
   6         R6         0.01712  -0.01712  -0.00026   0.01323
   7         R7        -0.00876   0.00876   0.00002   0.01835
   8         R8        -0.00003   0.00003   0.00002   0.02007
   9         R9        -0.00955   0.00955   0.00001   0.02263
  10         R10       -0.00117   0.00117  -0.00002   0.02516
  11         R11        0.01071  -0.01071   0.00012   0.03023
  12         R12        0.00024  -0.00024  -0.00384   0.03146
  13         R13       -0.00066   0.00066  -0.00010   0.03372
  14         R14       -0.47521   0.47521   0.00019   0.03729
  15         R15       -0.01078   0.01078  -0.00048   0.04755
  16         R16       -0.00040   0.00040   0.00559   0.05900
  17         R17        0.44069  -0.44069   0.00553   0.07428
  18         A1        -0.02131   0.02131  -0.00030   0.10934
  19         A2         0.02018  -0.02018   0.00125   0.11528
  20         A3         0.03650  -0.03650  -0.00074   0.12815
  21         A4        -0.05667   0.05667   0.00057   0.13904
  22         A5        -0.00004   0.00004  -0.00928   0.15947
  23         A6         0.02963  -0.02963  -0.00303   0.21007
  24         A7        -0.02958   0.02958   0.01191   0.21460
  25         A8         0.01059  -0.01059   0.00236   0.22490
  26         A9        -0.01015   0.01015   0.01502   0.25732
  27         A10       -0.00044   0.00044   0.01569   0.26065
  28         A11       -0.00773   0.00773  -0.00060   0.29806
  29         A12       -0.00104   0.00104  -0.01372   0.36634
  30         A13        0.00878  -0.00878  -0.00118   0.37515
  31         A14        0.00584  -0.00584  -0.00295   0.38027
  32         A15       -0.00144   0.00144  -0.00265   0.38550
  33         A16       -0.00440   0.00440   0.00277   0.38794
  34         A17        0.00071  -0.00071  -0.00471   0.45119
  35         A18       -0.00042   0.00042   0.00203   0.46489
  36         A19       -0.00029   0.00029   0.00991   0.50072
  37         A20       -0.04250   0.04250   0.00274   0.52484
  38         A21       -0.23925   0.23925   0.00545   0.58193
  39         A22       -0.09733   0.09733   0.00295   0.58353
  40         A23        0.01235  -0.01235   0.000001000.00000
  41         A24        0.13441  -0.13441   0.000001000.00000
  42         A25        0.22360  -0.22360   0.000001000.00000
  43         A26        0.01481  -0.01481  -0.000001000.00000
  44         D1         0.00675  -0.00675  -0.000001000.00000
  45         D2         0.00636  -0.00636  -0.000001000.00000
  46         D3        -0.00952   0.00952   0.000001000.00000
  47         D4        -0.00681   0.00681  -0.000001000.00000
  48         D5         0.00016  -0.00016  -0.000001000.00000
  49         D6         0.00055  -0.00055   0.000001000.00000
  50         D7         0.00277  -0.00277  -0.000001000.00000
  51         D8         0.00316  -0.00316   0.000001000.00000
  52         D9        -0.00031   0.00031  -0.000001000.00000
  53         D10       -0.00039   0.00039  -0.000001000.00000
  54         D11       -0.00408   0.00408   0.000001000.00000
  55         D12       -0.00416   0.00416   0.000001000.00000
  56         D13       -0.01269   0.01269  -0.000001000.00000
  57         D14       -0.00357   0.00357   0.000001000.00000
  58         D15       -0.00924   0.00924  -0.000001000.00000
  59         D16       -0.00012   0.00012   0.000001000.00000
  60         D17       -0.00008   0.00008  -0.000001000.00000
  61         D18       -0.00012   0.00012   0.000001000.00000
  62         D19       -0.00047   0.00047  -0.000001000.00000
  63         D20       -0.00051   0.00051  -0.000001000.00000
  64         D21        0.00017  -0.00017   0.000001000.00000
  65         D22        0.00010  -0.00010  -0.000001000.00000
  66         D23        0.00020  -0.00020  -0.000001000.00000
  67         D24        0.00014  -0.00014   0.000001000.00000
  68         D25       -0.00003   0.00003  -0.000001000.00000
  69         D26       -0.00003   0.00003   0.000001000.00000
  70         D27        0.00005  -0.00005  -0.000001000.00000
  71         D28        0.00005  -0.00005   0.000001000.00000
  72         D29        0.00008  -0.00008   0.000001000.00000
  73         D30        0.00008  -0.00008   0.000001000.00000
  74         D31        0.00015  -0.00015  -0.000001000.00000
  75         D32        0.00015  -0.00015  -0.000001000.00000
  76         D33       -0.12417   0.12417   0.000001000.00000
  77         D34        0.01277  -0.01277  -0.000001000.00000
  78         D35        0.01273  -0.01273   0.000001000.00000
  79         D36        0.06156  -0.06156  -0.000001000.00000
  80         D37        0.00736  -0.00736  -0.000001000.00000
  81         D38       -0.05088   0.05088   0.000001000.00000
 RFO step:  Lambda0=5.007182415D-03 Lambda=-5.38675457D-03.
 Linear search not attempted -- option 19 set.
 Maximum step size (   0.300) exceeded in Quadratic search.
    -- Step size scaled by   0.600
 Iteration  1 RMS(Cart)=  0.02573863 RMS(Int)=  0.00144629
 Iteration  2 RMS(Cart)=  0.00087041 RMS(Int)=  0.00050840
 Iteration  3 RMS(Cart)=  0.00000253 RMS(Int)=  0.00050839
 Iteration  4 RMS(Cart)=  0.00000000 RMS(Int)=  0.00050839
 ITry= 1 IFail=0 DXMaxC= 1.64D-01 DCOld= 1.00D+10 DXMaxT= 3.00D-01 DXLimC= 3.00D+00 Rises=F
 Variable       Old X    -DE/DX   Delta X   Delta X   Delta X     New X
                                 (Linear)    (Quad)   (Total)
    R1        2.50516  -0.02965   0.00000  -0.04450  -0.04490   2.46026
    R2        2.35075   0.00619   0.00000   0.08831   0.08863   2.43938
    R3        2.48894   0.02497   0.00000   0.02169   0.02107   2.51002
    R4        2.51132   0.00706   0.00000   0.00427   0.00425   2.51557
    R5        2.52411   0.01894   0.00000  -0.15269  -0.15273   2.37138
    R6        2.63210   0.00993   0.00000   0.01306   0.01306   2.64516
    R7        2.58405  -0.00282   0.00000  -0.00654  -0.00651   2.57754
    R8        2.02487  -0.00117   0.00000  -0.00002  -0.00002   2.02485
    R9        2.58778  -0.00737   0.00000  -0.00764  -0.00764   2.58014
   R10        2.03137  -0.00019   0.00000  -0.00081  -0.00081   2.03056
   R11        2.62320   0.00901   0.00000   0.00831   0.00833   2.63153
   R12        2.02947   0.00039   0.00000   0.00031   0.00031   2.02978
   R13        2.02517  -0.00040   0.00000  -0.00058  -0.00058   2.02459
   R14        2.07870   0.02920   0.00000  -0.08495  -0.08531   1.99339
   R15        3.05134   0.00523   0.00000  -0.01520  -0.01342   3.03791
   R16        1.79239   0.00242   0.00000   0.00018   0.00018   1.79257
   R17        2.05980   0.01402   0.00000   0.16105   0.15973   2.21953
    A1        1.82975   0.00825   0.00000   0.00302   0.00299   1.83274
    A2        2.06662   0.00749   0.00000   0.01994   0.02005   2.08667
    A3        1.84981  -0.00620   0.00000   0.00419   0.00374   1.85356
    A4        2.36675  -0.00130   0.00000  -0.02413  -0.02379   2.34296
    A5        2.07965   0.00287   0.00000  -0.00437  -0.00505   2.07460
    A6        2.06234   0.01186   0.00000   0.03147   0.03190   2.09425
    A7        2.14119  -0.01473   0.00000  -0.02710  -0.02686   2.11433
    A8        2.06101   0.00416   0.00000   0.00863   0.00855   2.06956
    A9        2.08326  -0.00384   0.00000  -0.00834  -0.00830   2.07496
   A10        2.13891  -0.00031   0.00000  -0.00029  -0.00025   2.13867
   A11        2.15487  -0.00288   0.00000  -0.00740  -0.00753   2.14734
   A12        2.02226   0.00163   0.00000   0.00015   0.00022   2.02248
   A13        2.10605   0.00125   0.00000   0.00724   0.00731   2.11336
   A14        2.08888   0.00403   0.00000   0.00624   0.00619   2.09507
   A15        2.09374  -0.00157   0.00000  -0.00187  -0.00184   2.09190
   A16        2.10056  -0.00246   0.00000  -0.00437  -0.00434   2.09622
   A17        2.05380   0.00193   0.00000  -0.00032  -0.00041   2.05339
   A18        2.10603  -0.00183   0.00000   0.00023   0.00028   2.10631
   A19        2.12335  -0.00011   0.00000   0.00009   0.00013   2.12348
   A20        2.63552   0.00657   0.00000   0.01358   0.01481   2.65033
   A21        1.89872   0.00038   0.00000  -0.06578  -0.06587   1.83285
   A22        2.10207   0.00087   0.00000  -0.05414  -0.05261   2.04947
   A23        1.65813  -0.01908   0.00000  -0.05052  -0.05014   1.60799
   A24        1.87727   0.01642   0.00000   0.06700   0.06642   1.94369
   A25        1.76616  -0.00530   0.00000   0.06291   0.06415   1.83031
   A26        2.50949   0.00766   0.00000   0.03353   0.03307   2.54256
    D1        0.02343  -0.00002   0.00000  -0.00044  -0.00033   0.02310
    D2       -3.11847   0.00006   0.00000  -0.00049  -0.00036  -3.11884
    D3        0.01452  -0.00122   0.00000   0.01027   0.00990   0.02442
    D4       -0.03250  -0.00030   0.00000   0.00082   0.00058  -0.03192
    D5       -3.13927   0.00002   0.00000   0.00056   0.00055  -3.13873
    D6        0.00264  -0.00006   0.00000   0.00060   0.00057   0.00321
    D7        0.00042   0.00019   0.00000   0.00126   0.00137   0.00180
    D8       -3.14085   0.00011   0.00000   0.00130   0.00140  -3.13945
    D9       -0.00223   0.00009   0.00000  -0.00035  -0.00031  -0.00254
   D10        3.13864   0.00006   0.00000  -0.00063  -0.00059   3.13805
   D11       -3.14122  -0.00014   0.00000  -0.00138  -0.00148   3.14049
   D12       -0.00035  -0.00017   0.00000  -0.00166  -0.00176  -0.00211
   D13       -0.01832  -0.00019   0.00000  -0.00225  -0.00256  -0.02089
   D14       -0.09621  -0.00072   0.00000  -0.00779  -0.00792  -0.10413
   D15        3.12089   0.00004   0.00000  -0.00129  -0.00148   3.11941
   D16        3.04300  -0.00050   0.00000  -0.00682  -0.00683   3.03617
   D17        3.14041  -0.00007   0.00000  -0.00047  -0.00048   3.13993
   D18        0.00057  -0.00004   0.00000  -0.00024  -0.00024   0.00033
   D19       -0.00150   0.00001   0.00000  -0.00052  -0.00051  -0.00201
   D20       -3.14135   0.00004   0.00000  -0.00029  -0.00027   3.14157
   D21       -0.00014   0.00004   0.00000   0.00019   0.00021   0.00007
   D22       -3.14070   0.00003   0.00000   0.00025   0.00026  -3.14044
   D23        3.13965   0.00000   0.00000  -0.00006  -0.00005   3.13960
[...]
 ! A18   A(5,7,12)             120.6764         -DE/DX =    0.0                 !
 ! A19   A(6,7,12)             121.6111         -DE/DX =    0.0                 !
 ! A20   A(1,8,13)             157.5399         -DE/DX =    0.0                 !
 ! A21   A(1,8,15)             108.1158         -DE/DX =    0.0                 !
 ! A22   A(8,13,14)            115.0974         -DE/DX =    0.0                 !
 ! A23   A(8,13,15)             81.4057         -DE/DX =    0.0                 !
 ! A24   A(14,13,15)           117.66           -DE/DX =    0.0                 !
 ! A25   A(2,15,8)             101.0242         -DE/DX =    0.0                 !
 ! A26   A(2,15,13)            149.7602         -DE/DX =    0.0001              !
 ! D1    D(8,1,3,2)              0.2918         -DE/DX =    0.0                 !
 ! D2    D(8,1,3,4)           -179.6605         -DE/DX =    0.0                 !
 ! D3    D(3,1,8,13)             5.7547         -DE/DX =    0.0                 !
 ! D4    D(3,1,8,15)            -0.8006         -DE/DX =    0.0                 !
 ! D5    D(5,2,3,1)           -179.7263         -DE/DX =    0.0                 !
 ! D6    D(5,2,3,4)              0.2281         -DE/DX =    0.0                 !
 ! D7    D(15,2,3,1)             0.5778         -DE/DX =    0.0                 !
 ! D8    D(15,2,3,4)          -179.4678         -DE/DX =    0.0                 !
 ! D9    D(3,2,5,7)             -0.1625         -DE/DX =    0.0                 !
 ! D10   D(3,2,5,10)           179.7281         -DE/DX =    0.0                 !
 ! D11   D(15,2,5,7)           179.4503         -DE/DX =    0.0                 !
 ! D12   D(15,2,5,10)           -0.659          -DE/DX =    0.0                 !
 ! D13   D(3,2,15,8)            -0.8828         -DE/DX =    0.0                 !
 ! D14   D(3,2,15,13)           -7.5633         -DE/DX =    0.0                 !
 ! D15   D(5,2,15,8)           179.4605         -DE/DX =    0.0                 !
 ! D16   D(5,2,15,13)          172.78           -DE/DX =    0.0                 !
 ! D17   D(1,3,4,6)            179.7883         -DE/DX =    0.0                 !
 ! D18   D(1,3,4,9)             -0.0506         -DE/DX =    0.0                 !
 ! D19   D(2,3,4,6)             -0.1635         -DE/DX =    0.0                 !
 ! D20   D(2,3,4,9)            179.9976         -DE/DX =    0.0                 !
 ! D21   D(3,4,6,7)              0.0369         -DE/DX =    0.0                 !
 ! D22   D(3,4,6,11)          -179.8953         -DE/DX =    0.0                 !
 ! D23   D(9,4,6,7)            179.8689         -DE/DX =    0.0                 !
 ! D24   D(9,4,6,11)            -0.0633         -DE/DX =    0.0                 !
 ! D25   D(2,5,7,6)              0.0282         -DE/DX =    0.0                 !
 ! D26   D(2,5,7,12)           179.9262         -DE/DX =    0.0                 !
 ! D27   D(10,5,7,6)          -179.8556         -DE/DX =    0.0                 !
 ! D28   D(10,5,7,12)            0.0424         -DE/DX =    0.0                 !
 ! D29   D(4,6,7,5)              0.0311         -DE/DX =    0.0                 !
 ! D30   D(4,6,7,12)          -179.8659         -DE/DX =    0.0                 !
 ! D31   D(11,6,7,5)           179.9632         -DE/DX =    0.0                 !
 ! D32   D(11,6,7,12)            0.0663         -DE/DX =    0.0                 !
 ! D33   D(1,8,13,14)         -124.7842         -DE/DX =    0.0                 !
 ! D34   D(1,8,13,15)           -8.1909         -DE/DX =    0.0                 !
 ! D35   D(1,8,15,2)             1.1698         -DE/DX =    0.0                 !
 ! D36   D(8,13,14,15)          93.3927         -DE/DX =    0.0                 !
 ! D37   D(8,13,15,2)            8.7032         -DE/DX =    0.0                 !
 ! D38   D(14,13,15,2)         122.6013         -DE/DX =    0.0                 !
 --------------------------------------------------------------------------------
 GradGradGradGradGradGradGradGradGradGradGradGradGradGradGradGradGradGrad

 Leave Link  103 at Sun Aug 29 00:00:11 2021, MaxMem= 17179869184 cpu:        41.8
 (Enter /public3/home/sc51754/softwares/g09e01/l9999.exe)
 1\1\GINC-S1603\Freq\RBHandHLYP\Gen\C5H7N1O2\SC51754\29-Aug-2021\0\\#P 
 Geom=AllCheck Guess=TCheck SCRF=Check GenChk RBHandHLYP/ChkBas Freq\\H
 Y_H2O_BHandHLYP_PC2_OPT_FREQ\\0,1\O,1.2829157948,1.3922188178,-0.00258
 89713\N,0.3415847122,-0.6474722323,-0.0039851612\C,0.2141454949,0.6901
 653404,0.0006054665\C,-1.0750623844,1.2488495174,0.0076430247\C,-0.717
 8790464,-1.4564071599,-0.0065582545\C,-2.1528632207,0.4178913412,0.006
 1850218\C,-1.987610706,-0.970883262,-0.0013931381\H,2.1551845008,0.646
 1823358,-0.0147176591\H,-1.169534973,2.3158817845,0.0113146897\H,-0.50
 67935084,-2.5086795521,-0.0147655369\H,-3.1430527318,0.8343342176,0.00
 98104475\H,-2.8267934074,-1.6359261519,-0.0047557218\O,2.7304459011,-0
 .4783132935,-0.0757267151\H,3.3080847877,-0.6743762385,0.6499581676\H,
 1.5233603067,-0.8855210346,0.0011151004\\Version=EM64L-G09RevE.01\Stat
 e=1-A\HF=-399.8723057\RMSD=3.060e-09\RMSF=7.259e-05\ZeroPoint=0.116589
 3\Thermal=0.122975\Dipole=-1.3408055,-0.693825,0.5253768\DipoleDeriv=-
 2.023836,-0.3597359,-0.0095045,-0.1854863,-0.9191384,0.0026629,-0.0077
 977,0.0013617,-0.3674598,-1.4162386,0.1904304,-0.005267,-0.4819212,-0.
 4733309,0.0000016,-0.033963,0.0004705,-0.1801221,1.834584,0.8268021,0.
 0031427,0.683112,0.6626653,-0.0009516,-0.0077898,-0.0043153,0.2611056,
 -0.7118801,-0.5261304,-0.0031753,0.0893402,-0.0052301,-0.00048,0.00827
 16,0.0000081,-0.1932482,0.6454411,-0.3592069,-0.00164,0.303104,0.24065
 48,0.0066867,-0.0001636,0.0057076,0.020091,0.3092446,0.1290193,0.00034
 86,0.0906902,0.6222807,0.0033548,-0.0013008,0.002464,-0.0548435,-0.289
 3752,0.405927,0.0015863,0.0659548,-0.5091758,-0.0013855,0.0056471,-0.0
 013612,-0.2079681,1.1816349,-0.4327076,-0.0042963,-0.9544542,0.7395055
 ,-0.0245144,-0.0184472,-0.0134735,0.2323544,0.0693624,-0.0016796,0.000
 0257,0.0092574,-0.0116038,-0.0007543,0.0005732,-0.0002115,0.159552,0.0
 678367,0.0253166,-0.0004001,-0.0108332,-0.0371906,-0.0006057,-0.002243
 5,-0.0016198,0.1297331,-0.0391945,0.0566992,0.000456,0.0580621,0.06729
 13,-0.0004451,-0.0004221,-0.0001714,0.1252773,0.0006744,-0.058763,-0.0
 00472,-0.0587871,0.0142955,-0.000763,-0.0004697,-0.0008782,0.1659922,-
 1.8619954,0.2118858,0.045444,0.3308835,-0.8599647,-0.0173079,0.1114712
 ,-0.0335354,-0.4803888,0.279311,0.0059059,-0.0467289,-0.0089238,0.2846
 312,0.0161389,-0.0631475,0.0260939,0.1905028,1.9544308,-0.113763,0.020
 4807,0.0700017,0.1843099,0.0183626,0.0097817,0.0194606,0.1994222\Polar
 =98.1668213,2.9300993,80.5867078,1.103851,-0.1829944,42.882477\PG=C01 
 [X(C5H7N1O2)]\NImag=1\\0.48611490,0.14491883,0.38755887,-0.00269224,-0
 .00031367,0.06153520,0.03371245,-0.06374175,0.00032438,0.67515918,-0.0
 4372762,-0.06725373,-0.00030129,0.11591878,0.69386134,0.00126700,-0.00
 040645,0.01591854,0.00026253,0.00233286,0.11961903,-0.34201603,-0.1432
 2201,0.00138663,-0.20564662,0.01426200,-0.00117058,0.85317595,-0.14298
 472,-0.22096654,0.00100576,0.05325788,-0.28279598,-0.00130614,0.045052
 07,0.70965234,0.00038832,0.00010542,-0.07444500,0.00020515,-0.00075635
 ,-0.08367177,-0.00160998,0.00148817,0.22248951,-0.08476495,0.00402285,
 0.00028299,0.03899541,0.07708352,0.00069435,-0.24102837,0.04539326,0.0
 0054720,0.71099030,-0.03345288,0.02355655,0.00017077,0.04118689,-0.022
 81516,-0.00021433,0.09950467,-0.17709257,-0.00080330,0.04656517,0.8269
 4809,0.00051310,0.00050809,0.01532352,-0.00013056,-0.00028132,0.015209
 26,0.00096510,-0.00104084,-0.08553345,-0.00146507,0.00260002,0.1321632
 2,-0.01858939,0.01363357,-0.00005318,-0.28812535,-0.08018253,0.0002662
 7,0.07184077,-0.09232748,-0.00056268,-0.07915237,-0.00472209,0.0001437
 2,0.75953699,-0.00232566,0.00139739,-0.00010290,-0.11959969,-0.2293984
 3,-0.00032071,-0.02133517,-0.06580216,-0.00016125,-0.01490652,-0.00181
 446,0.00005362,-0.05294958,0.81924963,-0.00005274,0.00005632,0.0088087
 6,-0.00029173,-0.00078288,-0.06330714,-0.00020504,-0.00004706,-0.00158
 470,0.00004433,0.00009506,-0.00364043,-0.00122548,0.00417646,0.1684715
 0,0.00738954,0.00534361,0.00002626,-0.01314698,-0.01939063,-0.00027497
 ,-0.05980295,-0.00351933,0.00019263,-0.31781210,-0.16238598,-0.0001246
 2,0.02266483,0.04289846,0.00026866,0.80764075,0.02939222,-0.00565511,-
 0.00001345,-0.04488595,-0.06649522,-0.00038222,-0.05635282,0.07700937,
 0.00057731,-0.09483507,-0.24992420,-0.00053334,0.10126024,-0.00940360,
 -0.00030591,-0.00208049,0.70517049,0.00011873,-0.00006181,0.00511890,-
 0.00014780,-0.00026462,-0.00728486,-0.00013945,0.00042438,0.00085675,0
 .00006279,-0.00050909,-0.06339632,0.00048998,-0.00015380,0.00839894,-0
 .00128325,0.00263045,0.16162764,0.00895172,-0.00736906,0.00002235,-0.0
 8521577,-0.05654059,-0.00024487,-0.03662599,0.05275831,0.00028701,0.05
 452446,-0.02604598,-0.00021943,-0.35974925,0.12711033,0.00117374,-0.14
 447391,-0.01601266,0.00001745,0.80896000,-0.02191941,0.00015946,-0.000
 00844,0.00787623,0.06316915,0.00045708,0.04625252,-0.04236028,-0.00036
 522,-0.06962030,-0.03749865,-0.00008234,0.05393595,-0.18573180,-0.0008
 3473,0.05577991,-0.31618374,-0.00137980,0.04870009,0.71296155,-0.00014
 204,0.00010906,-0.00085836,0.00007163,0.00032181,0.01796557,0.00032636
 ,-0.00036450,-0.00844317,-0.00042024,-0.00023669,0.00844980,0.00070302
 ,-0.00082940,-0.07364807,0.00038464,-0.00136679,-0.06926399,-0.0006172
 6,0.00336506,0.13166215,-0.01278735,-0.00426569,-0.00124953,-0.0181014
 2,0.01528239,-0.00117500,-0.07199990,-0.02279525,0.00048034,0.01357615
 ,0.00218257,0.00008891,0.00286938,0.00293165,-0.00001448,-0.00270190,-
 0.00674295,-0.00001223,-0.00207859,0.00546312,0.00013688,0.07821794,-0
 .03242631,-0.06334344,0.00044345,0.01997673,-0.01434370,0.00127914,0.0
 2454096,0.05488039,0.00005240,-0.01991680,-0.00741422,-0.00003103,-0.0
 0597497,-0.00540682,-0.00007071,0.00251813,0.01056307,0.00001467,0.004
 59876,-0.00748814,-0.00013011,0.06568736,0.03687459,0.00136874,-0.0016
 8727,-0.03963394,-0.00102594,-0.00001645,-0.00164294,-0.00034474,-0.00
 014320,0.00207032,0.00010276,-0.00003588,0.00357855,0.00002085,0.00010
 656,-0.00074868,-0.00005929,-0.00008563,0.00093663,-0.00011048,0.00004
 349,0.00030931,0.00509298,0.00549182,0.07074463,0.00267975,-0.00227508
 ,-0.00003019,-0.00700014,0.00454816,0.00000848,0.00429891,0.03193949,0
 .00008962,-0.06679222,0.02884392,0.00022374,-0.00218076,-0.00116764,-0
 .00000270,0.00839568,-0.02847849,-0.00010945,-0.00383947,-0.00284189,0
 .00001776,-0.00077910,0.00096816,-0.00001782,0.06221534,-0.00038983,0.
 00163679,0.00001834,0.00282020,-0.00019441,-0.00001095,-0.00325584,-0.
 00976423,-0.00000808,0.03130976,-0.36384360,-0.00118623,0.00049999,0.0
 0095538,0.00000691,0.00364108,-0.01311457,-0.00005258,-0.00352142,0.00
 090245,-0.00001285,0.00051855,-0.00043183,0.00000548,-0.03097091,0.383
 40341,-0.00001386,-0.00000528,-0.00267351,0.00005207,-0.00005531,0.005
 69958,-0.00004464,-0.00010354,0.00287892,0.00023710,-0.00105390,-0.036
 94985,0.00003013,0.00001655,-0.00053401,-0.00002124,-0.00005385,0.0027
 0006,-0.00000592,-0.00003645,0.00945969,-0.00001752,0.00001101,-0.0003
 5270,-0.00020126,0.00125780,0.02639512,-0.00095663,-0.00159576,0.00000
 210,0.00664223,-0.03619860,-0.00023712,-0.00353994,-0.00151172,0.00001
 258,-0.00047424,-0.00066571,0.00000093,-0.08066268,0.06769635,0.000499
 28,-0.00612962,0.00166209,0.00002860,0.00239117,0.02996217,0.00022439,
 0.00088870,-0.00083083,0.00000574,0.00015845,-0.00000126,-0.00000513,0
 .08020030,-0.00049610,-0.00147246,0.00000870,-0.00208774,-0.02236648,-
 0.00018198,-0.00316085,0.00308569,-0.00009364,0.00029988,0.00050728,0.
 00000697,0.06284305,-0.34490164,-0.00223915,0.00207214,0.00056925,-0.0
 0006873,-0.00058430,-0.00490885,-0.00010819,0.00046926,-0.00035910,-0.
 00000245,0.00007816,-0.00006411,0.00001044,-0.06005750,0.36945969,0.00
 001967,-0.00003231,0.00004928,0.00009599,0.00007606,0.00082612,0.00001
 475,-0.00003057,0.00844278,0.00000682,0.00001393,-0.00043274,0.0004153
 3,-0.00251434,-0.04621098,0.00000636,-0.00002870,0.00849630,0.00004435
 ,-0.00010347,0.00838266,-0.00005559,0.00004141,-0.00011252,-0.00000683
 ,0.00000431,-0.00139912,-0.00047613,0.00258934,0.02921478,-0.00184511,
 0.00078815,0.00001094,0.00022341,-0.00074230,-0.00000313,-0.00153277,-
 0.00392393,-0.00000486,-0.01928772,0.01264830,0.00008703,0.00179345,0.
 00050154,0.00000416,-0.31386138,0.10419089,0.00096377,0.00133030,-0.00
 049811,-0.00000834,0.00039330,-0.00067931,-0.00000777,0.00121195,-0.00
 018612,-0.00000917,-0.00003660,-0.00015150,-0.00000057,0.33116193,-0.0
 0087661,0.00083644,0.00001484,-0.00110527,-0.00028046,0.00000264,-0.00
 402843,-0.00255110,-0.00005256,-0.01986256,0.01334624,0.00005891,0.000
 50984,-0.00705051,-0.00007197,0.10501831,-0.11061653,-0.00047432,0.031
 56840,-0.00567920,-0.00010315,0.00004482,-0.00031887,-0.00000038,0.000
 66513,0.00086926,0.00002590,0.00158149,-0.00034438,0.00000266,-0.11272
 468,0.11029609,-0.00002852,-0.00004641,-0.00129370,0.00001733,0.000002
 62,-0.00190858,0.00001719,-0.00001413,0.01176277,-0.00001150,0.0000541
 3,0.00736187,0.00002337,-0.00009337,0.00676122,0.00089337,-0.00047936,
 -0.04848767,0.00016483,-0.00005066,0.00602846,-0.00002248,0.00001427,-
 0.00042406,-0.00001536,0.00001186,-0.00564729,0.00000490,0.00000250,-0
 .00064130,-0.00104595,0.00056887,0.03014110,0.00056718,-0.00025372,0.0
 0000424,-0.00585649,0.00359010,0.00003029,-0.00042978,0.00135536,-0.00
 000623,0.00099884,0.00182961,0.00000964,-0.01757021,-0.02296208,-0.000
 15725,0.00930263,0.00541209,0.00001508,-0.25061767,-0.14642742,-0.0006
 6275,-0.00020537,0.00046412,-0.00001706,0.00030489,0.00033527,-0.00000
 056,0.00083638,0.00031355,0.00000057,0.00059213,-0.00069587,-0.0000017
 1,0.26143457,-0.00047556,0.00049155,0.00000551,0.00418170,0.00027197,-
 0.00006056,0.00143021,-0.00136242,-0.00000759,0.00252466,-0.00518060,-
 0.00006344,0.01136731,0.01271198,0.00007218,-0.02766434,-0.01397190,-0
 .00007297,-0.14801976,-0.18016678,-0.00076032,0.00021917,-0.00035198,0
 .00000593,-0.00128358,-0.00055316,-0.00000077,-0.00067100,0.00057561,0
 .00003485,0.00041913,0.00129686,0.00002857,0.15811750,0.18561445,-0.00
 001196,-0.00003493,-0.00086973,0.00002946,-0.00007711,0.00896542,0.000
 00680,0.00002192,-0.00024999,0.00001410,-0.00005562,0.00576219,0.00010
 931,0.00010430,-0.00032077,-0.00015144,-0.00004333,0.00079755,-0.00073
 544,-0.00083458,-0.03356509,0.00001417,-0.00001347,0.00000301,-0.00000
 976,-0.00000381,0.00051911,-0.00001346,0.00004624,-0.00463100,0.000000
 28,0.00002597,-0.00328524,0.00075086,0.00082970,0.02612498,-0.02773127
 ,0.04822105,0.00163945,-0.10104542,-0.00979623,-0.00191267,-0.00195843
 ,-0.00596435,0.00048896,0.00023406,0.00129832,0.00010656,-0.00048172,0
 .01596168,-0.00007649,-0.00074726,-0.00212165,-0.00006377,-0.00623212,
 -0.00097581,0.00022607,-0.02442655,-0.00360351,-0.00300649,-0.00061307
 ,0.00030566,0.00000880,-0.00029477,-0.00103556,-0.00009454,-0.00029004
 ,0.00002705,-0.00000886,-0.00134918,0.00042701,0.00003856,0.36589482,0
 .10263067,-0.05116235,0.00302168,-0.03088517,0.02218871,-0.00411795,-0
 .03419357,-0.03436852,0.00014004,0.01247617,0.00582064,-0.00023812,0.0
 0557775,0.00473843,-0.00011758,-0.00192326,-0.00728879,-0.00006876,-0.
 00372822,0.00519248,0.00028924,-0.05321544,0.00579693,-0.02144859,-0.0
 0112771,0.00052132,-0.00001779,0.00073944,0.00005301,-0.00010710,0.000
 34966,0.00019646,0.00004176,-0.00039395,0.00029127,0.00005962,-0.09675
 690,0.13279356,-0.00276919,0.00510229,0.01723085,-0.00636901,-0.001243
 17,0.01722918,0.00074016,-0.00066537,-0.00084370,-0.00002123,0.0000739
 1,-0.00169785,-0.00066436,0.00037308,0.00090494,0.00006886,-0.00006145
 ,0.00010406,-0.00007542,-0.00020946,-0.00113504,-0.00356242,-0.0095092
 5,-0.04026409,0.00003838,-0.00000802,0.00010746,-0.00000058,-0.0000676
 1,0.00044321,0.00001303,0.00001042,0.00019982,-0.00006794,0.00000595,-
 0.00023190,0.26072419,-0.08865986,0.38849683,0.00154485,0.00196525,0.0
 0123420,-0.00825912,-0.00216014,0.00335571,-0.00087193,-0.00134320,-0.
 00061942,0.00030408,0.00018331,-0.00033010,-0.00092130,0.00111335,0.00
 010550,-0.00001041,-0.00021811,0.00003743,-0.00030012,-0.00027158,-0.0
 0024102,-0.00457321,-0.00122557,-0.00425292,0.00000346,0.00003657,-0.0
 0000358,-0.00006833,-0.00012907,0.00008385,0.00001620,-0.00000039,0.00
 004057,-0.00010350,0.00004480,-0.00003730,-0.22181850,0.06570826,-0.25
 465201,0.23026865,0.00809678,-0.00793198,-0.00393255,-0.00735627,0.000
 98748,0.00224657,-0.00188561,-0.00222692,-0.00004308,0.00054318,0.0002
 7408,0.00025171,0.00013085,0.00118446,0.00001864,-0.00006145,-0.000293
 70,0.00002662,-0.00045103,0.00000197,-0.00010697,0.00153642,0.01163316
 ,0.01675994,-0.00007630,0.00005146,0.00000546,-0.00006453,-0.00013920,
 0.00001561,0.00001615,0.00000316,-0.00004472,-0.00010202,0.00003321,-0
 .00002208,0.06370279,-0.05118273,0.08562231,-0.07187113,0.04536463,0.0
 0335231,-0.00385477,-0.00030688,0.00558259,0.00054321,-0.00037006,-0.0
 0043261,0.00002686,0.00008116,0.00006886,-0.00001321,0.00002431,0.0003
 8524,-0.00045414,0.00002315,0.00002320,0.00003768,-0.00001452,0.000206
 99,0.00012619,0.00002204,-0.00095377,0.00423177,0.00084558,0.00000645,
 0.00000286,0.00001027,-0.00001341,0.00005556,0.00001508,0.00000722,-0.
 00000538,0.00000414,0.00007089,-0.00000803,0.00000791,-0.27139479,0.09
 381089,-0.34189004,0.26833910,-0.09170052,0.34008128,-0.05226968,0.003
 82976,-0.00090838,-0.02233536,0.01805367,-0.00086630,0.03613707,0.0446
 1361,0.00011137,-0.01031135,-0.00697013,0.00013106,-0.01127241,-0.0229
 6701,-0.00006979,0.00329309,0.00981066,0.00002212,0.01297525,-0.005415
 47,0.00000090,0.04170793,-0.05409692,0.00225144,0.00193634,-0.00114169
 ,-0.00000523,0.00104556,0.00162657,-0.00005403,0.00013093,-0.00012123,
 -0.00002716,0.00209559,-0.00061726,-0.00000416,0.02085945,0.03474226,0
 .00659753,0.00478920,0.00784220,-0.00524826,-0.02878160,-0.00596382,0.
 00214858,-0.00001676,0.02444342,-0.07453509,0.00068301,0.03639187,-0.0
 0533706,-0.00007228,-0.00107721,-0.00486942,-0.00002269,-0.01360189,0.
 00927216,0.00004441,-0.00024616,-0.00036481,0.00001037,-0.00246288,-0.
 00236962,-0.00006622,-0.00731598,-0.02029005,0.00100663,0.00117859,-0.
 00037415,-0.00000028,-0.00004462,0.00030568,0.00003833,-0.00000786,-0.
 00000345,0.00000408,-0.00058254,0.00029994,-0.00000285,-0.00968955,-0.
 03359041,0.00923622,0.00816765,0.00224092,-0.00279898,-0.02918901,0.12
 746678,-0.00131732,0.00056171,-0.00390392,0.00132393,0.00050194,-0.043
 24734,0.00049004,0.00074827,0.00618958,-0.00014325,-0.00008580,0.00377
 792,-0.00008151,-0.00020067,-0.00337372,0.00005084,0.00010860,-0.00058
 946,0.00009212,-0.00008667,0.00463404,0.00124972,-0.00182539,0.0046909
 1,0.00000894,-0.00002503,-0.00021372,-0.00003270,0.00004198,-0.0024425
 7,-0.00000665,-0.00000245,-0.00057153,0.00003193,-0.00000903,0.0009735
 4,0.01332503,0.01741250,-0.03865372,-0.01305999,-0.00909696,0.00146658
 ,-0.00193112,-0.00804299,0.07126341\\-0.00008875,-0.00026595,-0.000017
 06,0.00009187,-0.00004239,-0.00000508,0.00025470,0.00016939,-0.0000027
 2,0.00000112,0.00000292,-0.00000146,-0.00000280,0.00000670,0.00000781,
 0.00000060,-0.00000051,0.00000204,-0.00000598,0.00000367,-0.00000088,-
 0.00010756,-0.00008241,0.00004886,-0.00000044,-0.00000105,-0.00000116,
 -0.00000093,0.00000066,-0.00000184,0.00000098,0.00000154,0.00000008,-0
 .00000102,0.00000117,-0.00000036,-0.00006273,0.00012685,-0.00001170,0.
 00001858,0.00003370,-0.00000331,-0.00009764,0.00004572,-0.00001321\\\@


 ASKING FOR EFFICIENCY AND ADAPTABILITY IN THE SAME PROGRAM IS LIKE
 ASKING FOR A BEAUTIFUL AND MODEST WIFE ...
 WE'LL PROBABLY HAVE TO SETTLE FOR ONE OR THE OTHER.

             -- THE PSYCHOLOGY OF COMPUTER PROGRAMMING
                GERALD M. WEINBERG
 Job cpu time:       0 days  1 hours  5 minutes 57.6 seconds.
 File lengths (MBytes):  RWF=    137 Int=      0 D2E=      0 Chk=      9 Scr=      1
 Normal termination of Gaussian 09 at Sun Aug 29 00:00:11 2021.
