 Entering Gaussian System, Link 0=/home/tmcstu/local/programs/gaussian09/g09/g09
 Input=/home/tmcstu/shy/works/2PO_2HP/new_data_Gaussian09_20210826/XYG3/calc/TST_H2O/.script430657/Job_TST_H2O_XYG3_PC2.com
 Output=/home/tmcstu/shy/works/2PO_2HP/new_data_Gaussian09_20210826/XYG3/calc/TST_H2O/.script430657/Job_TST_H2O_XYG3_PC2.log
 AtFile(1): pc-2.gbs
            -H     0
            S    4   1.00
                  0.754230D+02           0.240650D-02
                  0.113500D+02           0.184870D-01
                  0.259930D+01           0.897420D-01
                  0.735130D+00           0.281110D+00
            S    1   1.00
                  0.231670D+00           0.100000D+01
            S    1   1.00
                  0.741470D-01           0.100000D+01
            P    1   1.00
                  0.160000D+01           0.100000D+01
            P    1   1.00
                  0.450000D+00           0.100000D+01
            D    1   1.00
                  0.125000D+01           0.100000D+01
            ****
            -C     0
            S    7   1.00
                  0.785710D+04           0.568250D-03
                  0.117870D+04           0.439150D-02
                  0.268320D+03           0.225040D-01
                  0.759480D+02           0.866530D-01
                  0.245590D+02           0.244050D+00
                  0.862120D+01           0.441480D+00
                  0.312780D+01           0.353320D+00
            S    7   1.00
                  0.117870D+04          -0.594920D-06
                  0.268320D+03          -0.627480D-04
                  0.759480D+02          -0.757730D-03
                  0.245590D+02          -0.733080D-02
                  0.862120D+01          -0.389320D-01
                  0.312780D+01          -0.889080D-01
                  0.822020D+00           0.216890D+00
            S    1   1.00
                  0.330170D+00           0.100000D+01
            S    1   1.00
                  0.114630D+00           0.100000D+01
            P    4   1.00
                  0.337750D+02           0.602940D-02
                  0.767660D+01           0.432280D-01
                  0.223570D+01           0.163010D+00
                  0.764470D+00           0.365040D+00
            P    1   1.00
                  0.262320D+00           0.100000D+01
            P    1   1.00
                  0.846380D-01           0.100000D+01
            D    1   1.00
                  0.140000D+01           0.100000D+01
            D    1   1.00
                  0.450000D+00           0.100000D+01
            F    1   1.00
                  0.950000D+00           0.100000D+01
            ****
            -N     0
            S    7   1.00
                  0.111010D+05           0.545700D-03
                  0.166530D+04           0.421810D-02
                  0.379080D+03           0.216450D-01
                  0.107300D+03           0.837760D-01
                  0.347470D+02           0.238810D+00
                  0.122490D+02           0.439940D+00
                  0.447430D+01           0.363640D+00
            S    7   1.00
                  0.166530D+04          -0.150060D-05
                  0.379080D+03          -0.587530D-04
                  0.107300D+03          -0.774530D-03
                  0.347470D+02          -0.721610D-02
                  0.122490D+02          -0.393380D-01
                  0.447430D+01          -0.906110D-01
                  0.124040D+01           0.198820D+00
            S    1   1.00
                  0.487430D+00           0.100000D+01
            S    1   1.00
                  0.164840D+00           0.100000D+01
            P    4   1.00
                  0.479340D+02           0.617060D-02
                  0.109990D+02           0.442600D-01
                  0.324720D+01           0.168250D+00
                  0.111140D+01           0.368480D+00
            P    1   1.00
                  0.379880D+00           0.100000D+01
            P    1   1.00
                  0.120680D+00           0.100000D+01
            D    1   1.00
                  0.180000D+01           0.100000D+01
            D    1   1.00
                  0.550000D+00           0.100000D+01
            F    1   1.00
                  0.102000D+01           0.100000D+01
            ****
            -O     0
            S    7   1.00
                  0.147820D+05           0.535190D-03
                  0.221730D+04           0.413750D-02
                  0.504740D+03           0.212450D-01
                  0.142870D+03           0.824530D-01
                  0.463000D+02           0.236710D+00
                  0.163370D+02           0.440390D+00
                  0.598280D+01           0.364650D+00
            S    7   1.00
                  0.221730D+04          -0.192750D-05
                  0.504740D+03          -0.579640D-04
                  0.142870D+03          -0.794940D-03
                  0.463000D+02          -0.731250D-02
                  0.163370D+02          -0.405740D-01
                  0.598280D+01          -0.915940D-01
                  0.167180D+01           0.209400D+00
            S    1   1.00
                  0.646620D+00           0.100000D+01
            S    1   1.00
                  0.216690D+00           0.100000D+01
            P    4   1.00
                  0.604240D+02           0.689490D-02
                  0.139350D+02           0.490050D-01
                  0.415310D+01           0.182550D+00
                  0.141580D+01           0.376330D+00
            P    1   1.00
                  0.475490D+00           0.100000D+01
            P    1   1.00
                  0.145290D+00           0.100000D+01
            D    1   1.00
                  0.220000D+01           0.100000D+01
            D    1   1.00
                  0.650000D+00           0.100000D+01
            F    1   1.00
                  0.110000D+01           0.100000D+01
            ****
 Initial command:
 /home/tmcstu/local/programs/gaussian09/g09/l1.exe "./tmp/Gau-430685.inp" -scrdir="./tmp/"
 Entering Link 1 = /home/tmcstu/local/programs/gaussian09/g09/l1.exe PID=    430686.
  
 Copyright (c) 1988,1990,1992,1993,1995,1998,2003,2009,2015,
            Gaussian, Inc.  All Rights Reserved.
  
 This is part of the Gaussian(R) 09 program.  It is based on
 the Gaussian(R) 03 system (copyright 2003, Gaussian, Inc.),
 the Gaussian(R) 98 system (copyright 1998, Gaussian, Inc.),
 the Gaussian(R) 94 system (copyright 1995, Gaussian, Inc.),
 the Gaussian 92(TM) system (copyright 1992, Gaussian, Inc.),
 the Gaussian 90(TM) system (copyright 1990, Gaussian, Inc.),
 the Gaussian 88(TM) system (copyright 1988, Gaussian, Inc.),
 the Gaussian 86(TM) system (copyright 1986, Carnegie Mellon
 University), and the Gaussian 82(TM) system (copyright 1983,
 Carnegie Mellon University). Gaussian is a federally registered
 trademark of Gaussian, Inc.
  
 This software contains proprietary and confidential information,
 including trade secrets, belonging to Gaussian, Inc.
  
 This software is provided under written license and may be
 used, copied, transmitted, or stored only in accord with that
 written license.
  
 The following legend is applicable only to US Government
 contracts under FAR:
  
                    RESTRICTED RIGHTS LEGEND
  
 Use, reproduction and disclosure by the US Government is
 subject to restrictions as set forth in subparagraphs (a)
 and (c) of the Commercial Computer Software - Restricted
 Rights clause in FAR 52.227-19.
  
 Gaussian, Inc.
 340 Quinnipiac St., Bldg. 40, Wallingford CT 06492
  
  
 ---------------------------------------------------------------
 Warning -- This program may not be used in any manner that
 competes with the business of Gaussian, Inc. or will provide
 assistance to any competitor of Gaussian, Inc.  The licensee
 of this program is prohibited from giving any competitor of
 Gaussian, Inc. access to this program.  By using this program,
 the user acknowledges that Gaussian, Inc. is engaged in the
 business of creating and licensing software in the field of
 computational chemistry and represents and warrants to the
 licensee that it is not a competitor of Gaussian, Inc. and that
 it will not use this program in any manner prohibited above.
 ---------------------------------------------------------------
  

 Cite this work as:
 Gaussian 09, Revision E.01,
 M. J. Frisch, G. W. Trucks, H. B. Schlegel, G. E. Scuseria, 
 M. A. Robb, J. R. Cheeseman, G. Scalmani, V. Barone, B. Mennucci, 
 G. A. Petersson, H. Nakatsuji, M. Caricato, X. Li, H. P. Hratchian, 
 A. F. Izmaylov, J. Bloino, G. Zheng, J. L. Sonnenberg, M. Hada, 
 M. Ehara, K. Toyota, R. Fukuda, J. Hasegawa, M. Ishida, T. Nakajima, 
 Y. Honda, O. Kitao, H. Nakai, T. Vreven, J. A. Montgomery, Jr., 
 J. E. Peralta, F. Ogliaro, M. Bearpark, J. J. Heyd, E. Brothers, 
 K. N. Kudin, V. N. Staroverov, T. Keith, R. Kobayashi, J. Normand, 
 K. Raghavachari, A. Rendell, J. C. Burant, S. S. Iyengar, J. Tomasi, 
 M. Cossi, N. Rega, J. M. Millam, M. Klene, J. E. Knox, J. B. Cross, 
 V. Bakken, C. Adamo, J. Jaramillo, R. Gomperts, R. E. Stratmann, 
 O. Yazyev, A. J. Austin, R. Cammi, C. Pomelli, J. W. Ochterski, 
 R. L. Martin, K. Morokuma, V. G. Zakrzewski, G. A. Voth, 
 P. Salvador, J. J. Dannenberg, S. Dapprich, A. D. Daniels, 
 O. Farkas, J. B. Foresman, J. V. Ortiz, J. Cioslowski, 
 and D. J. Fox, Gaussian, Inc., Wallingford CT, 2013.
 
 ******************************************
 Gaussian 09:  EM64L-G09RevE.01 30-Nov-2015
                29-Aug-2021 
 ******************************************
 %nprocshared=4
 Will use up to    4 processors via shared memory.
 %mem=4GB
 %oldchk=TST_H2O_B3LYP_PC2_OPT_FREQ.chk
 %chk=./tmp/TST_H2O_XYG3_PC2.chk
 Copying data from "TST_H2O_B3LYP_PC2_OPT_FREQ.chk" to current chk file "./tmp/TST_H2O_XYG3_PC2.chk".
 ------------------------------------------------------------
 #p gen geom=checkpoint b3lyp iop(5/33=1) nosymm extraoverlay
 ------------------------------------------------------------
 Additional overlay cards (at end):
 ------------------------------
 8/7=1,10=4/1; 9/16=-3/6; 6//8;
 ------------------------------
 1/29=2,38=1/1;
 2/12=2,15=1,40=1/2;
 3/5=7,11=2,14=-4,16=1,25=1,30=1,74=-5/1,2,3;
 4//1;
 5/5=2,33=1,38=5/2;
 6/7=2,8=2,9=2,10=2,28=1/1;
 8/7=1,10=4/1;
 9/16=-3/6;
 6//8;
 99/5=1,9=1/99;
 Leave Link    1 at Sun Aug 29 12:48:54 2021, MaxMem=   536870912 cpu:         0.1
 (Enter /home/tmcstu/local/programs/gaussian09/g09/l101.exe)
 ----------------
 TST_H2O_XYG3_PC2
 ----------------
 Structure from the checkpoint file:  "./tmp/TST_H2O_XYG3_PC2.chk"
 Charge =  0 Multiplicity = 1
 Redundant internal coordinates found in file.
 O,0,1.3355109288,1.3118329546,-0.013939105
 N,0,0.4062396098,-0.7629296054,-0.0146700888
 C,0,0.2634175487,0.5905726247,-0.0105052358
 C,0,-1.0402378804,1.1363016204,-0.0039721103
 C,0,-0.6546098966,-1.5848239886,-0.0161222815
 C,0,-2.1204555449,0.2889931871,-0.0048906858
 C,0,-1.9400139393,-1.1042243807,-0.011270888
 H,0,2.2355453287,0.5490921497,-0.0223108801
 H,0,-1.1475863424,2.210292046,-0.0009399099
 H,0,-0.434371627,-2.6436962512,-0.0237783818
 H,0,-3.121635107,0.6995950262,-0.0017014916
 H,0,-2.7789537262,-1.7825590963,-0.0140854832
 O,0,2.8184947681,-0.5677017316,-0.0787643742
 H,0,3.3610235355,-0.7488099236,0.6926528174
 H,0,1.6237606842,-0.9880330812,-0.0061230915
 Recover connectivity data from disk.
 NAtoms=     15 NQM=       15 NQMF=       0 NMMI=      0 NMMIF=      0
                NMic=       0 NMicF=      0.
                    Isotopes and Nuclear Properties:
 (Nuclear quadrupole moments (NQMom) in fm**2, nuclear magnetic moments (NMagM)
  in nuclear magnetons)

  Atom         1           2           3           4           5           6           7           8           9          10
 IAtWgt=          16          14          12          12          12          12          12           1           1           1
 AtmWgt=  15.9949146  14.0030740  12.0000000  12.0000000  12.0000000  12.0000000  12.0000000   1.0078250   1.0078250   1.0078250
 NucSpn=           0           2           0           0           0           0           0           1           1           1
 AtZEff=  -5.6000000  -4.5500000  -3.6000000  -3.6000000  -3.6000000  -3.6000000  -3.6000000  -1.0000000  -1.0000000  -1.0000000
 NQMom=    0.0000000   2.0440000   0.0000000   0.0000000   0.0000000   0.0000000   0.0000000   0.0000000   0.0000000   0.0000000
 NMagM=    0.0000000   0.4037610   0.0000000   0.0000000   0.0000000   0.0000000   0.0000000   2.7928460   2.7928460   2.7928460
 AtZNuc=   8.0000000   7.0000000   6.0000000   6.0000000   6.0000000   6.0000000   6.0000000   1.0000000   1.0000000   1.0000000

  Atom        11          12          13          14          15
 IAtWgt=           1           1          16           1           1
 AtmWgt=   1.0078250   1.0078250  15.9949146   1.0078250   1.0078250
 NucSpn=           1           1           0           1           1
 AtZEff=  -1.0000000  -1.0000000  -5.6000000  -1.0000000  -1.0000000
 NQMom=    0.0000000   0.0000000   0.0000000   0.0000000   0.0000000
 NMagM=    2.7928460   2.7928460   0.0000000   2.7928460   2.7928460
 AtZNuc=   1.0000000   1.0000000   8.0000000   1.0000000   1.0000000
 Leave Link  101 at Sun Aug 29 12:48:54 2021, MaxMem=   536870912 cpu:         0.4
 (Enter /home/tmcstu/local/programs/gaussian09/g09/l202.exe)
                          Input orientation:                          
 ---------------------------------------------------------------------
 Center     Atomic      Atomic             Coordinates (Angstroms)
 Number     Number       Type             X           Y           Z
 ---------------------------------------------------------------------
      1          8           0        1.335511    1.311833   -0.013939
      2          7           0        0.406240   -0.762930   -0.014670
      3          6           0        0.263418    0.590573   -0.010505
      4          6           0       -1.040238    1.136302   -0.003972
      5          6           0       -0.654610   -1.584824   -0.016122
      6          6           0       -2.120456    0.288993   -0.004891
      7          6           0       -1.940014   -1.104224   -0.011271
      8          1           0        2.235545    0.549092   -0.022311
      9          1           0       -1.147586    2.210292   -0.000940
     10          1           0       -0.434372   -2.643696   -0.023778
     11          1           0       -3.121635    0.699595   -0.001701
     12          1           0       -2.778954   -1.782559   -0.014085
     13          8           0        2.818495   -0.567702   -0.078764
     14          1           0        3.361024   -0.748810    0.692653
     15          1           0        1.623761   -0.988033   -0.006123
 ---------------------------------------------------------------------
                    Distance matrix (angstroms):
                    1          2          3          4          5
     1  O    0.000000
     2  N    2.273364   0.000000
     3  C    1.292135   1.361023   0.000000
     4  C    2.382245   2.387361   1.413287   0.000000
     5  C    3.514428   1.341981   2.361177   2.748342   0.000000
     6  C    3.604163   2.736937   2.402880   1.372881   2.379080
     7  C    4.070185   2.370949   2.779829   2.414458   1.372320
     8  H    1.179790   2.251182   1.972599   3.328049   3.592580
     9  H    2.640676   3.354789   2.148142   1.079346   3.827030
    10  H    4.333450   2.060095   3.308713   3.828296   1.081561
    11  H    4.499015   3.819037   3.386819   2.126719   3.362290
    12  H    5.148211   3.344413   3.858470   3.397497   2.133528
    13  O    2.395014   2.420991   2.806186   4.218891   3.619519
    14  H    2.974596   3.038298   3.447251   4.838392   4.162522
    15  H    2.317872   1.238185   2.083878   3.407300   2.355256
                    6          7          8          9         10
     6  C    0.000000
     7  C    1.404868   0.000000
     8  H    4.363794   4.490977   0.000000
     9  H    2.153574   3.407942   3.769035   0.000000
    10  H    3.382884   2.153390   4.162014   4.906159   0.000000
    11  H    1.082111   2.156405   5.359334   2.485774   4.289460
    12  H    2.173714   1.078873   5.530087   4.313281   2.497742
    13  O    5.013244   4.789135   1.261049   4.842841   3.859264
    14  H    5.622296   5.359368   1.860759   5.437363   4.302196
    15  H    3.956002   3.565672   1.654478   4.231982   2.641485
                   11         12         13         14         15
    11  H    0.000000
    12  H    2.505728   0.000000
    13  O    6.074300   5.728132   0.000000
    14  H    6.678688   6.266374   0.960324   0.000000
    15  H    5.036555   4.473838   1.268600   1.887749   0.000000
 Symmetry turned off by external request.
 Stoichiometry    C5H7NO2
 Framework group  C1[X(C5H7NO2)]
 Deg. of freedom    39
 Full point group                 C1      NOp   1
 Rotational constants (GHZ):      4.1323203      1.6008283      1.1568472
 Leave Link  202 at Sun Aug 29 12:48:54 2021, MaxMem=   536870912 cpu:         0.0
 (Enter /home/tmcstu/local/programs/gaussian09/g09/l301.exe)
 General basis read from cards:  (5D, 7F)
 Centers:       8      9     10     11     12     14     15
 S 4 1.00
     Exponent=  7.5423000000D+01 Coefficients=  2.4065000000D-03
     Exponent=  1.1350000000D+01 Coefficients=  1.8487000000D-02
     Exponent=  2.5993000000D+00 Coefficients=  8.9742000000D-02
     Exponent=  7.3513000000D-01 Coefficients=  2.8111000000D-01
 S 1 1.00
     Exponent=  2.3167000000D-01 Coefficients=  1.0000000000D+00
 S 1 1.00
     Exponent=  7.4147000000D-02 Coefficients=  1.0000000000D+00
 P 1 1.00
     Exponent=  1.6000000000D+00 Coefficients=  1.0000000000D+00
 P 1 1.00
     Exponent=  4.5000000000D-01 Coefficients=  1.0000000000D+00
 D 1 1.00
     Exponent=  1.2500000000D+00 Coefficients=  1.0000000000D+00
 ****
 Centers:       3      4      5      6      7
 S 7 1.00
     Exponent=  7.8571000000D+03 Coefficients=  5.6825000000D-04
     Exponent=  1.1787000000D+03 Coefficients=  4.3915000000D-03
     Exponent=  2.6832000000D+02 Coefficients=  2.2504000000D-02
     Exponent=  7.5948000000D+01 Coefficients=  8.6653000000D-02
     Exponent=  2.4559000000D+01 Coefficients=  2.4405000000D-01
     Exponent=  8.6212000000D+00 Coefficients=  4.4148000000D-01
     Exponent=  3.1278000000D+00 Coefficients=  3.5332000000D-01
 S 7 1.00
     Exponent=  1.1787000000D+03 Coefficients= -5.9492000000D-07
     Exponent=  2.6832000000D+02 Coefficients= -6.2748000000D-05
     Exponent=  7.5948000000D+01 Coefficients= -7.5773000000D-04
     Exponent=  2.4559000000D+01 Coefficients= -7.3308000000D-03
     Exponent=  8.6212000000D+00 Coefficients= -3.8932000000D-02
     Exponent=  3.1278000000D+00 Coefficients= -8.8908000000D-02
     Exponent=  8.2202000000D-01 Coefficients=  2.1689000000D-01
 S 1 1.00
     Exponent=  3.3017000000D-01 Coefficients=  1.0000000000D+00
 S 1 1.00
     Exponent=  1.1463000000D-01 Coefficients=  1.0000000000D+00
 P 4 1.00
     Exponent=  3.3775000000D+01 Coefficients=  6.0294000000D-03
     Exponent=  7.6766000000D+00 Coefficients=  4.3228000000D-02
     Exponent=  2.2357000000D+00 Coefficients=  1.6301000000D-01
     Exponent=  7.6447000000D-01 Coefficients=  3.6504000000D-01
 P 1 1.00
     Exponent=  2.6232000000D-01 Coefficients=  1.0000000000D+00
 P 1 1.00
     Exponent=  8.4638000000D-02 Coefficients=  1.0000000000D+00
 D 1 1.00
     Exponent=  1.4000000000D+00 Coefficients=  1.0000000000D+00
 D 1 1.00
     Exponent=  4.5000000000D-01 Coefficients=  1.0000000000D+00
 F 1 1.00
     Exponent=  9.5000000000D-01 Coefficients=  1.0000000000D+00
 ****
 Centers:       2
 S 7 1.00
     Exponent=  1.1101000000D+04 Coefficients=  5.4570000000D-04
     Exponent=  1.6653000000D+03 Coefficients=  4.2181000000D-03
     Exponent=  3.7908000000D+02 Coefficients=  2.1645000000D-02
     Exponent=  1.0730000000D+02 Coefficients=  8.3776000000D-02
     Exponent=  3.4747000000D+01 Coefficients=  2.3881000000D-01
     Exponent=  1.2249000000D+01 Coefficients=  4.3994000000D-01
     Exponent=  4.4743000000D+00 Coefficients=  3.6364000000D-01
 S 7 1.00
     Exponent=  1.6653000000D+03 Coefficients= -1.5006000000D-06
     Exponent=  3.7908000000D+02 Coefficients= -5.8753000000D-05
     Exponent=  1.0730000000D+02 Coefficients= -7.7453000000D-04
     Exponent=  3.4747000000D+01 Coefficients= -7.2161000000D-03
     Exponent=  1.2249000000D+01 Coefficients= -3.9338000000D-02
     Exponent=  4.4743000000D+00 Coefficients= -9.0611000000D-02
     Exponent=  1.2404000000D+00 Coefficients=  1.9882000000D-01
 S 1 1.00
     Exponent=  4.8743000000D-01 Coefficients=  1.0000000000D+00
 S 1 1.00
     Exponent=  1.6484000000D-01 Coefficients=  1.0000000000D+00
 P 4 1.00
     Exponent=  4.7934000000D+01 Coefficients=  6.1706000000D-03
     Exponent=  1.0999000000D+01 Coefficients=  4.4260000000D-02
     Exponent=  3.2472000000D+00 Coefficients=  1.6825000000D-01
     Exponent=  1.1114000000D+00 Coefficients=  3.6848000000D-01
 P 1 1.00
     Exponent=  3.7988000000D-01 Coefficients=  1.0000000000D+00
 P 1 1.00
     Exponent=  1.2068000000D-01 Coefficients=  1.0000000000D+00
 D 1 1.00
     Exponent=  1.8000000000D+00 Coefficients=  1.0000000000D+00
 D 1 1.00
     Exponent=  5.5000000000D-01 Coefficients=  1.0000000000D+00
 F 1 1.00
     Exponent=  1.0200000000D+00 Coefficients=  1.0000000000D+00
 ****
 Centers:       1     13
 S 7 1.00
     Exponent=  1.4782000000D+04 Coefficients=  5.3519000000D-04
     Exponent=  2.2173000000D+03 Coefficients=  4.1375000000D-03
     Exponent=  5.0474000000D+02 Coefficients=  2.1245000000D-02
     Exponent=  1.4287000000D+02 Coefficients=  8.2453000000D-02
     Exponent=  4.6300000000D+01 Coefficients=  2.3671000000D-01
     Exponent=  1.6337000000D+01 Coefficients=  4.4039000000D-01
     Exponent=  5.9828000000D+00 Coefficients=  3.6465000000D-01
 S 7 1.00
     Exponent=  2.2173000000D+03 Coefficients= -1.9275000000D-06
     Exponent=  5.0474000000D+02 Coefficients= -5.7964000000D-05
     Exponent=  1.4287000000D+02 Coefficients= -7.9494000000D-04
     Exponent=  4.6300000000D+01 Coefficients= -7.3125000000D-03
     Exponent=  1.6337000000D+01 Coefficients= -4.0574000000D-02
     Exponent=  5.9828000000D+00 Coefficients= -9.1594000000D-02
     Exponent=  1.6718000000D+00 Coefficients=  2.0940000000D-01
 S 1 1.00
     Exponent=  6.4662000000D-01 Coefficients=  1.0000000000D+00
 S 1 1.00
     Exponent=  2.1669000000D-01 Coefficients=  1.0000000000D+00
 P 4 1.00
     Exponent=  6.0424000000D+01 Coefficients=  6.8949000000D-03
     Exponent=  1.3935000000D+01 Coefficients=  4.9005000000D-02
     Exponent=  4.1531000000D+00 Coefficients=  1.8255000000D-01
     Exponent=  1.4158000000D+00 Coefficients=  3.7633000000D-01
 P 1 1.00
     Exponent=  4.7549000000D-01 Coefficients=  1.0000000000D+00
 P 1 1.00
     Exponent=  1.4529000000D-01 Coefficients=  1.0000000000D+00
 D 1 1.00
     Exponent=  2.2000000000D+00 Coefficients=  1.0000000000D+00
 D 1 1.00
     Exponent=  6.5000000000D-01 Coefficients=  1.0000000000D+00
 F 1 1.00
     Exponent=  1.1000000000D+00 Coefficients=  1.0000000000D+00
 ****
 Ernie: Thresh=  0.10000D-02 Tol=  0.10000D-05 Strict=F.
 Ernie:  8 primitive shells out of 263 were deleted.
   338 basis functions,   566 primitive gaussians,   385 cartesian basis functions
    30 alpha electrons       30 beta electrons
       nuclear repulsion energy       366.7801560918 Hartrees.
 IExCor=  402 DFT=T Ex+Corr=B3LYP ExCW=0 ScaHFX=  0.200000
 ScaDFX=  0.800000  0.720000  1.000000  0.810000 ScalE2=  1.000000  1.000000
 IRadAn=      0 IRanWt=     -1 IRanGd=            0 ICorTp=0 IEmpDi=  4
 NAtoms=   15 NActive=   15 NUniq=   15 SFac= 1.00D+00 NAtFMM=   60 NAOKFM=F Big=F
 Integral buffers will be    131072 words long.
 Raffenetti 2 integral format.
 Two-electron integral symmetry is turned off.
 Leave Link  301 at Sun Aug 29 12:48:54 2021, MaxMem=   536870912 cpu:         0.1
 (Enter /home/tmcstu/local/programs/gaussian09/g09/l302.exe)
 NPDir=0 NMtPBC=     1 NCelOv=     1 NCel=       1 NClECP=     1 NCelD=      1
         NCelK=      1 NCelE2=     1 NClLst=     1 CellRange=     0.0.
 One-electron integrals computed using PRISM.
 NBasis=   338 RedAO= T EigKep=  1.50D-04  NBF=   338
 NBsUse=   338 1.00D-06 EigRej= -1.00D+00 NBFU=   338
 Precomputing XC quadrature grid using
 IXCGrd= 4 IRadAn=           0 IRanWt=          -1 IRanGd=           0 AccXCQ= 0.00D+00.
 Generated NRdTot=       0 NPtTot=           0 NUsed=           0 NTot=          32
 NSgBfM=   385   385   385   385   385 MxSgAt=    15 MxSgA2=    15.
 Leave Link  302 at Sun Aug 29 12:48:55 2021, MaxMem=   536870912 cpu:         0.7
 (Enter /home/tmcstu/local/programs/gaussian09/g09/l303.exe)
 DipDrv:  MaxL=1.
 Leave Link  303 at Sun Aug 29 12:48:55 2021, MaxMem=   536870912 cpu:         0.1
 (Enter /home/tmcstu/local/programs/gaussian09/g09/l401.exe)
 ExpMin= 7.41D-02 ExpMax= 1.48D+04 ExpMxC= 5.05D+02 IAcc=2 IRadAn=         4 AccDes= 0.00D+00
 Harris functional with IExCor=  402 and IRadAn=       4 diagonalized for initial guess.
 HarFok:  IExCor=  402 AccDes= 0.00D+00 IRadAn=         4 IDoV= 1 UseB2=F ITyADJ=14
 ICtDFT=  3500011 ScaDFX=  1.000000  1.000000  1.000000  1.000000
 FoFCou: FMM=F IPFlag=           0 FMFlag=      100000 FMFlg1=           0
         NFxFlg=           0 DoJE=T BraDBF=F KetDBF=T FulRan=T
         wScrn=  0.000000 ICntrl=     500 IOpCl=  0 I1Cent=   200000004 NGrid=           0
         NMat0=    1 NMatS0=      1 NMatT0=    0 NMatD0=    1 NMtDS0=    0 NMtDT0=    0
 Symmetry not used in FoFCou.
 Harris En= -400.163964611718    
 JPrj=0 DoOrth=F DoCkMO=F.
 Leave Link  401 at Sun Aug 29 12:48:55 2021, MaxMem=   536870912 cpu:         3.4
 (Enter /home/tmcstu/local/programs/gaussian09/g09/l502.exe)
 A Direct SCF calculation will be performed.
 Closed shell SCF:
 Using DIIS extrapolation, IDIIS=  1040.
 Two-electron integral symmetry not used.
 ReadGW:  IGet=1 IStart=      302625 Next=      302625 LGW=           0.
 NBasis=      338 NAllTT=    74305 NAllSq=   148225 NWIIB=         0
 INEq=        444 LenNEq=        0 IIJ=         831 ID=         1280
 IDD=      149505 IDA=        1280 IDB=       75585 IF=       150409
 IFF=      298634 IFA=      150409 IFB=      224714 IScr2=    299538
 IV=       302625 IBuf2E=   302625 IMin1=    467875 IMin=     467875
 IV=       467875 IOpCl=         0
 IVT=      467875 IEndB=      467875 NGot=   536870912 MDV=   536568288
 LenX=   536568288 LenY=   536419622
 Requested convergence on RMS density matrix=1.00D-08 within 128 cycles.
 Requested convergence on MAX density matrix=1.00D-06.
 Requested convergence on             energy=1.00D-06.
 No special actions if energy rises.
 Fock matrices will be formed incrementally for  20 cycles.
 Selected VarAcc= 4.
 Integral accuracy reduced to 1.0D-05 until final iterations.

 Cycle   1  Pass 0  IDiag  1:
 One-electron energy=-0.127843653674D+04
 FoFJK:  IHMeth= 1 ICntrl=       0 DoSepK=F KAlg= 0 I1Cent=   0 FoldK=F
 IRaf= 940000000 NMat=   1 IRICut=       1 DoRegI=T DoRafI=F ISym2E= 0.
 FoFCou: FMM=F IPFlag=           0 FMFlag=      100000 FMFlg1=           0
         NFxFlg=           0 DoJE=F BraDBF=F KetDBF=F FulRan=T
         wScrn=  0.000000 ICntrl=       0 IOpCl=  0 I1Cent=           0 NGrid=           0
         NMat0=    1 NMatS0=      1 NMatT0=    0 NMatD0=    1 NMtDS0=    0 NMtDT0=    0
 Symmetry not used in FoFCou.
 Calling FoFDFT with Acc= 0.00D+00 ICntrl=  400011 IRadAn=       1.
 IMat=  1 1/2 <PG(P)>=         556.130513680798
 Remaining memory in FofDFT      511.63 Mw
 CkSvGd:  ISavGI=        -1 IRadAn=       1 IRASav=       0 ISavGd=        -1.
 CalDSu:  NPrtUS=   4 ThrOK=T IAlg=1 NPAlg=2 DoDPD=T LenP=       74305 LenD1P=             0.
 IPart=  0 IRanGd=          0 ScrnBf=T ScrnGd=T RCrit=4.00D+00 DoMicB=T.
 IPart=  0        10425 of        12078 points in      54 batches and       96 microbatches, Max-NSigAt=      15 Max-NSgAt2=      15
 IPart=  3        10373 of        11888 points in      49 batches and       97 microbatches, Max-NSigAt=      15 Max-NSgAt2=      15
 IPart=  2        10206 of        11712 points in      46 batches and       91 microbatches, Max-NSigAt=      15 Max-NSgAt2=      15
 IPart=  1        10402 of        11568 points in      46 batches and       90 microbatches, Max-NSigAt=      15 Max-NSgAt2=      15
 IMat=  1 Ex=         -41.674141417083 Ec=          -2.679942739903
 1/2 <PJ(P)> + E(ex) + E(corr)=         511.776429523812
 IMat=  1 EOne=-0.127843653674D+04 ETwo= 0.511776429524D+03 Energy=-0.766660107218D+03
 1/2 <PG(P)>=         556.130513680798
 Ex=         -41.674141417083 Ec=          -2.679942739903
 1/2 <PG(P)> + E(ex) + E(corr)=         511.776429523812
 E= -399.879951126652    
 DIIS: error= 2.36D-02 at cycle   1 NSaved=   1.
 NSaved= 1 IEnMin= 1 EnMin= -399.879951126652     IErMin= 1 ErrMin= 2.36D-02
 ErrMax= 2.36D-02  0.00D+00 EMaxC= 1.00D-01 BMatC= 3.06D-01 BMatP= 3.06D-01
 IDIUse=3 WtCom= 7.64D-01 WtEn= 2.36D-01
 Coeff-Com:  0.100D+01
 Coeff-En:   0.100D+01
 Coeff:      0.100D+01
 Gap=     0.174 Goal=   None    Shift=    0.000
 GapD=    0.174 DampG=1.000 DampE=0.500 DampFc=0.5000 IDamp=-1.
 Damping current iteration by 5.00D-01
 RMSDP=3.02D-03 MaxDP=1.27D-01              OVMax= 2.08D-01

 Cycle   2  Pass 0  IDiag  1:
 One-electron energy=-0.127009710465D+04
 RMSU=  1.49D-03    CP:  9.79D-01
 Calling FoFDFT with Acc= 0.00D+00 ICntrl=  100011 IRadAn=       1.
 IMat=  1 1/2 <PG(P)>=         546.911014368506
 Remaining memory in FofDFT      511.64 Mw
 CkSvGd:  ISavGI=        -1 IRadAn=       1 IRASav=       0 ISavGd=        -1.
 CalDSu:  NPrtUS=   4 ThrOK=T IAlg=1 NPAlg=2 DoDPD=T LenP=       74305 LenD1P=             0.
 IPart=  0 IRanGd=          0 ScrnBf=T ScrnGd=T RCrit=4.00D+00 DoMicB=T.
 IPart=  2        10296 of        11814 points in      49 batches and       89 microbatches, Max-NSigAt=      15 Max-NSgAt2=      15
 IPart=  1        10071 of        11528 points in      49 batches and      100 microbatches, Max-NSigAt=      15 Max-NSgAt2=      15
 IPart=  0        10418 of        11770 points in      49 batches and       95 microbatches, Max-NSigAt=      15 Max-NSgAt2=      15
 IPart=  3        10621 of        12134 points in      48 batches and       90 microbatches, Max-NSigAt=      15 Max-NSgAt2=      15
 IMat=  1 Ex=         -40.900685794360 Ec=          -2.650543026814
 1/2 <PJ(P)> + E(ex) + E(corr)=         503.359785547331
 IMat=  1 EOne=-0.127009710465D+04 ETwo= 0.503359785547D+03 Energy=-0.766737319102D+03
 1/2 <PG(P)>=         546.911014368506
 Ex=         -40.900685794360 Ec=          -2.650543026814
 1/2 <PG(P)> + E(ex) + E(corr)=         503.359785547331
 E= -399.957163009872     Delta-E=       -0.077211883220 Rises=F Damp=T
 DIIS: error= 8.78D-03 at cycle   2 NSaved=   2.
 NSaved= 2 IEnMin= 2 EnMin= -399.957163009872     IErMin= 2 ErrMin= 8.78D-03
 ErrMax= 8.78D-03  0.00D+00 EMaxC= 1.00D-01 BMatC= 3.19D-02 BMatP= 3.06D-01
 IDIUse=3 WtCom= 9.12D-01 WtEn= 8.78D-02
 Coeff-Com:  0.178D+00 0.822D+00
 Coeff-En:   0.303D+00 0.697D+00
 Coeff:      0.189D+00 0.811D+00
 Gap=     0.252 Goal=   None    Shift=    0.000
 RMSDP=8.30D-04 MaxDP=3.32D-02 DE=-7.72D-02 OVMax= 1.50D-01

 Cycle   3  Pass 0  IDiag  1:
 One-electron energy=-0.127001836180D+04
 RMSU=  7.06D-04    CP:  9.76D-01  7.09D-01
 Calling FoFDFT with Acc= 0.00D+00 ICntrl=  400011 IRadAn=       1.
 IMat=  1 1/2 <PG(P)>=         546.732173293644
 Remaining memory in FofDFT      511.63 Mw
 CkSvGd:  ISavGI=        -1 IRadAn=       1 IRASav=       0 ISavGd=        -1.
 CalDSu:  NPrtUS=   4 ThrOK=T IAlg=1 NPAlg=2 DoDPD=T LenP=       74305 LenD1P=             0.
 IPart=  0 IRanGd=          0 ScrnBf=T ScrnGd=T RCrit=4.00D+00 DoMicB=T.
 IPart=  3        10365 of        11966 points in      49 batches and       95 microbatches, Max-NSigAt=      15 Max-NSgAt2=      15
 IPart=  0        10229 of        11706 points in      49 batches and       96 microbatches, Max-NSigAt=      15 Max-NSgAt2=      15
 IPart=  2        10473 of        12186 points in      53 batches and      100 microbatches, Max-NSigAt=      15 Max-NSgAt2=      15
 IPart=  1        10339 of        11388 points in      44 batches and       83 microbatches, Max-NSigAt=      15 Max-NSgAt2=      15
 IMat=  1 Ex=         -40.946727143270 Ec=          -2.651407923183
 1/2 <PJ(P)> + E(ex) + E(corr)=         503.134038227190
 IMat=  1 EOne=-0.127001836180D+04 ETwo= 0.503134038227D+03 Energy=-0.766884323577D+03
 1/2 <PG(P)>=         546.732173293644
 Ex=         -40.946727143270 Ec=          -2.651407923183
 1/2 <PG(P)> + E(ex) + E(corr)=         503.134038227190
 E= -400.104167485349     Delta-E=       -0.147004475477 Rises=F Damp=F
 DIIS: error= 6.51D-03 at cycle   3 NSaved=   3.
 NSaved= 3 IEnMin= 3 EnMin= -400.104167485349     IErMin= 3 ErrMin= 6.51D-03
 ErrMax= 6.51D-03  0.00D+00 EMaxC= 1.00D-01 BMatC= 2.09D-02 BMatP= 3.19D-02
 IDIUse=3 WtCom= 9.35D-01 WtEn= 6.51D-02
 Coeff-Com:  0.439D-01 0.450D+00 0.506D+00
 Coeff-En:   0.000D+00 0.000D+00 0.100D+01
 Coeff:      0.410D-01 0.421D+00 0.538D+00
 Gap=     0.188 Goal=   None    Shift=    0.000
 RMSDP=3.94D-04 MaxDP=2.70D-02 DE=-1.47D-01 OVMax= 4.87D-02

 Cycle   4  Pass 0  IDiag  1:
 One-electron energy=-0.127146871761D+04
 RMSU=  2.77D-04    CP:  9.79D-01  7.45D-01  6.12D-01
 Calling FoFDFT with Acc= 0.00D+00 ICntrl=  400011 IRadAn=       1.
 IMat=  1 1/2 <PG(P)>=         548.219227504530
 Remaining memory in FofDFT      511.63 Mw
 CkSvGd:  ISavGI=        -1 IRadAn=       1 IRASav=       0 ISavGd=        -1.
 CalDSu:  NPrtUS=   4 ThrOK=T IAlg=1 NPAlg=2 DoDPD=T LenP=       74305 LenD1P=             0.
 IPart=  0 IRanGd=          0 ScrnBf=T ScrnGd=T RCrit=4.00D+00 DoMicB=T.
 IPart=  2        10408 of        11808 points in      48 batches and       99 microbatches, Max-NSigAt=      15 Max-NSgAt2=      15
 IPart=  0        10214 of        11764 points in      53 batches and       98 microbatches, Max-NSigAt=      15 Max-NSgAt2=      15
 IPart=  3        10495 of        12184 points in      50 batches and       94 microbatches, Max-NSigAt=      15 Max-NSgAt2=      15
 IPart=  1        10289 of        11490 points in      44 batches and       83 microbatches, Max-NSigAt=      15 Max-NSgAt2=      15
 IMat=  1 Ex=         -40.995160726157 Ec=          -2.654304384131
 1/2 <PJ(P)> + E(ex) + E(corr)=         504.569762394242
 IMat=  1 EOne=-0.127146871761D+04 ETwo= 0.504569762394D+03 Energy=-0.766898955220D+03
 1/2 <PG(P)>=         548.219227504530
 Ex=         -40.995160726157 Ec=          -2.654304384131
 1/2 <PG(P)> + E(ex) + E(corr)=         504.569762394242
 E= -400.118799128038     Delta-E=       -0.014631642689 Rises=F Damp=F
 DIIS: error= 2.75D-03 at cycle   4 NSaved=   4.
 NSaved= 4 IEnMin= 4 EnMin= -400.118799128038     IErMin= 4 ErrMin= 2.75D-03
 ErrMax= 2.75D-03  0.00D+00 EMaxC= 1.00D-01 BMatC= 3.83D-03 BMatP= 2.09D-02
 IDIUse=3 WtCom= 9.73D-01 WtEn= 2.75D-02
 Coeff-Com: -0.345D-02 0.120D+00 0.326D+00 0.558D+00
 Coeff-En:   0.000D+00 0.000D+00 0.175D+00 0.825D+00
 Coeff:     -0.336D-02 0.116D+00 0.322D+00 0.565D+00
 Gap=     0.190 Goal=   None    Shift=    0.000
 RMSDP=1.39D-04 MaxDP=1.05D-02 DE=-1.46D-02 OVMax= 2.23D-02

 Cycle   5  Pass 0  IDiag  1:
 One-electron energy=-0.127094465733D+04
 RMSU=  7.45D-05    CP:  9.78D-01  7.43D-01  6.90D-01  6.29D-01
 Calling FoFDFT with Acc= 0.00D+00 ICntrl=  400011 IRadAn=       1.
 IMat=  1 1/2 <PG(P)>=         547.669745357582
 Remaining memory in FofDFT      511.63 Mw
 CkSvGd:  ISavGI=        -1 IRadAn=       1 IRASav=       0 ISavGd=        -1.
 CalDSu:  NPrtUS=   4 ThrOK=T IAlg=1 NPAlg=2 DoDPD=T LenP=       74305 LenD1P=             0.
 IPart=  0 IRanGd=          0 ScrnBf=T ScrnGd=T RCrit=4.00D+00 DoMicB=T.
 IPart=  2        10401 of        12100 points in      51 batches and       96 microbatches, Max-NSigAt=      15 Max-NSgAt2=      15
 IPart=  3        10310 of        11444 points in      47 batches and       85 microbatches, Max-NSigAt=      15 Max-NSgAt2=      15
 IPart=  0        10449 of        12002 points in      50 batches and       96 microbatches, Max-NSigAt=      15 Max-NSgAt2=      15
 IPart=  1        10246 of        11700 points in      47 batches and       97 microbatches, Max-NSigAt=      15 Max-NSgAt2=      15
 IMat=  1 Ex=         -40.973899442768 Ec=          -2.653264921521
 1/2 <PJ(P)> + E(ex) + E(corr)=         504.042580993293
 IMat=  1 EOne=-0.127094465733D+04 ETwo= 0.504042580993D+03 Energy=-0.766902076341D+03
 1/2 <PG(P)>=         547.669745357582
 Ex=         -40.973899442768 Ec=          -2.653264921521
 1/2 <PG(P)> + E(ex) + E(corr)=         504.042580993293
 E= -400.121920249545     Delta-E=       -0.003121121507 Rises=F Damp=F
 DIIS: error= 7.00D-04 at cycle   5 NSaved=   5.
 NSaved= 5 IEnMin= 5 EnMin= -400.121920249545     IErMin= 5 ErrMin= 7.00D-04
 ErrMax= 7.00D-04  0.00D+00 EMaxC= 1.00D-01 BMatC= 3.28D-04 BMatP= 3.83D-03
 IDIUse=3 WtCom= 9.93D-01 WtEn= 7.00D-03
 Coeff-Com: -0.570D-02 0.324D-01 0.143D+00 0.325D+00 0.506D+00
 Coeff-En:   0.000D+00 0.000D+00 0.000D+00 0.000D+00 0.100D+01
 Coeff:     -0.566D-02 0.322D-01 0.142D+00 0.323D+00 0.509D+00
 Gap=     0.189 Goal=   None    Shift=    0.000
 RMSDP=4.79D-05 MaxDP=2.28D-03 DE=-3.12D-03 OVMax= 7.75D-03

 Cycle   6  Pass 0  IDiag  1:
 One-electron energy=-0.127091090711D+04
 RMSU=  2.83D-05    CP:  9.78D-01  7.44D-01  7.01D-01  6.78D-01  5.26D-01
 Calling FoFDFT with Acc= 0.00D+00 ICntrl=  400011 IRadAn=       1.
 IMat=  1 1/2 <PG(P)>=         547.635379628514
 Remaining memory in FofDFT      511.63 Mw
 CkSvGd:  ISavGI=        -1 IRadAn=       1 IRASav=       0 ISavGd=        -1.
 CalDSu:  NPrtUS=   4 ThrOK=T IAlg=1 NPAlg=2 DoDPD=T LenP=       74305 LenD1P=             0.
 IPart=  0 IRanGd=          0 ScrnBf=T ScrnGd=T RCrit=4.00D+00 DoMicB=T.
 IPart=  2        10275 of        11754 points in      48 batches and       91 microbatches, Max-NSigAt=      15 Max-NSgAt2=      15
 IPart=  3        10324 of        11730 points in      49 batches and       96 microbatches, Max-NSigAt=      15 Max-NSgAt2=      15
 IPart=  1        10258 of        11844 points in      50 batches and       96 microbatches, Max-NSigAt=      15 Max-NSgAt2=      15
 IPart=  0        10549 of        11918 points in      48 batches and       91 microbatches, Max-NSigAt=      15 Max-NSgAt2=      15
 IMat=  1 Ex=         -40.973669485788 Ec=          -2.653139050348
 1/2 <PJ(P)> + E(ex) + E(corr)=         504.008571092378
 IMat=  1 EOne=-0.127091090711D+04 ETwo= 0.504008571092D+03 Energy=-0.766902336019D+03
 1/2 <PG(P)>=         547.635379628514
 Ex=         -40.973669485788 Ec=          -2.653139050348
 1/2 <PG(P)> + E(ex) + E(corr)=         504.008571092378
 E= -400.122179927081     Delta-E=       -0.000259677535 Rises=F Damp=F
 DIIS: error= 2.91D-04 at cycle   6 NSaved=   6.
 NSaved= 6 IEnMin= 6 EnMin= -400.122179927081     IErMin= 6 ErrMin= 2.91D-04
 ErrMax= 2.91D-04  0.00D+00 EMaxC= 1.00D-01 BMatC= 3.68D-05 BMatP= 3.28D-04
 IDIUse=3 WtCom= 9.97D-01 WtEn= 2.91D-03
 Coeff-Com: -0.284D-02 0.245D-02 0.373D-01 0.107D+00 0.297D+00 0.559D+00
 Coeff-En:   0.000D+00 0.000D+00 0.000D+00 0.000D+00 0.764D-01 0.924D+00
 Coeff:     -0.283D-02 0.244D-02 0.372D-01 0.107D+00 0.296D+00 0.560D+00
 Gap=     0.189 Goal=   None    Shift=    0.000
 RMSDP=1.34D-05 MaxDP=5.00D-04 DE=-2.60D-04 OVMax= 2.25D-03

 Cycle   7  Pass 0  IDiag  1:
 One-electron energy=-0.127091057858D+04
 RMSU=  6.03D-06    CP:  9.78D-01  7.44D-01  7.02D-01  6.71D-01  6.09D-01
                    CP:  6.47D-01
 Calling FoFDFT with Acc= 0.00D+00 ICntrl=  400011 IRadAn=       1.
 IMat=  1 1/2 <PG(P)>=         547.633936387331
 Remaining memory in FofDFT      511.63 Mw
 CkSvGd:  ISavGI=        -1 IRadAn=       1 IRASav=       0 ISavGd=        -1.
 CalDSu:  NPrtUS=   4 ThrOK=T IAlg=1 NPAlg=2 DoDPD=T LenP=       74305 LenD1P=             0.
 IPart=  0 IRanGd=          0 ScrnBf=T ScrnGd=T RCrit=4.00D+00 DoMicB=T.
 IPart=  1        10676 of        12596 points in      58 batches and      110 microbatches, Max-NSigAt=      15 Max-NSgAt2=      15
 IPart=  3        10208 of        11650 points in      46 batches and       91 microbatches, Max-NSigAt=      15 Max-NSgAt2=      15
 IPart=  2        10047 of        11418 points in      46 batches and       88 microbatches, Max-NSigAt=      15 Max-NSgAt2=      15
 IPart=  0        10475 of        11582 points in      45 batches and       85 microbatches, Max-NSigAt=      15 Max-NSgAt2=      15
 IMat=  1 Ex=         -40.972609444335 Ec=          -2.653114176063
 1/2 <PJ(P)> + E(ex) + E(corr)=         504.008212766933
 IMat=  1 EOne=-0.127091057858D+04 ETwo= 0.504008212767D+03 Energy=-0.766902365811D+03
 1/2 <PG(P)>=         547.633936387331
 Ex=         -40.972609444335 Ec=          -2.653114176063
 1/2 <PG(P)> + E(ex) + E(corr)=         504.008212766933
 E= -400.122209719089     Delta-E=       -0.000029792008 Rises=F Damp=F
 DIIS: error= 7.58D-05 at cycle   7 NSaved=   7.
 NSaved= 7 IEnMin= 7 EnMin= -400.122209719089     IErMin= 7 ErrMin= 7.58D-05
 ErrMax= 7.58D-05  0.00D+00 EMaxC= 1.00D-01 BMatC= 1.77D-06 BMatP= 3.68D-05
 IDIUse=1 WtCom= 1.00D+00 WtEn= 0.00D+00
 Coeff-Com: -0.128D-02 0.699D-04 0.148D-01 0.460D-01 0.144D+00 0.308D+00
 Coeff-Com:  0.489D+00
 Coeff:     -0.128D-02 0.699D-04 0.148D-01 0.460D-01 0.144D+00 0.308D+00
 Coeff:      0.489D+00
 Gap=     0.189 Goal=   None    Shift=    0.000
 RMSDP=3.20D-06 MaxDP=1.98D-04 DE=-2.98D-05 OVMax= 4.48D-04

 Initial convergence to 1.0D-05 achieved.  Increase integral accuracy.
 Cycle   8  Pass 1  IDiag  1:
 One-electron energy=-0.127091619011D+04
 Calling FoFDFT with Acc= 0.00D+00 ICntrl=  400011 IRadAn=       0.
 IMat=  1 1/2 <PG(P)>=         547.639636118237
 Remaining memory in FofDFT      511.63 Mw
 CkSvGd:  ISavGI=        -1 IRadAn=       4 IRASav=       0 ISavGd=        -1.
 CalDSu:  NPrtUS=   4 ThrOK=T IAlg=1 NPAlg=2 DoDPD=T LenP=       74305 LenD1P=             0.
 IPart=  0 IRanGd=          0 ScrnBf=T ScrnGd=T RCrit=4.00D+00 DoMicB=T.
 IPart=  2        27190 of        31326 points in      66 batches and      194 microbatches, Max-NSigAt=      15 Max-NSgAt2=      15
 IPart=  0        26479 of        29800 points in      63 batches and      210 microbatches, Max-NSigAt=      15 Max-NSgAt2=      15
 IPart=  1        26322 of        29826 points in      64 batches and      196 microbatches, Max-NSigAt=      15 Max-NSgAt2=      15
 IPart=  3        27513 of        31176 points in      64 batches and      185 microbatches, Max-NSigAt=      15 Max-NSgAt2=      15
 IMat=  1 Ex=         -40.972711831288 Ec=          -2.653143598764
 1/2 <PJ(P)> + E(ex) + E(corr)=         504.013780688184
 IMat=  1 EOne=-0.127091619011D+04 ETwo= 0.504013780688D+03 Energy=-0.766902409419D+03
 1/2 <PG(P)>=         547.639636118237
 Ex=         -40.972711831288 Ec=          -2.653143598764
 1/2 <PG(P)> + E(ex) + E(corr)=         504.013780688184
 E= -400.122253326987     Delta-E=       -0.000043607898 Rises=F Damp=F
 DIIS: error= 2.76D-05 at cycle   1 NSaved=   1.
 NSaved= 1 IEnMin= 1 EnMin= -400.122253326987     IErMin= 1 ErrMin= 2.76D-05
 ErrMax= 2.76D-05  0.00D+00 EMaxC= 1.00D-01 BMatC= 5.15D-07 BMatP= 5.15D-07
 IDIUse=1 WtCom= 1.00D+00 WtEn= 0.00D+00
 Coeff-Com:  0.100D+01
 Coeff:      0.100D+01
 Gap=     0.189 Goal=   None    Shift=    0.000
 RMSDP=3.20D-06 MaxDP=1.98D-04 DE=-4.36D-05 OVMax= 4.87D-04

 Cycle   9  Pass 1  IDiag  1:
 One-electron energy=-0.127091859567D+04
 RMSU=  1.63D-05    CP:  1.00D+00
 Calling FoFDFT with Acc= 0.00D+00 ICntrl=  400011 IRadAn=       0.
 IMat=  1 1/2 <PG(P)>=         547.642362402573
 Remaining memory in FofDFT      511.63 Mw
 CkSvGd:  ISavGI=        -1 IRadAn=       4 IRASav=       0 ISavGd=        -1.
 CalDSu:  NPrtUS=   4 ThrOK=T IAlg=1 NPAlg=2 DoDPD=T LenP=       74305 LenD1P=             0.
 IPart=  0 IRanGd=          0 ScrnBf=T ScrnGd=T RCrit=4.00D+00 DoMicB=T.
 IPart=  2        26342 of        29608 points in      63 batches and      202 microbatches, Max-NSigAt=      15 Max-NSgAt2=      15
 IPart=  0        26844 of        30462 points in      63 batches and      191 microbatches, Max-NSigAt=      15 Max-NSgAt2=      15
 IPart=  3        26617 of        29724 points in      63 batches and      211 microbatches, Max-NSigAt=      15 Max-NSgAt2=      15
 IPart=  1        27701 of        32334 points in      68 batches and      181 microbatches, Max-NSigAt=      15 Max-NSgAt2=      15
 IMat=  1 Ex=         -40.973027737504 Ec=          -2.653148353169
 1/2 <PJ(P)> + E(ex) + E(corr)=         504.016186311900
 IMat=  1 EOne=-0.127091859567D+04 ETwo= 0.504016186312D+03 Energy=-0.766902409354D+03
 1/2 <PG(P)>=         547.642362402573
 Ex=         -40.973027737504 Ec=          -2.653148353169
 1/2 <PG(P)> + E(ex) + E(corr)=         504.016186311900
 E= -400.122253261977     Delta-E=        0.000000065010 Rises=F Damp=F
 DIIS: error= 2.87D-05 at cycle   2 NSaved=   2.
 NSaved= 2 IEnMin= 1 EnMin= -400.122253326987     IErMin= 1 ErrMin= 2.76D-05
 ErrMax= 2.87D-05  0.00D+00 EMaxC= 1.00D-01 BMatC= 6.51D-07 BMatP= 5.15D-07
 IDIUse=1 WtCom= 1.00D+00 WtEn= 0.00D+00
 Coeff-Com:  0.538D+00 0.462D+00
 Coeff:      0.538D+00 0.462D+00
 Gap=     0.189 Goal=   None    Shift=    0.000
 RMSDP=2.24D-06 MaxDP=1.40D-04 DE= 6.50D-08 OVMax= 4.53D-04

 Cycle  10  Pass 1  IDiag  1:
 One-electron energy=-0.127091589157D+04
 RMSU=  2.22D-06    CP:  1.00D+00  9.81D-01
 Calling FoFDFT with Acc= 0.00D+00 ICntrl=  400011 IRadAn=       0.
 IMat=  1 1/2 <PG(P)>=         547.639346324210
 Remaining memory in FofDFT      511.63 Mw
 CkSvGd:  ISavGI=        -1 IRadAn=       4 IRASav=       0 ISavGd=        -1.
 CalDSu:  NPrtUS=   4 ThrOK=T IAlg=1 NPAlg=2 DoDPD=T LenP=       74305 LenD1P=             0.
 IPart=  0 IRanGd=          0 ScrnBf=T ScrnGd=T RCrit=4.00D+00 DoMicB=T.
 IPart=  2        26813 of        30336 points in      64 batches and      194 microbatches, Max-NSigAt=      15 Max-NSgAt2=      15
 IPart=  1        26860 of        30778 points in      67 batches and      205 microbatches, Max-NSigAt=      15 Max-NSgAt2=      15
 IPart=  3        27244 of        31172 points in      64 batches and      194 microbatches, Max-NSigAt=      15 Max-NSgAt2=      15
 IPart=  0        26587 of        29842 points in      62 batches and      192 microbatches, Max-NSigAt=      15 Max-NSgAt2=      15
 IMat=  1 Ex=         -40.972720735668 Ec=          -2.653143821755
 1/2 <PJ(P)> + E(ex) + E(corr)=         504.013481766787
 IMat=  1 EOne=-0.127091589157D+04 ETwo= 0.504013481767D+03 Energy=-0.766902409803D+03
 1/2 <PG(P)>=         547.639346324210
 Ex=         -40.972720735668 Ec=          -2.653143821755
 1/2 <PG(P)> + E(ex) + E(corr)=         504.013481766787
 E= -400.122253711447     Delta-E=       -0.000000449470 Rises=F Damp=F
 DIIS: error= 1.31D-05 at cycle   3 NSaved=   3.
 NSaved= 3 IEnMin= 3 EnMin= -400.122253711447     IErMin= 3 ErrMin= 1.31D-05
 ErrMax= 1.31D-05  0.00D+00 EMaxC= 1.00D-01 BMatC= 1.17D-07 BMatP= 5.15D-07
 IDIUse=1 WtCom= 1.00D+00 WtEn= 0.00D+00
 Coeff-Com:  0.133D-01 0.296D+00 0.691D+00
 Coeff:      0.133D-01 0.296D+00 0.691D+00
 Gap=     0.189 Goal=   None    Shift=    0.000
 RMSDP=8.49D-07 MaxDP=4.82D-05 DE=-4.49D-07 OVMax= 1.69D-04

 Cycle  11  Pass 1  IDiag  1:
 One-electron energy=-0.127091699666D+04
 RMSU=  3.23D-07    CP:  1.00D+00  1.00D+00  6.81D-01
 Calling FoFDFT with Acc= 0.00D+00 ICntrl=  400011 IRadAn=       0.
 IMat=  1 1/2 <PG(P)>=         547.640529249004
 Remaining memory in FofDFT      511.63 Mw
 CkSvGd:  ISavGI=        -1 IRadAn=       4 IRASav=       0 ISavGd=        -1.
 CalDSu:  NPrtUS=   4 ThrOK=T IAlg=1 NPAlg=2 DoDPD=T LenP=       74305 LenD1P=             0.
 IPart=  0 IRanGd=          0 ScrnBf=T ScrnGd=T RCrit=4.00D+00 DoMicB=T.
 IPart=  3        26121 of        29410 points in      63 batches and      201 microbatches, Max-NSigAt=      15 Max-NSgAt2=      15
 IPart=  1        27082 of        31154 points in      65 batches and      193 microbatches, Max-NSigAt=      15 Max-NSgAt2=      15
 IPart=  2        26390 of        29774 points in      62 batches and      205 microbatches, Max-NSigAt=      15 Max-NSgAt2=      15
 IPart=  0        27911 of        31790 points in      67 batches and      186 microbatches, Max-NSigAt=      15 Max-NSgAt2=      15
 IMat=  1 Ex=         -40.972797132468 Ec=          -2.653145357527
 1/2 <PJ(P)> + E(ex) + E(corr)=         504.014586759009
 IMat=  1 EOne=-0.127091699666D+04 ETwo= 0.504014586759D+03 Energy=-0.766902409901D+03
 1/2 <PG(P)>=         547.640529249004
 Ex=         -40.972797132468 Ec=          -2.653145357527
 1/2 <PG(P)> + E(ex) + E(corr)=         504.014586759009
 E= -400.122253808783     Delta-E=       -0.000000097336 Rises=F Damp=F
 DIIS: error= 4.28D-06 at cycle   4 NSaved=   4.
 NSaved= 4 IEnMin= 4 EnMin= -400.122253808783     IErMin= 4 ErrMin= 4.28D-06
 ErrMax= 4.28D-06  0.00D+00 EMaxC= 1.00D-01 BMatC= 7.11D-09 BMatP= 1.17D-07
 IDIUse=1 WtCom= 1.00D+00 WtEn= 0.00D+00
 Coeff-Com: -0.880D-02 0.159D+00 0.411D+00 0.439D+00
 Coeff:     -0.880D-02 0.159D+00 0.411D+00 0.439D+00
 Gap=     0.189 Goal=   None    Shift=    0.000
 RMSDP=1.74D-07 MaxDP=1.11D-05 DE=-9.73D-08 OVMax= 2.47D-05

 Cycle  12  Pass 1  IDiag  1:
 One-electron energy=-0.127091692362D+04
 RMSU=  1.17D-07    CP:  1.00D+00  1.00D+00  7.04D-01  6.37D-01
 Calling FoFDFT with Acc= 0.00D+00 ICntrl=  400011 IRadAn=       0.
 IMat=  1 1/2 <PG(P)>=         547.640469039037
 Remaining memory in FofDFT      511.63 Mw
 CkSvGd:  ISavGI=        -1 IRadAn=       4 IRASav=       0 ISavGd=        -1.
 CalDSu:  NPrtUS=   4 ThrOK=T IAlg=1 NPAlg=2 DoDPD=T LenP=       74305 LenD1P=             0.
 IPart=  0 IRanGd=          0 ScrnBf=T ScrnGd=T RCrit=4.00D+00 DoMicB=T.
 IPart=  3        26579 of        30362 points in      65 batches and      193 microbatches, Max-NSigAt=      15 Max-NSgAt2=      15
 IPart=  0        26265 of        29388 points in      61 batches and      209 microbatches, Max-NSigAt=      15 Max-NSgAt2=      15
 IPart=  2        27251 of        31426 points in      67 batches and      194 microbatches, Max-NSigAt=      15 Max-NSgAt2=      15
 IPart=  1        27409 of        30952 points in      64 batches and      189 microbatches, Max-NSigAt=      15 Max-NSgAt2=      15
 IMat=  1 Ex=         -40.972809925875 Ec=          -2.653145394997
 1/2 <PJ(P)> + E(ex) + E(corr)=         504.014513718165
 IMat=  1 EOne=-0.127091692362D+04 ETwo= 0.504014513718D+03 Energy=-0.766902409906D+03
 1/2 <PG(P)>=         547.640469039037
 Ex=         -40.972809925875 Ec=          -2.653145394997
 1/2 <PG(P)> + E(ex) + E(corr)=         504.014513718165
 E= -400.122253814599     Delta-E=       -0.000000005816 Rises=F Damp=F
 DIIS: error= 5.49D-07 at cycle   5 NSaved=   5.
 NSaved= 5 IEnMin= 5 EnMin= -400.122253814599     IErMin= 5 ErrMin= 5.49D-07
 ErrMax= 5.49D-07  0.00D+00 EMaxC= 1.00D-01 BMatC= 1.88D-10 BMatP= 7.11D-09
 IDIUse=1 WtCom= 1.00D+00 WtEn= 0.00D+00
 Coeff-Com: -0.456D-02 0.530D-01 0.146D+00 0.209D+00 0.597D+00
 Coeff:     -0.456D-02 0.530D-01 0.146D+00 0.209D+00 0.597D+00
 Gap=     0.189 Goal=   None    Shift=    0.000
 RMSDP=3.41D-08 MaxDP=2.19D-06 DE=-5.82D-09 OVMax= 5.00D-06

 Cycle  13  Pass 1  IDiag  1:
 One-electron energy=-0.127091678709D+04
 RMSU=  2.98D-08    CP:  1.00D+00  1.00D+00  7.07D-01  6.65D-01  9.01D-01
 Calling FoFDFT with Acc= 0.00D+00 ICntrl=  400011 IRadAn=       0.
 IMat=  1 1/2 <PG(P)>=         547.640325904959
 Remaining memory in FofDFT      511.63 Mw
 CkSvGd:  ISavGI=        -1 IRadAn=       4 IRASav=       0 ISavGd=        -1.
 CalDSu:  NPrtUS=   4 ThrOK=T IAlg=1 NPAlg=2 DoDPD=T LenP=       74305 LenD1P=             0.
 IPart=  0 IRanGd=          0 ScrnBf=T ScrnGd=T RCrit=4.00D+00 DoMicB=T.
 IPart=  3        27475 of        31602 points in      67 batches and      192 microbatches, Max-NSigAt=      15 Max-NSgAt2=      15
 IPart=  0        27051 of        30126 points in      62 batches and      186 microbatches, Max-NSigAt=      15 Max-NSgAt2=      15
 IPart=  2        26104 of        29506 points in      62 batches and      217 microbatches, Max-NSigAt=      15 Max-NSgAt2=      15
 IPart=  1        26874 of        30894 points in      66 batches and      190 microbatches, Max-NSigAt=      15 Max-NSgAt2=      15
 IMat=  1 Ex=         -40.972803568596 Ec=          -2.653145152317
 1/2 <PJ(P)> + E(ex) + E(corr)=         504.014377184046
 IMat=  1 EOne=-0.127091678709D+04 ETwo= 0.504014377184D+03 Energy=-0.766902409907D+03
 1/2 <PG(P)>=         547.640325904959
 Ex=         -40.972803568596 Ec=          -2.653145152317
 1/2 <PG(P)> + E(ex) + E(corr)=         504.014377184046
 E= -400.122253814732     Delta-E=       -0.000000000132 Rises=F Damp=F
 DIIS: error= 2.75D-07 at cycle   6 NSaved=   6.
 NSaved= 6 IEnMin= 6 EnMin= -400.122253814732     IErMin= 6 ErrMin= 2.75D-07
 ErrMax= 2.75D-07  0.00D+00 EMaxC= 1.00D-01 BMatC= 3.14D-11 BMatP= 1.88D-10
 IDIUse=1 WtCom= 1.00D+00 WtEn= 0.00D+00
 Coeff-Com: -0.192D-02 0.174D-01 0.508D-01 0.876D-01 0.356D+00 0.490D+00
 Coeff:     -0.192D-02 0.174D-01 0.508D-01 0.876D-01 0.356D+00 0.490D+00
 Gap=     0.189 Goal=   None    Shift=    0.000
 RMSDP=1.56D-08 MaxDP=6.97D-07 DE=-1.32D-10 OVMax= 2.87D-06

 Cycle  14  Pass 1  IDiag  1:
 One-electron energy=-0.127091684120D+04
 RMSU=  9.85D-09    CP:  1.00D+00  1.00D+00  7.07D-01  6.75D-01  9.26D-01
                    CP:  6.22D-01
 Calling FoFDFT with Acc= 0.00D+00 ICntrl=  400011 IRadAn=       0.
 IMat=  1 1/2 <PG(P)>=         547.640381575557
 Remaining memory in FofDFT      511.63 Mw
 CkSvGd:  ISavGI=        -1 IRadAn=       4 IRASav=       0 ISavGd=        -1.
 CalDSu:  NPrtUS=   4 ThrOK=T IAlg=1 NPAlg=2 DoDPD=T LenP=       74305 LenD1P=             0.
 IPart=  0 IRanGd=          0 ScrnBf=T ScrnGd=T RCrit=4.00D+00 DoMicB=T.
 IPart=  2        27008 of        30816 points in      65 batches and      200 microbatches, Max-NSigAt=      15 Max-NSgAt2=      15
 IPart=  1        26202 of        29396 points in      62 batches and      201 microbatches, Max-NSigAt=      15 Max-NSgAt2=      15
 IPart=  0        26819 of        30410 points in      64 batches and      203 microbatches, Max-NSigAt=      15 Max-NSgAt2=      15
 IPart=  3        27475 of        31506 points in      66 batches and      181 microbatches, Max-NSigAt=      15 Max-NSgAt2=      15
 IMat=  1 Ex=         -40.972805043422 Ec=          -2.653145236566
 1/2 <PJ(P)> + E(ex) + E(corr)=         504.014431295569
 IMat=  1 EOne=-0.127091684120D+04 ETwo= 0.504014431296D+03 Energy=-0.766902409907D+03
 1/2 <PG(P)>=         547.640381575557
 Ex=         -40.972805043422 Ec=          -2.653145236566
 1/2 <PG(P)> + E(ex) + E(corr)=         504.014431295569
 E= -400.122253814768     Delta-E=       -0.000000000036 Rises=F Damp=F
 DIIS: error= 8.74D-08 at cycle   7 NSaved=   7.
 NSaved= 7 IEnMin= 7 EnMin= -400.122253814768     IErMin= 7 ErrMin= 8.74D-08
 ErrMax= 8.74D-08  0.00D+00 EMaxC= 1.00D-01 BMatC= 3.98D-12 BMatP= 3.14D-11
 IDIUse=1 WtCom= 1.00D+00 WtEn= 0.00D+00
 Coeff-Com: -0.160D-03-0.912D-03-0.732D-03 0.102D-01 0.914D-01 0.291D+00
 Coeff-Com:  0.610D+00
 Coeff:     -0.160D-03-0.912D-03-0.732D-03 0.102D-01 0.914D-01 0.291D+00
 Coeff:      0.610D+00
 Gap=     0.189 Goal=   None    Shift=    0.000
 RMSDP=4.99D-09 MaxDP=2.32D-07 DE=-3.58D-11 OVMax= 6.85D-07

 SCF Done:  E(RB3LYP) =  -400.122253815     A.U. after   14 cycles
            NFock= 14  Conv=0.50D-08     -V/T= 2.0037
 KE= 3.986471876058D+02 PE=-1.669564028808D+03 EE= 5.040144312956D+02
 Leave Link  502 at Sun Aug 29 12:50:27 2021, MaxMem=   536870912 cpu:       366.2
 (Enter /home/tmcstu/local/programs/gaussian09/g09/l601.exe)
 Copying SCF densities to generalized density rwf, IOpCl= 0 IROHF=0.

 **********************************************************************

            Population analysis using the SCF density.

 **********************************************************************

 Alpha  occ. eigenvalues --  -19.12033 -19.09907 -14.35377 -10.28632 -10.23926
 Alpha  occ. eigenvalues --  -10.21134 -10.19307 -10.19292  -1.06669  -0.97123
 Alpha  occ. eigenvalues --   -0.96135  -0.82855  -0.77303  -0.66905  -0.64275
 Alpha  occ. eigenvalues --   -0.56485  -0.55252  -0.50926  -0.48771  -0.47024
 Alpha  occ. eigenvalues --   -0.45610  -0.44068  -0.40657  -0.40090  -0.36506
 Alpha  occ. eigenvalues --   -0.35702  -0.31780  -0.30351  -0.28233  -0.24635
 Alpha virt. eigenvalues --   -0.05700  -0.01822   0.01015   0.02604   0.03674
 Alpha virt. eigenvalues --    0.05557   0.07206   0.10409   0.11265   0.12145
 Alpha virt. eigenvalues --    0.13876   0.14586   0.15796   0.17473   0.18181
 Alpha virt. eigenvalues --    0.18549   0.19607   0.20963   0.22712   0.24066
 Alpha virt. eigenvalues --    0.25813   0.26947   0.27553   0.27869   0.29318
 Alpha virt. eigenvalues --    0.29352   0.30306   0.31292   0.32262   0.33842
 Alpha virt. eigenvalues --    0.35803   0.36190   0.37386   0.37706   0.38869
 Alpha virt. eigenvalues --    0.40672   0.42554   0.43787   0.44135   0.46422
 Alpha virt. eigenvalues --    0.49910   0.51842   0.52429   0.54981   0.55977
 Alpha virt. eigenvalues --    0.57022   0.60706   0.61492   0.62129   0.62984
 Alpha virt. eigenvalues --    0.63857   0.65817   0.67976   0.73604   0.74654
 Alpha virt. eigenvalues --    0.75700   0.78118   0.80178   0.81849   0.84847
 Alpha virt. eigenvalues --    0.87722   0.89976   0.91232   0.91608   0.92525
 Alpha virt. eigenvalues --    0.95471   0.96274   0.99530   1.02371   1.05413
 Alpha virt. eigenvalues --    1.06091   1.07912   1.10826   1.11786   1.12619
 Alpha virt. eigenvalues --    1.13460   1.15292   1.15752   1.17736   1.18971
 Alpha virt. eigenvalues --    1.21228   1.22957   1.24302   1.25727   1.27066
 Alpha virt. eigenvalues --    1.28373   1.30201   1.33144   1.36461   1.40119
 Alpha virt. eigenvalues --    1.42174   1.45433   1.47200   1.48641   1.48898
 Alpha virt. eigenvalues --    1.49557   1.50943   1.51948   1.56346   1.57249
 Alpha virt. eigenvalues --    1.59168   1.61392   1.64106   1.65924   1.66798
 Alpha virt. eigenvalues --    1.67686   1.69833   1.71533   1.74495   1.75711
 Alpha virt. eigenvalues --    1.80380   1.82177   1.84998   1.85191   1.86335
 Alpha virt. eigenvalues --    1.88579   1.88955   1.92677   1.96039   1.97375
 Alpha virt. eigenvalues --    2.00167   2.04371   2.06098   2.06963   2.08764
 Alpha virt. eigenvalues --    2.09283   2.14643   2.15776   2.18823   2.20835
 Alpha virt. eigenvalues --    2.21619   2.23923   2.26566   2.26667   2.30333
 Alpha virt. eigenvalues --    2.33028   2.47226   2.58223   2.61704   2.71592
 Alpha virt. eigenvalues --    2.79430   2.85293   2.89706   2.93416   2.93932
 Alpha virt. eigenvalues --    3.06771   3.09400   3.15631   3.18568   3.19592
 Alpha virt. eigenvalues --    3.21501   3.24373   3.25453   3.29924   3.31588
 Alpha virt. eigenvalues --    3.34493   3.36425   3.38813   3.41372   3.42332
 Alpha virt. eigenvalues --    3.47281   3.48137   3.49990   3.55081   3.55634
 Alpha virt. eigenvalues --    3.56026   3.57926   3.59252   3.60225   3.62405
 Alpha virt. eigenvalues --    3.63351   3.66787   3.69005   3.70410   3.75670
 Alpha virt. eigenvalues --    3.76142   3.77426   3.80993   3.84669   3.87928
 Alpha virt. eigenvalues --    3.92370   3.94576   3.95798   3.95911   3.98932
 Alpha virt. eigenvalues --    4.01151   4.03496   4.04181   4.04752   4.07573
 Alpha virt. eigenvalues --    4.10172   4.10328   4.12216   4.13503   4.15143
 Alpha virt. eigenvalues --    4.15784   4.17064   4.19093   4.19800   4.20847
 Alpha virt. eigenvalues --    4.21731   4.23819   4.25547   4.27454   4.29319
 Alpha virt. eigenvalues --    4.29569   4.30891   4.31779   4.33024   4.33468
 Alpha virt. eigenvalues --    4.36133   4.37668   4.38242   4.39435   4.40956
 Alpha virt. eigenvalues --    4.44226   4.45378   4.45868   4.46215   4.48299
 Alpha virt. eigenvalues --    4.49415   4.50854   4.54653   4.55118   4.56853
 Alpha virt. eigenvalues --    4.58927   4.61223   4.62515   4.64596   4.66791
 Alpha virt. eigenvalues --    4.72363   4.75641   4.76371   4.78777   4.82907
 Alpha virt. eigenvalues --    4.84161   4.85750   4.89405   4.91821   4.93483
 Alpha virt. eigenvalues --    4.94870   4.96771   5.02033   5.08518   5.10938
 Alpha virt. eigenvalues --    5.11419   5.14996   5.18509   5.20408   5.21024
 Alpha virt. eigenvalues --    5.26374   5.27925   5.29975   5.33070   5.34242
 Alpha virt. eigenvalues --    5.36117   5.37064   5.40168   5.41016   5.43309
 Alpha virt. eigenvalues --    5.45371   5.50792   5.52013   5.54285   5.57290
 Alpha virt. eigenvalues --    5.59628   5.60364   5.62859   5.66405   5.68542
 Alpha virt. eigenvalues --    5.75697   5.77374   5.81487   5.88395   5.90000
 Alpha virt. eigenvalues --    5.96273   5.97786   6.00820   6.07533   6.10971
 Alpha virt. eigenvalues --    6.16496   6.20837   6.27551   6.32697   6.35076
 Alpha virt. eigenvalues --    6.41628   6.43899   6.49270   6.50629   6.53120
 Alpha virt. eigenvalues --    6.58328   6.60981   6.64313   6.78106   6.91071
 Alpha virt. eigenvalues --    7.08613   7.10162   7.16323   7.37462   7.74379
 Alpha virt. eigenvalues --    9.42661  12.22628  13.17699  15.23248  15.57033
 Alpha virt. eigenvalues --   18.14949  18.61840  22.73273
          Condensed to atoms (all electrons):
               1          2          3          4          5          6
     1  O    8.143402  -0.092898   0.409249  -0.067445   0.005835   0.006979
     2  N   -0.092898   6.690557   0.408092  -0.030384   0.450104  -0.029052
     3  C    0.409249   0.408092   4.396538   0.502235  -0.054893  -0.051694
     4  C   -0.067445  -0.030384   0.502235   4.867641  -0.040923   0.525357
     5  C    0.005835   0.450104  -0.054893  -0.040923   4.593059  -0.070214
     6  C    0.006979  -0.029052  -0.051694   0.525357  -0.070214   4.732899
     7  C    0.000858  -0.047981  -0.033594  -0.059572   0.552125   0.474024
     8  H    0.204428   0.007919  -0.016280   0.005046   0.000335  -0.000871
     9  H    0.004926   0.006733  -0.041890   0.440827  -0.001370  -0.034943
    10  H   -0.000705  -0.042941   0.003881  -0.003093   0.442043   0.008488
    11  H   -0.000403  -0.001602   0.008271  -0.036811   0.008498   0.431554
    12  H    0.000039   0.005716  -0.001478   0.007402  -0.030977  -0.036326
    13  O   -0.126373  -0.153569  -0.002107  -0.000866  -0.001909   0.000768
    14  H    0.006037   0.006863   0.001490   0.000498  -0.000431  -0.000068
    15  H    0.006846   0.193549  -0.014310   0.002386  -0.007106  -0.001397
               7          8          9         10         11         12
     1  O    0.000858   0.204428   0.004926  -0.000705  -0.000403   0.000039
     2  N   -0.047981   0.007919   0.006733  -0.042941  -0.001602   0.005716
     3  C   -0.033594  -0.016280  -0.041890   0.003881   0.008271  -0.001478
     4  C   -0.059572   0.005046   0.440827  -0.003093  -0.036811   0.007402
     5  C    0.552125   0.000335  -0.001370   0.442043   0.008498  -0.030977
     6  C    0.474024  -0.000871  -0.034943   0.008488   0.431554  -0.036326
     7  C    4.892476   0.000532   0.007609  -0.053624  -0.043793   0.434791
     8  H    0.000532   0.347494   0.000327   0.000068  -0.000020  -0.000017
     9  H    0.007609   0.000327   0.570608   0.000238  -0.008081   0.000007
    10  H   -0.053624   0.000068   0.000238   0.595108  -0.000233  -0.004060
    11  H   -0.043793  -0.000020  -0.008081  -0.000233   0.593272  -0.007263
    12  H    0.434791  -0.000017   0.000007  -0.004060  -0.007263   0.585965
    13  O   -0.001641   0.192435   0.000204   0.000427  -0.000011   0.000052
    14  H    0.000181  -0.011578  -0.000015  -0.000169   0.000002  -0.000003
    15  H    0.001224  -0.026006  -0.000235  -0.003659   0.000141   0.000015
              13         14         15
     1  O   -0.126373   0.006037   0.006846
     2  N   -0.153569   0.006863   0.193549
     3  C   -0.002107   0.001490  -0.014310
     4  C   -0.000866   0.000498   0.002386
     5  C   -0.001909  -0.000431  -0.007106
     6  C    0.000768  -0.000068  -0.001397
     7  C   -0.001641   0.000181   0.001224
     8  H    0.192435  -0.011578  -0.026006
     9  H    0.000204  -0.000015  -0.000235
    10  H    0.000427  -0.000169  -0.003659
    11  H   -0.000011   0.000002   0.000141
    12  H    0.000052  -0.000003   0.000015
    13  O    8.106616   0.353271   0.209232
    14  H    0.353271   0.454696  -0.012374
    15  H    0.209232  -0.012374   0.367875
 Mulliken charges:
               1
     1  O   -0.500775
     2  N   -0.371105
     3  C    0.486491
     4  C   -0.112298
     5  C    0.155823
     6  C    0.044498
     7  C   -0.123614
     8  H    0.296189
     9  H    0.055054
    10  H    0.058230
    11  H    0.056480
    12  H    0.046137
    13  O   -0.576530
    14  H    0.201600
    15  H    0.283819
 Sum of Mulliken charges =  -0.00000
 Mulliken charges with hydrogens summed into heavy atoms:
               1
     1  O   -0.204586
     2  N   -0.087285
     3  C    0.486491
     4  C   -0.057244
     5  C    0.214053
     6  C    0.100978
     7  C   -0.077477
    13  O   -0.374930
 Electronic spatial extent (au):  <R**2>=            986.3506
 Charge=             -0.0000 electrons
 Dipole moment (field-independent basis, Debye):
    X=             -2.9807    Y=             -1.7855    Z=              1.3505  Tot=              3.7278
 Quadrupole moment (field-independent basis, Debye-Ang):
   XX=            -45.6699   YY=            -45.2788   ZZ=            -49.4203
   XY=             -2.1393   XZ=              5.0971   YZ=             -1.1335
 Traceless Quadrupole moment (field-independent basis, Debye-Ang):
   XX=              1.1198   YY=              1.5109   ZZ=             -2.6306
   XY=             -2.1393   XZ=              5.0971   YZ=             -1.1335
 Octapole moment (field-independent basis, Debye-Ang**2):
  XXX=             -6.1334  YYY=              4.0711  ZZZ=              2.4167  XYY=             -6.6771
  XXY=              3.6329  XXZ=             18.1952  XZZ=              9.1643  YZZ=              5.7155
  YYZ=              1.3378  XYZ=             -4.1551
 Hexadecapole moment (field-independent basis, Debye-Ang**3):
 XXXX=           -778.0803 YYYY=           -349.0082 ZZZZ=            -54.7347 XXXY=            -19.7070
 XXXZ=             61.8450 YYYX=            -26.2789 YYYZ=             -0.9260 ZZZX=              3.1564
 ZZZY=             -1.2721 XXYY=           -198.0794 XXZZ=           -152.4088 YYZZ=            -77.5067
 XXYZ=            -14.0233 YYXZ=              3.5796 ZZXY=             -9.2071
 N-N= 3.667801560918D+02 E-N=-1.669564037169D+03  KE= 3.986471876058D+02
 No NMR shielding tensors so no spin-rotation constants.
 Leave Link  601 at Sun Aug 29 12:50:27 2021, MaxMem=   536870912 cpu:         0.4
 (Enter /home/tmcstu/local/programs/gaussian09/g09/l801.exe)
 DoSCS=F DFT=T ScalE2(SS,OS)=  1.000000  1.000000
 ExpMin= 7.41D-02 ExpMax= 1.48D+04 ExpMxC= 5.05D+02 IAcc=3 IRadAn=         5 AccDes= 0.00D+00
 HarFok:  IExCor=  205 AccDes= 0.00D+00 IRadAn=         5 IDoV=-2 UseB2=F ITyADJ=14
 ICtDFT= 12500011 ScaDFX=  1.000000  1.000000  1.000000  1.000000
 Largest valence mixing into a core orbital is  2.51D-05
 Largest core mixing into a valence orbital is  1.33D-05
 Range of M.O.s used for correlation:     9   338
 NBasis=   338 NAE=    30 NBE=    30 NFC=     8 NFV=     0
 NROrb=    330 NOA=    22 NOB=    22 NVA=   308 NVB=   308

 **** Warning!!: The largest alpha MO coefficient is  0.16075823D+02

 Leave Link  801 at Sun Aug 29 12:50:27 2021, MaxMem=   536870912 cpu:         0.4
 (Enter /home/tmcstu/local/programs/gaussian09/g09/l906.exe)
 DoSCS=F DFT=T ScalE2(SS,OS)=  1.000000  1.000000
 FulOut=F Deriv=F AODrv=F NAtomX=    15
   MMem=         199  MDisk=          22 MDiskD=          22
  W3Min=     2608760 MinDsk=     3397113 NBas6D=         385
 NBas2D=       75124    NTT=       74305    LW2=     2000000
    MDV=   536195739 MDiskM=        6937 NBas2p=       68395
 Fully direct method using O(OVN) memory.
 IMap=   1   2   3   4   5   6   7   8   9  10  11  12  13  14  15  16  17  18  19  20
 IMap=  21  22
 JobTyp=1 Pass  1:  I=   1 to  22 NPSUse=  4 ParTrn=T ParDer=T DoDerP=F.
 Spin components of T(2) and E(2):
     alpha-alpha T2 =       0.1487666859D+00 E2=     -0.2855136211D+00
     alpha-beta  T2 =       0.7637948174D+00 E2=     -0.1566329295D+01
     beta-beta   T2 =       0.1487666859D+00 E2=     -0.2855136211D+00
 The integrals were generated   1 times.
 E2(B3LYP) =    -0.2137356537D+01 E(B3LYP) =    -0.40225961035158D+03
 Leave Link  906 at Sun Aug 29 12:51:54 2021, MaxMem=   536870912 cpu:       343.3
 (Enter /home/tmcstu/local/programs/gaussian09/g09/l608.exe)
 IExCor=  100 DFT=F Ex=HF Corr=None ExCW=0 ScaHFX=  1.000000
 ScaDFX=  1.000000  1.000000  1.000000  1.000000 ScalE2=  1.000000  1.000000
 IRadAn=      4 IRanWt=     -1 IRanGd=            0 ICorTp=0 IEmpDi=  4
 IExCor=  205 DFT=T Ex=S Corr=VWN ExCW=0 ScaHFX=  0.000000
 ScaDFX=  1.000000  1.000000  1.000000  1.000000 ScalE2=  1.000000  1.000000
 IRadAn=      4 IRanWt=     -1 IRanGd=            0 ICorTp=0 IEmpDi=  4
 IExCor=  402 DFT=T Ex=B Corr=LYP ExCW=0 ScaHFX=  0.000000
 ScaDFX=  1.000000  1.000000  1.000000  1.000000 ScalE2=  1.000000  1.000000
 IRadAn=      4 IRanWt=     -1 IRanGd=            0 ICorTp=0 IEmpDi=  4
 A total of   3 models will be applied.

 Results using SCF density:
 FoFJK:  IHMeth= 0 ICntrl=     500 DoSepK=F KAlg= 0 I1Cent=   0 FoldK=F
 IRaf=         0 NMat=   1 IRICut=       1 DoRegI=T DoRafI=F ISym2E= 0.
 FoFCou: FMM=F IPFlag=           0 FMFlag=           0 FMFlg1=           0
         NFxFlg=           0 DoJE=F BraDBF=F KetDBF=F FulRan=T
         wScrn=  0.000000 ICntrl=     500 IOpCl=  1 I1Cent=           0 NGrid=           0
         NMat0=    1 NMatS0=      1 NMatT0=    0 NMatD0=    1 NMtDS0=    0 NMtDT0=    0
 Symmetry not used in FoFCou.
 ET=  398.647188 EV=-1669.564037 EJ=  557.928103 EK=  -51.438563 ENuc=  366.780156

 A=0 I=   1 IExCor=  100 IRadAn=       4 ScaHFX=  1.000000
            ScaDFX=  1.000000  1.000000  1.000000  1.000000
 HFx=  0.000000  0.000000  1.000000  0.000000  0.000000
 DFx=  0.000000  0.000000  1.000000  0.000000  0.000000
 DFc=  0.000000  0.000000  1.000000  0.000000  0.000000
            ENTVJ= -346.208590 Ex=  -51.438563 Ec=    0.000000 ETotM2e= -904.1366934714  ETot= -397.6471527131

 A=0 I=   2 IExCor=  205 IRadAn=       4 ScaHFX=  0.000000
            ScaDFX=  1.000000  1.000000  1.000000  1.000000
 HFx=  0.000000  0.000000  1.000000  0.000000  0.000000
 DFx=  0.000000  0.000000  1.000000  0.000000  0.000000
 DFc=  0.000000  0.000000  1.000000  0.000000  0.000000
            ENTVJ= -346.208590 Ex=  -46.686476 Ec=   -5.119665 ETotM2e= -955.9428352183  ETot= -398.0147319064

 A=0 I=   3 IExCor=  402 IRadAn=       4 ScaHFX=  0.000000
            ScaDFX=  1.000000  1.000000  1.000000  1.000000
 HFx=  0.000000  0.000000  1.000000  0.000000  0.000000
 DFx=  0.000000  0.000000  1.000000  0.000000  0.000000
 DFc=  0.000000  0.000000  1.000000  0.000000  0.000000
            ENTVJ= -346.208590 Ex=  -51.719289 Ec=   -2.074579 ETotM2e= -957.9305608581  ETot= -400.0024575462
 Leave Link  608 at Sun Aug 29 12:52:04 2021, MaxMem=   536870912 cpu:        37.4
 (Enter /home/tmcstu/local/programs/gaussian09/g09/l9999.exe)

 This type of calculation cannot be archived.


 TERENCE, THIS IS STUPID STUFF:
 YOU EAT YOUR VICTUALS FAST ENOUGH;
 THERE CAN'T BE MUCH AMISS, 'TIS CLEAR
 TO SEE THE RATE YOU DRINK YOUR BEER.
 BUT OH, GOOD LORD, THE VERSE YOU MAKE,
 IT GIVES A CHAP THE BELLY-ACHE.
 THE COW, THE OLD COW, SHE IS DEAD;
 IT SLEEPS WELL, THE HORNED HEAD:
 WE POOR LADS, 'TIS OUR TURN NOW
 TO HEAR SUCH TUNES AS KILLED THE COW.
 PRETTY FRIENDSHIP 'TIS TO RHYME
 YOUR FRIENDS TO DEATH BEFORE THEIR TIME.
 MOPING, MELANCHOLY MAD:
 COME PIPE A TUNE TO DANCE TO, LAD.

     -- A. E. HOUSMAN
 Job cpu time:       0 days  0 hours 12 minutes 32.7 seconds.
 File lengths (MBytes):  RWF=     64 Int=      0 D2E=      0 Chk=      9 Scr=      1
 Normal termination of Gaussian 09 at Sun Aug 29 12:52:04 2021.
