 Entering Gaussian System, Link 0=g09
 AtFile(1): pc-2.gbs
            -H     0
            S    4   1.00
                  0.754230D+02           0.240650D-02
                  0.113500D+02           0.184870D-01
                  0.259930D+01           0.897420D-01
                  0.735130D+00           0.281110D+00
            S    1   1.00
                  0.231670D+00           0.100000D+01
            S    1   1.00
                  0.741470D-01           0.100000D+01
            P    1   1.00
                  0.160000D+01           0.100000D+01
            P    1   1.00
                  0.450000D+00           0.100000D+01
            D    1   1.00
                  0.125000D+01           0.100000D+01
            ****
            -C     0
            S    7   1.00
                  0.785710D+04           0.568250D-03
                  0.117870D+04           0.439150D-02
                  0.268320D+03           0.225040D-01
                  0.759480D+02           0.866530D-01
                  0.245590D+02           0.244050D+00
                  0.862120D+01           0.441480D+00
                  0.312780D+01           0.353320D+00
            S    7   1.00
                  0.117870D+04          -0.594920D-06
                  0.268320D+03          -0.627480D-04
                  0.759480D+02          -0.757730D-03
                  0.245590D+02          -0.733080D-02
                  0.862120D+01          -0.389320D-01
                  0.312780D+01          -0.889080D-01
                  0.822020D+00           0.216890D+00
            S    1   1.00
                  0.330170D+00           0.100000D+01
            S    1   1.00
                  0.114630D+00           0.100000D+01
            P    4   1.00
                  0.337750D+02           0.602940D-02
                  0.767660D+01           0.432280D-01
                  0.223570D+01           0.163010D+00
                  0.764470D+00           0.365040D+00
            P    1   1.00
                  0.262320D+00           0.100000D+01
            P    1   1.00
                  0.846380D-01           0.100000D+01
            D    1   1.00
                  0.140000D+01           0.100000D+01
            D    1   1.00
                  0.450000D+00           0.100000D+01
            F    1   1.00
                  0.950000D+00           0.100000D+01
            ****
            -N     0
            S    7   1.00
                  0.111010D+05           0.545700D-03
                  0.166530D+04           0.421810D-02
                  0.379080D+03           0.216450D-01
                  0.107300D+03           0.837760D-01
                  0.347470D+02           0.238810D+00
                  0.122490D+02           0.439940D+00
                  0.447430D+01           0.363640D+00
            S    7   1.00
                  0.166530D+04          -0.150060D-05
                  0.379080D+03          -0.587530D-04
                  0.107300D+03          -0.774530D-03
                  0.347470D+02          -0.721610D-02
                  0.122490D+02          -0.393380D-01
                  0.447430D+01          -0.906110D-01
                  0.124040D+01           0.198820D+00
            S    1   1.00
                  0.487430D+00           0.100000D+01
            S    1   1.00
                  0.164840D+00           0.100000D+01
            P    4   1.00
                  0.479340D+02           0.617060D-02
                  0.109990D+02           0.442600D-01
                  0.324720D+01           0.168250D+00
                  0.111140D+01           0.368480D+00
            P    1   1.00
                  0.379880D+00           0.100000D+01
            P    1   1.00
                  0.120680D+00           0.100000D+01
            D    1   1.00
                  0.180000D+01           0.100000D+01
            D    1   1.00
                  0.550000D+00           0.100000D+01
            F    1   1.00
                  0.102000D+01           0.100000D+01
            ****
            -O     0
            S    7   1.00
                  0.147820D+05           0.535190D-03
                  0.221730D+04           0.413750D-02
                  0.504740D+03           0.212450D-01
                  0.142870D+03           0.824530D-01
                  0.463000D+02           0.236710D+00
                  0.163370D+02           0.440390D+00
                  0.598280D+01           0.364650D+00
            S    7   1.00
                  0.221730D+04          -0.192750D-05
                  0.504740D+03          -0.579640D-04
                  0.142870D+03          -0.794940D-03
                  0.463000D+02          -0.731250D-02
                  0.163370D+02          -0.405740D-01
                  0.598280D+01          -0.915940D-01
                  0.167180D+01           0.209400D+00
            S    1   1.00
                  0.646620D+00           0.100000D+01
            S    1   1.00
                  0.216690D+00           0.100000D+01
            P    4   1.00
                  0.604240D+02           0.689490D-02
                  0.139350D+02           0.490050D-01
                  0.415310D+01           0.182550D+00
                  0.141580D+01           0.376330D+00
            P    1   1.00
                  0.475490D+00           0.100000D+01
            P    1   1.00
                  0.145290D+00           0.100000D+01
            D    1   1.00
                  0.220000D+01           0.100000D+01
            D    1   1.00
                  0.650000D+00           0.100000D+01
            F    1   1.00
                  0.110000D+01           0.100000D+01
            ****
 Initial command:
 /public3/home/sc51754/softwares/g09e01/l1.exe "./Gau-51599.inp" -scrdir="./"
 Entering Link 1 = /public3/home/sc51754/softwares/g09e01/l1.exe PID=     51600.
  
 Copyright (c) 1988,1990,1992,1993,1995,1998,2003,2009,2015,
            Gaussian, Inc.  All Rights Reserved.
  
 This is part of the Gaussian(R) 09 program.  It is based on
 the Gaussian(R) 03 system (copyright 2003, Gaussian, Inc.),
 the Gaussian(R) 98 system (copyright 1998, Gaussian, Inc.),
 the Gaussian(R) 94 system (copyright 1995, Gaussian, Inc.),
 the Gaussian 92(TM) system (copyright 1992, Gaussian, Inc.),
 the Gaussian 90(TM) system (copyright 1990, Gaussian, Inc.),
 the Gaussian 88(TM) system (copyright 1988, Gaussian, Inc.),
 the Gaussian 86(TM) system (copyright 1986, Carnegie Mellon
 University), and the Gaussian 82(TM) system (copyright 1983,
 Carnegie Mellon University). Gaussian is a federally registered
 trademark of Gaussian, Inc.
  
 This software contains proprietary and confidential information,
 including trade secrets, belonging to Gaussian, Inc.
  
 This software is provided under written license and may be
 used, copied, transmitted, or stored only in accord with that
 written license.
  
 The following legend is applicable only to US Government
 contracts under FAR:
  
                    RESTRICTED RIGHTS LEGEND
  
 Use, reproduction and disclosure by the US Government is
 subject to restrictions as set forth in subparagraphs (a)
 and (c) of the Commercial Computer Software - Restricted
 Rights clause in FAR 52.227-19.
  
 Gaussian, Inc.
 340 Quinnipiac St., Bldg. 40, Wallingford CT 06492
  
  
 ---------------------------------------------------------------
 Warning -- This program may not be used in any manner that
 competes with the business of Gaussian, Inc. or will provide
 assistance to any competitor of Gaussian, Inc.  The licensee
 of this program is prohibited from giving any competitor of
 Gaussian, Inc. access to this program.  By using this program,
 the user acknowledges that Gaussian, Inc. is engaged in the
 business of creating and licensing software in the field of
 computational chemistry and represents and warrants to the
 licensee that it is not a competitor of Gaussian, Inc. and that
 it will not use this program in any manner prohibited above.
 ---------------------------------------------------------------
  

 Cite this work as:
 Gaussian 09, Revision E.01,
 M. J. Frisch, G. W. Trucks, H. B. Schlegel, G. E. Scuseria, 
 M. A. Robb, J. R. Cheeseman, G. Scalmani, V. Barone, B. Mennucci, 
 G. A. Petersson, H. Nakatsuji, M. Caricato, X. Li, H. P. Hratchian, 
 A. F. Izmaylov, J. Bloino, G. Zheng, J. L. Sonnenberg, M. Hada, 
 M. Ehara, K. Toyota, R. Fukuda, J. Hasegawa, M. Ishida, T. Nakajima, 
 Y. Honda, O. Kitao, H. Nakai, T. Vreven, J. A. Montgomery, Jr., 
 J. E. Peralta, F. Ogliaro, M. Bearpark, J. J. Heyd, E. Brothers, 
 K. N. Kudin, V. N. Staroverov, T. Keith, R. Kobayashi, J. Normand, 
 K. Raghavachari, A. Rendell, J. C. Burant, S. S. Iyengar, J. Tomasi, 
 M. Cossi, N. Rega, J. M. Millam, M. Klene, J. E. Knox, J. B. Cross, 
 V. Bakken, C. Adamo, J. Jaramillo, R. Gomperts, R. E. Stratmann, 
 O. Yazyev, A. J. Austin, R. Cammi, C. Pomelli, J. W. Ochterski, 
 R. L. Martin, K. Morokuma, V. G. Zakrzewski, G. A. Voth, 
 P. Salvador, J. J. Dannenberg, S. Dapprich, A. D. Daniels, 
 O. Farkas, J. B. Foresman, J. V. Ortiz, J. Cioslowski, 
 and D. J. Fox, Gaussian, Inc., Wallingford CT, 2013.
 
 ******************************************
 Gaussian 09:  EM64L-G09RevE.01 30-Nov-2015
                27-Aug-2021 
 ******************************************
 %nprocshared=64
 Will use up to   64 processors via shared memory.
 %mem=128GB
 %chk=PY_H2O_LC-wPBE_PC2_OPT_FREQ.chk
 -----------------------
 #p opt freq LC-wPBE/gen
 -----------------------
 1/14=-1,18=20,19=15,26=3,38=1/1,3;
 2/9=110,12=2,17=6,18=5,40=1/2;
 3/5=7,11=2,16=1,25=1,30=1,71=1,74=-41/1,2,3;
 4//1;
 5/5=2,38=5/2;
 6/7=2,8=2,9=2,10=2,28=1/1;
 7//1,2,3,16;
 1/14=-1,18=20,19=15,26=3/3(2);
 2/9=110/2;
 99//99;
 2/9=110/2;
 3/5=7,6=1,11=2,16=1,25=1,30=1,71=1,74=-41,82=7/1,2,3;
 4/5=5,16=3,69=1/1;
 5/5=2,38=5/2;
 7//1,2,3,16;
 1/14=-1,18=20,19=15,26=3/3(-5);
 2/9=110/2;
 6/7=2,8=2,9=2,10=2,19=2,28=1/1;
 99/9=1/99;
 Leave Link    1 at Fri Aug 27 00:54:21 2021, MaxMem= 17179869184 cpu:         4.5
 (Enter /public3/home/sc51754/softwares/g09e01/l101.exe)
 ---------------------------
 PY_H2O_LC-wPBE_PC2_OPT_FREQ
 ---------------------------
 Symbolic Z-matrix:
 Charge =  0 Multiplicity = 1
 O                     1.26148   1.38785   0.00541 
 N                     0.24943  -0.65888   0.01158 
 C                     0.21021   0.736     0.00592 
 C                    -1.11959   1.28763   0.00047 
 C                    -0.84358  -1.46082   0.0067 
 C                    -2.21816   0.48191  -0.00352 
 C                    -2.09559  -0.93059  -0.00106 
 H                     2.7014    0.27314  -0.04162 
 H                    -1.19683   2.36437  -0.00254 
 H                    -0.64999  -2.52343   0.00862 
 H                    -3.20534   0.92605  -0.00928 
 H                    -2.96087  -1.57362  -0.00584 
 O                     3.10667  -0.61979  -0.08598 
 H                     3.83344  -0.62425   0.54074 
 H                     1.18728  -1.05929   0.02234 
 
 Add virtual bond connecting atoms H8         and O1         Dist= 3.44D+00.
 Add virtual bond connecting atoms O13        and H15        Dist= 3.73D+00.
 NAtoms=     15 NQM=       15 NQMF=       0 NMMI=      0 NMMIF=      0
                NMic=       0 NMicF=      0.
                    Isotopes and Nuclear Properties:
 (Nuclear quadrupole moments (NQMom) in fm**2, nuclear magnetic moments (NMagM)
  in nuclear magnetons)

  Atom         1           2           3           4           5           6           7           8           9          10
 IAtWgt=          16          14          12          12          12          12          12           1           1           1
 AtmWgt=  15.9949146  14.0030740  12.0000000  12.0000000  12.0000000  12.0000000  12.0000000   1.0078250   1.0078250   1.0078250
 NucSpn=           0           2           0           0           0           0           0           1           1           1
 AtZEff=   0.0000000   0.0000000   0.0000000   0.0000000   0.0000000   0.0000000   0.0000000   0.0000000   0.0000000   0.0000000
 NQMom=    0.0000000   2.0440000   0.0000000   0.0000000   0.0000000   0.0000000   0.0000000   0.0000000   0.0000000   0.0000000
 NMagM=    0.0000000   0.4037610   0.0000000   0.0000000   0.0000000   0.0000000   0.0000000   2.7928460   2.7928460   2.7928460
 AtZNuc=   8.0000000   7.0000000   6.0000000   6.0000000   6.0000000   6.0000000   6.0000000   1.0000000   1.0000000   1.0000000

  Atom        11          12          13          14          15
 IAtWgt=           1           1          16           1           1
 AtmWgt=   1.0078250   1.0078250  15.9949146   1.0078250   1.0078250
 NucSpn=           1           1           0           1           1
 AtZEff=   0.0000000   0.0000000   0.0000000   0.0000000   0.0000000
 NQMom=    0.0000000   0.0000000   0.0000000   0.0000000   0.0000000
 NMagM=    2.7928460   2.7928460   0.0000000   2.7928460   2.7928460
 AtZNuc=   1.0000000   1.0000000   8.0000000   1.0000000   1.0000000
 Leave Link  101 at Fri Aug 27 00:54:21 2021, MaxMem= 17179869184 cpu:         7.8
 (Enter /public3/home/sc51754/softwares/g09e01/l103.exe)

 GradGradGradGradGradGradGradGradGradGradGradGradGradGradGradGradGradGrad
 Berny optimization.
 Initialization pass.
                           ----------------------------
                           !    Initial Parameters    !
                           ! (Angstroms and Degrees)  !
 --------------------------                            --------------------------
 ! Name  Definition              Value          Derivative Info.                !
 --------------------------------------------------------------------------------
 ! R1    R(1,3)                  1.237          estimate D2E/DX2                !
 ! R2    R(1,8)                  1.8216         estimate D2E/DX2                !
 ! R3    R(2,3)                  1.3954         estimate D2E/DX2                !
 ! R4    R(2,5)                  1.3556         estimate D2E/DX2                !
 ! R5    R(2,15)                 1.0198         estimate D2E/DX2                !
 ! R6    R(3,4)                  1.4397         estimate D2E/DX2                !
 ! R7    R(4,6)                  1.3624         estimate D2E/DX2                !
 ! R8    R(4,9)                  1.0795         estimate D2E/DX2                !
 ! R9    R(5,7)                  1.3597         estimate D2E/DX2                !
 ! R10   R(5,10)                 1.0801         estimate D2E/DX2                !
 ! R11   R(6,7)                  1.4178         estimate D2E/DX2                !
 ! R12   R(6,11)                 1.0825         estimate D2E/DX2                !
 ! R13   R(7,12)                 1.0781         estimate D2E/DX2                !
 ! R14   R(8,13)                 0.9816         estimate D2E/DX2                !
 ! R15   R(13,14)                0.9597         estimate D2E/DX2                !
 ! R16   R(13,15)                1.972          estimate D2E/DX2                !
 ! A1    A(3,1,8)              110.4468         estimate D2E/DX2                !
 ! A2    A(3,2,5)              124.6558         estimate D2E/DX2                !
 ! A3    A(3,2,15)             114.7312         estimate D2E/DX2                !
 ! A4    A(5,2,15)             120.6129         estimate D2E/DX2                !
 ! A5    A(1,3,2)              120.1911         estimate D2E/DX2                !
 ! A6    A(1,3,4)              125.6683         estimate D2E/DX2                !
 ! A7    A(2,3,4)              114.1406         estimate D2E/DX2                !
 ! A8    A(3,4,6)              121.2133         estimate D2E/DX2                !
 ! A9    A(3,4,9)              116.6328         estimate D2E/DX2                !
 ! A10   A(6,4,9)              122.1537         estimate D2E/DX2                !
 ! A11   A(2,5,7)              120.7801         estimate D2E/DX2                !
 ! A12   A(2,5,10)             115.9423         estimate D2E/DX2                !
 ! A13   A(7,5,10)             123.2776         estimate D2E/DX2                !
 ! A14   A(4,6,7)              121.2972         estimate D2E/DX2                !
 ! A15   A(4,6,11)             119.5197         estimate D2E/DX2                !
 ! A16   A(7,6,11)             119.1831         estimate D2E/DX2                !
 ! A17   A(5,7,6)              117.9124         estimate D2E/DX2                !
 ! A18   A(5,7,12)             120.4308         estimate D2E/DX2                !
 ! A19   A(6,7,12)             121.6568         estimate D2E/DX2                !
 ! A20   A(1,8,13)             152.1528         estimate D2E/DX2                !
 ! A21   A(8,13,14)            106.7015         estimate D2E/DX2                !
 ! A22   A(8,13,15)             78.3702         estimate D2E/DX2                !
 ! A23   A(14,13,15)           134.4412         estimate D2E/DX2                !
 ! A24   A(2,15,13)            143.8035         estimate D2E/DX2                !
 ! D1    D(8,1,3,2)              1.8252         estimate D2E/DX2                !
 ! D2    D(8,1,3,4)           -178.1461         estimate D2E/DX2                !
 ! D3    D(3,1,8,13)             2.218          estimate D2E/DX2                !
 ! D4    D(5,2,3,1)           -179.6964         estimate D2E/DX2                !
 ! D5    D(5,2,3,4)              0.278          estimate D2E/DX2                !
 ! D6    D(15,2,3,1)             0.4507         estimate D2E/DX2                !
 ! D7    D(15,2,3,4)          -179.5749         estimate D2E/DX2                !
 ! D8    D(3,2,5,7)             -0.1672         estimate D2E/DX2                !
 ! D9    D(3,2,5,10)           179.7881         estimate D2E/DX2                !
 ! D10   D(15,2,5,7)           179.6776         estimate D2E/DX2                !
 ! D11   D(15,2,5,10)           -0.3671         estimate D2E/DX2                !
 ! D12   D(3,2,15,13)           -6.1898         estimate D2E/DX2                !
 ! D13   D(5,2,15,13)          173.9508         estimate D2E/DX2                !
 ! D14   D(1,3,4,6)            179.7501         estimate D2E/DX2                !
 ! D15   D(1,3,4,9)             -0.1145         estimate D2E/DX2                !
 ! D16   D(2,3,4,6)             -0.2227         estimate D2E/DX2                !
 ! D17   D(2,3,4,9)            179.9126         estimate D2E/DX2                !
 ! D18   D(3,4,6,7)              0.0669         estimate D2E/DX2                !
 ! D19   D(3,4,6,11)          -179.8963         estimate D2E/DX2                !
 ! D20   D(9,4,6,7)            179.924          estimate D2E/DX2                !
 ! D21   D(9,4,6,11)            -0.0392         estimate D2E/DX2                !
 ! D22   D(2,5,7,6)             -0.0156         estimate D2E/DX2                !
 ! D23   D(2,5,7,12)           179.9426         estimate D2E/DX2                !
 ! D24   D(10,5,7,6)          -179.9675         estimate D2E/DX2                !
 ! D25   D(10,5,7,12)           -0.0093         estimate D2E/DX2                !
 ! D26   D(4,6,7,5)              0.0605         estimate D2E/DX2                !
 ! D27   D(4,6,7,12)          -179.8972         estimate D2E/DX2                !
 ! D28   D(11,6,7,5)          -179.9762         estimate D2E/DX2                !
 ! D29   D(11,6,7,12)            0.0661         estimate D2E/DX2                !
 ! D30   D(1,8,13,14)         -137.6226         estimate D2E/DX2                !
 ! D31   D(1,8,13,15)           -4.4198         estimate D2E/DX2                !
 ! D32   D(8,13,15,2)            7.3388         estimate D2E/DX2                !
 ! D33   D(14,13,15,2)         109.4095         estimate D2E/DX2                !
 --------------------------------------------------------------------------------
 Trust Radius=3.00D-01 FncErr=1.00D-07 GrdErr=1.00D-06
 Number of steps in this run=     83 maximum allowed number of steps=    100.
 GradGradGradGradGradGradGradGradGradGradGradGradGradGradGradGradGradGrad

 Leave Link  103 at Fri Aug 27 00:54:22 2021, MaxMem= 17179869184 cpu:         0.1
 (Enter /public3/home/sc51754/softwares/g09e01/l202.exe)
                          Input orientation:                          
 ---------------------------------------------------------------------
 Center     Atomic      Atomic             Coordinates (Angstroms)
 Number     Number       Type             X           Y           Z
 ---------------------------------------------------------------------
      1          8           0        1.261476    1.387852    0.005408
      2          7           0        0.249425   -0.658880    0.011581
      3          6           0        0.210209    0.735997    0.005920
      4          6           0       -1.119592    1.287625    0.000474
      5          6           0       -0.843575   -1.460822    0.006702
      6          6           0       -2.218160    0.481905   -0.003521
      7          6           0       -2.095586   -0.930593   -0.001061
      8          1           0        2.701404    0.273138   -0.041623
      9          1           0       -1.196826    2.364370   -0.002539
     10          1           0       -0.649991   -2.523426    0.008616
     11          1           0       -3.205344    0.926047   -0.009282
     12          1           0       -2.960874   -1.573618   -0.005843
     13          8           0        3.106669   -0.619787   -0.085978
     14          1           0        3.833439   -0.624251    0.540740
     15          1           0        1.187279   -1.059291    0.022340
 ---------------------------------------------------------------------
                    Distance matrix (angstroms):
                    1          2          3          4          5
     1  O    0.000000
     2  N    2.283286   0.000000
     3  C    1.236963   1.395440   0.000000
     4  C    2.383182   2.379751   1.439685   0.000000
     5  C    3.542059   1.355649   2.436488   2.762279   0.000000
     6  C    3.595648   2.718565   2.441645   1.362370   2.379869
     7  C    4.079840   2.360734   2.845042   2.423439   1.359682
     8  H    1.821590   2.623679   2.534275   3.953602   3.946622
     9  H    2.645165   3.351400   2.152073   1.079516   3.841480
    10  H    4.353368   2.070142   3.371022   3.839883   1.080095
    11  H    4.490653   3.801034   3.420870   2.116883   3.357879
    12  H    5.157390   3.338124   3.923038   3.402509   2.120339
    13  O    2.728315   2.859176   3.199387   4.637561   4.039846
    14  H    3.309098   3.623033   3.906930   5.336635   4.781162
    15  H    2.448326   1.019811   2.044014   3.290919   2.070227
                    6          7          8          9         10
     6  C    0.000000
     7  C    1.417809   0.000000
     8  H    4.924139   4.945880   0.000000
     9  H    2.141681   3.415341   4.423910   0.000000
    10  H    3.389884   2.151036   4.365220   4.918303   0.000000
    11  H    1.082510   2.163040   5.942811   2.470418   4.292903
    12  H    2.185590   1.078066   5.955937   4.315046   2.498504
    13  O    5.438228   5.212223   0.981592   5.237578   4.212515
    14  H    6.175893   5.961605   1.557548   5.876272   4.898078
    15  H    3.738043   3.285470   2.017928   4.172053   2.349349
                   11         12         13         14         15
    11  H    0.000000
    12  H    2.511594   0.000000
    13  O    6.498999   6.142580   0.000000
    14  H    7.228445   6.882059   0.959682   0.000000
    15  H    4.820550   4.180012   1.972043   2.731330   0.000000
 Stoichiometry    C5H7NO2
 Framework group  C1[X(C5H7NO2)]
 Deg. of freedom    39
 Full point group                 C1      NOp   1
 Largest Abelian subgroup         C1      NOp   1
 Largest concise Abelian subgroup C1      NOp   1
                         Standard orientation:                         
 ---------------------------------------------------------------------
 Center     Atomic      Atomic             Coordinates (Angstroms)
 Number     Number       Type             X           Y           Z
 ---------------------------------------------------------------------
      1          8           0        1.261476    1.387852    0.005408
      2          7           0        0.249425   -0.658880    0.011581
      3          6           0        0.210209    0.735997    0.005920
      4          6           0       -1.119592    1.287625    0.000474
      5          6           0       -0.843575   -1.460822    0.006702
      6          6           0       -2.218160    0.481905   -0.003521
      7          6           0       -2.095586   -0.930593   -0.001061
      8          1           0        2.701404    0.273138   -0.041623
      9          1           0       -1.196826    2.364370   -0.002539
     10          1           0       -0.649991   -2.523426    0.008616
     11          1           0       -3.205344    0.926047   -0.009282
     12          1           0       -2.960874   -1.573618   -0.005843
     13          8           0        3.106669   -0.619787   -0.085978
     14          1           0        3.833439   -0.624251    0.540740
     15          1           0        1.187279   -1.059291    0.022340
 ---------------------------------------------------------------------
 Rotational constants (GHZ):      4.0248921      1.3974909      1.0390436
 Leave Link  202 at Fri Aug 27 00:54:22 2021, MaxMem= 17179869184 cpu:         3.8
 (Enter /public3/home/sc51754/softwares/g09e01/l301.exe)
 General basis read from cards:  (5D, 7F)
 Centers:       8      9     10     11     12     14     15
 S 4 1.00
     Exponent=  7.5423000000D+01 Coefficients=  2.4065000000D-03
     Exponent=  1.1350000000D+01 Coefficients=  1.8487000000D-02
     Exponent=  2.5993000000D+00 Coefficients=  8.9742000000D-02
     Exponent=  7.3513000000D-01 Coefficients=  2.8111000000D-01
 S 1 1.00
     Exponent=  2.3167000000D-01 Coefficients=  1.0000000000D+00
 S 1 1.00
     Exponent=  7.4147000000D-02 Coefficients=  1.0000000000D+00
 P 1 1.00
     Exponent=  1.6000000000D+00 Coefficients=  1.0000000000D+00
 P 1 1.00
     Exponent=  4.5000000000D-01 Coefficients=  1.0000000000D+00
 D 1 1.00
     Exponent=  1.2500000000D+00 Coefficients=  1.0000000000D+00
 ****
 Centers:       3      4      5      6      7
 S 7 1.00
     Exponent=  7.8571000000D+03 Coefficients=  5.6825000000D-04
     Exponent=  1.1787000000D+03 Coefficients=  4.3915000000D-03
     Exponent=  2.6832000000D+02 Coefficients=  2.2504000000D-02
     Exponent=  7.5948000000D+01 Coefficients=  8.6653000000D-02
     Exponent=  2.4559000000D+01 Coefficients=  2.4405000000D-01
     Exponent=  8.6212000000D+00 Coefficients=  4.4148000000D-01
     Exponent=  3.1278000000D+00 Coefficients=  3.5332000000D-01
 S 7 1.00
     Exponent=  1.1787000000D+03 Coefficients= -5.9492000000D-07
     Exponent=  2.6832000000D+02 Coefficients= -6.2748000000D-05
     Exponent=  7.5948000000D+01 Coefficients= -7.5773000000D-04
     Exponent=  2.4559000000D+01 Coefficients= -7.3308000000D-03
     Exponent=  8.6212000000D+00 Coefficients= -3.8932000000D-02
     Exponent=  3.1278000000D+00 Coefficients= -8.8908000000D-02
     Exponent=  8.2202000000D-01 Coefficients=  2.1689000000D-01
 S 1 1.00
     Exponent=  3.3017000000D-01 Coefficients=  1.0000000000D+00
 S 1 1.00
     Exponent=  1.1463000000D-01 Coefficients=  1.0000000000D+00
 P 4 1.00
     Exponent=  3.3775000000D+01 Coefficients=  6.0294000000D-03
     Exponent=  7.6766000000D+00 Coefficients=  4.3228000000D-02
     Exponent=  2.2357000000D+00 Coefficients=  1.6301000000D-01
     Exponent=  7.6447000000D-01 Coefficients=  3.6504000000D-01
 P 1 1.00
     Exponent=  2.6232000000D-01 Coefficients=  1.0000000000D+00
 P 1 1.00
     Exponent=  8.4638000000D-02 Coefficients=  1.0000000000D+00
 D 1 1.00
     Exponent=  1.4000000000D+00 Coefficients=  1.0000000000D+00
 D 1 1.00
     Exponent=  4.5000000000D-01 Coefficients=  1.0000000000D+00
 F 1 1.00
     Exponent=  9.5000000000D-01 Coefficients=  1.0000000000D+00
 ****
 Centers:       2
 S 7 1.00
     Exponent=  1.1101000000D+04 Coefficients=  5.4570000000D-04
     Exponent=  1.6653000000D+03 Coefficients=  4.2181000000D-03
     Exponent=  3.7908000000D+02 Coefficients=  2.1645000000D-02
     Exponent=  1.0730000000D+02 Coefficients=  8.3776000000D-02
     Exponent=  3.4747000000D+01 Coefficients=  2.3881000000D-01
     Exponent=  1.2249000000D+01 Coefficients=  4.3994000000D-01
     Exponent=  4.4743000000D+00 Coefficients=  3.6364000000D-01
 S 7 1.00
     Exponent=  1.6653000000D+03 Coefficients= -1.5006000000D-06
     Exponent=  3.7908000000D+02 Coefficients= -5.8753000000D-05
     Exponent=  1.0730000000D+02 Coefficients= -7.7453000000D-04
     Exponent=  3.4747000000D+01 Coefficients= -7.2161000000D-03
     Exponent=  1.2249000000D+01 Coefficients= -3.9338000000D-02
     Exponent=  4.4743000000D+00 Coefficients= -9.0611000000D-02
     Exponent=  1.2404000000D+00 Coefficients=  1.9882000000D-01
 S 1 1.00
     Exponent=  4.8743000000D-01 Coefficients=  1.0000000000D+00
 S 1 1.00
     Exponent=  1.6484000000D-01 Coefficients=  1.0000000000D+00
 P 4 1.00
     Exponent=  4.7934000000D+01 Coefficients=  6.1706000000D-03
     Exponent=  1.0999000000D+01 Coefficients=  4.4260000000D-02
     Exponent=  3.2472000000D+00 Coefficients=  1.6825000000D-01
     Exponent=  1.1114000000D+00 Coefficients=  3.6848000000D-01
 P 1 1.00
     Exponent=  3.7988000000D-01 Coefficients=  1.0000000000D+00
 P 1 1.00
     Exponent=  1.2068000000D-01 Coefficients=  1.0000000000D+00
 D 1 1.00
     Exponent=  1.8000000000D+00 Coefficients=  1.0000000000D+00
 D 1 1.00
     Exponent=  5.5000000000D-01 Coefficients=  1.0000000000D+00
 F 1 1.00
     Exponent=  1.0200000000D+00 Coefficients=  1.0000000000D+00
 ****
 Centers:       1     13
 S 7 1.00
     Exponent=  1.4782000000D+04 Coefficients=  5.3519000000D-04
     Exponent=  2.2173000000D+03 Coefficients=  4.1375000000D-03
     Exponent=  5.0474000000D+02 Coefficients=  2.1245000000D-02
     Exponent=  1.4287000000D+02 Coefficients=  8.2453000000D-02
     Exponent=  4.6300000000D+01 Coefficients=  2.3671000000D-01
     Exponent=  1.6337000000D+01 Coefficients=  4.4039000000D-01
     Exponent=  5.9828000000D+00 Coefficients=  3.6465000000D-01
 S 7 1.00
     Exponent=  2.2173000000D+03 Coefficients= -1.9275000000D-06
     Exponent=  5.0474000000D+02 Coefficients= -5.7964000000D-05
     Exponent=  1.4287000000D+02 Coefficients= -7.9494000000D-04
     Exponent=  4.6300000000D+01 Coefficients= -7.3125000000D-03
     Exponent=  1.6337000000D+01 Coefficients= -4.0574000000D-02
     Exponent=  5.9828000000D+00 Coefficients= -9.1594000000D-02
     Exponent=  1.6718000000D+00 Coefficients=  2.0940000000D-01
 S 1 1.00
     Exponent=  6.4662000000D-01 Coefficients=  1.0000000000D+00
 S 1 1.00
     Exponent=  2.1669000000D-01 Coefficients=  1.0000000000D+00
 P 4 1.00
     Exponent=  6.0424000000D+01 Coefficients=  6.8949000000D-03
     Exponent=  1.3935000000D+01 Coefficients=  4.9005000000D-02
     Exponent=  4.1531000000D+00 Coefficients=  1.8255000000D-01
     Exponent=  1.4158000000D+00 Coefficients=  3.7633000000D-01
 P 1 1.00
     Exponent=  4.7549000000D-01 Coefficients=  1.0000000000D+00
 P 1 1.00
     Exponent=  1.4529000000D-01 Coefficients=  1.0000000000D+00
 D 1 1.00
     Exponent=  2.2000000000D+00 Coefficients=  1.0000000000D+00
 D 1 1.00
     Exponent=  6.5000000000D-01 Coefficients=  1.0000000000D+00
 F 1 1.00
     Exponent=  1.1000000000D+00 Coefficients=  1.0000000000D+00
 ****
 Ernie: Thresh=  0.10000D-02 Tol=  0.10000D-05 Strict=F.
 Ernie:  8 primitive shells out of 263 were deleted.
 There are   385 symmetry adapted cartesian basis functions of A   symmetry.
 There are   338 symmetry adapted basis functions of A   symmetry.
   338 basis functions,   566 primitive gaussians,   385 cartesian basis functions
    30 alpha electrons       30 beta electrons
       nuclear repulsion energy       356.8539014902 Hartrees.
 IExCor=32609 DFT=T Ex+Corr=LC-wPBE ExCW=0 ScaHFX=  1.000000
 ScaDFX=  1.000000  0.000000  1.000000  1.000000 ScalE2=  1.000000  1.000000
 IRadAn=      0 IRanWt=     -1 IRanGd=            0 ICorTp=0 IEmpDi=  4
  HFx wShort=  0.000000 wLong=  0.400000 cFull=  0.000000 cShort=  0.000000 cLong=  1.000000
  DFx wShort=  0.000000 wLong=  0.400000 cFull=  0.000000 cShort=  0.000000 cLong=  1.000000
 NAtoms=   15 NActive=   15 NUniq=   15 SFac= 1.00D+00 NAtFMM=   60 NAOKFM=F Big=F
 Integral buffers will be    131072 words long.
 Raffenetti 2 integral format.
 Two-electron integral symmetry is turned on.
 Leave Link  301 at Fri Aug 27 00:54:22 2021, MaxMem= 17179869184 cpu:         3.1
 (Enter /public3/home/sc51754/softwares/g09e01/l302.exe)
 NPDir=0 NMtPBC=     1 NCelOv=     1 NCel=       1 NClECP=     1 NCelD=      1
         NCelK=      1 NCelE2=     1 NClLst=     1 CellRange=     0.0.
 One-electron integrals computed using PRISM.
 NBasis=   338 RedAO= T EigKep=  1.57D-04  NBF=   338
 NBsUse=   338 1.00D-06 EigRej= -1.00D+00 NBFU=   338
 Precomputing XC quadrature grid using
 IXCGrd= 4 IRadAn=           0 IRanWt=          -1 IRanGd=           0 AccXCQ= 0.00D+00.
 Generated NRdTot=       0 NPtTot=           0 NUsed=           0 NTot=          32
 NSgBfM=   385   385   385   385   385 MxSgAt=    15 MxSgA2=    15.
 Leave Link  302 at Fri Aug 27 00:54:23 2021, MaxMem= 17179869184 cpu:        47.8
 (Enter /public3/home/sc51754/softwares/g09e01/l303.exe)
 DipDrv:  MaxL=1.
 Leave Link  303 at Fri Aug 27 00:54:24 2021, MaxMem= 17179869184 cpu:        66.0
 (Enter /public3/home/sc51754/softwares/g09e01/l401.exe)
 ExpMin= 7.41D-02 ExpMax= 1.48D+04 ExpMxC= 5.05D+02 IAcc=2 IRadAn=         4 AccDes= 0.00D+00
 Harris functional with IExCor=32609 and IRadAn=       4 diagonalized for initial guess.
 HarFok:  IExCor=32609 AccDes= 0.00D+00 IRadAn=         4 IDoV= 1 UseB2=F ITyADJ=14
 ICtDFT=  3500011 ScaDFX=  1.000000  1.000000  1.000000  1.000000
 FoFCou: FMM=F IPFlag=           0 FMFlag=      100000 FMFlg1=           0
         NFxFlg=           0 DoJE=T BraDBF=F KetDBF=T FulRan=T
         wScrn=  0.000000 ICntrl=     500 IOpCl=  0 I1Cent=   200000004 NGrid=           0
         NMat0=    1 NMatS0=      1 NMatT0=    0 NMatD0=    1 NMtDS0=    0 NMtDT0=    0
 Petite list used in FoFCou.
 Harris En= -399.874547323588    
 JPrj=0 DoOrth=F DoCkMO=F.
 Leave Link  401 at Fri Aug 27 00:54:25 2021, MaxMem= 17179869184 cpu:        52.7
 (Enter /public3/home/sc51754/softwares/g09e01/l502.exe)
 Closed shell SCF:
 Using DIIS extrapolation, IDIIS=  1040.
 Integral symmetry usage will be decided dynamically.
 Keep R1 ints in memory in canonical form, NReq=3311562672.
 IVT=      490665 IEndB=      490665 NGot= 17179869184 MDV= 13897062548
 LenX= 13897062548 LenY= 13896913882
 Requested convergence on RMS density matrix=1.00D-08 within 128 cycles.
 Requested convergence on MAX density matrix=1.00D-06.
 Requested convergence on             energy=1.00D-06.
 No special actions if energy rises.
 FoFCou: FMM=F IPFlag=           0 FMFlag=           0 FMFlg1=           0
         NFxFlg=           0 DoJE=F BraDBF=F KetDBF=F FulRan=T
         wScrn=  0.000000 ICntrl=     600 IOpCl=  0 I1Cent=           0 NGrid=           0
         NMat0=    1 NMatS0=  57291 NMatT0=    0 NMatD0=    1 NMtDS0=    0 NMtDT0=    0
 Symmetry not used in FoFCou.
 Integral accuracy reduced to 1.0D-05 until final iterations.

 Cycle   1  Pass 0  IDiag  1:
 E= -399.638017490813    
 DIIS: error= 2.78D-02 at cycle   1 NSaved=   1.
 NSaved= 1 IEnMin= 1 EnMin= -399.638017490813     IErMin= 1 ErrMin= 2.78D-02
 ErrMax= 2.78D-02  0.00D+00 EMaxC= 1.00D-01 BMatC= 2.94D-01 BMatP= 2.94D-01
 IDIUse=3 WtCom= 7.22D-01 WtEn= 2.78D-01
 Coeff-Com:  0.100D+01
 Coeff-En:   0.100D+01
 Coeff:      0.100D+01
 Gap=     0.338 Goal=   None    Shift=    0.000
 GapD=    0.338 DampG=1.000 DampE=0.500 DampFc=0.5000 IDamp=-1.
 Damping current iteration by 5.00D-01
 RMSDP=1.94D-03 MaxDP=1.03D-01              OVMax= 1.66D-01

 Cycle   2  Pass 0  IDiag  1:
 E= -399.753889896017     Delta-E=       -0.115872405204 Rises=F Damp=T
 DIIS: error= 6.97D-03 at cycle   2 NSaved=   2.
 NSaved= 2 IEnMin= 2 EnMin= -399.753889896017     IErMin= 2 ErrMin= 6.97D-03
 ErrMax= 6.97D-03  0.00D+00 EMaxC= 1.00D-01 BMatC= 1.44D-02 BMatP= 2.94D-01
 IDIUse=3 WtCom= 9.30D-01 WtEn= 6.97D-02
 Coeff-Com: -0.162D-01 0.102D+01
 Coeff-En:   0.000D+00 0.100D+01
 Coeff:     -0.151D-01 0.102D+01
 Gap=     0.372 Goal=   None    Shift=    0.000
 RMSDP=4.76D-04 MaxDP=2.63D-02 DE=-1.16D-01 OVMax= 8.41D-02

 Cycle   3  Pass 0  IDiag  1:
 E= -399.867922942061     Delta-E=       -0.114033046045 Rises=F Damp=F
 DIIS: error= 4.73D-03 at cycle   3 NSaved=   3.
 NSaved= 3 IEnMin= 3 EnMin= -399.867922942061     IErMin= 3 ErrMin= 4.73D-03
 ErrMax= 4.73D-03  0.00D+00 EMaxC= 1.00D-01 BMatC= 5.69D-03 BMatP= 1.44D-02
 IDIUse=3 WtCom= 9.53D-01 WtEn= 4.73D-02
 Coeff-Com: -0.389D-01 0.386D+00 0.653D+00
 Coeff-En:   0.000D+00 0.000D+00 0.100D+01
 Coeff:     -0.371D-01 0.368D+00 0.669D+00
 Gap=     0.356 Goal=   None    Shift=    0.000
 RMSDP=1.82D-04 MaxDP=1.06D-02 DE=-1.14D-01 OVMax= 2.71D-02

 Cycle   4  Pass 0  IDiag  1:
 E= -399.871931452460     Delta-E=       -0.004008510399 Rises=F Damp=F
 DIIS: error= 1.61D-03 at cycle   4 NSaved=   4.
 NSaved= 4 IEnMin= 4 EnMin= -399.871931452460     IErMin= 4 ErrMin= 1.61D-03
 ErrMax= 1.61D-03  0.00D+00 EMaxC= 1.00D-01 BMatC= 9.45D-04 BMatP= 5.69D-03
 IDIUse=3 WtCom= 9.84D-01 WtEn= 1.61D-02
 Coeff-Com: -0.747D-02 0.548D-01 0.304D+00 0.648D+00
 Coeff-En:   0.000D+00 0.000D+00 0.206D-01 0.979D+00
 Coeff:     -0.735D-02 0.539D-01 0.300D+00 0.654D+00
 Gap=     0.359 Goal=   None    Shift=    0.000
 RMSDP=6.22D-05 MaxDP=3.51D-03 DE=-4.01D-03 OVMax= 6.66D-03

 Cycle   5  Pass 0  IDiag  1:
 E= -399.872636578042     Delta-E=       -0.000705125582 Rises=F Damp=F
 DIIS: error= 4.40D-04 at cycle   5 NSaved=   5.
 NSaved= 5 IEnMin= 5 EnMin= -399.872636578042     IErMin= 5 ErrMin= 4.40D-04
 ErrMax= 4.40D-04  0.00D+00 EMaxC= 1.00D-01 BMatC= 6.09D-05 BMatP= 9.45D-04
 IDIUse=3 WtCom= 9.96D-01 WtEn= 4.40D-03
 Coeff-Com:  0.217D-02-0.159D-01 0.628D-01 0.241D+00 0.710D+00
 Coeff-En:   0.000D+00 0.000D+00 0.000D+00 0.000D+00 0.100D+01
 Coeff:      0.216D-02-0.158D-01 0.625D-01 0.240D+00 0.711D+00
 Gap=     0.359 Goal=   None    Shift=    0.000
 RMSDP=2.15D-05 MaxDP=1.06D-03 DE=-7.05D-04 OVMax= 4.69D-03

 Cycle   6  Pass 0  IDiag  1:
 E= -399.872714522102     Delta-E=       -0.000077944060 Rises=F Damp=F
 DIIS: error= 1.97D-04 at cycle   6 NSaved=   6.
 NSaved= 6 IEnMin= 6 EnMin= -399.872714522102     IErMin= 6 ErrMin= 1.97D-04
 ErrMax= 1.97D-04  0.00D+00 EMaxC= 1.00D-01 BMatC= 8.88D-06 BMatP= 6.09D-05
 IDIUse=3 WtCom= 9.98D-01 WtEn= 1.97D-03
 Coeff-Com:  0.191D-02-0.106D-01-0.220D-01-0.460D-01 0.170D+00 0.906D+00
 Coeff-En:   0.000D+00 0.000D+00 0.000D+00 0.000D+00 0.000D+00 0.100D+01
 Coeff:      0.191D-02-0.106D-01-0.220D-01-0.459D-01 0.170D+00 0.907D+00
 Gap=     0.360 Goal=   None    Shift=    0.000
 RMSDP=1.46D-05 MaxDP=4.59D-04 DE=-7.79D-05 OVMax= 3.33D-03

 Cycle   7  Pass 0  IDiag  1:
 E= -399.872741856664     Delta-E=       -0.000027334562 Rises=F Damp=F
 DIIS: error= 1.10D-04 at cycle   7 NSaved=   7.
 NSaved= 7 IEnMin= 7 EnMin= -399.872741856664     IErMin= 7 ErrMin= 1.10D-04
 ErrMax= 1.10D-04  0.00D+00 EMaxC= 1.00D-01 BMatC= 1.61D-06 BMatP= 8.88D-06
 IDIUse=3 WtCom= 9.99D-01 WtEn= 1.10D-03
 Coeff-Com: -0.404D-03 0.294D-02-0.113D-01-0.628D-01-0.159D+00-0.693D-01
 Coeff-Com:  0.130D+01
 Coeff-En:   0.000D+00 0.000D+00 0.000D+00 0.000D+00 0.000D+00 0.000D+00
 Coeff-En:   0.100D+01
 Coeff:     -0.404D-03 0.294D-02-0.113D-01-0.628D-01-0.158D+00-0.692D-01
 Coeff:      0.130D+01
 Gap=     0.360 Goal=   None    Shift=    0.000
 RMSDP=1.23D-05 MaxDP=4.24D-04 DE=-2.73D-05 OVMax= 3.15D-03

 Cycle   8  Pass 0  IDiag  1:
 E= -399.872751307442     Delta-E=       -0.000009450778 Rises=F Damp=F
 DIIS: error= 3.86D-05 at cycle   8 NSaved=   8.
 NSaved= 8 IEnMin= 8 EnMin= -399.872751307442     IErMin= 8 ErrMin= 3.86D-05
 ErrMax= 3.86D-05  0.00D+00 EMaxC= 1.00D-01 BMatC= 2.80D-07 BMatP= 1.61D-06
 IDIUse=1 WtCom= 1.00D+00 WtEn= 0.00D+00
 Coeff-Com: -0.337D-03 0.233D-02 0.475D-03-0.144D-01-0.649D-01-0.140D+00
 Coeff-Com:  0.444D+00 0.772D+00
 Coeff:     -0.337D-03 0.233D-02 0.475D-03-0.144D-01-0.649D-01-0.140D+00
 Coeff:      0.444D+00 0.772D+00
 Gap=     0.360 Goal=   None    Shift=    0.000
 RMSDP=2.77D-06 MaxDP=1.10D-04 DE=-9.45D-06 OVMax= 6.74D-04

 Initial convergence to 1.0D-05 achieved.  Increase integral accuracy.
 Cycle   9  Pass 1  IDiag  1:
 E= -399.872786764103     Delta-E=       -0.000035456662 Rises=F Damp=F
 DIIS: error= 1.77D-05 at cycle   1 NSaved=   1.
 NSaved= 1 IEnMin= 1 EnMin= -399.872786764103     IErMin= 1 ErrMin= 1.77D-05
 ErrMax= 1.77D-05  0.00D+00 EMaxC= 1.00D-01 BMatC= 1.08D-07 BMatP= 1.08D-07
 IDIUse=1 WtCom= 1.00D+00 WtEn= 0.00D+00
 Coeff-Com:  0.100D+01
 Coeff:      0.100D+01
 Gap=     0.360 Goal=   None    Shift=    0.000
 RMSDP=2.77D-06 MaxDP=1.10D-04 DE=-3.55D-05 OVMax= 1.80D-04

 Cycle  10  Pass 1  IDiag  1:
 E= -399.872786880712     Delta-E=       -0.000000116609 Rises=F Damp=F
 DIIS: error= 1.14D-05 at cycle   2 NSaved=   2.
 NSaved= 2 IEnMin= 2 EnMin= -399.872786880712     IErMin= 2 ErrMin= 1.14D-05
 ErrMax= 1.14D-05  0.00D+00 EMaxC= 1.00D-01 BMatC= 2.75D-08 BMatP= 1.08D-07
 IDIUse=1 WtCom= 1.00D+00 WtEn= 0.00D+00
 Coeff-Com:  0.251D+00 0.749D+00
 Coeff:      0.251D+00 0.749D+00
 Gap=     0.360 Goal=   None    Shift=    0.000
 RMSDP=5.40D-07 MaxDP=3.85D-05 DE=-1.17D-07 OVMax= 1.13D-04

 Cycle  11  Pass 1  IDiag  1:
 E= -399.872786891518     Delta-E=       -0.000000010806 Rises=F Damp=F
 DIIS: error= 7.64D-06 at cycle   3 NSaved=   3.
 NSaved= 3 IEnMin= 3 EnMin= -399.872786891518     IErMin= 3 ErrMin= 7.64D-06
 ErrMax= 7.64D-06  0.00D+00 EMaxC= 1.00D-01 BMatC= 9.44D-09 BMatP= 2.75D-08
 IDIUse=1 WtCom= 1.00D+00 WtEn= 0.00D+00
 Coeff-Com: -0.728D-01 0.316D+00 0.757D+00
 Coeff:     -0.728D-01 0.316D+00 0.757D+00
 Gap=     0.360 Goal=   None    Shift=    0.000
 RMSDP=3.19D-07 MaxDP=1.63D-05 DE=-1.08D-08 OVMax= 6.86D-05

 Cycle  12  Pass 1  IDiag  1:
 E= -399.872786909515     Delta-E=       -0.000000017997 Rises=F Damp=F
 DIIS: error= 3.88D-06 at cycle   4 NSaved=   4.
 NSaved= 4 IEnMin= 4 EnMin= -399.872786909515     IErMin= 4 ErrMin= 3.88D-06
 ErrMax= 3.88D-06  0.00D+00 EMaxC= 1.00D-01 BMatC= 8.92D-10 BMatP= 9.44D-09
 IDIUse=1 WtCom= 1.00D+00 WtEn= 0.00D+00
 Coeff-Com: -0.287D-01-0.103D+00-0.132D+00 0.126D+01
 Coeff:     -0.287D-01-0.103D+00-0.132D+00 0.126D+01
 Gap=     0.360 Goal=   None    Shift=    0.000
 RMSDP=2.70D-07 MaxDP=1.02D-05 DE=-1.80D-08 OVMax= 7.49D-05

 Cycle  13  Pass 1  IDiag  1:
 E= -399.872786915753     Delta-E=       -0.000000006238 Rises=F Damp=F
 DIIS: error= 1.51D-06 at cycle   5 NSaved=   5.
 NSaved= 5 IEnMin= 5 EnMin= -399.872786915753     IErMin= 5 ErrMin= 1.51D-06
 ErrMax= 1.51D-06  0.00D+00 EMaxC= 1.00D-01 BMatC= 4.26D-10 BMatP= 8.92D-10
 IDIUse=1 WtCom= 1.00D+00 WtEn= 0.00D+00
 Coeff-Com:  0.128D-01-0.140D+00-0.340D+00 0.569D+00 0.898D+00
 Coeff:      0.128D-01-0.140D+00-0.340D+00 0.569D+00 0.898D+00
 Gap=     0.360 Goal=   None    Shift=    0.000
 RMSDP=1.58D-07 MaxDP=5.63D-06 DE=-6.24D-09 OVMax= 3.88D-05

 Cycle  14  Pass 1  IDiag  1:
 E= -399.872786917131     Delta-E=       -0.000000001377 Rises=F Damp=F
 DIIS: error= 3.52D-07 at cycle   6 NSaved=   6.
 NSaved= 6 IEnMin= 6 EnMin= -399.872786917131     IErMin= 6 ErrMin= 3.52D-07
 ErrMax= 3.52D-07  0.00D+00 EMaxC= 1.00D-01 BMatC= 4.01D-11 BMatP= 4.26D-10
 IDIUse=1 WtCom= 1.00D+00 WtEn= 0.00D+00
 Coeff-Com:  0.824D-02-0.519D-01-0.146D+00 0.172D+00 0.391D+00 0.627D+00
 Coeff:      0.824D-02-0.519D-01-0.146D+00 0.172D+00 0.391D+00 0.627D+00
 Gap=     0.360 Goal=   None    Shift=    0.000
 RMSDP=1.98D-08 MaxDP=1.22D-06 DE=-1.38D-09 OVMax= 5.00D-06

 Cycle  15  Pass 1  IDiag  1:
 E= -399.872786917171     Delta-E=       -0.000000000041 Rises=F Damp=F
 DIIS: error= 1.02D-07 at cycle   7 NSaved=   7.
 NSaved= 7 IEnMin= 7 EnMin= -399.872786917171     IErMin= 7 ErrMin= 1.02D-07
 ErrMax= 1.02D-07  0.00D+00 EMaxC= 1.00D-01 BMatC= 4.83D-12 BMatP= 4.01D-11
 IDIUse=1 WtCom= 1.00D+00 WtEn= 0.00D+00
 Coeff-Com:  0.200D-03 0.115D-01 0.139D-01-0.522D-01-0.529D-01 0.213D+00
 Coeff-Com:  0.866D+00
 Coeff:      0.200D-03 0.115D-01 0.139D-01-0.522D-01-0.529D-01 0.213D+00
 Coeff:      0.866D+00
 Gap=     0.360 Goal=   None    Shift=    0.000
 RMSDP=9.77D-09 MaxDP=4.30D-07 DE=-4.07D-11 OVMax= 1.97D-06

 SCF Done:  E(RLC-wPBE) =  -399.872786917     A.U. after   15 cycles
            NFock= 15  Conv=0.98D-08     -V/T= 2.0041
 KE= 3.982440937215D+02 PE=-1.649378305275D+03 EE= 4.944075231463D+02
 Leave Link  502 at Fri Aug 27 00:54:49 2021, MaxMem= 17179869184 cpu:       454.6
 (Enter /public3/home/sc51754/softwares/g09e01/l601.exe)
 Copying SCF densities to generalized density rwf, IOpCl= 0 IROHF=0.

 **********************************************************************

            Population analysis using the SCF density.

 **********************************************************************

 Orbital symmetries:
       Occupied  (A) (A) (A) (A) (A) (A) (A) (A) (A) (A) (A) (A)
                 (A) (A) (A) (A) (A) (A) (A) (A) (A) (A) (A) (A)
                 (A) (A) (A) (A) (A) (A)
       Virtual   (A) (A) (A) (A) (A) (A) (A) (A) (A) (A) (A) (A)
                 (A) (A) (A) (A) (A) (A) (A) (A) (A) (A) (A) (A)
                 (A) (A) (A) (A) (A) (A) (A) (A) (A) (A) (A) (A)
                 (A) (A) (A) (A) (A) (A) (A) (A) (A) (A) (A) (A)
                 (A) (A) (A) (A) (A) (A) (A) (A) (A) (A) (A) (A)
                 (A) (A) (A) (A) (A) (A) (A) (A) (A) (A) (A) (A)
                 (A) (A) (A) (A) (A) (A) (A) (A) (A) (A) (A) (A)
                 (A) (A) (A) (A) (A) (A) (A) (A) (A) (A) (A) (A)
                 (A) (A) (A) (A) (A) (A) (A) (A) (A) (A) (A) (A)
                 (A) (A) (A) (A) (A) (A) (A) (A) (A) (A) (A) (A)
                 (A) (A) (A) (A) (A) (A) (A) (A) (A) (A) (A) (A)
                 (A) (A) (A) (A) (A) (A) (A) (A) (A) (A) (A) (A)
                 (A) (A) (A) (A) (A) (A) (A) (A) (A) (A) (A) (A)
                 (A) (A) (A) (A) (A) (A) (A) (A) (A) (A) (A) (A)
                 (A) (A) (A) (A) (A) (A) (A) (A) (A) (A) (A) (A)
                 (A) (A) (A) (A) (A) (A) (A) (A) (A) (A) (A) (A)
                 (A) (A) (A) (A) (A) (A) (A) (A) (A) (A) (A) (A)
                 (A) (A) (A) (A) (A) (A) (A) (A) (A) (A) (A) (A)
                 (A) (A) (A) (A) (A) (A) (A) (A) (A) (A) (A) (A)
                 (A) (A) (A) (A) (A) (A) (A) (A) (A) (A) (A) (A)
                 (A) (A) (A) (A) (A) (A) (A) (A) (A) (A) (A) (A)
                 (A) (A) (A) (A) (A) (A) (A) (A) (A) (A) (A) (A)
                 (A) (A) (A) (A) (A) (A) (A) (A) (A) (A) (A) (A)
                 (A) (A) (A) (A) (A) (A) (A) (A) (A) (A) (A) (A)
                 (A) (A) (A) (A) (A) (A) (A) (A) (A) (A) (A) (A)
                 (A) (A) (A) (A) (A) (A) (A) (A)
 The electronic state is 1-A.
 Alpha  occ. eigenvalues --  -18.95162 -18.92934 -14.26403 -10.22270 -10.18004
 Alpha  occ. eigenvalues --  -10.14597 -10.12326 -10.12152  -1.18291  -1.12720
 Alpha  occ. eigenvalues --   -1.10436  -0.97622  -0.91069  -0.80217  -0.78155
 Alpha  occ. eigenvalues --   -0.70157  -0.65947  -0.64106  -0.61580  -0.59577
 Alpha  occ. eigenvalues --   -0.58819  -0.56306  -0.51671  -0.51089  -0.49432
 Alpha  occ. eigenvalues --   -0.48079  -0.43510  -0.43113  -0.38599  -0.33266
 Alpha virt. eigenvalues --    0.02717   0.08019   0.08589   0.10028   0.10971
 Alpha virt. eigenvalues --    0.12433   0.14230   0.18050   0.20135   0.21632
 Alpha virt. eigenvalues --    0.22454   0.23704   0.24609   0.26172   0.27140
 Alpha virt. eigenvalues --    0.27530   0.28804   0.30164   0.30971   0.33685
 Alpha virt. eigenvalues --    0.35098   0.36072   0.36599   0.37199   0.37583
 Alpha virt. eigenvalues --    0.38396   0.39687   0.40741   0.42852   0.43910
 Alpha virt. eigenvalues --    0.44706   0.45635   0.46723   0.48753   0.49433
 Alpha virt. eigenvalues --    0.51174   0.51904   0.54346   0.55753   0.58205
 Alpha virt. eigenvalues --    0.59042   0.61425   0.62262   0.64387   0.65705
 Alpha virt. eigenvalues --    0.66674   0.69705   0.72551   0.73353   0.73580
 Alpha virt. eigenvalues --    0.76613   0.77622   0.81493   0.84589   0.86245
 Alpha virt. eigenvalues --    0.86866   0.88983   0.91515   0.92109   0.95375
 Alpha virt. eigenvalues --    0.97600   1.00179   1.02371   1.02955   1.03282
 Alpha virt. eigenvalues --    1.05792   1.08829   1.10672   1.12157   1.15251
 Alpha virt. eigenvalues --    1.17318   1.18157   1.20302   1.21683   1.23431
 Alpha virt. eigenvalues --    1.24807   1.25820   1.27547   1.28110   1.29388
 Alpha virt. eigenvalues --    1.31218   1.33206   1.34863   1.35785   1.36399
 Alpha virt. eigenvalues --    1.37814   1.39248   1.43076   1.44638   1.49255
 Alpha virt. eigenvalues --    1.50704   1.51727   1.53063   1.55480   1.56958
 Alpha virt. eigenvalues --    1.58221   1.58945   1.59731   1.61397   1.63901
 Alpha virt. eigenvalues --    1.67326   1.69575   1.71566   1.75926   1.76115
 Alpha virt. eigenvalues --    1.77167   1.79266   1.79404   1.83817   1.84105
 Alpha virt. eigenvalues --    1.89327   1.89974   1.91989   1.96560   1.97196
 Alpha virt. eigenvalues --    1.99404   2.00074   2.01617   2.03806   2.07349
 Alpha virt. eigenvalues --    2.11493   2.12325   2.13215   2.17004   2.17301
 Alpha virt. eigenvalues --    2.20853   2.23025   2.25993   2.27313   2.31716
 Alpha virt. eigenvalues --    2.32084   2.32758   2.34909   2.37944   2.41233
 Alpha virt. eigenvalues --    2.42807   2.52418   2.59990   2.63473   2.72956
 Alpha virt. eigenvalues --    2.78788   2.96580   2.99584   3.02383   3.04762
 Alpha virt. eigenvalues --    3.05011   3.11459   3.27416   3.28625   3.30836
 Alpha virt. eigenvalues --    3.32421   3.34386   3.35162   3.38854   3.41436
 Alpha virt. eigenvalues --    3.42458   3.45725   3.48422   3.51917   3.52794
 Alpha virt. eigenvalues --    3.55792   3.57273   3.60837   3.64685   3.65455
 Alpha virt. eigenvalues --    3.67096   3.69148   3.73398   3.74317   3.76148
 Alpha virt. eigenvalues --    3.77509   3.78026   3.81568   3.81834   3.86122
 Alpha virt. eigenvalues --    3.89741   3.94099   3.96909   4.00253   4.00386
 Alpha virt. eigenvalues --    4.03425   4.04644   4.05556   4.06829   4.09581
 Alpha virt. eigenvalues --    4.12664   4.14082   4.15681   4.17349   4.18086
 Alpha virt. eigenvalues --    4.19380   4.20437   4.23212   4.24195   4.25889
 Alpha virt. eigenvalues --    4.27328   4.28011   4.30920   4.31223   4.32492
 Alpha virt. eigenvalues --    4.34031   4.35003   4.36590   4.37533   4.39191
 Alpha virt. eigenvalues --    4.39593   4.42098   4.42602   4.43779   4.44371
 Alpha virt. eigenvalues --    4.45941   4.47566   4.50454   4.51931   4.54258
 Alpha virt. eigenvalues --    4.55745   4.57039   4.57492   4.58469   4.59522
 Alpha virt. eigenvalues --    4.61246   4.62166   4.64718   4.65329   4.68342
 Alpha virt. eigenvalues --    4.69231   4.69382   4.73290   4.73502   4.76639
 Alpha virt. eigenvalues --    4.79353   4.80685   4.82726   4.88337   4.92797
 Alpha virt. eigenvalues --    4.94108   4.96508   4.97932   4.99456   5.01972
 Alpha virt. eigenvalues --    5.02559   5.05163   5.05966   5.07186   5.08869
 Alpha virt. eigenvalues --    5.12655   5.16695   5.19232   5.24018   5.28404
 Alpha virt. eigenvalues --    5.30056   5.34328   5.35903   5.41123   5.41976
 Alpha virt. eigenvalues --    5.43794   5.45044   5.48947   5.50757   5.52474
 Alpha virt. eigenvalues --    5.56827   5.57816   5.64316   5.66347   5.68139
 Alpha virt. eigenvalues --    5.68996   5.73843   5.78629   5.80844   5.82988
 Alpha virt. eigenvalues --    5.86122   5.90969   5.95496   6.01346   6.05308
 Alpha virt. eigenvalues --    6.06140   6.07441   6.13544   6.18954   6.19688
 Alpha virt. eigenvalues --    6.21676   6.24418   6.30939   6.34021   6.37017
 Alpha virt. eigenvalues --    6.39301   6.43103   6.47033   6.52741   6.60464
 Alpha virt. eigenvalues --    6.61505   6.62731   6.70800   6.88287   6.99008
 Alpha virt. eigenvalues --    7.04629   7.08622   7.20409   7.32810   7.51100
 Alpha virt. eigenvalues --    9.58470  12.36861  13.22937  14.77031  15.45641
 Alpha virt. eigenvalues --   17.99772  18.34793  22.72789
          Condensed to atoms (all electrons):
               1          2          3          4          5          6
     1  O    8.114103  -0.101702   0.569280  -0.066689   0.008663   0.005800
     2  N   -0.101702   6.351409   0.386651  -0.044496   0.392370  -0.014110
     3  C    0.569280   0.386651   4.284008   0.459327  -0.040497  -0.045880
     4  C   -0.066689  -0.044496   0.459327   4.901209  -0.027664   0.569277
     5  C    0.008663   0.392370  -0.040497  -0.027664   4.563638  -0.083038
     6  C    0.005800  -0.014110  -0.045880   0.569277  -0.083038   4.691695
     7  C    0.001228  -0.059308  -0.021867  -0.069988   0.619125   0.455971
     8  H    0.033375   0.002008  -0.002823   0.000495   0.001766  -0.000201
     9  H    0.003200   0.004422  -0.029181   0.442898  -0.000399  -0.029838
    10  H   -0.000487  -0.032789   0.001943  -0.002622   0.428090   0.005581
    11  H   -0.000307  -0.001772   0.005272  -0.027310   0.006317   0.427824
    12  H    0.000014   0.004722  -0.000906   0.004266  -0.024481  -0.027678
    13  O   -0.036167  -0.031296  -0.001015  -0.000101  -0.004213   0.000127
    14  H    0.002420   0.000509   0.000629   0.000082  -0.000050  -0.000010
    15  H    0.000506   0.398380  -0.021224   0.005253  -0.021370  -0.002163
               7          8          9         10         11         12
     1  O    0.001228   0.033375   0.003200  -0.000487  -0.000307   0.000014
     2  N   -0.059308   0.002008   0.004422  -0.032789  -0.001772   0.004722
     3  C   -0.021867  -0.002823  -0.029181   0.001943   0.005272  -0.000906
     4  C   -0.069988   0.000495   0.442898  -0.002622  -0.027310   0.004266
     5  C    0.619125   0.001766  -0.000399   0.428090   0.006317  -0.024481
     6  C    0.455971  -0.000201  -0.029838   0.005581   0.427824  -0.027678
     7  C    4.862853  -0.000048   0.004374  -0.031757  -0.035011   0.438296
     8  H   -0.000048   0.398830   0.000159   0.000154   0.000001  -0.000009
     9  H    0.004374   0.000159   0.548416   0.000184  -0.005222  -0.000102
    10  H   -0.031757   0.000154   0.000184   0.567457  -0.000222  -0.002436
    11  H   -0.035011   0.000001  -0.005222  -0.000222   0.569470  -0.004757
    12  H    0.438296  -0.000009  -0.000102  -0.002436  -0.004757   0.561769
    13  O   -0.000185   0.353053   0.000009  -0.000820  -0.000001   0.000016
    14  H    0.000023  -0.021191  -0.000003  -0.000027   0.000000   0.000000
    15  H    0.004073  -0.008485  -0.000341  -0.007005   0.000118   0.000010
              13         14         15
     1  O   -0.036167   0.002420   0.000506
     2  N   -0.031296   0.000509   0.398380
     3  C   -0.001015   0.000629  -0.021224
     4  C   -0.000101   0.000082   0.005253
     5  C   -0.004213  -0.000050  -0.021370
     6  C    0.000127  -0.000010  -0.002163
     7  C   -0.000185   0.000023   0.004073
     8  H    0.353053  -0.021191  -0.008485
     9  H    0.000009  -0.000003  -0.000341
    10  H   -0.000820  -0.000027  -0.007005
    11  H   -0.000001   0.000000   0.000118
    12  H    0.000016   0.000000   0.000010
    13  O    7.785893   0.357175   0.051746
    14  H    0.357175   0.445363  -0.003068
    15  H    0.051746  -0.003068   0.428187
 Mulliken charges:
               1
     1  O   -0.533236
     2  N   -0.254998
     3  C    0.456284
     4  C   -0.143938
     5  C    0.181743
     6  C    0.046644
     7  C   -0.167780
     8  H    0.242914
     9  H    0.061424
    10  H    0.074756
    11  H    0.065601
    12  H    0.051275
    13  O   -0.474221
    14  H    0.218148
    15  H    0.175383
 Sum of Mulliken charges =  -0.00000
 Mulliken charges with hydrogens summed into heavy atoms:
               1
     1  O   -0.533236
     2  N   -0.079615
     3  C    0.456284
     4  C   -0.082514
     5  C    0.256499
     6  C    0.112245
     7  C   -0.116505
    13  O   -0.013158
 Electronic spatial extent (au):  <R**2>=           1079.2861
 Charge=             -0.0000 electrons
 Dipole moment (field-independent basis, Debye):
    X=             -2.5229    Y=             -2.2090    Z=              1.1513  Tot=              3.5455
 Quadrupole moment (field-independent basis, Debye-Ang):
   XX=            -40.9313   YY=            -45.3252   ZZ=            -49.5924
   XY=             -2.2170   XZ=              4.8888   YZ=             -0.9076
 Traceless Quadrupole moment (field-independent basis, Debye-Ang):
   XX=              4.3516   YY=             -0.0422   ZZ=             -4.3094
   XY=             -2.2170   XZ=              4.8888   YZ=             -0.9076
 Octapole moment (field-independent basis, Debye-Ang**2):
  XXX=             22.1134  YYY=            -12.6489  ZZZ=              0.8103  XYY=             -7.1376
  XXY=              0.7667  XXZ=             19.2163  XZZ=             11.2085  YZZ=              0.6056
  YYZ=              0.6404  XYZ=             -3.3858
 Hexadecapole moment (field-independent basis, Debye-Ang**3):
 XXXX=           -753.8114 YYYY=           -345.9182 ZZZZ=            -52.9395 XXXY=             -5.6011
 XXXZ=             77.9288 YYYX=            -13.3250 YYYZ=             -0.9336 ZZZX=              3.8477
 ZZZY=             -0.6126 XXYY=           -218.6419 XXZZ=           -174.3416 YYZZ=            -76.9816
 XXYZ=            -13.0175 YYXZ=              2.9261 ZZXY=             -2.3209
 N-N= 3.568539014902D+02 E-N=-1.649378309174D+03  KE= 3.982440937215D+02
 No NMR shielding tensors so no spin-rotation constants.
 Leave Link  601 at Fri Aug 27 00:54:51 2021, MaxMem= 17179869184 cpu:        53.6
 (Enter /public3/home/sc51754/softwares/g09e01/l701.exe)
 Compute integral first derivatives.
 ... and contract with generalized density number  0.
 Leave Link  701 at Fri Aug 27 00:54:52 2021, MaxMem= 17179869184 cpu:        82.9
 (Enter /public3/home/sc51754/softwares/g09e01/l702.exe)
 L702 exits ... SP integral derivatives will be done elsewhere.
 Leave Link  702 at Fri Aug 27 00:54:52 2021, MaxMem= 17179869184 cpu:         0.2
 (Enter /public3/home/sc51754/softwares/g09e01/l703.exe)
 Compute integral first derivatives, UseDBF=F ICtDFT=           0.
 Integral derivatives from FoFJK, PRISM(SPDF).
 Calling FoFJK, ICntrl=      2127 FMM=F ISym2X=0 I1Cent= 0 IOpClX= 0 NMat=1 NMatS=1 NMatT=0.
 FoFJK:  IHMeth= 1 ICntrl=    2127 DoSepK=T KAlg= 0 I1Cent=   0 FoldK=F
 IRaf=         1 NMat=   1 IRICut=       1 DoRegI=T DoRafI=F ISym2E= 0.
 FoFCou: FMM=F IPFlag=           0 FMFlag=      100000 FMFlg1=         800
         NFxFlg=           0 DoJE=F BraDBF=F KetDBF=F FulRan=T
         wScrn=  0.000000 ICntrl=    2527 IOpCl=  0 I1Cent=           0 NGrid=           0
         NMat0=    1 NMatS0=      1 NMatT0=    0 NMatD0=    1 NMtDS0=    0 NMtDT0=    0
 Symmetry not used in FoFCou.
 Leave Link  703 at Fri Aug 27 00:54:58 2021, MaxMem= 17179869184 cpu:       333.3
 (Enter /public3/home/sc51754/softwares/g09e01/l716.exe)
 Dipole        =-9.92604025D-01-8.69103652D-01 4.52945069D-01
 ***** Axes restored to original set *****
 -------------------------------------------------------------------
 Center     Atomic                   Forces (Hartrees/Bohr)
 Number     Number              X              Y              Z
 -------------------------------------------------------------------
      1        8          -0.010394955   -0.007099520    0.000199401
      2        7          -0.002626076    0.007929778    0.000051060
      3        6           0.006814468   -0.005170309    0.000008057
      4        6          -0.007330712   -0.008071387   -0.000072057
      5        6          -0.007674384    0.010712403   -0.000036153
      6        6           0.012315456    0.004209714    0.000064169
      7        6           0.010952906   -0.003154409    0.000039783
      8        1           0.000576836   -0.002430820   -0.000638159
      9        1          -0.000052538    0.000678560   -0.000006917
     10        1           0.000196273   -0.000895187   -0.000004009
     11        1          -0.000386692    0.000579567    0.000000828
     12        1          -0.000615162   -0.000586949   -0.000001218
     13        8           0.000327046    0.002659182    0.002632895
     14        1          -0.002055230   -0.000109832   -0.001994769
     15        1          -0.000047237    0.000749210   -0.000242911
 -------------------------------------------------------------------
 Cartesian Forces:  Max     0.012315456 RMS     0.004534841
 Leave Link  716 at Fri Aug 27 00:54:58 2021, MaxMem= 17179869184 cpu:         0.3
 (Enter /public3/home/sc51754/softwares/g09e01/l103.exe)

 GradGradGradGradGradGradGradGradGradGradGradGradGradGradGradGradGradGrad
 Berny optimization.
 FormGI is forming the generalized inverse of G from B-inverse, IUseBI=4.
 Internal  Forces:  Max     0.013091104 RMS     0.003096398
 Search for a local minimum.
 Step number   1 out of a maximum of   83
 All quantities printed in internal units (Hartrees-Bohrs-Radians)
 RMS Force = .30964D-02 SwitMx=.10000D-02 MixMth= 1
 Mixed Optimization -- RFO/linear search
 Second derivative matrix not updated -- first step.
 ITU=  0
     Eigenvalues ---    0.00646   0.00900   0.01671   0.02019   0.02045
     Eigenvalues ---    0.02138   0.02190   0.02305   0.02392   0.02435
     Eigenvalues ---    0.02516   0.04986   0.06334   0.06909   0.09520
     Eigenvalues ---    0.16000   0.16000   0.16000   0.16000   0.19047
     Eigenvalues ---    0.20437   0.21968   0.22000   0.22256   0.23654
     Eigenvalues ---    0.35693   0.35983   0.36053   0.36229   0.38136
     Eigenvalues ---    0.40185   0.42590   0.44184   0.49041   0.49982
     Eigenvalues ---    0.52121   0.53321   0.55542   0.84771
 RFO step:  Lambda=-1.31497158D-03 EMin= 6.46442552D-03
 Linear search not attempted -- first point.
 Iteration  1 RMS(Cart)=  0.00931410 RMS(Int)=  0.00001070
 Iteration  2 RMS(Cart)=  0.00001041 RMS(Int)=  0.00000354
 Iteration  3 RMS(Cart)=  0.00000000 RMS(Int)=  0.00000354
 ITry= 1 IFail=0 DXMaxC= 2.55D-02 DCOld= 1.00D+10 DXMaxT= 3.00D-01 DXLimC= 3.00D+00 Rises=F
 Variable       Old X    -DE/DX   Delta X   Delta X   Delta X     New X
                                 (Linear)    (Quad)   (Total)
    R1        2.33752  -0.01191   0.00000  -0.01432  -0.01432   2.32320
    R2        3.44231  -0.00056   0.00000  -0.01102  -0.01103   3.43128
    R3        2.63700  -0.01153   0.00000  -0.02612  -0.02611   2.61089
    R4        2.56181  -0.00526   0.00000  -0.00995  -0.00995   2.55186
    R5        1.92716  -0.00113   0.00000  -0.00190  -0.00189   1.92527
    R6        2.72061  -0.00351   0.00000  -0.00878  -0.00878   2.71183
    R7        2.57451  -0.01309   0.00000  -0.02467  -0.02467   2.54983
    R8        2.03999   0.00068   0.00000   0.00188   0.00188   2.04187
    R9        2.56943  -0.01267   0.00000  -0.02389  -0.02389   2.54554
   R10        2.04108   0.00092   0.00000   0.00254   0.00254   2.04362
   R11        2.67927  -0.00235   0.00000  -0.00524  -0.00524   2.67403
   R12        2.04565   0.00059   0.00000   0.00165   0.00165   2.04729
   R13        2.03725   0.00084   0.00000   0.00232   0.00232   2.03957
   R14        1.85494  -0.00340   0.00000  -0.00612  -0.00612   1.84882
   R15        1.81354  -0.00286   0.00000  -0.00513  -0.00513   1.80840
   R16        3.72662  -0.00145   0.00000  -0.01734  -0.01734   3.70928
    A1        1.92766   0.00203   0.00000   0.00204   0.00204   1.92970
    A2        2.17565  -0.00048   0.00000  -0.00275  -0.00275   2.17290
    A3        2.00244   0.00065   0.00000   0.00204   0.00204   2.00447
    A4        2.10509  -0.00018   0.00000   0.00072   0.00071   2.10580
    A5        2.09773   0.00118   0.00000  -0.00044  -0.00043   2.09730
    A6        2.19333  -0.00155   0.00000  -0.00295  -0.00295   2.19038
    A7        1.99213   0.00037   0.00000   0.00338   0.00338   1.99551
    A8        2.11557  -0.00071   0.00000  -0.00321  -0.00321   2.11236
    A9        2.03563   0.00036   0.00000   0.00165   0.00165   2.03727
   A10        2.13199   0.00035   0.00000   0.00156   0.00156   2.13355
   A11        2.10801   0.00122   0.00000   0.00432   0.00432   2.11233
   A12        2.02357  -0.00065   0.00000  -0.00238  -0.00238   2.02119
   A13        2.15160  -0.00057   0.00000  -0.00194  -0.00194   2.14966
   A14        2.11704   0.00049   0.00000   0.00255   0.00255   2.11958
   A15        2.08601  -0.00062   0.00000  -0.00360  -0.00360   2.08242
   A16        2.08014   0.00013   0.00000   0.00105   0.00105   2.08119
   A17        2.05796  -0.00089   0.00000  -0.00428  -0.00429   2.05367
   A18        2.10191   0.00034   0.00000   0.00146   0.00147   2.10338
   A19        2.12331   0.00055   0.00000   0.00282   0.00282   2.12613
   A20        2.65557  -0.00113   0.00000  -0.00084  -0.00086   2.65471
   A21        1.86229   0.00106   0.00000   0.00199   0.00200   1.86429
   A22        1.36782  -0.00226   0.00000  -0.00345  -0.00346   1.36436
   A23        2.34644   0.00035   0.00000   0.00196   0.00196   2.34840
   A24        2.50984  -0.00049   0.00000   0.00096   0.00096   2.51081
    D1        0.03186   0.00014   0.00000   0.00162   0.00162   0.03348
    D2       -3.10924   0.00011   0.00000   0.00178   0.00178  -3.10746
    D3        0.03871  -0.00001   0.00000  -0.00903  -0.00903   0.02968
    D4       -3.13629  -0.00004   0.00000   0.00013   0.00013  -3.13616
    D5        0.00485  -0.00001   0.00000  -0.00001  -0.00001   0.00484
    D6        0.00787  -0.00002   0.00000  -0.00043  -0.00042   0.00744
    D7       -3.13417   0.00001   0.00000  -0.00057  -0.00057  -3.13474
    D8       -0.00292   0.00002   0.00000   0.00005   0.00005  -0.00286
    D9        3.13789   0.00001   0.00000  -0.00026  -0.00026   3.13763
   D10        3.13597  -0.00001   0.00000   0.00064   0.00064   3.13661
   D11       -0.00641  -0.00002   0.00000   0.00033   0.00033  -0.00608
   D12       -0.10803  -0.00016   0.00000   0.00059   0.00059  -0.10744
   D13        3.03601  -0.00014   0.00000   0.00006   0.00006   3.03608
   D14        3.13723   0.00003   0.00000  -0.00004  -0.00004   3.13719
   D15       -0.00200   0.00002   0.00000  -0.00007  -0.00007  -0.00207
   D16       -0.00389  -0.00000   0.00000   0.00011   0.00011  -0.00378
   D17        3.14007  -0.00001   0.00000   0.00008   0.00008   3.14015
   D18        0.00117   0.00000   0.00000  -0.00026  -0.00026   0.00090
   D19       -3.13978  -0.00000   0.00000  -0.00010  -0.00010  -3.13988
   D20        3.14027   0.00001   0.00000  -0.00024  -0.00024   3.14003
   D21       -0.00068   0.00000   0.00000  -0.00007  -0.00007  -0.00075
   D22       -0.00027  -0.00002   0.00000  -0.00018  -0.00018  -0.00045
   D23        3.14059  -0.00001   0.00000  -0.00006  -0.00006   3.14053
   D24       -3.14103  -0.00000   0.00000   0.00016   0.00016  -3.14087
   D25       -0.00016   0.00000   0.00000   0.00027   0.00027   0.00011
   D26        0.00106   0.00000   0.00000   0.00028   0.00028   0.00134
   D27       -3.13980  -0.00001   0.00000   0.00016   0.00016  -3.13963
   D28       -3.14118   0.00001   0.00000   0.00011   0.00011  -3.14106
   D29        0.00115  -0.00000   0.00000  -0.00000  -0.00000   0.00115
   D30       -2.40197   0.00012   0.00000   0.00651   0.00651  -2.39546
   D31       -0.07714  -0.00001   0.00000   0.00780   0.00779  -0.06935
   D32        0.12809   0.00014   0.00000  -0.00332  -0.00332   0.12476
   D33        1.90956  -0.00054   0.00000  -0.00383  -0.00384   1.90571
         Item               Value     Threshold  Converged?
 Maximum Force            0.013091     0.000450     NO 
 RMS     Force            0.003096     0.000300     NO 
 Maximum Displacement     0.025490     0.001800     NO 
 RMS     Displacement     0.009319     0.001200     NO 
 Predicted change in Energy=-6.596067D-04
 Lowest energy point so far.  Saving SCF results.
 GradGradGradGradGradGradGradGradGradGradGradGradGradGradGradGradGradGrad

 Leave Link  103 at Fri Aug 27 00:54:59 2021, MaxMem= 17179869184 cpu:        30.6
 (Enter /public3/home/sc51754/softwares/g09e01/l202.exe)
                          Input orientation:                          
 ---------------------------------------------------------------------
 Center     Atomic      Atomic             Coordinates (Angstroms)
 Number     Number       Type             X           Y           Z
 ---------------------------------------------------------------------
      1          8           0        1.250732    1.376782    0.006084
      2          7           0        0.247328   -0.653119    0.012088
      3          6           0        0.206543    0.727891    0.006481
      4          6           0       -1.117881    1.280341    0.000716
      5          6           0       -0.842488   -1.450496    0.006940
      6          6           0       -2.204925    0.480986   -0.003397
      7          6           0       -2.084421   -0.928906   -0.001108
      8          1           0        2.689362    0.270044   -0.043369
      9          1           0       -1.194843    2.358101   -0.002392
     10          1           0       -0.647547   -2.514218    0.008637
     11          1           0       -3.191855    0.927806   -0.009330
     12          1           0       -2.949712   -1.573982   -0.006168
     13          8           0        3.095159   -0.619206   -0.085014
     14          1           0        3.820486   -0.622040    0.539226
     15          1           0        1.184015   -1.053719    0.022541
 ---------------------------------------------------------------------
                    Distance matrix (angstroms):
                    1          2          3          4          5
     1  O    0.000000
     2  N    2.264366   0.000000
     3  C    1.229386   1.381623   0.000000
     4  C    2.370582   2.366894   1.435037   0.000000
     5  C    3.517822   1.350384   2.417817   2.744694   0.000000
     6  C    3.569889   2.701847   2.424095   1.349314   2.363675
     7  C    4.054564   2.348038   2.827286   2.411425   1.347040
     8  H    1.815756   2.611290   2.525174   3.939257   3.928964
     9  H    2.635127   3.338789   2.149778   1.080510   3.824873
    10  H    4.329359   2.065067   3.352722   3.823604   1.081439
    11  H    4.465243   3.785203   3.404310   2.103747   3.343069
    12  H    5.133312   3.327069   3.906498   3.391579   2.110880
    13  O    2.719224   2.849688   3.188596   4.622265   4.025489
    14  H    3.298964   3.611966   3.894447   5.319447   4.765816
    15  H    2.431472   1.018810   2.032202   3.278267   2.065040
                    6          7          8          9         10
     6  C    0.000000
     7  C    1.415034   0.000000
     8  H    4.898994   4.922222   0.000000
     9  H    2.131626   3.405256   4.410069   0.000000
    10  H    3.375917   2.139606   4.346238   4.902973   0.000000
    11  H    1.083382   2.161911   5.917983   2.456390   4.280346
    12  H    2.185774   1.079295   5.933041   4.305910   2.486811
    13  O    5.413683   5.189508   0.978351   5.222576   4.196151
    14  H    6.149527   5.937512   1.553922   5.859020   4.881104
    15  H    3.720337   3.270903   2.005683   4.159339   2.342620
                   11         12         13         14         15
    11  H    0.000000
    12  H    2.513482   0.000000
    13  O    6.474992   6.120317   0.000000
    14  H    7.202490   6.858515   0.956966   0.000000
    15  H    4.803717   4.166437   1.962865   2.721082   0.000000
 Stoichiometry    C5H7NO2
 Framework group  C1[X(C5H7NO2)]
 Deg. of freedom    39
 Full point group                 C1      NOp   1
 RotChk:  IX=0 Diff= 2.08D-03
 Largest Abelian subgroup         C1      NOp   1
 Largest concise Abelian subgroup C1      NOp   1
                         Standard orientation:                         
 ---------------------------------------------------------------------
 Center     Atomic      Atomic             Coordinates (Angstroms)
 Number     Number       Type             X           Y           Z
 ---------------------------------------------------------------------
      1          8           0        1.249545    1.379631    0.005749
      2          7           0        0.249134   -0.651747    0.011753
      3          6           0        0.206313    0.729202    0.006146
      4          6           0       -1.118923    1.279698    0.000380
      5          6           0       -0.839506   -1.450729    0.006605
      6          6           0       -2.204788    0.478742   -0.003732
      7          6           0       -2.082206   -0.930970   -0.001443
      8          1           0        2.689805    0.275015   -0.043705
      9          1           0       -1.197473    2.357345   -0.002727
     10          1           0       -0.642997   -2.514163    0.008301
     11          1           0       -3.192376    0.924108   -0.009665
     12          1           0       -2.946546   -1.577321   -0.006503
     13          8           0        3.096912   -0.613637   -0.085349
     14          1           0        3.822242   -0.615402    0.538890
     15          1           0        1.186410   -1.050966    0.022205
 ---------------------------------------------------------------------
 Rotational constants (GHZ):      4.0723125      1.4102882      1.0492644
 Leave Link  202 at Fri Aug 27 00:54:59 2021, MaxMem= 17179869184 cpu:         5.4
 (Enter /public3/home/sc51754/softwares/g09e01/l301.exe)
 Basis read from rwf:  (5D, 7F)
 No pseudopotential information found on rwf file.
 There are   385 symmetry adapted cartesian basis functions of A   symmetry.
 There are   338 symmetry adapted basis functions of A   symmetry.
   338 basis functions,   566 primitive gaussians,   385 cartesian basis functions
    30 alpha electrons       30 beta electrons
       nuclear repulsion energy       358.7203502149 Hartrees.
 IExCor=32609 DFT=T Ex+Corr=LC-wPBE ExCW=0 ScaHFX=  1.000000
 ScaDFX=  1.000000  0.000000  1.000000  1.000000 ScalE2=  1.000000  1.000000
 IRadAn=      0 IRanWt=     -1 IRanGd=            0 ICorTp=0 IEmpDi=  4
  HFx wShort=  0.000000 wLong=  0.400000 cFull=  0.000000 cShort=  0.000000 cLong=  1.000000
  DFx wShort=  0.000000 wLong=  0.400000 cFull=  0.000000 cShort=  0.000000 cLong=  1.000000
 NAtoms=   15 NActive=   15 NUniq=   15 SFac= 1.00D+00 NAtFMM=   60 NAOKFM=F Big=F
 Integral buffers will be    131072 words long.
 Raffenetti 2 integral format.
 Two-electron integral symmetry is turned on.
 No density basis found on file   724.
 Leave Link  301 at Fri Aug 27 00:54:59 2021, MaxMem= 17179869184 cpu:         2.6
 (Enter /public3/home/sc51754/softwares/g09e01/l302.exe)
 NPDir=0 NMtPBC=     1 NCelOv=     1 NCel=       1 NClECP=     1 NCelD=      1
         NCelK=      1 NCelE2=     1 NClLst=     1 CellRange=     0.0.
 One-electron integrals computed using PRISM.
 NBasis=   338 RedAO= T EigKep=  1.52D-04  NBF=   338
 NBsUse=   338 1.00D-06 EigRej= -1.00D+00 NBFU=   338
 Precomputing XC quadrature grid using
 IXCGrd= 4 IRadAn=           0 IRanWt=          -1 IRanGd=           0 AccXCQ= 0.00D+00.
 Generated NRdTot=       0 NPtTot=           0 NUsed=           0 NTot=          32
 NSgBfM=   385   385   385   385   385 MxSgAt=    15 MxSgA2=    15.
 Leave Link  302 at Fri Aug 27 00:55:00 2021, MaxMem= 17179869184 cpu:        49.2
 (Enter /public3/home/sc51754/softwares/g09e01/l303.exe)
 DipDrv:  MaxL=1.
 Leave Link  303 at Fri Aug 27 00:55:00 2021, MaxMem= 17179869184 cpu:        10.6
 (Enter /public3/home/sc51754/softwares/g09e01/l401.exe)
 Initial guess from the checkpoint file:  "PY_H2O_LC-wPBE_PC2_OPT_FREQ.chk"
 B after Tr=     0.000000    0.000000   -0.000000
         Rot=    1.000000   -0.000022    0.000047   -0.000703 Ang=  -0.08 deg.
 Guess basis will be translated and rotated to current coordinates.
 JPrj=2 DoOrth=T DoCkMO=T.
 Generating alternative initial guess.
 ExpMin= 7.41D-02 ExpMax= 1.48D+04 ExpMxC= 5.05D+02 IAcc=2 IRadAn=         4 AccDes= 0.00D+00
 Harris functional with IExCor=32609 and IRadAn=       4 diagonalized for initial guess.
 HarFok:  IExCor=32609 AccDes= 0.00D+00 IRadAn=         4 IDoV= 1 UseB2=F ITyADJ=14
 ICtDFT=  3500011 ScaDFX=  1.000000  1.000000  1.000000  1.000000
 FoFCou: FMM=F IPFlag=           0 FMFlag=      100000 FMFlg1=           0
         NFxFlg=           0 DoJE=T BraDBF=F KetDBF=T FulRan=T
         wScrn=  0.000000 ICntrl=     500 IOpCl=  0 I1Cent=   200000004 NGrid=           0
         NMat0=    1 NMatS0=      1 NMatT0=    0 NMatD0=    1 NMtDS0=    0 NMtDT0=    0
 Petite list used in FoFCou.
 Harris En= -399.878482151382    
 Leave Link  401 at Fri Aug 27 00:55:02 2021, MaxMem= 17179869184 cpu:        79.3
 (Enter /public3/home/sc51754/softwares/g09e01/l502.exe)
 Closed shell SCF:
 Using DIIS extrapolation, IDIIS=  1040.
 Integral symmetry usage will be decided dynamically.
 Keep R1 ints in memory in canonical form, NReq=3311562672.
 IVT=      490665 IEndB=      490665 NGot= 17179869184 MDV= 13897062548
 LenX= 13897062548 LenY= 13896913882
 Requested convergence on RMS density matrix=1.00D-08 within 128 cycles.
 Requested convergence on MAX density matrix=1.00D-06.
 Requested convergence on             energy=1.00D-06.
 No special actions if energy rises.
 FoFCou: FMM=F IPFlag=           0 FMFlag=           0 FMFlg1=           0
         NFxFlg=           0 DoJE=F BraDBF=F KetDBF=F FulRan=T
         wScrn=  0.000000 ICntrl=     600 IOpCl=  0 I1Cent=           0 NGrid=           0
         NMat0=    1 NMatS0=  57291 NMatT0=    0 NMatD0=    1 NMtDS0=    0 NMtDT0=    0
 Symmetry not used in FoFCou.
 Integral accuracy reduced to 1.0D-05 until final iterations.

 Cycle   1  Pass 0  IDiag  1:
 E= -399.873196833192    
 DIIS: error= 5.86D-04 at cycle   1 NSaved=   1.
 NSaved= 1 IEnMin= 1 EnMin= -399.873196833192     IErMin= 1 ErrMin= 5.86D-04
 ErrMax= 5.86D-04  0.00D+00 EMaxC= 1.00D-01 BMatC= 2.10D-04 BMatP= 2.10D-04
 IDIUse=3 WtCom= 9.94D-01 WtEn= 5.86D-03
 Coeff-Com:  0.100D+01
 Coeff-En:   0.100D+01
 Coeff:      0.100D+01
 Gap=     0.773 Goal=   None    Shift=    0.000
 RMSDP=3.74D-05 MaxDP=1.45D-03              OVMax= 3.15D-03

 Cycle   2  Pass 0  IDiag  1:
 E= -399.873379375974     Delta-E=       -0.000182542782 Rises=F Damp=F
 DIIS: error= 2.26D-04 at cycle   2 NSaved=   2.
 NSaved= 2 IEnMin= 2 EnMin= -399.873379375974     IErMin= 2 ErrMin= 2.26D-04
 ErrMax= 2.26D-04  0.00D+00 EMaxC= 1.00D-01 BMatC= 1.81D-05 BMatP= 2.10D-04
 IDIUse=3 WtCom= 9.98D-01 WtEn= 2.26D-03
 Coeff-Com:  0.975D-01 0.902D+00
 Coeff-En:   0.000D+00 0.100D+01
 Coeff:      0.973D-01 0.903D+00
 Gap=     0.364 Goal=   None    Shift=    0.000
 RMSDP=1.53D-05 MaxDP=9.33D-04 DE=-1.83D-04 OVMax= 1.11D-03

 Cycle   3  Pass 0  IDiag  1:
 E= -399.873395542796     Delta-E=       -0.000016166822 Rises=F Damp=F
 DIIS: error= 1.38D-04 at cycle   3 NSaved=   3.
 NSaved= 3 IEnMin= 3 EnMin= -399.873395542796     IErMin= 3 ErrMin= 1.38D-04
 ErrMax= 1.38D-04  0.00D+00 EMaxC= 1.00D-01 BMatC= 6.40D-06 BMatP= 1.81D-05
 IDIUse=3 WtCom= 9.99D-01 WtEn= 1.38D-03
 Coeff-Com: -0.367D-01 0.337D+00 0.700D+00
 Coeff-En:   0.000D+00 0.000D+00 0.100D+01
 Coeff:     -0.366D-01 0.336D+00 0.700D+00
 Gap=     0.364 Goal=   None    Shift=    0.000
 RMSDP=6.08D-06 MaxDP=3.23D-04 DE=-1.62D-05 OVMax= 1.14D-03

 Initial convergence to 1.0D-05 achieved.  Increase integral accuracy.
 Cycle   4  Pass 1  IDiag  1:
 E= -399.873438520460     Delta-E=       -0.000042977664 Rises=F Damp=F
 DIIS: error= 6.20D-05 at cycle   1 NSaved=   1.
 NSaved= 1 IEnMin= 1 EnMin= -399.873438520460     IErMin= 1 ErrMin= 6.20D-05
 ErrMax= 6.20D-05  0.00D+00 EMaxC= 1.00D-01 BMatC= 1.33D-06 BMatP= 1.33D-06
 IDIUse=1 WtCom= 1.00D+00 WtEn= 0.00D+00
 Coeff-Com:  0.100D+01
 Coeff:      0.100D+01
 Gap=     0.364 Goal=   None    Shift=    0.000
 RMSDP=6.08D-06 MaxDP=3.23D-04 DE=-4.30D-05 OVMax= 5.32D-04

 Cycle   5  Pass 1  IDiag  1:
[...]
    A6        2.18495   0.00000   0.00000  -0.00005  -0.00005   2.18490
    A7        1.99688  -0.00001   0.00000  -0.00009  -0.00009   1.99679
    A8        2.11213   0.00001   0.00000   0.00011   0.00011   2.11224
    A9        2.03430   0.00000   0.00000  -0.00002  -0.00002   2.03428
   A10        2.13675  -0.00001   0.00000  -0.00009  -0.00009   2.13667
   A11        2.11310   0.00001   0.00000   0.00010   0.00010   2.11320
   A12        2.01941  -0.00000   0.00000  -0.00002  -0.00002   2.01939
   A13        2.15068  -0.00001   0.00000  -0.00008  -0.00008   2.15060
   A14        2.11787  -0.00000   0.00000  -0.00002  -0.00002   2.11784
   A15        2.08562  -0.00001   0.00000  -0.00007  -0.00007   2.08555
   A16        2.07970   0.00001   0.00000   0.00009   0.00009   2.07979
   A17        2.05385  -0.00001   0.00000  -0.00006  -0.00006   2.05379
   A18        2.10564  -0.00000   0.00000  -0.00004  -0.00004   2.10560
   A19        2.12370   0.00001   0.00000   0.00009   0.00009   2.12379
   A20        2.65408  -0.00001   0.00000  -0.00070  -0.00071   2.65337
   A21        1.87018  -0.00001   0.00000   0.00000   0.00000   1.87018
   A22        1.37239   0.00002   0.00000   0.00073   0.00073   1.37313
   A23        2.39306   0.00001   0.00000   0.00178   0.00178   2.39484
   A24        2.51224  -0.00004   0.00000  -0.00074  -0.00075   2.51149
    D1        0.03777  -0.00000   0.00000  -0.00005  -0.00005   0.03772
    D2       -3.10326   0.00000   0.00000   0.00004   0.00004  -3.10322
    D3        0.00905  -0.00001   0.00000  -0.00425  -0.00425   0.00480
    D4       -3.13634   0.00000   0.00000  -0.00006  -0.00006  -3.13639
    D5        0.00475  -0.00000   0.00000  -0.00014  -0.00014   0.00461
    D6        0.00665   0.00001   0.00000   0.00036   0.00036   0.00701
    D7       -3.13545   0.00000   0.00000   0.00028   0.00028  -3.13516
    D8       -0.00304   0.00000   0.00000   0.00018   0.00018  -0.00287
    D9        3.13770  -0.00000   0.00000   0.00006   0.00006   3.13776
   D10        3.13707  -0.00000   0.00000  -0.00027  -0.00027   3.13681
   D11       -0.00537  -0.00000   0.00000  -0.00038  -0.00038  -0.00575
   D12       -0.10865   0.00000   0.00000   0.00108   0.00108  -0.10757
   D13        3.03428   0.00000   0.00000   0.00148   0.00148   3.03576
   D14        3.13742  -0.00000   0.00000   0.00001   0.00001   3.13743
   D15       -0.00197  -0.00000   0.00000   0.00001   0.00001  -0.00196
   D16       -0.00363   0.00000   0.00000   0.00009   0.00009  -0.00354
   D17        3.14016   0.00000   0.00000   0.00009   0.00009   3.14025
   D18        0.00095  -0.00000   0.00000  -0.00009  -0.00009   0.00086
   D19       -3.14001   0.00000   0.00000   0.00004   0.00004  -3.13996
   D20        3.14022  -0.00000   0.00000  -0.00009  -0.00009   3.14013
   D21       -0.00074   0.00000   0.00000   0.00005   0.00005  -0.00070
   D22       -0.00008  -0.00000   0.00000  -0.00015  -0.00015  -0.00023
   D23        3.14085  -0.00000   0.00000  -0.00012  -0.00012   3.14073
   D24       -3.14076  -0.00000   0.00000  -0.00003  -0.00003  -3.14079
   D25        0.00017   0.00000   0.00000   0.00001   0.00001   0.00018
   D26        0.00102   0.00000   0.00000   0.00012   0.00012   0.00113
   D27       -3.13991   0.00000   0.00000   0.00008   0.00008  -3.13982
   D28       -3.14120  -0.00000   0.00000  -0.00002  -0.00002  -3.14122
   D29        0.00106  -0.00000   0.00000  -0.00005  -0.00005   0.00101
   D30       -2.42763  -0.00000   0.00000   0.00224   0.00224  -2.42539
   D31       -0.05291   0.00001   0.00000   0.00428   0.00428  -0.04863
   D32        0.12024  -0.00001   0.00000  -0.00271  -0.00271   0.11753
   D33        1.91858   0.00000   0.00000  -0.00185  -0.00185   1.91673
         Item               Value     Threshold  Converged?
 Maximum Force            0.000041     0.000450     YES
 RMS     Force            0.000009     0.000300     YES
 Maximum Displacement     0.002056     0.001800     NO 
 RMS     Displacement     0.000551     0.001200     YES
 Predicted change in Energy=-1.298577D-07
 GradGradGradGradGradGradGradGradGradGradGradGradGradGradGradGradGradGrad

 Leave Link  103 at Fri Aug 27 01:01:39 2021, MaxMem= 17179869184 cpu:        88.4
 (Enter /public3/home/sc51754/softwares/g09e01/l9999.exe)
 1\1\GINC-T1413\Freq\RLC-wPBE\Gen\C5H7N1O2\SC51754\27-Aug-2021\0\\#P Ge
 om=AllCheck Guess=TCheck SCRF=Check GenChk RLC-wPBE/ChkBas Freq\\PY_H2
 O_LC-wPBE_PC2_OPT_FREQ\\0,1\O,1.2532941468,1.3780349934,0.0122441982\N
 ,0.251637092,-0.6528199068,0.0160827712\C,0.2110571525,0.7245681515,0.
 0099959601\C,-1.1166672762,1.2806289324,0.0005286729\C,-0.8410510043,-
 1.4515983212,0.0083474333\C,-2.2039790755,0.483064997,-0.0060838215\C,
 -2.082411983,-0.930739203,-0.0028198028\H,2.6736081218,0.2708570173,-0
 .0400901403\H,-1.1888835946,2.3587716837,-0.0030643201\H,-0.6446347429
 ,-2.5152330882,0.0109238031\H,-3.1920251718,0.9280067497,-0.0146515272
 \H,-2.9488604912,-1.5741055168,-0.0096250768\O,3.0736095898,-0.6226204
 134,-0.0751125246\H,3.8252359369,-0.6186682484,0.5167661017\H,1.190024
 2996,-1.0518818274,0.0284922727\\Version=EM64L-G09RevE.01\State=1-A\HF
 =-399.8735012\RMSD=2.501e-09\RMSF=1.871e-05\ZeroPoint=0.1207682\Therma
 l=0.1287287\Dipole=-0.94925,-0.8452117,0.4235168\DipoleDeriv=-1.818740
 9,-0.6077943,-0.0077332,-0.4606298,-0.8560915,-0.0038224,-0.0054555,-0
 .0071948,-0.4187749,-0.8282767,0.2627959,-0.0054077,-0.7081046,-0.5767
 686,-0.0022443,-0.0096723,0.0048064,-0.1964583,1.8924288,0.864394,0.00
 90004,0.8508958,0.932227,0.0019351,0.0036142,-0.0012756,0.2876109,-0.7
 409631,-0.5265212,-0.003147,0.080064,-0.046062,-0.0002612,-0.0017127,-
 0.0039552,-0.1953869,0.7466355,-0.3626823,0.0070811,0.2844239,0.098601
 4,0.0034314,0.0034499,-0.0013315,0.0029193,0.2649606,0.1062277,0.00244
 65,0.145457,0.6790675,-0.0005554,0.0015864,-0.0010242,-0.0617488,-0.30
 56707,0.3940279,-0.0014001,0.0371387,-0.5322195,0.0018796,0.0009977,0.
 004482,-0.2228674,0.7844662,-0.1528577,-0.0267748,-0.4157541,0.3467481
 ,-0.0383983,-0.036115,-0.0317419,0.2481839,0.0689003,-0.0075696,-0.000
 7101,0.0095449,-0.0031628,0.0003723,-0.0001258,0.0006187,0.1520956,0.0
 708062,0.0206014,-0.0006999,0.0002811,-0.0058795,0.0006648,-0.000797,-
 0.0000614,0.141498,-0.031019,0.058859,-0.0012956,0.059981,0.0632908,0.
 0005417,-0.0015517,0.0005304,0.1259372,0.02194,-0.0512142,-0.0011932,-
 0.054667,0.0201849,-0.0002264,-0.0013877,-0.0004,0.1658966,-1.0721868,
 0.1257263,0.0930624,0.3012254,-0.5971454,0.0858604,0.1083468,0.0586775
 ,-0.5455468,0.2820462,-0.0067893,-0.0675671,-0.0589742,0.2885574,-0.04
 94047,-0.0680764,-0.0259026,0.2717323,0.6646734,-0.1172036,0.0043384,-
 0.0708822,0.1886521,0.0002273,0.006899,0.0037723,0.2449094\Polar=96.43
 66475,6.0630774,80.579374,1.0463421,-0.2237069,42.8237663\PG=C01 [X(C5
 H7N1O2)]\NImag=0\\0.56392539,0.28661603,0.30445952,0.00122925,0.000145
 25,0.03987902,0.01575232,-0.06847753,0.00031713,0.87683426,-0.04780126
 ,-0.07288287,0.00011442,-0.00814752,0.70403528,0.00065984,-0.00000734,
 0.01965428,0.00761266,-0.00256275,0.09250607,-0.48784610,-0.22970500,-
 0.00096226,-0.18067037,0.01398060,-0.00148260,0.89150896,-0.22069938,-
 0.23867495,-0.00046901,0.06177608,-0.24155720,0.00087788,0.13110110,0.
 66917033,-0.00124008,-0.00064033,-0.07803024,-0.00112465,0.00080896,-0
 .06823426,0.00332702,-0.00091702,0.21419434,-0.07993668,-0.00448340,-0
 .00047319,0.03427518,0.05077933,0.00022349,-0.20792857,0.04913161,-0.0
 0093860,0.70828322,-0.03095584,0.02174289,-0.00006937,0.03891121,-0.01
 913040,0.00042354,0.08160377,-0.15966186,0.00058513,0.09201343,0.80064
 030,-0.00041214,0.00024788,0.02205444,0.00007565,0.00060315,0.00919495
 ,-0.00095630,0.00018670,-0.08370833,0.00378493,-0.00097334,0.12325848,
 -0.01522022,0.01417443,-0.00023825,-0.28000393,-0.06579672,-0.00167723
 ,0.05746803,-0.08223268,0.00067435,-0.06245586,-0.00583206,-0.00049503
 ,0.79331807,-0.00190835,-0.00024021,0.00004289,-0.12414038,-0.21965360
 ,-0.00047267,-0.01879643,-0.04464352,-0.00008813,-0.00805877,-0.002199
 07,-0.00008005,-0.08381143,0.79094323,-0.00018866,0.00015013,0.0060791
 1,-0.00173248,-0.00028149,-0.05176118,0.00056926,-0.00045000,-0.002450
 92,-0.00048447,-0.00002443,-0.00121297,0.00557875,-0.00169026,0.152453
 22,0.00365040,0.00546734,0.00000334,-0.01118153,-0.00922531,-0.0000318
 3,-0.04458131,-0.01043060,-0.00032403,-0.35909932,-0.18579541,-0.00184
 753,0.01842697,0.03774628,0.00002254,0.80925593,0.02744543,-0.00234751
 ,0.00016806,-0.04462526,-0.04655470,-0.00035116,-0.04327007,0.06241369
 ,-0.00041426,-0.12720625,-0.25501384,-0.00045938,0.08743843,-0.0149858
 8,0.00074603,0.03075881,0.68588726,-0.00006582,0.00004085,0.00383824,0
 .00007124,-0.00000828,-0.00672415,-0.00022549,-0.00015414,0.00118991,-
 0.00207501,-0.00102983,-0.05960777,-0.00009824,0.00037155,0.00909218,0
 .00497777,-0.00073657,0.15129693,0.00783942,-0.00674614,0.00006833,-0.
 08010264,-0.03737916,-0.00081207,-0.02629593,0.04253857,-0.00022683,0.
 04316859,-0.02565417,0.00033470,-0.40166505,0.15033154,-0.00304196,-0.
 12812043,-0.01821721,-0.00047462,0.83423614,-0.01852764,-0.00105065,-0
 .00012170,0.00994872,0.04932222,0.00004892,0.03636250,-0.03152693,0.00
 029785,-0.05929636,-0.03334289,-0.00039884,0.09056231,-0.18890558,0.00
 096598,0.04363009,-0.29554652,0.00069598,0.02061495,0.67838654,0.00012
 744,-0.00002056,-0.00011557,-0.00081306,-0.00036743,0.01397434,-0.0002
 4573,0.00035049,-0.00893430,0.00043781,-0.00014851,0.00882614,-0.00297
 683,0.00149257,-0.06984597,-0.00060947,0.00012977,-0.06558595,0.006053
 73,-0.00057047,0.12391175,0.01598688,-0.00301967,-0.00107294,-0.001397
 22,0.00670104,-0.00034211,-0.01997229,-0.01206592,0.00013225,0.0054194
 4,0.00149177,0.00018620,0.00014353,-0.00048396,-0.00003290,-0.00051633
 ,-0.00281179,0.00001212,-0.00008860,0.00209202,0.00001502,0.10799917,-
 0.01730148,-0.01141733,0.00103318,0.00238576,-0.00495443,0.00035935,0.
 01220520,0.01785431,-0.00000408,-0.00644007,-0.00222085,-0.00019046,-0
 .00236245,-0.00192528,-0.00002289,0.00073191,0.00410882,-0.00001834,0.
 00169962,-0.00282614,0.00000937,-0.14084326,0.38455957,0.00008758,0.00
 015990,-0.00917848,-0.00069966,-0.00013990,-0.00106312,-0.00015186,-0.
 00019137,0.00107330,0.00004678,0.00000600,0.00112919,0.00014255,0.0002
 0103,-0.00021399,-0.00006188,-0.00012391,0.00009086,-0.00016372,0.0000
 8421,0.00009485,0.01586469,0.01529317,0.03640910,0.00184532,-0.0029948
 1,0.00001967,-0.00590091,0.00355535,-0.00009066,0.00437874,0.03034775,
 -0.00008892,-0.05988674,0.02274412,-0.00020282,-0.00220319,-0.00096311
 ,-0.00001195,0.00676206,-0.02715247,0.00009900,-0.00344792,-0.00261429
 ,-0.00009233,-0.00016215,0.00024738,-0.00000965,0.05669143,0.00013073,
 0.00183327,-0.00001238,0.00234233,-0.00068304,0.00003157,-0.00463294,-
 0.00911555,0.00002675,0.02493530,-0.35474524,0.00104533,0.00080098,0.0
 0103099,0.00000540,0.00357268,-0.01144861,0.00007018,-0.00329497,0.000
 91868,0.00000317,0.00006191,-0.00009443,0.00000864,-0.02360664,0.37243
 253,0.00004365,-0.00004294,-0.00240580,-0.00008382,0.00001117,0.004286
 26,-0.00003017,0.00026964,0.00337469,-0.00018501,0.00110658,-0.0357199
 6,0.00001357,-0.00000129,-0.00066603,-0.00000867,-0.00020818,0.0038249
 8,-0.00010755,0.00000403,0.00983290,-0.00001633,0.00000863,-0.00001623
 ,0.00029276,-0.00113340,0.02505459,-0.00095875,-0.00208095,0.00001420,
 0.00562164,-0.03480636,0.00007395,-0.00353132,0.00100716,-0.00008823,-
 0.00033394,-0.00053411,0.00000069,-0.07309356,0.06066118,-0.00033036,-
 0.00550132,0.00177396,-0.00012371,0.00338153,0.02751915,-0.00007582,0.
 00034181,-0.00029435,0.00001206,0.00013249,0.00001029,0.00000974,0.072
 11395,-0.00063122,-0.00173213,0.00001322,0.00208702,-0.01896203,0.0000
 3523,-0.00266203,0.00398322,-0.00005510,0.00028196,0.00061240,0.000001
 98,0.05383934,-0.34237142,0.00077761,0.00208899,0.00023699,0.00002310,
 -0.00115744,-0.00444005,-0.00000490,0.00026799,-0.00018172,-0.00000681
 ,0.00003749,-0.00006457,-0.00000106,-0.05424798,0.36221586,-0.00001734
 ,-0.00001970,-0.00017066,0.00007541,-0.00016217,0.00327672,-0.00004107
 ,-0.00001024,0.00556943,-0.00002263,-0.00000203,-0.00032783,-0.0003907
 9,0.00069718,-0.04232482,-0.00013019,0.00006153,0.00855716,0.00000091,
 0.00024192,0.00843851,-0.00001615,-0.00000197,-0.00000805,0.00000677,-
 0.00000267,-0.00112039,0.00044686,-0.00078814,0.02670005,-0.00192513,0
 .00035102,0.00001544,0.00010227,-0.00053127,0.00001011,-0.00088766,-0.
 00362672,-0.00010650,-0.01826661,0.01282944,-0.00024199,0.00149840,0.0
 0027161,-0.00002566,-0.29852438,0.10746532,-0.00215405,0.00208073,-0.0
 0139074,-0.00003098,0.00022398,-0.00018590,-0.00001026,0.00107144,-0.0
 0028141,0.00006054,0.00000322,-0.00007962,0.00000500,0.31423283,-0.000
 84291,0.00063470,-0.00000420,-0.00115414,0.00035821,-0.00001524,-0.002
 92499,-0.00279157,0.00001036,-0.01873995,0.01228371,-0.00015816,0.0000
 9590,-0.00655342,0.00001972,0.10881634,-0.10986969,0.00095796,0.028857
 44,-0.00619506,0.00024874,0.00005453,-0.00008137,-0.00000222,0.0003796
 7,0.00075928,-0.00001270,0.00142455,-0.00036092,0.00001564,-0.11535844
 ,0.11059364,-0.00001144,-0.00002851,-0.00226653,0.00000492,-0.00001672
 ,-0.00104727,-0.00008703,0.00002302,0.01273913,-0.00013735,0.00013236,
 0.00817934,-0.00002352,0.00000998,0.00464782,-0.00219119,0.00093264,-0
 .04586909,-0.00007538,0.00001461,0.00526385,-0.00001787,0.00001697,-0.
 00012975,0.00005152,-0.00002658,-0.00641530,0.00000253,-0.00000121,-0.
 00052734,0.00243801,-0.00104719,0.02825350,0.00026026,-0.00021489,0.00
 000832,-0.00385454,0.00395963,-0.00011758,-0.00023230,0.00101434,-0.00
 001066,0.00076482,0.00146540,-0.00002974,-0.01661733,-0.02044617,-0.00
 013447,0.00803494,0.00494436,0.00005565,-0.25238543,-0.14228120,-0.001
 74542,0.00005375,0.00010306,-0.00001796,0.00023532,0.00023158,-0.00000
 336,0.00067770,0.00024743,0.00005627,0.00048616,-0.00059435,0.00002584
 ,0.26302308,-0.00040358,0.00046875,-0.00000280,0.00376251,-0.00013399,
 0.00004776,0.00129748,-0.00141850,0.00000861,0.00203100,-0.00501658,0.
 00003230,0.01222054,0.01167407,0.00008683,-0.02599391,-0.01136842,-0.0
 0021843,-0.14474865,-0.16497042,-0.00110335,0.00005391,-0.00013215,0.0
 0000824,-0.00114781,-0.00052864,-0.00000497,-0.00049272,0.00058410,-0.
 00001053,0.00039029,0.00110460,0.00000055,0.15263445,0.16912481,0.0000
 0650,-0.00001576,-0.00054003,-0.00012531,0.00003641,0.00846972,-0.0000
 0242,0.00001597,-0.00027608,-0.00003020,0.00003027,0.00397731,-0.00014
 797,-0.00019943,0.00028690,0.00011222,0.00008005,0.00044458,-0.0017755
 3,-0.00111016,-0.03088463,0.00000418,-0.00000136,0.00002875,-0.0000016
 0,0.00000507,0.00040578,0.00005348,0.00000034,-0.00543209,0.00002277,-
 0.00000948,-0.00219430,0.00190016,0.00116161,0.02431822,-0.01319010,0.
 01282036,0.00023431,-0.01413208,-0.00386856,-0.00062374,0.00408773,0.0
 0130746,0.00023174,-0.00125229,-0.00010480,0.00002276,0.00210254,0.004
 47866,-0.00003470,-0.00018686,-0.00026077,-0.00002076,-0.00219106,-0.0
 0021806,0.00002061,-0.09646081,0.16500492,-0.00325754,-0.00011692,0.00
 009737,0.00001097,-0.00004952,-0.00024547,-0.00000128,-0.00018793,-0.0
 0001362,-0.00000236,-0.00032912,0.00011140,0.00000842,0.45781209,0.025
 15022,-0.00337789,0.00036740,-0.00196255,0.00599985,-0.00098530,-0.011
 71078,-0.01344267,0.00004598,0.00483141,0.00193724,-0.00003720,0.00169
 142,0.00062690,-0.00003304,-0.00050103,-0.00301167,0.00000826,-0.00099
 750,0.00218506,0.00000354,0.12287225,-0.38423406,-0.04297756,-0.000247
 77,0.00009067,-0.00000174,0.00037320,0.00019520,0.00002173,0.00015165,
 0.00007788,0.00001092,-0.00002599,0.00008408,0.00002350,-0.16205611,0.
 43761312,-0.00095401,0.00102510,0.00611552,-0.00215674,-0.00020743,0.0
 0321268,0.00054131,0.00012033,-0.00072766,-0.00014746,0.00001916,-0.00
 071628,-0.00033718,0.00015875,0.00024512,0.00005714,0.00009509,0.00002
 880,0.00003854,-0.00020390,-0.00014662,-0.01611628,-0.01308835,-0.0300
 1807,0.00001584,-0.00000530,-0.00001335,-0.00003885,-0.00004787,-0.000
 05495,0.00000402,0.00000047,0.00007343,-0.00001620,0.00000472,-0.00007
 581,0.27418899,0.03672990,0.23998797,0.00074066,0.00106415,0.00079521,
 -0.00069254,-0.00034706,0.00051622,-0.00084321,-0.00062115,-0.00019578
 ,0.00026124,0.00010029,-0.00012279,-0.00030146,0.00020747,0.00002898,-
 0.00002714,-0.00014324,0.00000907,-0.00002369,-0.00002457,-0.00002263,
 -0.01386302,-0.00597779,-0.01310065,-0.00000145,0.00001208,-0.00000523
 ,-0.00002384,-0.00003888,-0.00001506,0.00001293,-0.00000357,0.00001293
 ,-0.00001688,0.00001564,-0.00001347,-0.34005039,0.01997174,-0.25732698
 ,0.35476658,0.00230421,-0.00217590,-0.00114583,-0.00213107,0.00038161,
 0.00047353,-0.00080024,-0.00094839,-0.00004751,0.00015958,0.00015221,0
 .00013903,0.00025416,0.00056391,0.00001408,0.00000536,-0.00012363,0.00
 000197,-0.00027555,-0.00000002,-0.00000063,0.03127662,0.00442408,0.027
 20327,-0.00003130,0.00001903,-0.00000344,-0.00001466,-0.00003287,-0.00
 002945,-0.00000020,0.00000361,-0.00001838,-0.00004333,0.00001849,-0.00
 001315,-0.01855078,-0.04096016,-0.02551282,-0.01498403,0.03861845,0.00
 090857,-0.00089836,-0.00012262,0.00228629,0.00020336,0.00007789,-0.000
 30190,0.00006576,0.00000419,0.00008522,-0.00003152,-0.00002196,0.00006
 031,-0.00033776,0.00000765,0.00000560,0.00001565,-0.00000247,0.0001455
 0,0.00008202,-0.00002029,0.00105798,-0.00316711,-0.00065932,0.00000399
 ,-0.00000448,0.00001556,0.00000915,0.00004191,0.00003961,0.00000708,-0
 .00000038,0.00000902,0.00003125,-0.00001108,0.00000780,-0.27255520,0.0
 0438647,-0.21254828,0.27070238,0.00028793,0.21318432,-0.01092367,-0.00
 277094,0.00004143,-0.35464991,0.12892727,-0.00391846,0.01534561,0.0114
 5239,-0.00002108,-0.00301248,-0.00228305,-0.00009658,-0.02139695,0.004
 91187,-0.00018193,0.00160832,0.00386075,0.00001287,0.00361434,-0.00637
 686,-0.00004234,0.00229186,-0.00897255,0.00131952,0.00060247,-0.000379
 29,0.00000892,0.00121993,0.00021243,0.00004329,0.00007975,0.00000354,0
 .00001040,-0.00010043,0.00026946,-0.00001125,0.00414472,0.00245986,0.0
 0224786,0.00006223,0.00283121,-0.00244623,0.36111419,-0.00257496,0.004
 76029,-0.00005911,0.12942484,-0.13558492,0.00209667,0.03795182,-0.0096
 4043,0.00038280,0.00006117,-0.00603804,0.00004107,-0.02104217,0.016638
 87,-0.00026366,-0.00087152,-0.00237631,-0.00000428,-0.00557133,-0.0020
 0824,-0.00002182,-0.00564743,-0.00287904,0.00047730,0.00144644,-0.0004
 0437,0.00000968,-0.00029835,0.00031793,-0.00001110,-0.00000502,0.00003
 639,-0.00000248,-0.00099433,0.00050979,-0.00000387,0.00149802,-0.00378
 355,0.00091214,0.00076893,0.00005958,-0.00063240,-0.13414611,0.1403920
 3,-0.00017335,-0.00009561,-0.00479068,-0.00370758,0.00196871,-0.025822
 92,0.00004925,0.00028199,0.00421681,-0.00008433,-0.00002401,0.00469526
 ,-0.00008449,-0.00010436,-0.00433613,0.00002618,0.00006462,-0.00057421
 ,0.00003596,-0.00003045,0.00519100,0.00034212,-0.00022611,0.00246097,0
 .00000838,-0.00001131,-0.00043770,0.00003432,0.00001172,-0.00261533,0.
 00000645,-0.00000332,-0.00071651,-0.00000209,0.00000054,0.00146388,0.0
 0177778,0.00243714,-0.00536252,-0.00126221,-0.00134861,0.00002890,0.00
 303359,-0.00292095,0.02659919\\0.00003184,0.00001507,-0.00001421,-0.00
 000964,-0.00002057,0.00001401,-0.00002903,-0.00003194,-0.00001202,-0.0
 0000536,0.00000617,0.00000651,-0.00001834,-0.00001196,-0.00001406,0.00
 000304,0.00000865,-0.00001515,0.00001599,-0.00000457,0.00000973,-0.000
 03404,0.00000322,0.00004502,0.00000347,-0.00000105,0.00000250,0.000005
 16,0.00000202,0.00000176,-0.00000325,-0.00000942,0.00000299,-0.0000032
 3,0.00000159,0.00000253,0.00001967,-0.00001831,-0.00004149,-0.00000008
 ,0.00000062,0.00000423,0.00002381,0.00006049,0.00000765\\\@


 FLOATING POINT NUMBERS ARE LIKE SANDPILES:
 EVERY TIME THAT YOU MOVE ONE, YOU LOSE A LITTLE SAND 
 AND YOU PICK UP A LITTLE DIRT.
 Job cpu time:       0 days  1 hours 27 minutes  7.0 seconds.
 File lengths (MBytes):  RWF=    137 Int=      0 D2E=      0 Chk=      9 Scr=      1
 Normal termination of Gaussian 09 at Fri Aug 27 01:01:39 2021.
