 Entering Gaussian System, Link 0=g09
 AtFile(1): pc-2.gbs
            -H     0
            S    4   1.00
                  0.754230D+02           0.240650D-02
                  0.113500D+02           0.184870D-01
                  0.259930D+01           0.897420D-01
                  0.735130D+00           0.281110D+00
            S    1   1.00
                  0.231670D+00           0.100000D+01
            S    1   1.00
                  0.741470D-01           0.100000D+01
            P    1   1.00
                  0.160000D+01           0.100000D+01
            P    1   1.00
                  0.450000D+00           0.100000D+01
            D    1   1.00
                  0.125000D+01           0.100000D+01
            ****
            -C     0
            S    7   1.00
                  0.785710D+04           0.568250D-03
                  0.117870D+04           0.439150D-02
                  0.268320D+03           0.225040D-01
                  0.759480D+02           0.866530D-01
                  0.245590D+02           0.244050D+00
                  0.862120D+01           0.441480D+00
                  0.312780D+01           0.353320D+00
            S    7   1.00
                  0.117870D+04          -0.594920D-06
                  0.268320D+03          -0.627480D-04
                  0.759480D+02          -0.757730D-03
                  0.245590D+02          -0.733080D-02
                  0.862120D+01          -0.389320D-01
                  0.312780D+01          -0.889080D-01
                  0.822020D+00           0.216890D+00
            S    1   1.00
                  0.330170D+00           0.100000D+01
            S    1   1.00
                  0.114630D+00           0.100000D+01
            P    4   1.00
                  0.337750D+02           0.602940D-02
                  0.767660D+01           0.432280D-01
                  0.223570D+01           0.163010D+00
                  0.764470D+00           0.365040D+00
            P    1   1.00
                  0.262320D+00           0.100000D+01
            P    1   1.00
                  0.846380D-01           0.100000D+01
            D    1   1.00
                  0.140000D+01           0.100000D+01
            D    1   1.00
                  0.450000D+00           0.100000D+01
            F    1   1.00
                  0.950000D+00           0.100000D+01
            ****
            -N     0
            S    7   1.00
                  0.111010D+05           0.545700D-03
                  0.166530D+04           0.421810D-02
                  0.379080D+03           0.216450D-01
                  0.107300D+03           0.837760D-01
                  0.347470D+02           0.238810D+00
                  0.122490D+02           0.439940D+00
                  0.447430D+01           0.363640D+00
            S    7   1.00
                  0.166530D+04          -0.150060D-05
                  0.379080D+03          -0.587530D-04
                  0.107300D+03          -0.774530D-03
                  0.347470D+02          -0.721610D-02
                  0.122490D+02          -0.393380D-01
                  0.447430D+01          -0.906110D-01
                  0.124040D+01           0.198820D+00
            S    1   1.00
                  0.487430D+00           0.100000D+01
            S    1   1.00
                  0.164840D+00           0.100000D+01
            P    4   1.00
                  0.479340D+02           0.617060D-02
                  0.109990D+02           0.442600D-01
                  0.324720D+01           0.168250D+00
                  0.111140D+01           0.368480D+00
            P    1   1.00
                  0.379880D+00           0.100000D+01
            P    1   1.00
                  0.120680D+00           0.100000D+01
            D    1   1.00
                  0.180000D+01           0.100000D+01
            D    1   1.00
                  0.550000D+00           0.100000D+01
            F    1   1.00
                  0.102000D+01           0.100000D+01
            ****
            -O     0
            S    7   1.00
                  0.147820D+05           0.535190D-03
                  0.221730D+04           0.413750D-02
                  0.504740D+03           0.212450D-01
                  0.142870D+03           0.824530D-01
                  0.463000D+02           0.236710D+00
                  0.163370D+02           0.440390D+00
                  0.598280D+01           0.364650D+00
            S    7   1.00
                  0.221730D+04          -0.192750D-05
                  0.504740D+03          -0.579640D-04
                  0.142870D+03          -0.794940D-03
                  0.463000D+02          -0.731250D-02
                  0.163370D+02          -0.405740D-01
                  0.598280D+01          -0.915940D-01
                  0.167180D+01           0.209400D+00
            S    1   1.00
                  0.646620D+00           0.100000D+01
            S    1   1.00
                  0.216690D+00           0.100000D+01
            P    4   1.00
                  0.604240D+02           0.689490D-02
                  0.139350D+02           0.490050D-01
                  0.415310D+01           0.182550D+00
                  0.141580D+01           0.376330D+00
            P    1   1.00
                  0.475490D+00           0.100000D+01
            P    1   1.00
                  0.145290D+00           0.100000D+01
            D    1   1.00
                  0.220000D+01           0.100000D+01
            D    1   1.00
                  0.650000D+00           0.100000D+01
            F    1   1.00
                  0.110000D+01           0.100000D+01
            ****
 Initial command:
 /public3/home/sc51754/softwares/g09e01/l1.exe "./Gau-37079.inp" -scrdir="./"
 Entering Link 1 = /public3/home/sc51754/softwares/g09e01/l1.exe PID=     37080.
  
 Copyright (c) 1988,1990,1992,1993,1995,1998,2003,2009,2015,
            Gaussian, Inc.  All Rights Reserved.
  
 This is part of the Gaussian(R) 09 program.  It is based on
 the Gaussian(R) 03 system (copyright 2003, Gaussian, Inc.),
 the Gaussian(R) 98 system (copyright 1998, Gaussian, Inc.),
 the Gaussian(R) 94 system (copyright 1995, Gaussian, Inc.),
 the Gaussian 92(TM) system (copyright 1992, Gaussian, Inc.),
 the Gaussian 90(TM) system (copyright 1990, Gaussian, Inc.),
 the Gaussian 88(TM) system (copyright 1988, Gaussian, Inc.),
 the Gaussian 86(TM) system (copyright 1986, Carnegie Mellon
 University), and the Gaussian 82(TM) system (copyright 1983,
 Carnegie Mellon University). Gaussian is a federally registered
 trademark of Gaussian, Inc.
  
 This software contains proprietary and confidential information,
 including trade secrets, belonging to Gaussian, Inc.
  
 This software is provided under written license and may be
 used, copied, transmitted, or stored only in accord with that
 written license.
  
 The following legend is applicable only to US Government
 contracts under FAR:
  
                    RESTRICTED RIGHTS LEGEND
  
 Use, reproduction and disclosure by the US Government is
 subject to restrictions as set forth in subparagraphs (a)
 and (c) of the Commercial Computer Software - Restricted
 Rights clause in FAR 52.227-19.
  
 Gaussian, Inc.
 340 Quinnipiac St., Bldg. 40, Wallingford CT 06492
  
  
 ---------------------------------------------------------------
 Warning -- This program may not be used in any manner that
 competes with the business of Gaussian, Inc. or will provide
 assistance to any competitor of Gaussian, Inc.  The licensee
 of this program is prohibited from giving any competitor of
 Gaussian, Inc. access to this program.  By using this program,
 the user acknowledges that Gaussian, Inc. is engaged in the
 business of creating and licensing software in the field of
 computational chemistry and represents and warrants to the
 licensee that it is not a competitor of Gaussian, Inc. and that
 it will not use this program in any manner prohibited above.
 ---------------------------------------------------------------
  

 Cite this work as:
 Gaussian 09, Revision E.01,
 M. J. Frisch, G. W. Trucks, H. B. Schlegel, G. E. Scuseria, 
 M. A. Robb, J. R. Cheeseman, G. Scalmani, V. Barone, B. Mennucci, 
 G. A. Petersson, H. Nakatsuji, M. Caricato, X. Li, H. P. Hratchian, 
 A. F. Izmaylov, J. Bloino, G. Zheng, J. L. Sonnenberg, M. Hada, 
 M. Ehara, K. Toyota, R. Fukuda, J. Hasegawa, M. Ishida, T. Nakajima, 
 Y. Honda, O. Kitao, H. Nakai, T. Vreven, J. A. Montgomery, Jr., 
 J. E. Peralta, F. Ogliaro, M. Bearpark, J. J. Heyd, E. Brothers, 
 K. N. Kudin, V. N. Staroverov, T. Keith, R. Kobayashi, J. Normand, 
 K. Raghavachari, A. Rendell, J. C. Burant, S. S. Iyengar, J. Tomasi, 
 M. Cossi, N. Rega, J. M. Millam, M. Klene, J. E. Knox, J. B. Cross, 
 V. Bakken, C. Adamo, J. Jaramillo, R. Gomperts, R. E. Stratmann, 
 O. Yazyev, A. J. Austin, R. Cammi, C. Pomelli, J. W. Ochterski, 
 R. L. Martin, K. Morokuma, V. G. Zakrzewski, G. A. Voth, 
 P. Salvador, J. J. Dannenberg, S. Dapprich, A. D. Daniels, 
 O. Farkas, J. B. Foresman, J. V. Ortiz, J. Cioslowski, 
 and D. J. Fox, Gaussian, Inc., Wallingford CT, 2013.
 
 ******************************************
 Gaussian 09:  EM64L-G09RevE.01 30-Nov-2015
                27-Aug-2021 
 ******************************************
 %nprocshared=64
 Will use up to   64 processors via shared memory.
 %mem=128GB
 %chk=PY_H2O_BP86_PC2_OPT_FREQ.chk
 --------------------
 #p opt freq BP86/gen
 --------------------
 1/14=-1,18=20,19=15,26=3,38=1/1,3;
 2/9=110,12=2,17=6,18=5,40=1/2;
 3/5=7,11=2,16=1,25=1,30=1,71=1,74=404/1,2,3;
 4//1;
 5/5=2,38=5/2;
 6/7=2,8=2,9=2,10=2,28=1/1;
 7//1,2,3,16;
 1/14=-1,18=20,19=15,26=3/3(2);
 2/9=110/2;
 99//99;
 2/9=110/2;
 3/5=7,6=1,11=2,16=1,25=1,30=1,71=1,74=404,82=7/1,2,3;
 4/5=5,16=3,69=1/1;
 5/5=2,38=5/2;
 7//1,2,3,16;
 1/14=-1,18=20,19=15,26=3/3(-5);
 2/9=110/2;
 6/7=2,8=2,9=2,10=2,19=2,28=1/1;
 99/9=1/99;
 Leave Link    1 at Fri Aug 27 00:09:47 2021, MaxMem= 17179869184 cpu:         3.2
 (Enter /public3/home/sc51754/softwares/g09e01/l101.exe)
 ------------------------
 PY_H2O_BP86_PC2_OPT_FREQ
 ------------------------
 Symbolic Z-matrix:
 Charge =  0 Multiplicity = 1
 O                     1.26148   1.38785   0.00541 
 N                     0.24943  -0.65888   0.01158 
 C                     0.21021   0.736     0.00592 
 C                    -1.11959   1.28763   0.00047 
 C                    -0.84358  -1.46082   0.0067 
 C                    -2.21816   0.48191  -0.00352 
 C                    -2.09559  -0.93059  -0.00106 
 H                     2.7014    0.27314  -0.04162 
 H                    -1.19683   2.36437  -0.00254 
 H                    -0.64999  -2.52343   0.00862 
 H                    -3.20534   0.92605  -0.00928 
 H                    -2.96087  -1.57362  -0.00584 
 O                     3.10667  -0.61979  -0.08598 
 H                     3.83344  -0.62425   0.54074 
 H                     1.18728  -1.05929   0.02234 
 
 Add virtual bond connecting atoms H8         and O1         Dist= 3.44D+00.
 Add virtual bond connecting atoms O13        and H15        Dist= 3.73D+00.
 NAtoms=     15 NQM=       15 NQMF=       0 NMMI=      0 NMMIF=      0
                NMic=       0 NMicF=      0.
                    Isotopes and Nuclear Properties:
 (Nuclear quadrupole moments (NQMom) in fm**2, nuclear magnetic moments (NMagM)
  in nuclear magnetons)

  Atom         1           2           3           4           5           6           7           8           9          10
 IAtWgt=          16          14          12          12          12          12          12           1           1           1
 AtmWgt=  15.9949146  14.0030740  12.0000000  12.0000000  12.0000000  12.0000000  12.0000000   1.0078250   1.0078250   1.0078250
 NucSpn=           0           2           0           0           0           0           0           1           1           1
 AtZEff=   0.0000000   0.0000000   0.0000000   0.0000000   0.0000000   0.0000000   0.0000000   0.0000000   0.0000000   0.0000000
 NQMom=    0.0000000   2.0440000   0.0000000   0.0000000   0.0000000   0.0000000   0.0000000   0.0000000   0.0000000   0.0000000
 NMagM=    0.0000000   0.4037610   0.0000000   0.0000000   0.0000000   0.0000000   0.0000000   2.7928460   2.7928460   2.7928460
 AtZNuc=   8.0000000   7.0000000   6.0000000   6.0000000   6.0000000   6.0000000   6.0000000   1.0000000   1.0000000   1.0000000

  Atom        11          12          13          14          15
 IAtWgt=           1           1          16           1           1
 AtmWgt=   1.0078250   1.0078250  15.9949146   1.0078250   1.0078250
 NucSpn=           1           1           0           1           1
 AtZEff=   0.0000000   0.0000000   0.0000000   0.0000000   0.0000000
 NQMom=    0.0000000   0.0000000   0.0000000   0.0000000   0.0000000
 NMagM=    2.7928460   2.7928460   0.0000000   2.7928460   2.7928460
 AtZNuc=   1.0000000   1.0000000   8.0000000   1.0000000   1.0000000
 Leave Link  101 at Fri Aug 27 00:09:48 2021, MaxMem= 17179869184 cpu:         6.1
 (Enter /public3/home/sc51754/softwares/g09e01/l103.exe)

 GradGradGradGradGradGradGradGradGradGradGradGradGradGradGradGradGradGrad
 Berny optimization.
 Initialization pass.
                           ----------------------------
                           !    Initial Parameters    !
                           ! (Angstroms and Degrees)  !
 --------------------------                            --------------------------
 ! Name  Definition              Value          Derivative Info.                !
 --------------------------------------------------------------------------------
 ! R1    R(1,3)                  1.237          estimate D2E/DX2                !
 ! R2    R(1,8)                  1.8216         estimate D2E/DX2                !
 ! R3    R(2,3)                  1.3954         estimate D2E/DX2                !
 ! R4    R(2,5)                  1.3556         estimate D2E/DX2                !
 ! R5    R(2,15)                 1.0198         estimate D2E/DX2                !
 ! R6    R(3,4)                  1.4397         estimate D2E/DX2                !
 ! R7    R(4,6)                  1.3624         estimate D2E/DX2                !
 ! R8    R(4,9)                  1.0795         estimate D2E/DX2                !
 ! R9    R(5,7)                  1.3597         estimate D2E/DX2                !
 ! R10   R(5,10)                 1.0801         estimate D2E/DX2                !
 ! R11   R(6,7)                  1.4178         estimate D2E/DX2                !
 ! R12   R(6,11)                 1.0825         estimate D2E/DX2                !
 ! R13   R(7,12)                 1.0781         estimate D2E/DX2                !
 ! R14   R(8,13)                 0.9816         estimate D2E/DX2                !
 ! R15   R(13,14)                0.9597         estimate D2E/DX2                !
 ! R16   R(13,15)                1.972          estimate D2E/DX2                !
 ! A1    A(3,1,8)              110.4468         estimate D2E/DX2                !
 ! A2    A(3,2,5)              124.6558         estimate D2E/DX2                !
 ! A3    A(3,2,15)             114.7312         estimate D2E/DX2                !
 ! A4    A(5,2,15)             120.6129         estimate D2E/DX2                !
 ! A5    A(1,3,2)              120.1911         estimate D2E/DX2                !
 ! A6    A(1,3,4)              125.6683         estimate D2E/DX2                !
 ! A7    A(2,3,4)              114.1406         estimate D2E/DX2                !
 ! A8    A(3,4,6)              121.2133         estimate D2E/DX2                !
 ! A9    A(3,4,9)              116.6328         estimate D2E/DX2                !
 ! A10   A(6,4,9)              122.1537         estimate D2E/DX2                !
 ! A11   A(2,5,7)              120.7801         estimate D2E/DX2                !
 ! A12   A(2,5,10)             115.9423         estimate D2E/DX2                !
 ! A13   A(7,5,10)             123.2776         estimate D2E/DX2                !
 ! A14   A(4,6,7)              121.2972         estimate D2E/DX2                !
 ! A15   A(4,6,11)             119.5197         estimate D2E/DX2                !
 ! A16   A(7,6,11)             119.1831         estimate D2E/DX2                !
 ! A17   A(5,7,6)              117.9124         estimate D2E/DX2                !
 ! A18   A(5,7,12)             120.4308         estimate D2E/DX2                !
 ! A19   A(6,7,12)             121.6568         estimate D2E/DX2                !
 ! A20   A(1,8,13)             152.1528         estimate D2E/DX2                !
 ! A21   A(8,13,14)            106.7015         estimate D2E/DX2                !
 ! A22   A(8,13,15)             78.3702         estimate D2E/DX2                !
 ! A23   A(14,13,15)           134.4412         estimate D2E/DX2                !
 ! A24   A(2,15,13)            143.8035         estimate D2E/DX2                !
 ! D1    D(8,1,3,2)              1.8252         estimate D2E/DX2                !
 ! D2    D(8,1,3,4)           -178.1461         estimate D2E/DX2                !
 ! D3    D(3,1,8,13)             2.218          estimate D2E/DX2                !
 ! D4    D(5,2,3,1)           -179.6964         estimate D2E/DX2                !
 ! D5    D(5,2,3,4)              0.278          estimate D2E/DX2                !
 ! D6    D(15,2,3,1)             0.4507         estimate D2E/DX2                !
 ! D7    D(15,2,3,4)          -179.5749         estimate D2E/DX2                !
 ! D8    D(3,2,5,7)             -0.1672         estimate D2E/DX2                !
 ! D9    D(3,2,5,10)           179.7881         estimate D2E/DX2                !
 ! D10   D(15,2,5,7)           179.6776         estimate D2E/DX2                !
 ! D11   D(15,2,5,10)           -0.3671         estimate D2E/DX2                !
 ! D12   D(3,2,15,13)           -6.1898         estimate D2E/DX2                !
 ! D13   D(5,2,15,13)          173.9508         estimate D2E/DX2                !
 ! D14   D(1,3,4,6)            179.7501         estimate D2E/DX2                !
 ! D15   D(1,3,4,9)             -0.1145         estimate D2E/DX2                !
 ! D16   D(2,3,4,6)             -0.2227         estimate D2E/DX2                !
 ! D17   D(2,3,4,9)            179.9126         estimate D2E/DX2                !
 ! D18   D(3,4,6,7)              0.0669         estimate D2E/DX2                !
 ! D19   D(3,4,6,11)          -179.8963         estimate D2E/DX2                !
 ! D20   D(9,4,6,7)            179.924          estimate D2E/DX2                !
 ! D21   D(9,4,6,11)            -0.0392         estimate D2E/DX2                !
 ! D22   D(2,5,7,6)             -0.0156         estimate D2E/DX2                !
 ! D23   D(2,5,7,12)           179.9426         estimate D2E/DX2                !
 ! D24   D(10,5,7,6)          -179.9675         estimate D2E/DX2                !
 ! D25   D(10,5,7,12)           -0.0093         estimate D2E/DX2                !
 ! D26   D(4,6,7,5)              0.0605         estimate D2E/DX2                !
 ! D27   D(4,6,7,12)          -179.8972         estimate D2E/DX2                !
 ! D28   D(11,6,7,5)          -179.9762         estimate D2E/DX2                !
 ! D29   D(11,6,7,12)            0.0661         estimate D2E/DX2                !
 ! D30   D(1,8,13,14)         -137.6226         estimate D2E/DX2                !
 ! D31   D(1,8,13,15)           -4.4198         estimate D2E/DX2                !
 ! D32   D(8,13,15,2)            7.3388         estimate D2E/DX2                !
 ! D33   D(14,13,15,2)         109.4095         estimate D2E/DX2                !
 --------------------------------------------------------------------------------
 Trust Radius=3.00D-01 FncErr=1.00D-07 GrdErr=1.00D-06
 Number of steps in this run=     83 maximum allowed number of steps=    100.
 GradGradGradGradGradGradGradGradGradGradGradGradGradGradGradGradGradGrad

 Leave Link  103 at Fri Aug 27 00:09:48 2021, MaxMem= 17179869184 cpu:         0.1
 (Enter /public3/home/sc51754/softwares/g09e01/l202.exe)
                          Input orientation:                          
 ---------------------------------------------------------------------
 Center     Atomic      Atomic             Coordinates (Angstroms)
 Number     Number       Type             X           Y           Z
 ---------------------------------------------------------------------
      1          8           0        1.261476    1.387852    0.005408
      2          7           0        0.249425   -0.658880    0.011581
      3          6           0        0.210209    0.735997    0.005920
      4          6           0       -1.119592    1.287625    0.000474
      5          6           0       -0.843575   -1.460822    0.006702
      6          6           0       -2.218160    0.481905   -0.003521
      7          6           0       -2.095586   -0.930593   -0.001061
      8          1           0        2.701404    0.273138   -0.041623
      9          1           0       -1.196826    2.364370   -0.002539
     10          1           0       -0.649991   -2.523426    0.008616
     11          1           0       -3.205344    0.926047   -0.009282
     12          1           0       -2.960874   -1.573618   -0.005843
     13          8           0        3.106669   -0.619787   -0.085978
     14          1           0        3.833439   -0.624251    0.540740
     15          1           0        1.187279   -1.059291    0.022340
 ---------------------------------------------------------------------
                    Distance matrix (angstroms):
                    1          2          3          4          5
     1  O    0.000000
     2  N    2.283286   0.000000
     3  C    1.236963   1.395440   0.000000
     4  C    2.383182   2.379751   1.439685   0.000000
     5  C    3.542059   1.355649   2.436488   2.762279   0.000000
     6  C    3.595648   2.718565   2.441645   1.362370   2.379869
     7  C    4.079840   2.360734   2.845042   2.423439   1.359682
     8  H    1.821590   2.623679   2.534275   3.953602   3.946622
     9  H    2.645165   3.351400   2.152073   1.079516   3.841480
    10  H    4.353368   2.070142   3.371022   3.839883   1.080095
    11  H    4.490653   3.801034   3.420870   2.116883   3.357879
    12  H    5.157390   3.338124   3.923038   3.402509   2.120339
    13  O    2.728315   2.859176   3.199387   4.637561   4.039846
    14  H    3.309098   3.623033   3.906930   5.336635   4.781162
    15  H    2.448326   1.019811   2.044014   3.290919   2.070227
                    6          7          8          9         10
     6  C    0.000000
     7  C    1.417809   0.000000
     8  H    4.924139   4.945880   0.000000
     9  H    2.141681   3.415341   4.423910   0.000000
    10  H    3.389884   2.151036   4.365220   4.918303   0.000000
    11  H    1.082510   2.163040   5.942811   2.470418   4.292903
    12  H    2.185590   1.078066   5.955937   4.315046   2.498504
    13  O    5.438228   5.212223   0.981592   5.237578   4.212515
    14  H    6.175893   5.961605   1.557548   5.876272   4.898078
    15  H    3.738043   3.285470   2.017928   4.172053   2.349349
                   11         12         13         14         15
    11  H    0.000000
    12  H    2.511594   0.000000
    13  O    6.498999   6.142580   0.000000
    14  H    7.228445   6.882059   0.959682   0.000000
    15  H    4.820550   4.180012   1.972043   2.731330   0.000000
 Stoichiometry    C5H7NO2
 Framework group  C1[X(C5H7NO2)]
 Deg. of freedom    39
 Full point group                 C1      NOp   1
 Largest Abelian subgroup         C1      NOp   1
 Largest concise Abelian subgroup C1      NOp   1
                         Standard orientation:                         
 ---------------------------------------------------------------------
 Center     Atomic      Atomic             Coordinates (Angstroms)
 Number     Number       Type             X           Y           Z
 ---------------------------------------------------------------------
      1          8           0        1.261476    1.387852    0.005408
      2          7           0        0.249425   -0.658880    0.011581
      3          6           0        0.210209    0.735997    0.005920
      4          6           0       -1.119592    1.287625    0.000474
      5          6           0       -0.843575   -1.460822    0.006702
      6          6           0       -2.218160    0.481905   -0.003521
      7          6           0       -2.095586   -0.930593   -0.001061
      8          1           0        2.701404    0.273138   -0.041623
      9          1           0       -1.196826    2.364370   -0.002539
     10          1           0       -0.649991   -2.523426    0.008616
     11          1           0       -3.205344    0.926047   -0.009282
     12          1           0       -2.960874   -1.573618   -0.005843
     13          8           0        3.106669   -0.619787   -0.085978
     14          1           0        3.833439   -0.624251    0.540740
     15          1           0        1.187279   -1.059291    0.022340
 ---------------------------------------------------------------------
 Rotational constants (GHZ):      4.0248921      1.3974909      1.0390436
 Leave Link  202 at Fri Aug 27 00:09:48 2021, MaxMem= 17179869184 cpu:         4.2
 (Enter /public3/home/sc51754/softwares/g09e01/l301.exe)
 General basis read from cards:  (5D, 7F)
 Centers:       8      9     10     11     12     14     15
 S 4 1.00
     Exponent=  7.5423000000D+01 Coefficients=  2.4065000000D-03
     Exponent=  1.1350000000D+01 Coefficients=  1.8487000000D-02
     Exponent=  2.5993000000D+00 Coefficients=  8.9742000000D-02
     Exponent=  7.3513000000D-01 Coefficients=  2.8111000000D-01
 S 1 1.00
     Exponent=  2.3167000000D-01 Coefficients=  1.0000000000D+00
 S 1 1.00
     Exponent=  7.4147000000D-02 Coefficients=  1.0000000000D+00
 P 1 1.00
     Exponent=  1.6000000000D+00 Coefficients=  1.0000000000D+00
 P 1 1.00
     Exponent=  4.5000000000D-01 Coefficients=  1.0000000000D+00
 D 1 1.00
     Exponent=  1.2500000000D+00 Coefficients=  1.0000000000D+00
 ****
 Centers:       3      4      5      6      7
 S 7 1.00
     Exponent=  7.8571000000D+03 Coefficients=  5.6825000000D-04
     Exponent=  1.1787000000D+03 Coefficients=  4.3915000000D-03
     Exponent=  2.6832000000D+02 Coefficients=  2.2504000000D-02
     Exponent=  7.5948000000D+01 Coefficients=  8.6653000000D-02
     Exponent=  2.4559000000D+01 Coefficients=  2.4405000000D-01
     Exponent=  8.6212000000D+00 Coefficients=  4.4148000000D-01
     Exponent=  3.1278000000D+00 Coefficients=  3.5332000000D-01
 S 7 1.00
     Exponent=  1.1787000000D+03 Coefficients= -5.9492000000D-07
     Exponent=  2.6832000000D+02 Coefficients= -6.2748000000D-05
     Exponent=  7.5948000000D+01 Coefficients= -7.5773000000D-04
     Exponent=  2.4559000000D+01 Coefficients= -7.3308000000D-03
     Exponent=  8.6212000000D+00 Coefficients= -3.8932000000D-02
     Exponent=  3.1278000000D+00 Coefficients= -8.8908000000D-02
     Exponent=  8.2202000000D-01 Coefficients=  2.1689000000D-01
 S 1 1.00
     Exponent=  3.3017000000D-01 Coefficients=  1.0000000000D+00
 S 1 1.00
     Exponent=  1.1463000000D-01 Coefficients=  1.0000000000D+00
 P 4 1.00
     Exponent=  3.3775000000D+01 Coefficients=  6.0294000000D-03
     Exponent=  7.6766000000D+00 Coefficients=  4.3228000000D-02
     Exponent=  2.2357000000D+00 Coefficients=  1.6301000000D-01
     Exponent=  7.6447000000D-01 Coefficients=  3.6504000000D-01
 P 1 1.00
     Exponent=  2.6232000000D-01 Coefficients=  1.0000000000D+00
 P 1 1.00
     Exponent=  8.4638000000D-02 Coefficients=  1.0000000000D+00
 D 1 1.00
     Exponent=  1.4000000000D+00 Coefficients=  1.0000000000D+00
 D 1 1.00
     Exponent=  4.5000000000D-01 Coefficients=  1.0000000000D+00
 F 1 1.00
     Exponent=  9.5000000000D-01 Coefficients=  1.0000000000D+00
 ****
 Centers:       2
 S 7 1.00
     Exponent=  1.1101000000D+04 Coefficients=  5.4570000000D-04
     Exponent=  1.6653000000D+03 Coefficients=  4.2181000000D-03
     Exponent=  3.7908000000D+02 Coefficients=  2.1645000000D-02
     Exponent=  1.0730000000D+02 Coefficients=  8.3776000000D-02
     Exponent=  3.4747000000D+01 Coefficients=  2.3881000000D-01
     Exponent=  1.2249000000D+01 Coefficients=  4.3994000000D-01
     Exponent=  4.4743000000D+00 Coefficients=  3.6364000000D-01
 S 7 1.00
     Exponent=  1.6653000000D+03 Coefficients= -1.5006000000D-06
     Exponent=  3.7908000000D+02 Coefficients= -5.8753000000D-05
     Exponent=  1.0730000000D+02 Coefficients= -7.7453000000D-04
     Exponent=  3.4747000000D+01 Coefficients= -7.2161000000D-03
     Exponent=  1.2249000000D+01 Coefficients= -3.9338000000D-02
     Exponent=  4.4743000000D+00 Coefficients= -9.0611000000D-02
     Exponent=  1.2404000000D+00 Coefficients=  1.9882000000D-01
 S 1 1.00
     Exponent=  4.8743000000D-01 Coefficients=  1.0000000000D+00
 S 1 1.00
     Exponent=  1.6484000000D-01 Coefficients=  1.0000000000D+00
 P 4 1.00
     Exponent=  4.7934000000D+01 Coefficients=  6.1706000000D-03
     Exponent=  1.0999000000D+01 Coefficients=  4.4260000000D-02
     Exponent=  3.2472000000D+00 Coefficients=  1.6825000000D-01
     Exponent=  1.1114000000D+00 Coefficients=  3.6848000000D-01
 P 1 1.00
     Exponent=  3.7988000000D-01 Coefficients=  1.0000000000D+00
 P 1 1.00
     Exponent=  1.2068000000D-01 Coefficients=  1.0000000000D+00
 D 1 1.00
     Exponent=  1.8000000000D+00 Coefficients=  1.0000000000D+00
 D 1 1.00
     Exponent=  5.5000000000D-01 Coefficients=  1.0000000000D+00
 F 1 1.00
     Exponent=  1.0200000000D+00 Coefficients=  1.0000000000D+00
 ****
 Centers:       1     13
 S 7 1.00
     Exponent=  1.4782000000D+04 Coefficients=  5.3519000000D-04
     Exponent=  2.2173000000D+03 Coefficients=  4.1375000000D-03
     Exponent=  5.0474000000D+02 Coefficients=  2.1245000000D-02
     Exponent=  1.4287000000D+02 Coefficients=  8.2453000000D-02
     Exponent=  4.6300000000D+01 Coefficients=  2.3671000000D-01
     Exponent=  1.6337000000D+01 Coefficients=  4.4039000000D-01
     Exponent=  5.9828000000D+00 Coefficients=  3.6465000000D-01
 S 7 1.00
     Exponent=  2.2173000000D+03 Coefficients= -1.9275000000D-06
     Exponent=  5.0474000000D+02 Coefficients= -5.7964000000D-05
     Exponent=  1.4287000000D+02 Coefficients= -7.9494000000D-04
     Exponent=  4.6300000000D+01 Coefficients= -7.3125000000D-03
     Exponent=  1.6337000000D+01 Coefficients= -4.0574000000D-02
     Exponent=  5.9828000000D+00 Coefficients= -9.1594000000D-02
     Exponent=  1.6718000000D+00 Coefficients=  2.0940000000D-01
 S 1 1.00
     Exponent=  6.4662000000D-01 Coefficients=  1.0000000000D+00
 S 1 1.00
     Exponent=  2.1669000000D-01 Coefficients=  1.0000000000D+00
 P 4 1.00
     Exponent=  6.0424000000D+01 Coefficients=  6.8949000000D-03
     Exponent=  1.3935000000D+01 Coefficients=  4.9005000000D-02
     Exponent=  4.1531000000D+00 Coefficients=  1.8255000000D-01
     Exponent=  1.4158000000D+00 Coefficients=  3.7633000000D-01
 P 1 1.00
     Exponent=  4.7549000000D-01 Coefficients=  1.0000000000D+00
 P 1 1.00
     Exponent=  1.4529000000D-01 Coefficients=  1.0000000000D+00
 D 1 1.00
     Exponent=  2.2000000000D+00 Coefficients=  1.0000000000D+00
 D 1 1.00
     Exponent=  6.5000000000D-01 Coefficients=  1.0000000000D+00
 F 1 1.00
     Exponent=  1.1000000000D+00 Coefficients=  1.0000000000D+00
 ****
 Ernie: Thresh=  0.10000D-02 Tol=  0.10000D-05 Strict=F.
 Ernie:  8 primitive shells out of 263 were deleted.
 There are   385 symmetry adapted cartesian basis functions of A   symmetry.
 There are   338 symmetry adapted basis functions of A   symmetry.
   338 basis functions,   566 primitive gaussians,   385 cartesian basis functions
    30 alpha electrons       30 beta electrons
       nuclear repulsion energy       356.8539014902 Hartrees.
 IExCor=  404 DFT=T Ex=B Corr=P86 ExCW=0 ScaHFX=  0.000000
 ScaDFX=  1.000000  1.000000  1.000000  1.000000 ScalE2=  1.000000  1.000000
 IRadAn=      0 IRanWt=     -1 IRanGd=            0 ICorTp=0 IEmpDi=  4
 NAtoms=   15 NActive=   15 NUniq=   15 SFac= 1.00D+00 NAtFMM=   60 NAOKFM=F Big=F
 Integral buffers will be    131072 words long.
 Raffenetti 2 integral format.
 Two-electron integral symmetry is turned on.
 Leave Link  301 at Fri Aug 27 00:09:48 2021, MaxMem= 17179869184 cpu:         3.3
 (Enter /public3/home/sc51754/softwares/g09e01/l302.exe)
 NPDir=0 NMtPBC=     1 NCelOv=     1 NCel=       1 NClECP=     1 NCelD=      1
         NCelK=      1 NCelE2=     1 NClLst=     1 CellRange=     0.0.
 One-electron integrals computed using PRISM.
 NBasis=   338 RedAO= T EigKep=  1.57D-04  NBF=   338
 NBsUse=   338 1.00D-06 EigRej= -1.00D+00 NBFU=   338
 Precomputing XC quadrature grid using
 IXCGrd= 4 IRadAn=           0 IRanWt=          -1 IRanGd=           0 AccXCQ= 0.00D+00.
 Generated NRdTot=       0 NPtTot=           0 NUsed=           0 NTot=          32
 NSgBfM=   385   385   385   385   385 MxSgAt=    15 MxSgA2=    15.
 Leave Link  302 at Fri Aug 27 00:09:49 2021, MaxMem= 17179869184 cpu:        45.7
 (Enter /public3/home/sc51754/softwares/g09e01/l303.exe)
 DipDrv:  MaxL=1.
 Leave Link  303 at Fri Aug 27 00:09:49 2021, MaxMem= 17179869184 cpu:         8.5
 (Enter /public3/home/sc51754/softwares/g09e01/l401.exe)
 ExpMin= 7.41D-02 ExpMax= 1.48D+04 ExpMxC= 5.05D+02 IAcc=2 IRadAn=         4 AccDes= 0.00D+00
 Harris functional with IExCor=  404 and IRadAn=       4 diagonalized for initial guess.
 HarFok:  IExCor=  404 AccDes= 0.00D+00 IRadAn=         4 IDoV= 1 UseB2=F ITyADJ=14
 ICtDFT=  3500011 ScaDFX=  1.000000  1.000000  1.000000  1.000000
 FoFCou: FMM=F IPFlag=           0 FMFlag=      100000 FMFlg1=           0
         NFxFlg=           0 DoJE=T BraDBF=F KetDBF=T FulRan=T
         wScrn=  0.000000 ICntrl=     500 IOpCl=  0 I1Cent=   200000004 NGrid=           0
         NMat0=    1 NMatS0=      1 NMatT0=    0 NMatD0=    1 NMtDS0=    0 NMtDT0=    0
 Petite list used in FoFCou.
 Harris En= -400.291493634059    
 JPrj=0 DoOrth=F DoCkMO=F.
 Leave Link  401 at Fri Aug 27 00:09:50 2021, MaxMem= 17179869184 cpu:        49.8
 (Enter /public3/home/sc51754/softwares/g09e01/l502.exe)
 Closed shell SCF:
 Using DIIS extrapolation, IDIIS=  1040.
 Integral symmetry usage will be decided dynamically.
 Keep J ints in memory in canonical form, NReq=1670404686.
 IVT=      490665 IEndB=      490665 NGot= 17179869184 MDV= 15538220534
 LenX= 15538220534 LenY= 15538071868
 Requested convergence on RMS density matrix=1.00D-08 within 128 cycles.
 Requested convergence on MAX density matrix=1.00D-06.
 Requested convergence on             energy=1.00D-06.
 No special actions if energy rises.
 FoFCou: FMM=F IPFlag=           0 FMFlag=           0 FMFlg1=           0
         NFxFlg=           0 DoJE=F BraDBF=F KetDBF=F FulRan=T
         wScrn=  0.000000 ICntrl=     600 IOpCl=  0 I1Cent=           0 NGrid=           0
         NMat0=    1 NMatS0=  57291 NMatT0=    0 NMatD0=    1 NMtDS0=    0 NMtDT0=    0
 Symmetry not used in FoFCou.
 Integral accuracy reduced to 1.0D-05 until final iterations.

 Cycle   1  Pass 0  IDiag  1:
 E= -399.903146000455    
 DIIS: error= 2.60D-02 at cycle   1 NSaved=   1.
 NSaved= 1 IEnMin= 1 EnMin= -399.903146000455     IErMin= 1 ErrMin= 2.60D-02
 ErrMax= 2.60D-02  0.00D+00 EMaxC= 1.00D-01 BMatC= 2.89D-01 BMatP= 2.89D-01
 IDIUse=3 WtCom= 7.40D-01 WtEn= 2.60D-01
 Coeff-Com:  0.100D+01
 Coeff-En:   0.100D+01
 Coeff:      0.100D+01
 Gap=     0.093 Goal=   None    Shift=    0.000
 GapD=    0.093 DampG=0.500 DampE=0.500 DampFc=0.2500 IDamp=-1.
 Damping current iteration by 2.50D-01
 RMSDP=4.05D-03 MaxDP=1.56D-01              OVMax= 4.64D-01

 Cycle   2  Pass 0  IDiag  1:
 E= -399.979576474576     Delta-E=       -0.076430474120 Rises=F Damp=T
 DIIS: error= 1.01D-02 at cycle   2 NSaved=   2.
 NSaved= 2 IEnMin= 2 EnMin= -399.979576474576     IErMin= 2 ErrMin= 1.01D-02
 ErrMax= 1.01D-02  0.00D+00 EMaxC= 1.00D-01 BMatC= 3.50D-02 BMatP= 2.89D-01
 IDIUse=3 WtCom= 8.99D-01 WtEn= 1.01D-01
 Coeff-Com: -0.260D+00 0.126D+01
 Coeff-En:   0.991D-01 0.901D+00
 Coeff:     -0.223D+00 0.122D+01
 Gap=     0.170 Goal=   None    Shift=    0.000
 RMSDP=1.05D-03 MaxDP=4.59D-02 DE=-7.64D-02 OVMax= 4.52D-01

 Cycle   3  Pass 0  IDiag  1:
 E= -400.057490953072     Delta-E=       -0.077914478496 Rises=F Damp=F
 DIIS: error= 1.87D-02 at cycle   3 NSaved=   3.
 NSaved= 3 IEnMin= 3 EnMin= -400.057490953072     IErMin= 2 ErrMin= 1.01D-02
 ErrMax= 1.87D-02  0.00D+00 EMaxC= 1.00D-01 BMatC= 9.44D-02 BMatP= 3.50D-02
 IDIUse=2 WtCom= 0.00D+00 WtEn= 1.00D+00
 EnCoef did     5 forward-backward iterations
 Coeff-En:   0.598D-02 0.166D+00 0.828D+00
 Coeff:      0.598D-02 0.166D+00 0.828D+00
 Gap=     0.093 Goal=   None    Shift=    0.000
 RMSDP=2.51D-03 MaxDP=1.42D-01 DE=-7.79D-02 OVMax= 5.75D-01

 Cycle   4  Pass 0  IDiag  1:
 E= -399.464500807235     Delta-E=        0.592990145837 Rises=F Damp=F
 DIIS: error= 5.59D-02 at cycle   4 NSaved=   4.
 NSaved= 4 IEnMin= 3 EnMin= -400.057490953072     IErMin= 2 ErrMin= 1.01D-02
 ErrMax= 5.59D-02  0.00D+00 EMaxC= 1.00D-01 BMatC= 7.49D-01 BMatP= 3.50D-02
 IDIUse=2 WtCom= 0.00D+00 WtEn= 1.00D+00
 Coeff-En:   0.000D+00 0.000D+00 0.812D+00 0.188D+00
 Coeff:      0.000D+00 0.000D+00 0.812D+00 0.188D+00
 Gap=     0.096 Goal=   None    Shift=    0.000
 RMSDP=1.55D-03 MaxDP=8.48D-02 DE= 5.93D-01 OVMax= 3.53D-01

 Cycle   5  Pass 0  IDiag  1:
 E= -400.089895273276     Delta-E=       -0.625394466041 Rises=F Damp=F
 DIIS: error= 1.43D-02 at cycle   5 NSaved=   5.
 NSaved= 5 IEnMin= 5 EnMin= -400.089895273276     IErMin= 2 ErrMin= 1.01D-02
 ErrMax= 1.43D-02  0.00D+00 EMaxC= 1.00D-01 BMatC= 6.14D-02 BMatP= 3.50D-02
 IDIUse=2 WtCom= 0.00D+00 WtEn= 1.00D+00
 Coeff-En:   0.000D+00 0.000D+00 0.422D+00 0.000D+00 0.578D+00
 Coeff:      0.000D+00 0.000D+00 0.422D+00 0.000D+00 0.578D+00
 Gap=     0.145 Goal=   None    Shift=    0.000
 RMSDP=5.95D-04 MaxDP=3.34D-02 DE=-6.25D-01 OVMax= 1.41D-01

 Cycle   6  Pass 0  IDiag  1:
 E= -400.144556486237     Delta-E=       -0.054661212961 Rises=F Damp=F
 DIIS: error= 2.48D-03 at cycle   6 NSaved=   6.
 NSaved= 6 IEnMin= 6 EnMin= -400.144556486237     IErMin= 6 ErrMin= 2.48D-03
 ErrMax= 2.48D-03  0.00D+00 EMaxC= 1.00D-01 BMatC= 2.62D-03 BMatP= 3.50D-02
 IDIUse=3 WtCom= 9.75D-01 WtEn= 2.48D-02
 Coeff-Com: -0.134D-01 0.116D-01 0.182D+00-0.314D-01 0.378D+00 0.473D+00
 Coeff-En:   0.000D+00 0.000D+00 0.000D+00 0.000D+00 0.000D+00 0.100D+01
 Coeff:     -0.131D-01 0.113D-01 0.178D+00-0.306D-01 0.368D+00 0.487D+00
 Gap=     0.124 Goal=   None    Shift=    0.000
 RMSDP=1.33D-04 MaxDP=8.01D-03 DE=-5.47D-02 OVMax= 2.85D-02

 Cycle   7  Pass 0  IDiag  1:
 E= -400.146511574695     Delta-E=       -0.001955088458 Rises=F Damp=F
 DIIS: error= 1.12D-03 at cycle   7 NSaved=   7.
 NSaved= 7 IEnMin= 7 EnMin= -400.146511574695     IErMin= 7 ErrMin= 1.12D-03
 ErrMax= 1.12D-03  0.00D+00 EMaxC= 1.00D-01 BMatC= 3.78D-04 BMatP= 2.62D-03
 IDIUse=3 WtCom= 9.89D-01 WtEn= 1.12D-02
 Coeff-Com: -0.686D-02 0.102D-01 0.872D-01-0.224D-01 0.195D+00 0.319D+00
 Coeff-Com:  0.418D+00
 Coeff-En:   0.000D+00 0.000D+00 0.000D+00 0.000D+00 0.000D+00 0.141D+00
 Coeff-En:   0.859D+00
 Coeff:     -0.678D-02 0.101D-01 0.862D-01-0.221D-01 0.193D+00 0.317D+00
 Coeff:      0.423D+00
 Gap=     0.124 Goal=   None    Shift=    0.000
 RMSDP=4.90D-05 MaxDP=2.51D-03 DE=-1.96D-03 OVMax= 1.21D-02

 Cycle   8  Pass 0  IDiag  1:
 E= -400.146858341187     Delta-E=       -0.000346766492 Rises=F Damp=F
 DIIS: error= 3.27D-04 at cycle   8 NSaved=   8.
 NSaved= 8 IEnMin= 8 EnMin= -400.146858341187     IErMin= 8 ErrMin= 3.27D-04
 ErrMax= 3.27D-04  0.00D+00 EMaxC= 1.00D-01 BMatC= 3.77D-05 BMatP= 3.78D-04
 IDIUse=3 WtCom= 9.97D-01 WtEn= 3.27D-03
 Coeff-Com: -0.325D-03 0.589D-02 0.288D-01-0.754D-02 0.515D-01 0.112D+00
 Coeff-Com:  0.253D+00 0.557D+00
 Coeff-En:   0.000D+00 0.000D+00 0.000D+00 0.000D+00 0.000D+00 0.000D+00
 Coeff-En:   0.000D+00 0.100D+01
 Coeff:     -0.324D-03 0.587D-02 0.287D-01-0.752D-02 0.513D-01 0.111D+00
 Coeff:      0.252D+00 0.558D+00
 Gap=     0.124 Goal=   None    Shift=    0.000
 RMSDP=1.64D-05 MaxDP=9.06D-04 DE=-3.47D-04 OVMax= 3.97D-03

 Cycle   9  Pass 0  IDiag  1:
 E= -400.146884103824     Delta-E=       -0.000025762637 Rises=F Damp=F
 DIIS: error= 2.32D-04 at cycle   9 NSaved=   9.
 NSaved= 9 IEnMin= 9 EnMin= -400.146884103824     IErMin= 9 ErrMin= 2.32D-04
 ErrMax= 2.32D-04  0.00D+00 EMaxC= 1.00D-01 BMatC= 8.76D-06 BMatP= 3.77D-05
 IDIUse=3 WtCom= 9.98D-01 WtEn= 2.32D-03
 Coeff-Com:  0.310D-02-0.258D-02 0.688D-02-0.157D-02 0.670D-02 0.381D-01
 Coeff-Com:  0.115D+00 0.390D+00 0.445D+00
 Coeff-En:   0.000D+00 0.000D+00 0.000D+00 0.000D+00 0.000D+00 0.000D+00
 Coeff-En:   0.000D+00 0.160D+00 0.840D+00
 Coeff:      0.309D-02-0.257D-02 0.686D-02-0.156D-02 0.668D-02 0.380D-01
 Coeff:      0.114D+00 0.389D+00 0.446D+00
 Gap=     0.124 Goal=   None    Shift=    0.000
 RMSDP=6.94D-06 MaxDP=4.44D-04 DE=-2.58D-05 OVMax= 1.68D-03

 Initial convergence to 1.0D-05 achieved.  Increase integral accuracy.
 Cycle  10  Pass 1  IDiag  1:
 E= -400.146970000089     Delta-E=       -0.000085896265 Rises=F Damp=F
 DIIS: error= 3.23D-05 at cycle   1 NSaved=   1.
 NSaved= 1 IEnMin= 1 EnMin= -400.146970000089     IErMin= 1 ErrMin= 3.23D-05
 ErrMax= 3.23D-05  0.00D+00 EMaxC= 1.00D-01 BMatC= 4.10D-07 BMatP= 4.10D-07
 IDIUse=1 WtCom= 1.00D+00 WtEn= 0.00D+00
 Coeff-Com:  0.100D+01
 Coeff:      0.100D+01
 Gap=     0.124 Goal=   None    Shift=    0.000
 RMSDP=6.94D-06 MaxDP=4.44D-04 DE=-8.59D-05 OVMax= 7.58D-04

 Cycle  11  Pass 1  IDiag  1:
 E= -400.146969215783     Delta-E=        0.000000784306 Rises=F Damp=F
 DIIS: error= 7.73D-05 at cycle   2 NSaved=   2.
 NSaved= 2 IEnMin= 1 EnMin= -400.146970000089     IErMin= 1 ErrMin= 3.23D-05
 ErrMax= 7.73D-05  0.00D+00 EMaxC= 1.00D-01 BMatC= 1.50D-06 BMatP= 4.10D-07
 IDIUse=1 WtCom= 1.00D+00 WtEn= 0.00D+00
 Coeff-Com:  0.678D+00 0.322D+00
 Coeff:      0.678D+00 0.322D+00
 Gap=     0.124 Goal=   None    Shift=    0.000
 RMSDP=2.67D-06 MaxDP=1.53D-04 DE= 7.84D-07 OVMax= 6.08D-04

 Cycle  12  Pass 1  IDiag  1:
 E= -400.146970438310     Delta-E=       -0.000001222526 Rises=F Damp=F
 DIIS: error= 1.46D-05 at cycle   3 NSaved=   3.
 NSaved= 3 IEnMin= 3 EnMin= -400.146970438310     IErMin= 3 ErrMin= 1.46D-05
 ErrMax= 1.46D-05  0.00D+00 EMaxC= 1.00D-01 BMatC= 7.75D-08 BMatP= 4.10D-07
 IDIUse=1 WtCom= 1.00D+00 WtEn= 0.00D+00
 Coeff-Com:  0.147D+00 0.189D+00 0.664D+00
 Coeff:      0.147D+00 0.189D+00 0.664D+00
 Gap=     0.124 Goal=   None    Shift=    0.000
 RMSDP=7.95D-07 MaxDP=4.48D-05 DE=-1.22D-06 OVMax= 1.48D-04

 Cycle  13  Pass 1  IDiag  1:
 E= -400.146970451652     Delta-E=       -0.000000013342 Rises=F Damp=F
 DIIS: error= 1.13D-05 at cycle   4 NSaved=   4.
 NSaved= 4 IEnMin= 4 EnMin= -400.146970451652     IErMin= 4 ErrMin= 1.13D-05
 ErrMax= 1.13D-05  0.00D+00 EMaxC= 1.00D-01 BMatC= 3.38D-08 BMatP= 7.75D-08
 IDIUse=1 WtCom= 1.00D+00 WtEn= 0.00D+00
 Coeff-Com:  0.237D-01 0.967D-01 0.487D+00 0.392D+00
 Coeff:      0.237D-01 0.967D-01 0.487D+00 0.392D+00
 Gap=     0.124 Goal=   None    Shift=    0.000
 RMSDP=5.16D-07 MaxDP=2.48D-05 DE=-1.33D-08 OVMax= 1.26D-04

 Cycle  14  Pass 1  IDiag  1:
 E= -400.146970479066     Delta-E=       -0.000000027415 Rises=F Damp=F
 DIIS: error= 5.86D-06 at cycle   5 NSaved=   5.
 NSaved= 5 IEnMin= 5 EnMin= -400.146970479066     IErMin= 5 ErrMin= 5.86D-06
 ErrMax= 5.86D-06  0.00D+00 EMaxC= 1.00D-01 BMatC= 4.26D-09 BMatP= 3.38D-08
 IDIUse=1 WtCom= 1.00D+00 WtEn= 0.00D+00
 Coeff-Com: -0.124D-02 0.464D-01 0.267D+00 0.289D+00 0.399D+00
 Coeff:     -0.124D-02 0.464D-01 0.267D+00 0.289D+00 0.399D+00
 Gap=     0.124 Goal=   None    Shift=    0.000
 RMSDP=1.97D-07 MaxDP=8.67D-06 DE=-2.74D-08 OVMax= 5.13D-05

 Cycle  15  Pass 1  IDiag  1:
 E= -400.146970483342     Delta-E=       -0.000000004275 Rises=F Damp=F
 DIIS: error= 1.36D-06 at cycle   6 NSaved=   6.
 NSaved= 6 IEnMin= 6 EnMin= -400.146970483342     IErMin= 6 ErrMin= 1.36D-06
 ErrMax= 1.36D-06  0.00D+00 EMaxC= 1.00D-01 BMatC= 4.20D-10 BMatP= 4.26D-09
 IDIUse=1 WtCom= 1.00D+00 WtEn= 0.00D+00
 Coeff-Com: -0.345D-02 0.217D-01 0.133D+00 0.158D+00 0.284D+00 0.407D+00
 Coeff:     -0.345D-02 0.217D-01 0.133D+00 0.158D+00 0.284D+00 0.407D+00
 Gap=     0.124 Goal=   None    Shift=    0.000
 RMSDP=4.74D-08 MaxDP=2.81D-06 DE=-4.28D-09 OVMax= 9.65D-06

 Cycle  16  Pass 1  IDiag  1:
 E= -400.146970483769     Delta-E=       -0.000000000427 Rises=F Damp=F
 DIIS: error= 2.21D-07 at cycle   7 NSaved=   7.
 NSaved= 7 IEnMin= 7 EnMin= -400.146970483769     IErMin= 7 ErrMin= 2.21D-07
 ErrMax= 2.21D-07  0.00D+00 EMaxC= 1.00D-01 BMatC= 8.49D-12 BMatP= 4.20D-10
 IDIUse=1 WtCom= 1.00D+00 WtEn= 0.00D+00
 Coeff-Com: -0.170D-02 0.102D-01 0.635D-01 0.745D-01 0.144D+00 0.218D+00
 Coeff-Com:  0.492D+00
 Coeff:     -0.170D-02 0.102D-01 0.635D-01 0.745D-01 0.144D+00 0.218D+00
 Coeff:      0.492D+00
 Gap=     0.124 Goal=   None    Shift=    0.000
 RMSDP=1.12D-08 MaxDP=5.29D-07 DE=-4.27D-10 OVMax= 2.83D-06

 Cycle  17  Pass 1  IDiag  1:
 E= -400.146970483768     Delta-E=        0.000000000001 Rises=F Damp=F
 DIIS: error= 1.21D-07 at cycle   8 NSaved=   8.
 NSaved= 8 IEnMin= 7 EnMin= -400.146970483769     IErMin= 8 ErrMin= 1.21D-07
 ErrMax= 1.21D-07  0.00D+00 EMaxC= 1.00D-01 BMatC= 3.61D-12 BMatP= 8.49D-12
 IDIUse=1 WtCom= 1.00D+00 WtEn= 0.00D+00
 Coeff-Com: -0.519D-03 0.267D-02 0.173D-01 0.193D-01 0.437D-01 0.676D-01
 Coeff-Com:  0.384D+00 0.466D+00
 Coeff:     -0.519D-03 0.267D-02 0.173D-01 0.193D-01 0.437D-01 0.676D-01
 Coeff:      0.384D+00 0.466D+00
 Gap=     0.124 Goal=   None    Shift=    0.000
 RMSDP=5.23D-09 MaxDP=2.05D-07 DE= 1.02D-12 OVMax= 1.23D-06

 SCF Done:  E(RB-P86) =  -400.146970484     A.U. after   17 cycles
            NFock= 17  Conv=0.52D-08     -V/T= 2.0035
 KE= 3.987652403191D+02 PE=-1.649778834827D+03 EE= 4.940127225337D+02
 Leave Link  502 at Fri Aug 27 00:10:14 2021, MaxMem= 17179869184 cpu:       346.5
 (Enter /public3/home/sc51754/softwares/g09e01/l601.exe)
 Copying SCF densities to generalized density rwf, IOpCl= 0 IROHF=0.

 **********************************************************************

            Population analysis using the SCF density.

 **********************************************************************

 Orbital symmetries:
       Occupied  (A) (A) (A) (A) (A) (A) (A) (A) (A) (A) (A) (A)
                 (A) (A) (A) (A) (A) (A) (A) (A) (A) (A) (A) (A)
                 (A) (A) (A) (A) (A) (A)
       Virtual   (A) (A) (A) (A) (A) (A) (A) (A) (A) (A) (A) (A)
                 (A) (A) (A) (A) (A) (A) (A) (A) (A) (A) (A) (A)
                 (A) (A) (A) (A) (A) (A) (A) (A) (A) (A) (A) (A)
                 (A) (A) (A) (A) (A) (A) (A) (A) (A) (A) (A) (A)
                 (A) (A) (A) (A) (A) (A) (A) (A) (A) (A) (A) (A)
                 (A) (A) (A) (A) (A) (A) (A) (A) (A) (A) (A) (A)
                 (A) (A) (A) (A) (A) (A) (A) (A) (A) (A) (A) (A)
                 (A) (A) (A) (A) (A) (A) (A) (A) (A) (A) (A) (A)
                 (A) (A) (A) (A) (A) (A) (A) (A) (A) (A) (A) (A)
                 (A) (A) (A) (A) (A) (A) (A) (A) (A) (A) (A) (A)
                 (A) (A) (A) (A) (A) (A) (A) (A) (A) (A) (A) (A)
                 (A) (A) (A) (A) (A) (A) (A) (A) (A) (A) (A) (A)
                 (A) (A) (A) (A) (A) (A) (A) (A) (A) (A) (A) (A)
                 (A) (A) (A) (A) (A) (A) (A) (A) (A) (A) (A) (A)
                 (A) (A) (A) (A) (A) (A) (A) (A) (A) (A) (A) (A)
                 (A) (A) (A) (A) (A) (A) (A) (A) (A) (A) (A) (A)
                 (A) (A) (A) (A) (A) (A) (A) (A) (A) (A) (A) (A)
                 (A) (A) (A) (A) (A) (A) (A) (A) (A) (A) (A) (A)
                 (A) (A) (A) (A) (A) (A) (A) (A) (A) (A) (A) (A)
                 (A) (A) (A) (A) (A) (A) (A) (A) (A) (A) (A) (A)
                 (A) (A) (A) (A) (A) (A) (A) (A) (A) (A) (A) (A)
                 (A) (A) (A) (A) (A) (A) (A) (A) (A) (A) (A) (A)
                 (A) (A) (A) (A) (A) (A) (A) (A) (A) (A) (A) (A)
                 (A) (A) (A) (A) (A) (A) (A) (A) (A) (A) (A) (A)
                 (A) (A) (A) (A) (A) (A) (A) (A) (A) (A) (A) (A)
                 (A) (A) (A) (A) (A) (A) (A) (A)
 The electronic state is 1-A.
 Alpha  occ. eigenvalues --  -18.75842 -18.73791 -14.06070 -10.00028  -9.96499
 Alpha  occ. eigenvalues --   -9.93067  -9.91671  -9.91362  -0.96135  -0.91495
 Alpha  occ. eigenvalues --   -0.88723  -0.75793  -0.70051  -0.60453  -0.58920
 Alpha  occ. eigenvalues --   -0.51923  -0.48115  -0.46504  -0.44253  -0.42478
 Alpha  occ. eigenvalues --   -0.40806  -0.39274  -0.35575  -0.34579  -0.32953
 Alpha  occ. eigenvalues --   -0.32007  -0.28924  -0.26220  -0.22769  -0.21040
 Alpha virt. eigenvalues --   -0.08603  -0.03916  -0.00109   0.01390   0.02939
 Alpha virt. eigenvalues --    0.04622   0.06632   0.07411   0.08506   0.10054
 Alpha virt. eigenvalues --    0.11799   0.13271   0.14335   0.15469   0.16549
 Alpha virt. eigenvalues --    0.17079   0.18305   0.18419   0.19947   0.22141
 Alpha virt. eigenvalues --    0.23335   0.23947   0.24329   0.25022   0.25978
 Alpha virt. eigenvalues --    0.26733   0.27037   0.28318   0.30195   0.30399
 Alpha virt. eigenvalues --    0.31312   0.31753   0.33847   0.35484   0.36336
 Alpha virt. eigenvalues --    0.38149   0.39217   0.41394   0.42133   0.44945
 Alpha virt. eigenvalues --    0.46523   0.47651   0.49003   0.50596   0.52660
 Alpha virt. eigenvalues --    0.53171   0.56608   0.57542   0.58425   0.59172
 Alpha virt. eigenvalues --    0.61874   0.63850   0.66954   0.69874   0.70490
 Alpha virt. eigenvalues --    0.71058   0.72778   0.75580   0.77254   0.79223
 Alpha virt. eigenvalues --    0.81766   0.84346   0.86298   0.87429   0.87624
 Alpha virt. eigenvalues --    0.89527   0.92067   0.93856   0.96063   0.99080
 Alpha virt. eigenvalues --    1.00348   1.02431   1.04385   1.04783   1.07062
 Alpha virt. eigenvalues --    1.08056   1.09811   1.11374   1.12019   1.12142
 Alpha virt. eigenvalues --    1.14840   1.16504   1.17620   1.18299   1.19240
 Alpha virt. eigenvalues --    1.20846   1.21660   1.25821   1.27254   1.31766
 Alpha virt. eigenvalues --    1.33289   1.34044   1.35466   1.38151   1.39025
 Alpha virt. eigenvalues --    1.41004   1.41816   1.42246   1.43455   1.46993
 Alpha virt. eigenvalues --    1.49490   1.51760   1.54599   1.57684   1.58448
 Alpha virt. eigenvalues --    1.58998   1.61867   1.62453   1.65696   1.66406
 Alpha virt. eigenvalues --    1.71399   1.71886   1.74157   1.78347   1.79016
 Alpha virt. eigenvalues --    1.80908   1.81456   1.83319   1.85777   1.89342
 Alpha virt. eigenvalues --    1.92634   1.93159   1.94611   1.97903   1.98217
 Alpha virt. eigenvalues --    2.01688   2.03782   2.06686   2.08236   2.12748
 Alpha virt. eigenvalues --    2.12956   2.13543   2.16008   2.19030   2.21966
 Alpha virt. eigenvalues --    2.23717   2.32249   2.39807   2.43306   2.53470
 Alpha virt. eigenvalues --    2.59043   2.76873   2.79744   2.82600   2.84950
 Alpha virt. eigenvalues --    2.85343   2.91538   3.07801   3.08531   3.11063
 Alpha virt. eigenvalues --    3.12770   3.14934   3.15267   3.18923   3.21855
 Alpha virt. eigenvalues --    3.22574   3.25760   3.28701   3.31825   3.32775
 Alpha virt. eigenvalues --    3.35693   3.37456   3.41005   3.44624   3.45653
 Alpha virt. eigenvalues --    3.47406   3.49375   3.53341   3.54428   3.56405
 Alpha virt. eigenvalues --    3.57853   3.58184   3.61616   3.62003   3.66235
 Alpha virt. eigenvalues --    3.69682   3.73855   3.76812   3.79980   3.80444
 Alpha virt. eigenvalues --    3.83208   3.84721   3.85714   3.87009   3.89839
 Alpha virt. eigenvalues --    3.92614   3.94276   3.95614   3.97550   3.98255
 Alpha virt. eigenvalues --    3.99654   4.00583   4.03415   4.04062   4.05793
 Alpha virt. eigenvalues --    4.07485   4.08164   4.10876   4.11507   4.12768
 Alpha virt. eigenvalues --    4.14351   4.15101   4.16765   4.17484   4.19285
 Alpha virt. eigenvalues --    4.19834   4.22068   4.22644   4.23973   4.24628
 Alpha virt. eigenvalues --    4.26028   4.27708   4.30584   4.31799   4.34245
 Alpha virt. eigenvalues --    4.35757   4.37013   4.37646   4.38701   4.39741
 Alpha virt. eigenvalues --    4.41372   4.42345   4.44958   4.45568   4.48472
 Alpha virt. eigenvalues --    4.49512   4.49600   4.53657   4.53937   4.56760
 Alpha virt. eigenvalues --    4.59504   4.60736   4.63319   4.68431   4.72951
 Alpha virt. eigenvalues --    4.74481   4.76483   4.77929   4.79504   4.81826
 Alpha virt. eigenvalues --    4.82468   4.85453   4.85728   4.87247   4.88529
 Alpha virt. eigenvalues --    4.92973   4.96628   4.99334   5.03853   5.08493
 Alpha virt. eigenvalues --    5.09924   5.14343   5.16033   5.21240   5.21741
 Alpha virt. eigenvalues --    5.23709   5.24978   5.28142   5.30593   5.32470
 Alpha virt. eigenvalues --    5.36383   5.37575   5.44264   5.46341   5.47715
 Alpha virt. eigenvalues --    5.49234   5.53932   5.57867   5.60901   5.62510
 Alpha virt. eigenvalues --    5.65454   5.70578   5.75046   5.80852   5.85160
 Alpha virt. eigenvalues --    5.85908   5.86585   5.92809   5.98087   5.98710
 Alpha virt. eigenvalues --    6.01004   6.02196   6.09756   6.12775   6.15814
 Alpha virt. eigenvalues --    6.18108   6.22098   6.25571   6.31315   6.39268
 Alpha virt. eigenvalues --    6.39660   6.41546   6.49792   6.66523   6.77205
 Alpha virt. eigenvalues --    6.82961   6.87102   6.98769   7.12298   7.29295
 Alpha virt. eigenvalues --    9.39646  12.17925  13.04170  14.57182  15.24398
 Alpha virt. eigenvalues --   17.80335  18.15257  22.52622
          Condensed to atoms (all electrons):
               1          2          3          4          5          6
     1  O    8.119843  -0.104899   0.527798  -0.069830   0.010334   0.007398
     2  N   -0.104899   6.383619   0.355756  -0.043114   0.385552  -0.018741
     3  C    0.527798   0.355756   4.414539   0.447591  -0.039020  -0.042622
     4  C   -0.069830  -0.043114   0.447591   4.960281  -0.037562   0.521641
     5  C    0.010334   0.385552  -0.039020  -0.037562   4.658784  -0.076308
     6  C    0.007398  -0.018741  -0.042622   0.521641  -0.076308   4.779100
     7  C    0.001577  -0.056099  -0.027152  -0.065094   0.580819   0.454772
     8  H    0.044794   0.002696  -0.004183   0.000850   0.002236  -0.000291
     9  H    0.006333   0.006762  -0.045067   0.441908  -0.000520  -0.038550
    10  H   -0.000837  -0.034852   0.002353  -0.003180   0.427039   0.007915
    11  H   -0.000616  -0.002476   0.008251  -0.036287   0.009450   0.425751
    12  H    0.000034   0.006631  -0.001047   0.007150  -0.034912  -0.037989
    13  O   -0.038207  -0.032015   0.000461   0.000272  -0.004764   0.000080
    14  H    0.003726   0.000422   0.000801   0.000135   0.000052  -0.000018
    15  H    0.001572   0.384760  -0.026935   0.007445  -0.024607  -0.002183
               7          8          9         10         11         12
     1  O    0.001577   0.044794   0.006333  -0.000837  -0.000616   0.000034
     2  N   -0.056099   0.002696   0.006762  -0.034852  -0.002476   0.006631
     3  C   -0.027152  -0.004183  -0.045067   0.002353   0.008251  -0.001047
     4  C   -0.065094   0.000850   0.441908  -0.003180  -0.036287   0.007150
     5  C    0.580819   0.002236  -0.000520   0.427039   0.009450  -0.034912
     6  C    0.454772  -0.000291  -0.038550   0.007915   0.425751  -0.037989
     7  C    4.884015  -0.000059   0.007983  -0.042659  -0.044710   0.437976
     8  H   -0.000059   0.414905   0.000139   0.000158   0.000007  -0.000017
     9  H    0.007983   0.000139   0.564859   0.000328  -0.010509  -0.000066
    10  H   -0.042659   0.000158   0.000328   0.586016  -0.000552  -0.005491
    11  H   -0.044710   0.000007  -0.010509  -0.000552   0.594839  -0.008387
    12  H    0.437976  -0.000017  -0.000066  -0.005491  -0.008387   0.578085
    13  O   -0.000124   0.336389   0.000039  -0.000711  -0.000004   0.000026
    14  H    0.000030  -0.019456  -0.000007  -0.000071   0.000001   0.000000
    15  H    0.005533  -0.010726  -0.000522  -0.009469   0.000224   0.000031
              13         14         15
     1  O   -0.038207   0.003726   0.001572
     2  N   -0.032015   0.000422   0.384760
     3  C    0.000461   0.000801  -0.026935
     4  C    0.000272   0.000135   0.007445
     5  C   -0.004764   0.000052  -0.024607
     6  C    0.000080  -0.000018  -0.002183
     7  C   -0.000124   0.000030   0.005533
     8  H    0.336389  -0.019456  -0.010726
     9  H    0.000039  -0.000007  -0.000522
    10  H   -0.000711  -0.000071  -0.009469
    11  H   -0.000004   0.000001   0.000224
    12  H    0.000026   0.000000   0.000031
    13  O    7.787839   0.349206   0.059871
    14  H    0.349206   0.459021  -0.003355
    15  H    0.059871  -0.003355   0.445895
 Mulliken charges:
               1
     1  O   -0.509019
     2  N   -0.234003
     3  C    0.428479
     4  C   -0.132204
     5  C    0.143427
     6  C    0.020046
     7  C   -0.136808
     8  H    0.232559
     9  H    0.066891
    10  H    0.074015
    11  H    0.065019
    12  H    0.057977
    13  O   -0.458359
    14  H    0.209514
    15  H    0.172466
 Sum of Mulliken charges =  -0.00000
 Mulliken charges with hydrogens summed into heavy atoms:
               1
     1  O   -0.509019
     2  N   -0.061536
     3  C    0.428479
     4  C   -0.065314
     5  C    0.217442
     6  C    0.085065
     7  C   -0.078831
    13  O   -0.016286
 Electronic spatial extent (au):  <R**2>=           1080.4306
 Charge=             -0.0000 electrons
 Dipole moment (field-independent basis, Debye):
    X=             -2.3494    Y=             -2.1068    Z=              1.0944  Tot=              3.3400
 Quadrupole moment (field-independent basis, Debye-Ang):
   XX=            -41.7935   YY=            -45.8190   ZZ=            -49.7758
   XY=             -1.9910   XZ=              4.6843   YZ=             -0.8643
 Traceless Quadrupole moment (field-independent basis, Debye-Ang):
   XX=              4.0026   YY=             -0.0229   ZZ=             -3.9797
   XY=             -1.9910   XZ=              4.6843   YZ=             -0.8643
 Octapole moment (field-independent basis, Debye-Ang**2):
  XXX=             23.6618  YYY=            -11.3453  ZZZ=              0.7226  XYY=             -6.3933
  XXY=              0.1948  XXZ=             18.4982  XZZ=             11.0272  YZZ=              0.6557
  YYZ=              0.5954  XYZ=             -3.2541
 Hexadecapole moment (field-independent basis, Debye-Ang**3):
 XXXX=           -776.2319 YYYY=           -352.6393 ZZZZ=            -54.0389 XXXY=             -4.3259
 XXXZ=             75.0737 YYYX=            -12.6184 YYYZ=             -0.8475 ZZZX=              3.5590
 ZZZY=             -0.5502 XXYY=           -220.4961 XXZZ=           -176.1374 YYZZ=            -77.4922
 XXYZ=            -12.5492 YYXZ=              2.7757 ZZXY=             -2.0542
 N-N= 3.568539014902D+02 E-N=-1.649778828113D+03  KE= 3.987652403191D+02
 No NMR shielding tensors so no spin-rotation constants.
 Leave Link  601 at Fri Aug 27 00:10:15 2021, MaxMem= 17179869184 cpu:        47.8
 (Enter /public3/home/sc51754/softwares/g09e01/l701.exe)
 Compute integral first derivatives.
 ... and contract with generalized density number  0.
 Leave Link  701 at Fri Aug 27 00:10:17 2021, MaxMem= 17179869184 cpu:        82.4
 (Enter /public3/home/sc51754/softwares/g09e01/l702.exe)
 L702 exits ... SP integral derivatives will be done elsewhere.
 Leave Link  702 at Fri Aug 27 00:10:17 2021, MaxMem= 17179869184 cpu:         0.2
 (Enter /public3/home/sc51754/softwares/g09e01/l703.exe)
 Compute integral first derivatives, UseDBF=F ICtDFT=           0.
 Integral derivatives from FoFJK, PRISM(SPDF).
 Calling FoFJK, ICntrl=      2527 FMM=F ISym2X=0 I1Cent= 0 IOpClX= 0 NMat=1 NMatS=1 NMatT=0.
 FoFJK:  IHMeth= 1 ICntrl=    2527 DoSepK=F KAlg= 0 I1Cent=   0 FoldK=F
 IRaf=         0 NMat=   1 IRICut=       1 DoRegI=T DoRafI=F ISym2E= 0.
 FoFCou: FMM=F IPFlag=           0 FMFlag=      100000 FMFlg1=         800
         NFxFlg=           0 DoJE=F BraDBF=F KetDBF=F FulRan=T
         wScrn=  0.000000 ICntrl=    2527 IOpCl=  0 I1Cent=           0 NGrid=           0
         NMat0=    1 NMatS0=      1 NMatT0=    0 NMatD0=    1 NMtDS0=    0 NMtDT0=    0
 Symmetry not used in FoFCou.
 Leave Link  703 at Fri Aug 27 00:10:20 2021, MaxMem= 17179869184 cpu:       197.7
 (Enter /public3/home/sc51754/softwares/g09e01/l716.exe)
 Dipole        =-9.24307693D-01-8.28862088D-01 4.30587678D-01
 ***** Axes restored to original set *****
 -------------------------------------------------------------------
 Center     Atomic                   Forces (Hartrees/Bohr)
 Number     Number              X              Y              Z
 -------------------------------------------------------------------
      1        8           0.013782724    0.008451154   -0.000058566
      2        7          -0.004103194   -0.002753838   -0.000200782
      3        6          -0.006761279    0.000267407    0.000094752
      4        6           0.003404765    0.000414067    0.000030216
      5        6           0.003340492   -0.002192800    0.000090784
      6        6          -0.003295522   -0.003580778    0.000000617
      7        6          -0.004132841    0.003668715   -0.000042499
      8        1          -0.004511344    0.009122356    0.000740384
      9        1          -0.000297994    0.006293604   -0.000021781
     10        1           0.001255108   -0.006332906   -0.000009742
     11        1          -0.005837767    0.002466570   -0.000043145
     12        1          -0.005019103   -0.003736753   -0.000025721
     13        8          -0.003280909   -0.009439232   -0.006746831
     14        1           0.006228355    0.000287224    0.005931235
     15        1           0.009228508   -0.002934789    0.000261079
 -------------------------------------------------------------------
 Cartesian Forces:  Max     0.013782724 RMS     0.004694468
 Leave Link  716 at Fri Aug 27 00:10:20 2021, MaxMem= 17179869184 cpu:         0.5
 (Enter /public3/home/sc51754/softwares/g09e01/l103.exe)

 GradGradGradGradGradGradGradGradGradGradGradGradGradGradGradGradGradGrad
 Berny optimization.
 FormGI is forming the generalized inverse of G from B-inverse, IUseBI=4.
 Internal  Forces:  Max     0.015038131 RMS     0.003814114
 Search for a local minimum.
 Step number   1 out of a maximum of   83
 All quantities printed in internal units (Hartrees-Bohrs-Radians)
 RMS Force = .38141D-02 SwitMx=.10000D-02 MixMth= 1
 Mixed Optimization -- RFO/linear search
 Second derivative matrix not updated -- first step.
 ITU=  0
     Eigenvalues ---    0.00646   0.00900   0.01671   0.02019   0.02045
     Eigenvalues ---    0.02138   0.02190   0.02305   0.02392   0.02435
     Eigenvalues ---    0.02516   0.04986   0.06334   0.06909   0.09520
     Eigenvalues ---    0.16000   0.16000   0.16000   0.16000   0.19047
     Eigenvalues ---    0.20437   0.21968   0.22000   0.22256   0.23654
     Eigenvalues ---    0.35693   0.35983   0.36053   0.36229   0.38136
     Eigenvalues ---    0.40185   0.42590   0.44184   0.49041   0.49982
     Eigenvalues ---    0.52121   0.53321   0.55542   0.84771
 RFO step:  Lambda=-2.08960502D-03 EMin= 6.46442552D-03
 Linear search not attempted -- first point.
 Iteration  1 RMS(Cart)=  0.01145602 RMS(Int)=  0.00001600
 Iteration  2 RMS(Cart)=  0.00002024 RMS(Int)=  0.00000205
 Iteration  3 RMS(Cart)=  0.00000000 RMS(Int)=  0.00000205
 ITry= 1 IFail=0 DXMaxC= 3.64D-02 DCOld= 1.00D+10 DXMaxT= 3.00D-01 DXLimC= 3.00D+00 Rises=F
 Variable       Old X    -DE/DX   Delta X   Delta X   Delta X     New X
                                 (Linear)    (Quad)   (Total)
    R1        2.33752   0.01504   0.00000   0.01755   0.01755   2.35507
    R2        3.44231  -0.00067   0.00000  -0.00920  -0.00920   3.43311
    R3        2.63700   0.00939   0.00000   0.02092   0.02092   2.65792
    R4        2.56181   0.00643   0.00000   0.01209   0.01209   2.57390
    R5        1.92716   0.00910   0.00000   0.01991   0.01991   1.94707
    R6        2.72061   0.00554   0.00000   0.01376   0.01376   2.73437
    R7        2.57451   0.01035   0.00000   0.01945   0.01945   2.59396
    R8        2.03999   0.00630   0.00000   0.01737   0.01737   2.05736
    R9        2.56943   0.01060   0.00000   0.02002   0.02002   2.58945
   R10        2.04108   0.00646   0.00000   0.01784   0.01784   2.05892
   R11        2.67927   0.00458   0.00000   0.01054   0.01054   2.68981
   R12        2.04565   0.00634   0.00000   0.01765   0.01765   2.06329
   R13        2.03725   0.00626   0.00000   0.01717   0.01717   2.05442
   R14        1.85494   0.01005   0.00000   0.01935   0.01935   1.87429
   R15        1.81354   0.00859   0.00000   0.01540   0.01540   1.82894
   R16        3.72662  -0.00036   0.00000  -0.01694  -0.01694   3.70968
    A1        1.92766  -0.00218   0.00000  -0.00572  -0.00572   1.92194
    A2        2.17565   0.00049   0.00000   0.00267   0.00267   2.17832
    A3        2.00244  -0.00092   0.00000  -0.00436  -0.00437   1.99807
    A4        2.10509   0.00043   0.00000   0.00169   0.00169   2.10679
    A5        2.09773  -0.00050   0.00000   0.00157   0.00156   2.09929
    A6        2.19333   0.00118   0.00000   0.00267   0.00267   2.19600
    A7        1.99213  -0.00067   0.00000  -0.00424  -0.00424   1.98789
    A8        2.11557   0.00080   0.00000   0.00323   0.00323   2.11881
    A9        2.03563  -0.00056   0.00000  -0.00257  -0.00258   2.03305
   A10        2.13199  -0.00025   0.00000  -0.00066  -0.00066   2.13133
   A11        2.10801  -0.00053   0.00000  -0.00130  -0.00130   2.10671
   A12        2.02357   0.00016   0.00000   0.00002   0.00002   2.02359
   A13        2.15160   0.00037   0.00000   0.00128   0.00128   2.15288
   A14        2.11704  -0.00015   0.00000  -0.00104  -0.00104   2.11600
   A15        2.08601   0.00023   0.00000   0.00144   0.00144   2.08746
   A16        2.08014  -0.00007   0.00000  -0.00041  -0.00041   2.07973
   A17        2.05796   0.00006   0.00000   0.00068   0.00067   2.05863
   A18        2.10191  -0.00004   0.00000  -0.00038  -0.00038   2.10154
   A19        2.12331  -0.00002   0.00000  -0.00030  -0.00030   2.12302
   A20        2.65557   0.00112   0.00000   0.00284   0.00284   2.65841
   A21        1.86229  -0.00109   0.00000  -0.00495  -0.00495   1.85734
   A22        1.36782   0.00187   0.00000   0.00484   0.00484   1.37266
   A23        2.34644  -0.00048   0.00000  -0.00319  -0.00319   2.34325
   A24        2.50984   0.00063   0.00000   0.00073   0.00072   2.51057
    D1        0.03186  -0.00015   0.00000  -0.00113  -0.00113   0.03072
    D2       -3.10924  -0.00011   0.00000  -0.00009  -0.00009  -3.10933
    D3        0.03871  -0.00004   0.00000   0.00078   0.00078   0.03949
    D4       -3.13629   0.00000   0.00000   0.00019   0.00019  -3.13611
    D5        0.00485  -0.00003   0.00000  -0.00074  -0.00074   0.00412
    D6        0.00787  -0.00000   0.00000   0.00148   0.00148   0.00935
    D7       -3.13417  -0.00003   0.00000   0.00056   0.00056  -3.13361
    D8       -0.00292   0.00002   0.00000   0.00077   0.00077  -0.00214
    D9        3.13789  -0.00000   0.00000   0.00019   0.00019   3.13809
   D10        3.13597   0.00002   0.00000  -0.00060  -0.00060   3.13536
   D11       -0.00641   0.00000   0.00000  -0.00118  -0.00118  -0.00759
   D12       -0.10803   0.00000   0.00000  -0.00228  -0.00228  -0.11031
   D13        3.03601  -0.00000   0.00000  -0.00104  -0.00104   3.03497
   D14        3.13723  -0.00001   0.00000  -0.00064  -0.00064   3.13659
   D15       -0.00200  -0.00002   0.00000  -0.00049  -0.00049  -0.00249
   D16       -0.00389   0.00002   0.00000   0.00034   0.00034  -0.00355
   D17        3.14007   0.00002   0.00000   0.00049   0.00049   3.14056
   D18        0.00117  -0.00001   0.00000   0.00001   0.00001   0.00117
   D19       -3.13978  -0.00000   0.00000   0.00017   0.00017  -3.13962
   D20        3.14027  -0.00000   0.00000  -0.00016  -0.00016   3.14011
   D21       -0.00068   0.00000   0.00000   0.00000   0.00000  -0.00068
   D22       -0.00027  -0.00000   0.00000  -0.00037  -0.00037  -0.00064
   D23        3.14059  -0.00001   0.00000  -0.00032  -0.00032   3.14027
   D24       -3.14103   0.00002   0.00000   0.00026   0.00026  -3.14077
   D25       -0.00016   0.00001   0.00000   0.00031   0.00031   0.00014
   D26        0.00106  -0.00000   0.00000  -0.00000  -0.00000   0.00106
   D27       -3.13980   0.00000   0.00000  -0.00005  -0.00005  -3.13985
   D28       -3.14118  -0.00001   0.00000  -0.00016  -0.00016  -3.14134
   D29        0.00115  -0.00000   0.00000  -0.00021  -0.00021   0.00094
   D30       -2.40197   0.00006   0.00000   0.00128   0.00128  -2.40069
   D31       -0.07714  -0.00004   0.00000  -0.00099  -0.00100  -0.07814
   D32        0.12809  -0.00007   0.00000   0.00159   0.00159   0.12968
   D33        1.90956   0.00020   0.00000  -0.00070  -0.00070   1.90886
         Item               Value     Threshold  Converged?
 Maximum Force            0.015038     0.000450     NO 
 RMS     Force            0.003814     0.000300     NO 
 Maximum Displacement     0.036427     0.001800     NO 
 RMS     Displacement     0.011454     0.001200     NO 
 Predicted change in Energy=-1.049789D-03
 Lowest energy point so far.  Saving SCF results.
 GradGradGradGradGradGradGradGradGradGradGradGradGradGradGradGradGradGrad

 Leave Link  103 at Fri Aug 27 00:10:21 2021, MaxMem= 17179869184 cpu:        39.0
 (Enter /public3/home/sc51754/softwares/g09e01/l202.exe)
                          Input orientation:                          
 ---------------------------------------------------------------------
 Center     Atomic      Atomic             Coordinates (Angstroms)
 Number     Number       Type             X           Y           Z
 ---------------------------------------------------------------------
      1          8           0        1.276154    1.399610    0.004094
      2          7           0        0.253515   -0.662743    0.010666
      3          6           0        0.216735    0.743278    0.005545
      4          6           0       -1.121055    1.294648    0.000569
      5          6           0       -0.844073   -1.469251    0.006491
      6          6           0       -2.228700    0.483899   -0.003166
      7          6           0       -2.105527   -0.934144   -0.000864
      8          1           0        2.705386    0.279093   -0.043003
      9          1           0       -1.198626    2.380584   -0.002490
     10          1           0       -0.648053   -2.541006    0.008030
     11          1           0       -3.224620    0.931385   -0.008757
     12          1           0       -2.978250   -1.582402   -0.005409
     13          8           0        3.111907   -0.624493   -0.087762
     14          1           0        3.843133   -0.627188    0.546275
     15          1           0        1.202027   -1.065005    0.021715
 ---------------------------------------------------------------------
                    Distance matrix (angstroms):
                    1          2          3          4          5
     1  O    0.000000
     2  N    2.301985   0.000000
     3  C    1.246251   1.406511   0.000000
     4  C    2.399509   2.391846   1.446969   0.000000
     5  C    3.567314   1.362047   2.453691   2.777750   0.000000
     6  C    3.622510   2.734295   2.459168   1.372663   2.394176
     7  C    4.108795   2.374630   2.864731   2.436534   1.370278
     8  H    1.816723   2.627091   2.532037   3.959155   3.956996
     9  H    2.662122   3.372051   2.164275   1.088707   3.866138
    10  H    4.385322   2.083436   3.396231   3.864716   1.089534
    11  H    4.525082   3.826101   3.446523   2.134721   3.380872
    12  H    5.195424   3.360109   3.951814   3.424416   2.137207
    13  O    2.734121   2.860342   3.203361   4.648535   4.046267
    14  H    3.315306   3.629532   3.914247   5.351114   4.792738
    15  H    2.465793   1.030346   2.059356   3.311363   2.085706
                    6          7          8          9         10
     6  C    0.000000
     7  C    1.423384   0.000000
     8  H    4.938495   4.961714   0.000000
     9  H    2.158348   3.436552   4.433872   0.000000
    10  H    3.413007   2.169404   4.381908   4.952302   0.000000
    11  H    1.091849   2.175461   5.965873   2.490958   4.323943
    12  H    2.198051   1.087154   5.980827   4.344229   2.519706
    13  O    5.455068   5.227337   0.991832   5.255327   4.221315
    14  H    6.197060   5.981650   1.569414   5.896370   4.911534
    15  H    3.764254   3.310218   2.017642   4.199501   2.366762
                   11         12         13         14         15
    11  H    0.000000
    12  H    2.525833   0.000000
    13  O    6.525226   6.165580   0.000000
    14  H    7.258812   6.909996   0.967833   0.000000
    15  H    4.856100   4.212261   1.963079   2.728056   0.000000
 Stoichiometry    C5H7NO2
 Framework group  C1[X(C5H7NO2)]
 Deg. of freedom    39
 Full point group                 C1      NOp   1
 RotChk:  IX=0 Diff= 1.77D-03
 Largest Abelian subgroup         C1      NOp   1
 Largest concise Abelian subgroup C1      NOp   1
                         Standard orientation:                         
 ---------------------------------------------------------------------
 Center     Atomic      Atomic             Coordinates (Angstroms)
 Number     Number       Type             X           Y           Z
 ---------------------------------------------------------------------
      1          8           0        1.276468    1.397243    0.004873
      2          7           0        0.251289   -0.663849    0.011163
      3          6           0        0.216242    0.742216    0.006057
      4          6           0       -1.120868    1.295233    0.000769
      5          6           0       -0.847290   -1.469005    0.006710
      6          6           0       -2.229509    0.485848   -0.003246
      7          6           0       -2.108082   -0.932345   -0.000939
      8          1           0        2.704331    0.274968   -0.041900
      9          1           0       -1.197101    2.381264   -0.002291
     10          1           0       -0.652591   -2.541001    0.008278
     11          1           0       -3.224876    0.934560   -0.009070
     12          1           0       -2.981601   -1.579528   -0.005705
     13          8           0        3.109749   -0.629117   -0.086576
     14          1           0        3.840819   -0.632723    0.547636
     15          1           0        1.199302   -1.067279    0.022434
 ---------------------------------------------------------------------
 Rotational constants (GHZ):      3.9724707      1.3872446      1.0299159
 Leave Link  202 at Fri Aug 27 00:10:22 2021, MaxMem= 17179869184 cpu:         5.2
 (Enter /public3/home/sc51754/softwares/g09e01/l301.exe)
 Basis read from rwf:  (5D, 7F)
 No pseudopotential information found on rwf file.
 There are   385 symmetry adapted cartesian basis functions of A   symmetry.
 There are   338 symmetry adapted basis functions of A   symmetry.
   338 basis functions,   566 primitive gaussians,   385 cartesian basis functions
    30 alpha electrons       30 beta electrons
       nuclear repulsion energy       354.8206633837 Hartrees.
 IExCor=  404 DFT=T Ex=B Corr=P86 ExCW=0 ScaHFX=  0.000000
 ScaDFX=  1.000000  1.000000  1.000000  1.000000 ScalE2=  1.000000  1.000000
 IRadAn=      0 IRanWt=     -1 IRanGd=            0 ICorTp=0 IEmpDi=  4
 NAtoms=   15 NActive=   15 NUniq=   15 SFac= 1.00D+00 NAtFMM=   60 NAOKFM=F Big=F
 Integral buffers will be    131072 words long.
 Raffenetti 2 integral format.
 Two-electron integral symmetry is turned on.
 No density basis found on file   724.
 Leave Link  301 at Fri Aug 27 00:10:22 2021, MaxMem= 17179869184 cpu:         1.2
 (Enter /public3/home/sc51754/softwares/g09e01/l302.exe)
 NPDir=0 NMtPBC=     1 NCelOv=     1 NCel=       1 NClECP=     1 NCelD=      1
         NCelK=      1 NCelE2=     1 NClLst=     1 CellRange=     0.0.
 One-electron integrals computed using PRISM.
 NBasis=   338 RedAO= T EigKep=  1.64D-04  NBF=   338
 NBsUse=   338 1.00D-06 EigRej= -1.00D+00 NBFU=   338
 Precomputing XC quadrature grid using
 IXCGrd= 4 IRadAn=           0 IRanWt=          -1 IRanGd=           0 AccXCQ= 0.00D+00.
 Generated NRdTot=       0 NPtTot=           0 NUsed=           0 NTot=          32
 NSgBfM=   385   385   385   385   385 MxSgAt=    15 MxSgA2=    15.
 Leave Link  302 at Fri Aug 27 00:10:23 2021, MaxMem= 17179869184 cpu:        44.7
 (Enter /public3/home/sc51754/softwares/g09e01/l303.exe)
 DipDrv:  MaxL=1.
 Leave Link  303 at Fri Aug 27 00:10:23 2021, MaxMem= 17179869184 cpu:        11.0
 (Enter /public3/home/sc51754/softwares/g09e01/l401.exe)
 Initial guess from the checkpoint file:  "PY_H2O_BP86_PC2_OPT_FREQ.chk"
 B after Tr=     0.000000    0.000000    0.000000
         Rot=    1.000000    0.000017   -0.000017    0.000849 Ang=   0.10 deg.
 Guess basis will be translated and rotated to current coordinates.
 JPrj=2 DoOrth=T DoCkMO=T.
 Generating alternative initial guess.
 ExpMin= 7.41D-02 ExpMax= 1.48D+04 ExpMxC= 5.05D+02 IAcc=2 IRadAn=         4 AccDes= 0.00D+00
 Harris functional with IExCor=  404 and IRadAn=       4 diagonalized for initial guess.
 HarFok:  IExCor=  404 AccDes= 0.00D+00 IRadAn=         4 IDoV= 1 UseB2=F ITyADJ=14
 ICtDFT=  3500011 ScaDFX=  1.000000  1.000000  1.000000  1.000000
 FoFCou: FMM=F IPFlag=           0 FMFlag=      100000 FMFlg1=           0
         NFxFlg=           0 DoJE=T BraDBF=F KetDBF=T FulRan=T
         wScrn=  0.000000 ICntrl=     500 IOpCl=  0 I1Cent=   200000004 NGrid=           0
         NMat0=    1 NMatS0=      1 NMatT0=    0 NMatD0=    1 NMtDS0=    0 NMtDT0=    0
 Petite list used in FoFCou.
 Harris En= -400.283813268603    
 Leave Link  401 at Fri Aug 27 00:10:24 2021, MaxMem= 17179869184 cpu:        82.7
 (Enter /public3/home/sc51754/softwares/g09e01/l502.exe)
 Closed shell SCF:
 Using DIIS extrapolation, IDIIS=  1040.
 Integral symmetry usage will be decided dynamically.
 Keep J ints in memory in canonical form, NReq=1670404686.
 IVT=      490665 IEndB=      490665 NGot= 17179869184 MDV= 15538220534
 LenX= 15538220534 LenY= 15538071868
 Requested convergence on RMS density matrix=1.00D-08 within 128 cycles.
 Requested convergence on MAX density matrix=1.00D-06.
 Requested convergence on             energy=1.00D-06.
 No special actions if energy rises.
 FoFCou: FMM=F IPFlag=           0 FMFlag=           0 FMFlg1=           0
         NFxFlg=           0 DoJE=F BraDBF=F KetDBF=F FulRan=T
         wScrn=  0.000000 ICntrl=     600 IOpCl=  0 I1Cent=           0 NGrid=           0
         NMat0=    1 NMatS0=  57291 NMatT0=    0 NMatD0=    1 NMtDS0=    0 NMtDT0=    0
 Symmetry not used in FoFCou.
 Integral accuracy reduced to 1.0D-05 until final iterations.

 Cycle   1  Pass 0  IDiag  1:
 E= -400.147717198109    
 DIIS: error= 7.76D-04 at cycle   1 NSaved=   1.
 NSaved= 1 IEnMin= 1 EnMin= -400.147717198109     IErMin= 1 ErrMin= 7.76D-04
 ErrMax= 7.76D-04  0.00D+00 EMaxC= 1.00D-01 BMatC= 3.24D-04 BMatP= 3.24D-04
 IDIUse=3 WtCom= 9.92D-01 WtEn= 7.76D-03
 Coeff-Com:  0.100D+01
 Coeff-En:   0.100D+01
 Coeff:      0.100D+01
 Gap=     0.510 Goal=   None    Shift=    0.000
 RMSDP=6.03D-05 MaxDP=2.15D-03              OVMax= 7.37D-03

 Cycle   2  Pass 0  IDiag  1:
 E= -400.147909023232     Delta-E=       -0.000191825123 Rises=F Damp=F
 DIIS: error= 5.80D-04 at cycle   2 NSaved=   2.
 NSaved= 2 IEnMin= 2 EnMin= -400.147909023232     IErMin= 2 ErrMin= 5.80D-04
 ErrMax= 5.80D-04  0.00D+00 EMaxC= 1.00D-01 BMatC= 9.47D-05 BMatP= 3.24D-04
 IDIUse=3 WtCom= 9.94D-01 WtEn= 5.80D-03
 Coeff-Com:  0.296D+00 0.704D+00
 Coeff-En:   0.000D+00 0.100D+01
 Coeff:      0.294D+00 0.706D+00
 Gap=     0.122 Goal=   None    Shift=    0.000
 RMSDP=4.78D-05 MaxDP=2.43D-03 DE=-1.92D-04 OVMax= 1.03D-02

 Cycle   3  Pass 0  IDiag  1:
 E= -400.147815122526     Delta-E=        0.000093900706 Rises=F Damp=F
 DIIS: error= 8.66D-04 at cycle   3 NSaved=   3.
[...]
   A11        2.10641  -0.00000   0.00000  -0.00000  -0.00000   2.10640
   A12        2.02432  -0.00000   0.00000  -0.00006  -0.00006   2.02426
   A13        2.15246   0.00001   0.00000   0.00006   0.00006   2.15252
   A14        2.11679  -0.00000   0.00000  -0.00004  -0.00004   2.11675
   A15        2.08520   0.00001   0.00000   0.00008   0.00008   2.08528
   A16        2.08120  -0.00000   0.00000  -0.00004  -0.00004   2.08115
   A17        2.05883   0.00000   0.00000   0.00003   0.00003   2.05886
   A18        2.09975   0.00000   0.00000   0.00003   0.00003   2.09978
   A19        2.12460  -0.00000   0.00000  -0.00006  -0.00006   2.12454
   A20        2.68884  -0.00004   0.00000  -0.00183  -0.00183   2.68701
   A21        1.84764  -0.00001   0.00000  -0.00011  -0.00011   1.84754
   A22        1.37050   0.00003   0.00000   0.00124   0.00124   1.37174
   A23        2.22892  -0.00000   0.00000  -0.00058  -0.00058   2.22834
   A24        2.52290   0.00000   0.00000   0.00049   0.00049   2.52340
    D1        0.03131   0.00000   0.00000   0.00030   0.00030   0.03162
    D2       -3.10869  -0.00000   0.00000   0.00024   0.00025  -3.10844
    D3        0.02987  -0.00000   0.00000  -0.00204  -0.00204   0.02783
    D4       -3.13558  -0.00000   0.00000   0.00000   0.00000  -3.13558
    D5        0.00460   0.00000   0.00000   0.00005   0.00005   0.00465
    D6        0.01157  -0.00000   0.00000  -0.00010  -0.00009   0.01147
    D7       -3.13144  -0.00000   0.00000  -0.00005  -0.00005  -3.13148
    D8       -0.00224   0.00000   0.00000  -0.00002  -0.00002  -0.00226
    D9        3.13744  -0.00000   0.00000  -0.00004  -0.00004   3.13739
   D10        3.13339   0.00000   0.00000   0.00009   0.00009   3.13349
   D11       -0.01011   0.00000   0.00000   0.00007   0.00006  -0.01005
   D12       -0.11810   0.00000   0.00000   0.00014   0.00014  -0.11796
   D13        3.02885   0.00000   0.00000   0.00005   0.00005   3.02889
   D14        3.13601   0.00000   0.00000   0.00001   0.00001   3.13602
   D15       -0.00267   0.00000   0.00000   0.00004   0.00004  -0.00263
   D16       -0.00407  -0.00000   0.00000  -0.00004  -0.00004  -0.00411
   D17        3.14043  -0.00000   0.00000  -0.00001  -0.00001   3.14042
   D18        0.00139  -0.00000   0.00000  -0.00000  -0.00000   0.00138
   D19       -3.13924   0.00000   0.00000   0.00005   0.00005  -3.13919
   D20        3.13991  -0.00000   0.00000  -0.00004  -0.00004   3.13988
   D21       -0.00071   0.00000   0.00000   0.00002   0.00002  -0.00070
   D22       -0.00088  -0.00000   0.00000  -0.00003  -0.00003  -0.00092
   D23        3.13994  -0.00000   0.00000  -0.00002  -0.00002   3.13992
   D24       -3.14042  -0.00000   0.00000  -0.00001  -0.00001  -3.14042
   D25        0.00041   0.00000   0.00000   0.00001   0.00001   0.00042
   D26        0.00124   0.00000   0.00000   0.00004   0.00004   0.00129
   D27       -3.13957   0.00000   0.00000   0.00003   0.00003  -3.13954
   D28       -3.14131  -0.00000   0.00000  -0.00001  -0.00001  -3.14132
   D29        0.00106  -0.00000   0.00000  -0.00002  -0.00002   0.00104
   D30       -2.27546   0.00000   0.00000   0.00219   0.00219  -2.27327
   D31       -0.07220   0.00000   0.00000   0.00184   0.00184  -0.07036
   D32        0.13215  -0.00000   0.00000  -0.00060  -0.00061   0.13154
   D33        1.89978   0.00000   0.00000   0.00022   0.00022   1.90000
         Item               Value     Threshold  Converged?
 Maximum Force            0.000043     0.000450     YES
 RMS     Force            0.000010     0.000300     YES
 Maximum Displacement     0.001801     0.001800     NO 
 RMS     Displacement     0.000454     0.001200     YES
 Predicted change in Energy=-9.786148D-08
 GradGradGradGradGradGradGradGradGradGradGradGradGradGradGradGradGradGrad

 Leave Link  103 at Fri Aug 27 00:15:58 2021, MaxMem= 17179869184 cpu:        92.3
 (Enter /public3/home/sc51754/softwares/g09e01/l9999.exe)
 1\1\GINC-T1413\Freq\RBP86\Gen\C5H7N1O2\SC51754\27-Aug-2021\0\\#P Geom=
 AllCheck Guess=TCheck SCRF=Check GenChk RBP86/ChkBas Freq\\PY_H2O_BP86
 _PC2_OPT_FREQ\\0,1\O,1.2919023921,1.4043906748,-0.0093082789\N,0.27241
 07962,-0.6602937377,0.0023887333\C,0.2290280304,0.7464341813,-0.001611
 8022\C,-1.1051216912,1.294914593,0.002050827\C,-0.8210225425,-1.467841
 7367,0.0039798519\C,-2.2112172449,0.4799936453,0.0040743839\C,-2.08499
 07414,-0.9348476783,0.0043219508\H,2.6466980803,0.2849507407,-0.065379
 742\H,-1.1873451948,2.3805818818,0.0002867884\H,-0.6231674876,-2.53928
 71241,0.0030592871\H,-3.2074772285,0.9265967544,0.0046041929\H,-2.9552
 402069,-1.5865605771,0.0040486377\O,3.0606305256,-0.624060936,-0.10897
 65334\H,3.722001458,-0.6481944436,0.5990307424\H,1.2328640553,-1.05051
 02378,0.0093649611\\Version=EM64L-G09RevE.01\State=1-A\HF=-400.1483346
 \RMSD=3.096e-09\RMSF=2.055e-05\ZeroPoint=0.1149872\Thermal=0.1230188\D
 ipole=-0.9833974,-0.8481981,0.4816306\DipoleDeriv=-1.6763611,-0.493904
 ,-0.0007652,-0.3941019,-0.7518901,-0.0004559,0.0012143,-0.0020072,-0.3
 630796,-0.8135901,0.2301967,0.002155,-0.5665728,-0.4675728,0.0025003,-
 0.0138599,0.0009211,-0.1388593,1.6532514,0.7086759,-0.00259,0.7712679,
 0.7697606,-0.0018829,-0.0103247,-0.0089826,0.195237,-0.6156895,-0.3901
 525,-0.000219,0.0812294,0.0217279,-0.0010915,0.0072361,0.0002291,-0.15
 70725,0.6308481,-0.2970448,0.0000488,0.2517012,0.1027618,0.0018163,-0.
 0024569,0.0032292,-0.0199456,0.2445051,0.0729046,-0.0001561,0.1141224,
 0.5110325,-0.000186,-0.0019508,-0.0011956,-0.084226,-0.2315586,0.30688
 79,-0.0000497,0.0165177,-0.3981507,0.0006274,0.0042116,0.0007616,-0.18
 88062,0.810514,-0.1749678,-0.0234128,-0.5050677,0.3626698,-0.0439518,-
 0.0361249,-0.0310202,0.207887,0.0619941,-0.0090343,-0.0000329,0.009743
 1,-0.0282076,0.0001701,0.0006281,0.0006013,0.144179,0.0600528,0.020776
 9,-0.000169,-0.0027119,-0.040886,0.0003616,-0.0015099,-0.0007318,0.139
 2925,-0.0663983,0.0637474,0.0000938,0.0643973,0.0542507,-0.000072,-0.0
 009059,0.0000304,0.1237958,0.002735,-0.0597677,-0.0000514,-0.0605716,0
 .0119199,0.000033,-0.0002306,-0.0001432,0.1573999,-1.0969306,0.1264361
 ,0.0994088,0.3421116,-0.5793032,0.0901899,0.1269579,0.049363,-0.432145
 ,0.253391,0.0032337,-0.0763244,-0.0475853,0.2678191,-0.0499453,-0.0839
 798,-0.0188373,0.198905,0.7832368,-0.1079881,0.002064,-0.0744795,0.164
 0681,0.0018868,0.0110953,0.007782,0.217438\Polar=107.0766814,5.7334171
 ,88.1708124,0.8380518,-0.3591664,45.4921309\PG=C01 [X(C5H7N1O2)]\NImag
 =0\\0.48809923,0.23914051,0.26396548,-0.00304669,-0.00221130,0.0346492
 9,0.01224014,-0.06084874,0.00033452,0.78690496,-0.03887846,-0.06040496
 ,0.00041836,0.00212796,0.58883530,0.00075955,0.00044803,0.01582995,0.0
 0152812,-0.00190759,0.08085591,-0.41803992,-0.18853066,0.00232635,-0.1
 5567624,0.00994769,-0.00061938,0.79231422,-0.18341341,-0.20373295,0.00
 132507,0.05035617,-0.17314750,-0.00013381,0.10478900,0.54291430,0.0021
 4047,0.00116295,-0.06549719,-0.00011293,0.00025378,-0.05724190,-0.0025
 2832,-0.00131124,0.18157826,-0.06907929,-0.00450206,0.00052242,0.02226
 678,0.04518401,0.00006384,-0.19589335,0.04269591,0.00022764,0.62223467
 ,-0.02737028,0.01955206,0.00020701,0.03570860,-0.02342980,0.00008092,0
 .06910140,-0.13940988,-0.00026040,0.06367831,0.71737849,0.00043731,0.0
 0036537,0.01819067,-0.00015983,0.00001907,0.00529744,0.00036577,-0.000
 30978,-0.07056846,-0.00125806,-0.00086524,0.10725388,-0.01232049,0.012
 23683,-0.00005740,-0.25607401,-0.06565776,0.00017279,0.04196072,-0.066
 79049,0.00005106,-0.04303377,-0.00424331,0.00005888,0.69388070,-0.0033
 4570,-0.00185595,0.00003913,-0.10829695,-0.20101351,0.00055900,-0.0177
 1004,-0.03768509,0.00004308,-0.00354969,-0.00055972,0.00001287,-0.0622
 6189,0.71595874,0.00001929,0.00002778,0.00535259,0.00015106,0.00024456
 ,-0.04308378,-0.00003680,0.00019005,-0.00304101,0.00005928,0.00001620,
 -0.00005034,-0.00014111,-0.00012161,0.12754041,0.00233554,0.00450900,-
 0.00001857,-0.00716066,-0.00766253,0.00000378,-0.04220379,-0.00765579,
 0.00007360,-0.29529412,-0.14717332,0.00050022,0.01076050,0.03286345,-0
 .00001490,0.71180318,0.01822852,-0.00415960,-0.00007474,-0.03080740,-0
 .03423414,0.00003232,-0.02594665,0.05119292,0.00001750,-0.10726437,-0.
 21288172,0.00037704,0.06720422,-0.02194922,-0.00006166,0.00762637,0.62
 575961,-0.00001028,-0.00001177,0.00412265,0.00006289,0.00004256,-0.004
 54216,0.00010405,-0.00001024,-0.00033126,0.00030908,0.00028790,-0.0500
 2150,-0.00005877,0.00000514,0.00675860,-0.00063326,-0.00028090,0.12960
 730,0.00581026,-0.00565475,-0.00000422,-0.07227841,-0.02732467,-0.0000
 2397,-0.01798744,0.03165908,-0.00000809,0.03043914,-0.02446837,-0.0000
 1897,-0.33274527,0.11751279,0.00002581,-0.11453292,-0.00803307,0.00004
 529,0.73115432,-0.01150660,0.00081342,0.00002988,0.00057015,0.03881703
 ,-0.00007174,0.02136986,-0.02574870,-0.00000883,-0.04473571,-0.0357744
 7,0.00004549,0.07782377,-0.15776920,0.00003729,0.03840181,-0.27902077,
 0.00002014,0.03107597,0.62501787,0.00000232,0.00004583,-0.00037808,0.0
 0003725,0.00000052,0.01096825,-0.00000707,-0.00004592,-0.00671999,0.00
 004004,0.00000898,0.00621917,-0.00001286,0.00003445,-0.05746253,0.0000
 0752,-0.00002659,-0.05534001,-0.00006872,0.00000871,0.10515372,0.01598
 608,-0.00401506,-0.00141460,-0.00288080,0.00646678,-0.00048009,-0.0211
 1549,-0.01279027,0.00033473,0.00520910,0.00167056,0.00017701,0.0004383
 2,0.00021394,-0.00003754,-0.00040796,-0.00248162,0.00001400,-0.0001499
 5,0.00186125,0.00004365,0.09148996,-0.01890441,-0.01213092,0.00132345,
 0.00291525,-0.00487063,0.00050493,0.01261210,0.02002452,-0.00010125,-0
 .00653095,-0.00277849,-0.00017861,-0.00219434,-0.00261735,-0.00001127,
 0.00048361,0.00373960,-0.00001932,0.00150714,-0.00238881,-0.00003449,-
 0.11266859,0.31841549,-0.00008206,0.00003276,-0.00987045,-0.00075470,-
 0.00019536,-0.00069801,-0.00001831,-0.00002683,0.00054858,0.00001588,-
 0.00001191,0.00134674,0.00007439,0.00019456,-0.00026165,-0.00005645,-0
 .00008528,0.00016217,-0.00014060,0.00004023,0.00012608,0.01536204,0.01
 356187,0.04358647,0.00183188,-0.00221579,-0.00002462,-0.00584013,0.003
 34720,-0.00000147,0.00307648,0.02805652,-0.00005955,-0.05477363,0.0233
 1581,0.00004510,-0.00197989,-0.00086972,-0.00000020,0.00569332,-0.0254
 8866,0.00003881,-0.00340520,-0.00237062,0.00002173,-0.00024170,0.00032
 689,-0.00000778,0.05360681,0.00000802,0.00163843,-0.00000603,0.0024725
 0,-0.00040635,0.00000972,-0.00345159,-0.00968329,0.00005802,0.02502919
 ,-0.32536679,0.00042228,0.00073552,0.00092542,0.00000138,0.00315920,-0
 .01249271,0.00002344,-0.00340166,0.00122045,0.00002138,0.00007737,-0.0
 0010656,0.00000891,-0.02437062,0.34437937,0.00000120,-0.00001891,-0.00
 217165,0.00002000,-0.00000992,0.00477869,-0.00003041,-0.00001720,0.002
 34260,0.00004805,0.00051861,-0.03098227,0.00001998,0.00000873,-0.00067
 914,-0.00002986,0.00001937,0.00201068,0.00000621,0.00000474,0.00857767
 ,-0.00001708,0.00000903,-0.00003856,-0.00002017,-0.00049679,0.02227760
 ,-0.00100070,-0.00211853,0.00001946,0.00452656,-0.03322476,0.00000393,
 -0.00338711,0.00165345,-0.00000028,-0.00009744,-0.00060483,-0.00000020
 ,-0.06645080,0.05656712,0.00004448,-0.00539922,0.00104099,0.00000035,0
 .00247640,0.02633226,0.00001223,0.00042204,-0.00037448,0.00000724,0.00
 016447,0.00001274,-0.00000244,0.06708956,-0.00069513,-0.00187479,0.000
 02474,0.00045712,-0.02025021,-0.00001317,-0.00259758,0.00508266,-0.000
 04568,0.00030946,0.00055250,-0.00000206,0.05083787,-0.31375381,-0.0001
 6240,0.00240436,0.00056018,-0.00000458,-0.00071185,-0.00550981,-0.0000
 1912,0.00036412,-0.00026154,-0.00001435,0.00003409,-0.00009072,0.00000
 005,-0.05045985,0.33477269,-0.00000190,-0.00001098,-0.00017717,0.00008
 411,0.00014840,0.00206386,0.00001184,-0.00001665,0.00562188,0.00000933
 ,0.00001537,-0.00004473,-0.00002283,-0.00036706,-0.03425174,-0.0000198
 4,0.00000657,0.00716503,0.00003240,0.00001247,0.00549224,-0.00003210,0
 .00001281,-0.00004697,-0.00000564,-0.00000131,-0.00122467,-0.00005459,
 0.00021630,0.02256258,-0.00215589,0.00039295,0.00001841,0.00031379,-0.
 00032380,-0.00000039,0.00007351,-0.00412031,-0.00000112,-0.01945220,0.
 01164913,-0.00000095,0.00144581,0.00050781,0.00000186,-0.27343816,0.09
 872012,0.00015285,0.00083506,-0.00086751,-0.00001100,0.00032716,-0.000
 33910,-0.00001569,0.00110293,-0.00018524,-0.00000255,-0.00001087,-0.00
 009401,0.00000084,0.29060752,-0.00091941,0.00054090,0.00000879,-0.0010
 4079,0.00019634,0.00000054,-0.00268102,-0.00246136,0.00001371,-0.01741
 866,0.01082568,0.00000667,-0.00023570,-0.00623134,0.00000302,0.0989982
 9,-0.09944161,-0.00005321,0.02779418,-0.00732113,-0.00001704,0.0000645
 9,-0.00012714,-0.00000285,0.00031713,0.00081395,-0.00000640,0.00151017
 ,-0.00041801,0.00000442,-0.10591239,0.10235503,-0.00001091,-0.00004139
 ,-0.00197177,0.00001007,-0.00000472,-0.00087619,0.00001886,0.00002728,
 0.01099775,0.00008200,0.00004172,0.00578651,0.00000158,-0.00001395,0.0
 0496743,0.00008923,-0.00007463,-0.03856701,-0.00000808,0.00001301,0.00
 381105,-0.00002902,0.00002874,-0.00018664,-0.00001334,-0.00001612,-0.0
 0513088,-0.00000087,0.00000163,-0.00037429,-0.00015875,0.00004576,0.02
 451996,0.00022727,-0.00024381,0.00000156,-0.00368260,0.00401901,-0.000
 01287,-0.00010120,0.00103961,-0.00001396,0.00085846,0.00133050,-0.0000
 0050,-0.01722442,-0.01933359,-0.00002219,0.00668318,0.00415083,-0.0000
 0606,-0.23146543,-0.13171725,-0.00002418,0.00003266,0.00014245,-0.0000
 2293,0.00020810,0.00029552,-0.00000172,0.00068894,0.00017676,0.0000049
 2,0.00053543,-0.00044848,0.00000309,0.24357694,-0.00042257,0.00045153,
 0.00000274,0.00360740,-0.00024861,0.00000790,0.00114976,-0.00118232,-0
 .00000514,0.00237216,-0.00466017,0.00000137,0.01106017,0.01031885,-0.0
 0000820,-0.02477363,-0.01227200,-0.00001189,-0.13386962,-0.15205892,-0
 .00003552,0.00007476,-0.00015744,0.00000791,-0.00121647,-0.00055998,0.
 00000305,-0.00046178,0.00054541,0.00000213,0.00028849,0.00108762,0.000
 00327,0.14176198,0.15811160,0.00000655,-0.00001955,-0.00058677,-0.0000
 2255,-0.00001770,0.00715566,-0.00000764,0.00001344,-0.00031995,0.00000
 365,0.00000505,0.00423446,0.00001225,-0.00000661,-0.00150657,0.0000099
 7,0.00002329,-0.00038113,-0.00006427,-0.00007348,-0.02550373,0.0000064
 2,-0.00000360,0.00002150,-0.00000173,0.00000287,0.00060277,0.00000093,
 0.00000546,-0.00411976,0.00000082,0.00000048,-0.00234104,0.00005267,0.
 00004510,0.02123864,-0.01288743,0.01297861,0.00011263,-0.01648642,-0.0
 0415200,-0.00083555,0.00335234,0.00216648,0.00022141,-0.00112732,-0.00
 014401,0.00012807,0.00118596,0.00484550,-0.00007003,-0.00018955,-0.000
 15088,-0.00003648,-0.00200608,-0.00060586,0.00009741,-0.08118114,0.139
 19260,-0.00064499,-0.00011804,0.00013392,0.00001184,-0.00007964,-0.000
 36640,-0.00002968,-0.00024364,-0.00000656,-0.00001750,-0.00042645,0.00
 012329,0.00002098,0.33628113,0.02760927,-0.00452207,0.00041283,-0.0030
 7304,0.00651645,-0.00128207,-0.01231824,-0.01582348,0.00017435,0.00485
 608,0.00249961,-0.00012328,0.00175783,0.00130683,-0.00006798,-0.000297
 97,-0.00276877,0.00000693,-0.00094278,0.00188282,0.00004503,0.10202692
 ,-0.31540659,-0.04454538,-0.00035240,0.00011889,-0.00000932,0.00042979
 ,0.00027168,0.00001882,0.00027180,0.00011676,0.00002283,-0.00005611,0.
 00011162,0.00003486,-0.15222153,0.36724071,-0.00090173,0.00126212,0.00
 633179,-0.00345293,0.00019531,0.00374878,0.00052617,-0.00020807,-0.000
 34016,-0.00013833,0.00006992,-0.00088158,-0.00027044,0.00022418,0.0003
 6805,0.00007705,0.00002867,0.00004024,-0.00000851,-0.00016704,-0.00027
 599,-0.01551415,-0.01029199,-0.03504996,0.00001491,-0.00000552,0.00000
 387,-0.00002420,-0.00006986,0.00003025,0.00001400,0.00000411,0.0001183
 0,-0.00003143,0.00000175,-0.00009252,0.25059098,0.02484169,0.29821237,
 0.00036197,0.00121794,0.00114954,-0.00158891,-0.00053938,0.00088359,-0
 .00047630,-0.00040898,-0.00020323,0.00009940,0.00008846,-0.00023667,-0
 .00027452,0.00038903,0.00007261,0.00000591,-0.00007498,0.00001879,-0.0
 0007809,-0.00011504,-0.00007220,-0.01183878,-0.00486490,-0.01522242,-0
 .00000037,0.00001766,-0.00000532,-0.00002466,-0.00007392,0.00000226,0.
 00001066,-0.00000503,0.00003229,-0.00003359,0.00001972,-0.00002244,-0.
 23153532,0.02781276,-0.23418736,0.24463890,0.00237787,-0.00219836,-0.0
 0147024,-0.00250501,0.00058671,0.00065044,-0.00084494,-0.00102813,-0.0
 0007598,0.00017763,0.00016485,0.00019713,0.00015921,0.00058396,0.00002
 039,0.00001081,-0.00011123,0.00000515,-0.00025506,-0.00003708,-0.00000
 898,0.02554760,0.00214973,0.03039569,-0.00003664,0.00002239,-0.0000001
 5,-0.00000802,-0.00004824,-0.00003753,0.00000402,0.00000379,-0.0000327
 6,-0.00005444,0.00002034,-0.00001706,-0.00337742,-0.03689413,-0.016696
 86,-0.02444289,0.03681471,0.00092522,-0.00097475,0.00000087,0.00322508
 ,-0.00009043,-0.00000987,-0.00019687,0.00021051,-0.00001102,0.00005280
 ,-0.00005571,-0.00002908,0.00009634,-0.00037838,-0.00000341,0.00000578
 ,0.00004975,-0.00000275,0.00016071,0.00007604,-0.00001072,0.00104332,-
 0.00448245,-0.00180647,0.00000671,-0.00000522,0.00001098,-0.00000163,0
 .00005830,0.00002953,0.00000317,-0.00000321,0.00001059,0.00004743,-0.0
 0000944,0.00000600,-0.25185434,0.01722704,-0.26550468,0.24985222,-0.01
 108555,0.26713285,-0.01140865,-0.00234644,0.00008119,-0.30458404,0.106
 67069,-0.00144188,0.01410358,0.01276303,-0.00012144,-0.00235642,-0.002
 53864,-0.00003718,-0.01956883,0.00246795,-0.00005163,0.00134475,0.0032
 7655,-0.00000127,0.00393361,-0.00551648,-0.00006612,0.00391049,-0.0113
 0328,0.00150639,0.00067494,-0.00053250,0.00000226,0.00108247,0.0004149
 4,0.00002088,0.00004890,-0.00001632,0.00000135,0.00012271,0.00028636,0
 .00000436,0.00546161,0.00449762,0.00330596,0.00073373,0.00324729,-0.00
 336593,0.30650115,-0.00190821,0.00391778,-0.00002967,0.10835678,-0.116
 94613,0.00111458,0.03511092,-0.00931169,0.00008512,-0.00030131,-0.0061
 1214,0.00003167,-0.02043193,0.01434138,-0.00010754,-0.00089367,-0.0019
 2054,0.00000064,-0.00488733,-0.00212271,0.00002277,-0.00641234,-0.0034
 8388,0.00064003,0.00152329,-0.00041251,-0.00000491,-0.00029428,0.00042
 201,-0.00000376,0.00000803,0.00006052,-0.00000067,-0.00106299,0.000492
 47,0.00000745,0.00158426,-0.00465035,0.00081157,0.00097956,-0.00002931
 ,-0.00053651,-0.11137077,0.12575511,-0.00023835,-0.00005619,-0.0038247
 3,-0.00095016,0.00090316,-0.02424663,0.00009175,0.00031338,0.00298185,
 -0.00003760,-0.00005843,0.00424908,0.00007612,-0.00023352,-0.00464693,
 0.00000574,0.00004929,-0.00068086,0.00007500,0.00003310,0.00534287,0.0
 0054340,-0.00031785,0.00216716,0.00000724,-0.00001701,-0.00037770,-0.0
 0000443,0.00002472,-0.00272606,-0.00000149,-0.00000480,-0.00076378,0.0
 0002615,-0.00000504,0.00159244,0.00230525,0.00324363,-0.00670877,-0.00
 206168,-0.00184368,0.00018718,0.00016306,-0.00203077,0.02745489\\-0.00
 000706,-0.00002213,-0.00001057,-0.00001929,-0.00004926,-0.00000453,0.0
 0002384,0.00007106,0.00000798,0.00001568,-0.00000161,-0.00000005,0.000
 03886,0.00001304,-0.00000412,-0.00000679,-0.00001735,-0.00000394,-0.00
 002029,0.00000926,0.00000279,-0.00004863,-0.00003533,0.00001464,-0.000
 00596,-0.00000063,0.00000210,-0.00000508,-0.00000287,-0.00000132,0.000
 00160,0.00000392,0.00000192,0.00000295,-0.00000208,-0.00000012,0.00004
 320,0.00003027,0.00000101,-0.00000143,-0.00000323,-0.00000984,-0.00001
 161,0.00000695,0.00000403\\\@


 LET US LEARN TO DREAM, GENTLEMEN, THEN PERHAPS WE SHALL
 DISCOVER THE TRUTH;  BUT LET US BEWARE OF PUBLISHING
 OUR DREAMS ABROAD BEFORE THEY HAVE BEEN SCRUTINIZED
 BY OUR VIGILANT INTELLECT ... LET US ALWAYS ALLOW
 THE FRUIT TO HANG UNTIL IT IS RIPE.  UNRIPE FRUIT
 BRINGS EVEN THE GROWER BUT LITTLE PROFIT; IT DAMAGES
 THE HEALTH OF THOSE WHO CONSUME IT; IT ENDANGERS
 PARTICULARLY THE YOUTH WHO CANNOT YET DISTINGUISH
 BETWEEN RIPE AND UNRIPE FRUIT.

                                  -- KEKULE, 1890
 Job cpu time:       0 days  1 hours  3 minutes  4.8 seconds.
 File lengths (MBytes):  RWF=    137 Int=      0 D2E=      0 Chk=      9 Scr=      1
 Normal termination of Gaussian 09 at Fri Aug 27 00:15:59 2021.
