 Entering Gaussian System, Link 0=g09
 AtFile(1): pc-2.gbs
            -H     0
            S    4   1.00
                  0.754230D+02           0.240650D-02
                  0.113500D+02           0.184870D-01
                  0.259930D+01           0.897420D-01
                  0.735130D+00           0.281110D+00
            S    1   1.00
                  0.231670D+00           0.100000D+01
            S    1   1.00
                  0.741470D-01           0.100000D+01
            P    1   1.00
                  0.160000D+01           0.100000D+01
            P    1   1.00
                  0.450000D+00           0.100000D+01
            D    1   1.00
                  0.125000D+01           0.100000D+01
            ****
            -C     0
            S    7   1.00
                  0.785710D+04           0.568250D-03
                  0.117870D+04           0.439150D-02
                  0.268320D+03           0.225040D-01
                  0.759480D+02           0.866530D-01
                  0.245590D+02           0.244050D+00
                  0.862120D+01           0.441480D+00
                  0.312780D+01           0.353320D+00
            S    7   1.00
                  0.117870D+04          -0.594920D-06
                  0.268320D+03          -0.627480D-04
                  0.759480D+02          -0.757730D-03
                  0.245590D+02          -0.733080D-02
                  0.862120D+01          -0.389320D-01
                  0.312780D+01          -0.889080D-01
                  0.822020D+00           0.216890D+00
            S    1   1.00
                  0.330170D+00           0.100000D+01
            S    1   1.00
                  0.114630D+00           0.100000D+01
            P    4   1.00
                  0.337750D+02           0.602940D-02
                  0.767660D+01           0.432280D-01
                  0.223570D+01           0.163010D+00
                  0.764470D+00           0.365040D+00
            P    1   1.00
                  0.262320D+00           0.100000D+01
            P    1   1.00
                  0.846380D-01           0.100000D+01
            D    1   1.00
                  0.140000D+01           0.100000D+01
            D    1   1.00
                  0.450000D+00           0.100000D+01
            F    1   1.00
                  0.950000D+00           0.100000D+01
            ****
            -N     0
            S    7   1.00
                  0.111010D+05           0.545700D-03
                  0.166530D+04           0.421810D-02
                  0.379080D+03           0.216450D-01
                  0.107300D+03           0.837760D-01
                  0.347470D+02           0.238810D+00
                  0.122490D+02           0.439940D+00
                  0.447430D+01           0.363640D+00
            S    7   1.00
                  0.166530D+04          -0.150060D-05
                  0.379080D+03          -0.587530D-04
                  0.107300D+03          -0.774530D-03
                  0.347470D+02          -0.721610D-02
                  0.122490D+02          -0.393380D-01
                  0.447430D+01          -0.906110D-01
                  0.124040D+01           0.198820D+00
            S    1   1.00
                  0.487430D+00           0.100000D+01
            S    1   1.00
                  0.164840D+00           0.100000D+01
            P    4   1.00
                  0.479340D+02           0.617060D-02
                  0.109990D+02           0.442600D-01
                  0.324720D+01           0.168250D+00
                  0.111140D+01           0.368480D+00
            P    1   1.00
                  0.379880D+00           0.100000D+01
            P    1   1.00
                  0.120680D+00           0.100000D+01
            D    1   1.00
                  0.180000D+01           0.100000D+01
            D    1   1.00
                  0.550000D+00           0.100000D+01
            F    1   1.00
                  0.102000D+01           0.100000D+01
            ****
            -O     0
            S    7   1.00
                  0.147820D+05           0.535190D-03
                  0.221730D+04           0.413750D-02
                  0.504740D+03           0.212450D-01
                  0.142870D+03           0.824530D-01
                  0.463000D+02           0.236710D+00
                  0.163370D+02           0.440390D+00
                  0.598280D+01           0.364650D+00
            S    7   1.00
                  0.221730D+04          -0.192750D-05
                  0.504740D+03          -0.579640D-04
                  0.142870D+03          -0.794940D-03
                  0.463000D+02          -0.731250D-02
                  0.163370D+02          -0.405740D-01
                  0.598280D+01          -0.915940D-01
                  0.167180D+01           0.209400D+00
            S    1   1.00
                  0.646620D+00           0.100000D+01
            S    1   1.00
                  0.216690D+00           0.100000D+01
            P    4   1.00
                  0.604240D+02           0.689490D-02
                  0.139350D+02           0.490050D-01
                  0.415310D+01           0.182550D+00
                  0.141580D+01           0.376330D+00
            P    1   1.00
                  0.475490D+00           0.100000D+01
            P    1   1.00
                  0.145290D+00           0.100000D+01
            D    1   1.00
                  0.220000D+01           0.100000D+01
            D    1   1.00
                  0.650000D+00           0.100000D+01
            F    1   1.00
                  0.110000D+01           0.100000D+01
            ****
 Initial command:
 /public3/home/sc51754/softwares/g09e01/l1.exe "./Gau-64853.inp" -scrdir="./"
 Entering Link 1 = /public3/home/sc51754/softwares/g09e01/l1.exe PID=     64854.
  
 Copyright (c) 1988,1990,1992,1993,1995,1998,2003,2009,2015,
            Gaussian, Inc.  All Rights Reserved.
  
 This is part of the Gaussian(R) 09 program.  It is based on
 the Gaussian(R) 03 system (copyright 2003, Gaussian, Inc.),
 the Gaussian(R) 98 system (copyright 1998, Gaussian, Inc.),
 the Gaussian(R) 94 system (copyright 1995, Gaussian, Inc.),
 the Gaussian 92(TM) system (copyright 1992, Gaussian, Inc.),
 the Gaussian 90(TM) system (copyright 1990, Gaussian, Inc.),
 the Gaussian 88(TM) system (copyright 1988, Gaussian, Inc.),
 the Gaussian 86(TM) system (copyright 1986, Carnegie Mellon
 University), and the Gaussian 82(TM) system (copyright 1983,
 Carnegie Mellon University). Gaussian is a federally registered
 trademark of Gaussian, Inc.
  
 This software contains proprietary and confidential information,
 including trade secrets, belonging to Gaussian, Inc.
  
 This software is provided under written license and may be
 used, copied, transmitted, or stored only in accord with that
 written license.
  
 The following legend is applicable only to US Government
 contracts under FAR:
  
                    RESTRICTED RIGHTS LEGEND
  
 Use, reproduction and disclosure by the US Government is
 subject to restrictions as set forth in subparagraphs (a)
 and (c) of the Commercial Computer Software - Restricted
 Rights clause in FAR 52.227-19.
  
 Gaussian, Inc.
 340 Quinnipiac St., Bldg. 40, Wallingford CT 06492
  
  
 ---------------------------------------------------------------
 Warning -- This program may not be used in any manner that
 competes with the business of Gaussian, Inc. or will provide
 assistance to any competitor of Gaussian, Inc.  The licensee
 of this program is prohibited from giving any competitor of
 Gaussian, Inc. access to this program.  By using this program,
 the user acknowledges that Gaussian, Inc. is engaged in the
 business of creating and licensing software in the field of
 computational chemistry and represents and warrants to the
 licensee that it is not a competitor of Gaussian, Inc. and that
 it will not use this program in any manner prohibited above.
 ---------------------------------------------------------------
  

 Cite this work as:
 Gaussian 09, Revision E.01,
 M. J. Frisch, G. W. Trucks, H. B. Schlegel, G. E. Scuseria, 
 M. A. Robb, J. R. Cheeseman, G. Scalmani, V. Barone, B. Mennucci, 
 G. A. Petersson, H. Nakatsuji, M. Caricato, X. Li, H. P. Hratchian, 
 A. F. Izmaylov, J. Bloino, G. Zheng, J. L. Sonnenberg, M. Hada, 
 M. Ehara, K. Toyota, R. Fukuda, J. Hasegawa, M. Ishida, T. Nakajima, 
 Y. Honda, O. Kitao, H. Nakai, T. Vreven, J. A. Montgomery, Jr., 
 J. E. Peralta, F. Ogliaro, M. Bearpark, J. J. Heyd, E. Brothers, 
 K. N. Kudin, V. N. Staroverov, T. Keith, R. Kobayashi, J. Normand, 
 K. Raghavachari, A. Rendell, J. C. Burant, S. S. Iyengar, J. Tomasi, 
 M. Cossi, N. Rega, J. M. Millam, M. Klene, J. E. Knox, J. B. Cross, 
 V. Bakken, C. Adamo, J. Jaramillo, R. Gomperts, R. E. Stratmann, 
 O. Yazyev, A. J. Austin, R. Cammi, C. Pomelli, J. W. Ochterski, 
 R. L. Martin, K. Morokuma, V. G. Zakrzewski, G. A. Voth, 
 P. Salvador, J. J. Dannenberg, S. Dapprich, A. D. Daniels, 
 O. Farkas, J. B. Foresman, J. V. Ortiz, J. Cioslowski, 
 and D. J. Fox, Gaussian, Inc., Wallingford CT, 2013.
 
 ******************************************
 Gaussian 09:  EM64L-G09RevE.01 30-Nov-2015
                27-Aug-2021 
 ******************************************
 %nprocshared=64
 Will use up to   64 processors via shared memory.
 %mem=128GB
 %chk=PY_H2O_wB97_PC2_OPT_FREQ.chk
 --------------------
 #p opt freq wB97/gen
 --------------------
 1/14=-1,18=20,19=15,26=3,38=1/1,3;
 2/9=110,12=2,17=6,18=5,40=1/2;
 3/5=7,11=2,16=1,25=1,30=1,71=1,74=-56/1,2,3;
 4//1;
 5/5=2,38=5/2;
 6/7=2,8=2,9=2,10=2,28=1/1;
 7//1,2,3,16;
 1/14=-1,18=20,19=15,26=3/3(2);
 2/9=110/2;
 99//99;
 2/9=110/2;
 3/5=7,6=1,11=2,16=1,25=1,30=1,71=1,74=-56,82=7/1,2,3;
 4/5=5,16=3,69=1/1;
 5/5=2,38=5/2;
 7//1,2,3,16;
 1/14=-1,18=20,19=15,26=3/3(-5);
 2/9=110/2;
 6/7=2,8=2,9=2,10=2,19=2,28=1/1;
 99/9=1/99;
 Leave Link    1 at Fri Aug 27 01:01:39 2021, MaxMem= 17179869184 cpu:        11.2
 (Enter /public3/home/sc51754/softwares/g09e01/l101.exe)
 ------------------------
 PY_H2O_wB97_PC2_OPT_FREQ
 ------------------------
 Symbolic Z-matrix:
 Charge =  0 Multiplicity = 1
 O                     1.26148   1.38785   0.00541 
 N                     0.24943  -0.65888   0.01158 
 C                     0.21021   0.736     0.00592 
 C                    -1.11959   1.28763   0.00047 
 C                    -0.84358  -1.46082   0.0067 
 C                    -2.21816   0.48191  -0.00352 
 C                    -2.09559  -0.93059  -0.00106 
 H                     2.7014    0.27314  -0.04162 
 H                    -1.19683   2.36437  -0.00254 
 H                    -0.64999  -2.52343   0.00862 
 H                    -3.20534   0.92605  -0.00928 
 H                    -2.96087  -1.57362  -0.00584 
 O                     3.10667  -0.61979  -0.08598 
 H                     3.83344  -0.62425   0.54074 
 H                     1.18728  -1.05929   0.02234 
 
 Add virtual bond connecting atoms H8         and O1         Dist= 3.44D+00.
 Add virtual bond connecting atoms O13        and H15        Dist= 3.73D+00.
 NAtoms=     15 NQM=       15 NQMF=       0 NMMI=      0 NMMIF=      0
                NMic=       0 NMicF=      0.
                    Isotopes and Nuclear Properties:
 (Nuclear quadrupole moments (NQMom) in fm**2, nuclear magnetic moments (NMagM)
  in nuclear magnetons)

  Atom         1           2           3           4           5           6           7           8           9          10
 IAtWgt=          16          14          12          12          12          12          12           1           1           1
 AtmWgt=  15.9949146  14.0030740  12.0000000  12.0000000  12.0000000  12.0000000  12.0000000   1.0078250   1.0078250   1.0078250
 NucSpn=           0           2           0           0           0           0           0           1           1           1
 AtZEff=   0.0000000   0.0000000   0.0000000   0.0000000   0.0000000   0.0000000   0.0000000   0.0000000   0.0000000   0.0000000
 NQMom=    0.0000000   2.0440000   0.0000000   0.0000000   0.0000000   0.0000000   0.0000000   0.0000000   0.0000000   0.0000000
 NMagM=    0.0000000   0.4037610   0.0000000   0.0000000   0.0000000   0.0000000   0.0000000   2.7928460   2.7928460   2.7928460
 AtZNuc=   8.0000000   7.0000000   6.0000000   6.0000000   6.0000000   6.0000000   6.0000000   1.0000000   1.0000000   1.0000000

  Atom        11          12          13          14          15
 IAtWgt=           1           1          16           1           1
 AtmWgt=   1.0078250   1.0078250  15.9949146   1.0078250   1.0078250
 NucSpn=           1           1           0           1           1
 AtZEff=   0.0000000   0.0000000   0.0000000   0.0000000   0.0000000
 NQMom=    0.0000000   0.0000000   0.0000000   0.0000000   0.0000000
 NMagM=    2.7928460   2.7928460   0.0000000   2.7928460   2.7928460
 AtZNuc=   1.0000000   1.0000000   8.0000000   1.0000000   1.0000000
 Leave Link  101 at Fri Aug 27 01:01:39 2021, MaxMem= 17179869184 cpu:        12.2
 (Enter /public3/home/sc51754/softwares/g09e01/l103.exe)

 GradGradGradGradGradGradGradGradGradGradGradGradGradGradGradGradGradGrad
 Berny optimization.
 Initialization pass.
                           ----------------------------
                           !    Initial Parameters    !
                           ! (Angstroms and Degrees)  !
 --------------------------                            --------------------------
 ! Name  Definition              Value          Derivative Info.                !
 --------------------------------------------------------------------------------
 ! R1    R(1,3)                  1.237          estimate D2E/DX2                !
 ! R2    R(1,8)                  1.8216         estimate D2E/DX2                !
 ! R3    R(2,3)                  1.3954         estimate D2E/DX2                !
 ! R4    R(2,5)                  1.3556         estimate D2E/DX2                !
 ! R5    R(2,15)                 1.0198         estimate D2E/DX2                !
 ! R6    R(3,4)                  1.4397         estimate D2E/DX2                !
 ! R7    R(4,6)                  1.3624         estimate D2E/DX2                !
 ! R8    R(4,9)                  1.0795         estimate D2E/DX2                !
 ! R9    R(5,7)                  1.3597         estimate D2E/DX2                !
 ! R10   R(5,10)                 1.0801         estimate D2E/DX2                !
 ! R11   R(6,7)                  1.4178         estimate D2E/DX2                !
 ! R12   R(6,11)                 1.0825         estimate D2E/DX2                !
 ! R13   R(7,12)                 1.0781         estimate D2E/DX2                !
 ! R14   R(8,13)                 0.9816         estimate D2E/DX2                !
 ! R15   R(13,14)                0.9597         estimate D2E/DX2                !
 ! R16   R(13,15)                1.972          estimate D2E/DX2                !
 ! A1    A(3,1,8)              110.4468         estimate D2E/DX2                !
 ! A2    A(3,2,5)              124.6558         estimate D2E/DX2                !
 ! A3    A(3,2,15)             114.7312         estimate D2E/DX2                !
 ! A4    A(5,2,15)             120.6129         estimate D2E/DX2                !
 ! A5    A(1,3,2)              120.1911         estimate D2E/DX2                !
 ! A6    A(1,3,4)              125.6683         estimate D2E/DX2                !
 ! A7    A(2,3,4)              114.1406         estimate D2E/DX2                !
 ! A8    A(3,4,6)              121.2133         estimate D2E/DX2                !
 ! A9    A(3,4,9)              116.6328         estimate D2E/DX2                !
 ! A10   A(6,4,9)              122.1537         estimate D2E/DX2                !
 ! A11   A(2,5,7)              120.7801         estimate D2E/DX2                !
 ! A12   A(2,5,10)             115.9423         estimate D2E/DX2                !
 ! A13   A(7,5,10)             123.2776         estimate D2E/DX2                !
 ! A14   A(4,6,7)              121.2972         estimate D2E/DX2                !
 ! A15   A(4,6,11)             119.5197         estimate D2E/DX2                !
 ! A16   A(7,6,11)             119.1831         estimate D2E/DX2                !
 ! A17   A(5,7,6)              117.9124         estimate D2E/DX2                !
 ! A18   A(5,7,12)             120.4308         estimate D2E/DX2                !
 ! A19   A(6,7,12)             121.6568         estimate D2E/DX2                !
 ! A20   A(1,8,13)             152.1528         estimate D2E/DX2                !
 ! A21   A(8,13,14)            106.7015         estimate D2E/DX2                !
 ! A22   A(8,13,15)             78.3702         estimate D2E/DX2                !
 ! A23   A(14,13,15)           134.4412         estimate D2E/DX2                !
 ! A24   A(2,15,13)            143.8035         estimate D2E/DX2                !
 ! D1    D(8,1,3,2)              1.8252         estimate D2E/DX2                !
 ! D2    D(8,1,3,4)           -178.1461         estimate D2E/DX2                !
 ! D3    D(3,1,8,13)             2.218          estimate D2E/DX2                !
 ! D4    D(5,2,3,1)           -179.6964         estimate D2E/DX2                !
 ! D5    D(5,2,3,4)              0.278          estimate D2E/DX2                !
 ! D6    D(15,2,3,1)             0.4507         estimate D2E/DX2                !
 ! D7    D(15,2,3,4)          -179.5749         estimate D2E/DX2                !
 ! D8    D(3,2,5,7)             -0.1672         estimate D2E/DX2                !
 ! D9    D(3,2,5,10)           179.7881         estimate D2E/DX2                !
 ! D10   D(15,2,5,7)           179.6776         estimate D2E/DX2                !
 ! D11   D(15,2,5,10)           -0.3671         estimate D2E/DX2                !
 ! D12   D(3,2,15,13)           -6.1898         estimate D2E/DX2                !
 ! D13   D(5,2,15,13)          173.9508         estimate D2E/DX2                !
 ! D14   D(1,3,4,6)            179.7501         estimate D2E/DX2                !
 ! D15   D(1,3,4,9)             -0.1145         estimate D2E/DX2                !
 ! D16   D(2,3,4,6)             -0.2227         estimate D2E/DX2                !
 ! D17   D(2,3,4,9)            179.9126         estimate D2E/DX2                !
 ! D18   D(3,4,6,7)              0.0669         estimate D2E/DX2                !
 ! D19   D(3,4,6,11)          -179.8963         estimate D2E/DX2                !
 ! D20   D(9,4,6,7)            179.924          estimate D2E/DX2                !
 ! D21   D(9,4,6,11)            -0.0392         estimate D2E/DX2                !
 ! D22   D(2,5,7,6)             -0.0156         estimate D2E/DX2                !
 ! D23   D(2,5,7,12)           179.9426         estimate D2E/DX2                !
 ! D24   D(10,5,7,6)          -179.9675         estimate D2E/DX2                !
 ! D25   D(10,5,7,12)           -0.0093         estimate D2E/DX2                !
 ! D26   D(4,6,7,5)              0.0605         estimate D2E/DX2                !
 ! D27   D(4,6,7,12)          -179.8972         estimate D2E/DX2                !
 ! D28   D(11,6,7,5)          -179.9762         estimate D2E/DX2                !
 ! D29   D(11,6,7,12)            0.0661         estimate D2E/DX2                !
 ! D30   D(1,8,13,14)         -137.6226         estimate D2E/DX2                !
 ! D31   D(1,8,13,15)           -4.4198         estimate D2E/DX2                !
 ! D32   D(8,13,15,2)            7.3388         estimate D2E/DX2                !
 ! D33   D(14,13,15,2)         109.4095         estimate D2E/DX2                !
 --------------------------------------------------------------------------------
 Trust Radius=3.00D-01 FncErr=1.00D-07 GrdErr=1.00D-06
 Number of steps in this run=     83 maximum allowed number of steps=    100.
 GradGradGradGradGradGradGradGradGradGradGradGradGradGradGradGradGradGrad

 Leave Link  103 at Fri Aug 27 01:01:39 2021, MaxMem= 17179869184 cpu:         0.1
 (Enter /public3/home/sc51754/softwares/g09e01/l202.exe)
                          Input orientation:                          
 ---------------------------------------------------------------------
 Center     Atomic      Atomic             Coordinates (Angstroms)
 Number     Number       Type             X           Y           Z
 ---------------------------------------------------------------------
      1          8           0        1.261476    1.387852    0.005408
      2          7           0        0.249425   -0.658880    0.011581
      3          6           0        0.210209    0.735997    0.005920
      4          6           0       -1.119592    1.287625    0.000474
      5          6           0       -0.843575   -1.460822    0.006702
      6          6           0       -2.218160    0.481905   -0.003521
      7          6           0       -2.095586   -0.930593   -0.001061
      8          1           0        2.701404    0.273138   -0.041623
      9          1           0       -1.196826    2.364370   -0.002539
     10          1           0       -0.649991   -2.523426    0.008616
     11          1           0       -3.205344    0.926047   -0.009282
     12          1           0       -2.960874   -1.573618   -0.005843
     13          8           0        3.106669   -0.619787   -0.085978
     14          1           0        3.833439   -0.624251    0.540740
     15          1           0        1.187279   -1.059291    0.022340
 ---------------------------------------------------------------------
                    Distance matrix (angstroms):
                    1          2          3          4          5
     1  O    0.000000
     2  N    2.283286   0.000000
     3  C    1.236963   1.395440   0.000000
     4  C    2.383182   2.379751   1.439685   0.000000
     5  C    3.542059   1.355649   2.436488   2.762279   0.000000
     6  C    3.595648   2.718565   2.441645   1.362370   2.379869
     7  C    4.079840   2.360734   2.845042   2.423439   1.359682
     8  H    1.821590   2.623679   2.534275   3.953602   3.946622
     9  H    2.645165   3.351400   2.152073   1.079516   3.841480
    10  H    4.353368   2.070142   3.371022   3.839883   1.080095
    11  H    4.490653   3.801034   3.420870   2.116883   3.357879
    12  H    5.157390   3.338124   3.923038   3.402509   2.120339
    13  O    2.728315   2.859176   3.199387   4.637561   4.039846
    14  H    3.309098   3.623033   3.906930   5.336635   4.781162
    15  H    2.448326   1.019811   2.044014   3.290919   2.070227
                    6          7          8          9         10
     6  C    0.000000
     7  C    1.417809   0.000000
     8  H    4.924139   4.945880   0.000000
     9  H    2.141681   3.415341   4.423910   0.000000
    10  H    3.389884   2.151036   4.365220   4.918303   0.000000
    11  H    1.082510   2.163040   5.942811   2.470418   4.292903
    12  H    2.185590   1.078066   5.955937   4.315046   2.498504
    13  O    5.438228   5.212223   0.981592   5.237578   4.212515
    14  H    6.175893   5.961605   1.557548   5.876272   4.898078
    15  H    3.738043   3.285470   2.017928   4.172053   2.349349
                   11         12         13         14         15
    11  H    0.000000
    12  H    2.511594   0.000000
    13  O    6.498999   6.142580   0.000000
    14  H    7.228445   6.882059   0.959682   0.000000
    15  H    4.820550   4.180012   1.972043   2.731330   0.000000
 Stoichiometry    C5H7NO2
 Framework group  C1[X(C5H7NO2)]
 Deg. of freedom    39
 Full point group                 C1      NOp   1
 Largest Abelian subgroup         C1      NOp   1
 Largest concise Abelian subgroup C1      NOp   1
                         Standard orientation:                         
 ---------------------------------------------------------------------
 Center     Atomic      Atomic             Coordinates (Angstroms)
 Number     Number       Type             X           Y           Z
 ---------------------------------------------------------------------
      1          8           0        1.261476    1.387852    0.005408
      2          7           0        0.249425   -0.658880    0.011581
      3          6           0        0.210209    0.735997    0.005920
      4          6           0       -1.119592    1.287625    0.000474
      5          6           0       -0.843575   -1.460822    0.006702
      6          6           0       -2.218160    0.481905   -0.003521
      7          6           0       -2.095586   -0.930593   -0.001061
      8          1           0        2.701404    0.273138   -0.041623
      9          1           0       -1.196826    2.364370   -0.002539
     10          1           0       -0.649991   -2.523426    0.008616
     11          1           0       -3.205344    0.926047   -0.009282
     12          1           0       -2.960874   -1.573618   -0.005843
     13          8           0        3.106669   -0.619787   -0.085978
     14          1           0        3.833439   -0.624251    0.540740
     15          1           0        1.187279   -1.059291    0.022340
 ---------------------------------------------------------------------
 Rotational constants (GHZ):      4.0248921      1.3974909      1.0390436
 Leave Link  202 at Fri Aug 27 01:01:40 2021, MaxMem= 17179869184 cpu:         4.9
 (Enter /public3/home/sc51754/softwares/g09e01/l301.exe)
 General basis read from cards:  (5D, 7F)
 Centers:       8      9     10     11     12     14     15
 S 4 1.00
     Exponent=  7.5423000000D+01 Coefficients=  2.4065000000D-03
     Exponent=  1.1350000000D+01 Coefficients=  1.8487000000D-02
     Exponent=  2.5993000000D+00 Coefficients=  8.9742000000D-02
     Exponent=  7.3513000000D-01 Coefficients=  2.8111000000D-01
 S 1 1.00
     Exponent=  2.3167000000D-01 Coefficients=  1.0000000000D+00
 S 1 1.00
     Exponent=  7.4147000000D-02 Coefficients=  1.0000000000D+00
 P 1 1.00
     Exponent=  1.6000000000D+00 Coefficients=  1.0000000000D+00
 P 1 1.00
     Exponent=  4.5000000000D-01 Coefficients=  1.0000000000D+00
 D 1 1.00
     Exponent=  1.2500000000D+00 Coefficients=  1.0000000000D+00
 ****
 Centers:       3      4      5      6      7
 S 7 1.00
     Exponent=  7.8571000000D+03 Coefficients=  5.6825000000D-04
     Exponent=  1.1787000000D+03 Coefficients=  4.3915000000D-03
     Exponent=  2.6832000000D+02 Coefficients=  2.2504000000D-02
     Exponent=  7.5948000000D+01 Coefficients=  8.6653000000D-02
     Exponent=  2.4559000000D+01 Coefficients=  2.4405000000D-01
     Exponent=  8.6212000000D+00 Coefficients=  4.4148000000D-01
     Exponent=  3.1278000000D+00 Coefficients=  3.5332000000D-01
 S 7 1.00
     Exponent=  1.1787000000D+03 Coefficients= -5.9492000000D-07
     Exponent=  2.6832000000D+02 Coefficients= -6.2748000000D-05
     Exponent=  7.5948000000D+01 Coefficients= -7.5773000000D-04
     Exponent=  2.4559000000D+01 Coefficients= -7.3308000000D-03
     Exponent=  8.6212000000D+00 Coefficients= -3.8932000000D-02
     Exponent=  3.1278000000D+00 Coefficients= -8.8908000000D-02
     Exponent=  8.2202000000D-01 Coefficients=  2.1689000000D-01
 S 1 1.00
     Exponent=  3.3017000000D-01 Coefficients=  1.0000000000D+00
 S 1 1.00
     Exponent=  1.1463000000D-01 Coefficients=  1.0000000000D+00
 P 4 1.00
     Exponent=  3.3775000000D+01 Coefficients=  6.0294000000D-03
     Exponent=  7.6766000000D+00 Coefficients=  4.3228000000D-02
     Exponent=  2.2357000000D+00 Coefficients=  1.6301000000D-01
     Exponent=  7.6447000000D-01 Coefficients=  3.6504000000D-01
 P 1 1.00
     Exponent=  2.6232000000D-01 Coefficients=  1.0000000000D+00
 P 1 1.00
     Exponent=  8.4638000000D-02 Coefficients=  1.0000000000D+00
 D 1 1.00
     Exponent=  1.4000000000D+00 Coefficients=  1.0000000000D+00
 D 1 1.00
     Exponent=  4.5000000000D-01 Coefficients=  1.0000000000D+00
 F 1 1.00
     Exponent=  9.5000000000D-01 Coefficients=  1.0000000000D+00
 ****
 Centers:       2
 S 7 1.00
     Exponent=  1.1101000000D+04 Coefficients=  5.4570000000D-04
     Exponent=  1.6653000000D+03 Coefficients=  4.2181000000D-03
     Exponent=  3.7908000000D+02 Coefficients=  2.1645000000D-02
     Exponent=  1.0730000000D+02 Coefficients=  8.3776000000D-02
     Exponent=  3.4747000000D+01 Coefficients=  2.3881000000D-01
     Exponent=  1.2249000000D+01 Coefficients=  4.3994000000D-01
     Exponent=  4.4743000000D+00 Coefficients=  3.6364000000D-01
 S 7 1.00
     Exponent=  1.6653000000D+03 Coefficients= -1.5006000000D-06
     Exponent=  3.7908000000D+02 Coefficients= -5.8753000000D-05
     Exponent=  1.0730000000D+02 Coefficients= -7.7453000000D-04
     Exponent=  3.4747000000D+01 Coefficients= -7.2161000000D-03
     Exponent=  1.2249000000D+01 Coefficients= -3.9338000000D-02
     Exponent=  4.4743000000D+00 Coefficients= -9.0611000000D-02
     Exponent=  1.2404000000D+00 Coefficients=  1.9882000000D-01
 S 1 1.00
     Exponent=  4.8743000000D-01 Coefficients=  1.0000000000D+00
 S 1 1.00
     Exponent=  1.6484000000D-01 Coefficients=  1.0000000000D+00
 P 4 1.00
     Exponent=  4.7934000000D+01 Coefficients=  6.1706000000D-03
     Exponent=  1.0999000000D+01 Coefficients=  4.4260000000D-02
     Exponent=  3.2472000000D+00 Coefficients=  1.6825000000D-01
     Exponent=  1.1114000000D+00 Coefficients=  3.6848000000D-01
 P 1 1.00
     Exponent=  3.7988000000D-01 Coefficients=  1.0000000000D+00
 P 1 1.00
     Exponent=  1.2068000000D-01 Coefficients=  1.0000000000D+00
 D 1 1.00
     Exponent=  1.8000000000D+00 Coefficients=  1.0000000000D+00
 D 1 1.00
     Exponent=  5.5000000000D-01 Coefficients=  1.0000000000D+00
 F 1 1.00
     Exponent=  1.0200000000D+00 Coefficients=  1.0000000000D+00
 ****
 Centers:       1     13
 S 7 1.00
     Exponent=  1.4782000000D+04 Coefficients=  5.3519000000D-04
     Exponent=  2.2173000000D+03 Coefficients=  4.1375000000D-03
     Exponent=  5.0474000000D+02 Coefficients=  2.1245000000D-02
     Exponent=  1.4287000000D+02 Coefficients=  8.2453000000D-02
     Exponent=  4.6300000000D+01 Coefficients=  2.3671000000D-01
     Exponent=  1.6337000000D+01 Coefficients=  4.4039000000D-01
     Exponent=  5.9828000000D+00 Coefficients=  3.6465000000D-01
 S 7 1.00
     Exponent=  2.2173000000D+03 Coefficients= -1.9275000000D-06
     Exponent=  5.0474000000D+02 Coefficients= -5.7964000000D-05
     Exponent=  1.4287000000D+02 Coefficients= -7.9494000000D-04
     Exponent=  4.6300000000D+01 Coefficients= -7.3125000000D-03
     Exponent=  1.6337000000D+01 Coefficients= -4.0574000000D-02
     Exponent=  5.9828000000D+00 Coefficients= -9.1594000000D-02
     Exponent=  1.6718000000D+00 Coefficients=  2.0940000000D-01
 S 1 1.00
     Exponent=  6.4662000000D-01 Coefficients=  1.0000000000D+00
 S 1 1.00
     Exponent=  2.1669000000D-01 Coefficients=  1.0000000000D+00
 P 4 1.00
     Exponent=  6.0424000000D+01 Coefficients=  6.8949000000D-03
     Exponent=  1.3935000000D+01 Coefficients=  4.9005000000D-02
     Exponent=  4.1531000000D+00 Coefficients=  1.8255000000D-01
     Exponent=  1.4158000000D+00 Coefficients=  3.7633000000D-01
 P 1 1.00
     Exponent=  4.7549000000D-01 Coefficients=  1.0000000000D+00
 P 1 1.00
     Exponent=  1.4529000000D-01 Coefficients=  1.0000000000D+00
 D 1 1.00
     Exponent=  2.2000000000D+00 Coefficients=  1.0000000000D+00
 D 1 1.00
     Exponent=  6.5000000000D-01 Coefficients=  1.0000000000D+00
 F 1 1.00
     Exponent=  1.1000000000D+00 Coefficients=  1.0000000000D+00
 ****
 Ernie: Thresh=  0.10000D-02 Tol=  0.10000D-05 Strict=F.
 Ernie:  8 primitive shells out of 263 were deleted.
 There are   385 symmetry adapted cartesian basis functions of A   symmetry.
 There are   338 symmetry adapted basis functions of A   symmetry.
   338 basis functions,   566 primitive gaussians,   385 cartesian basis functions
    30 alpha electrons       30 beta electrons
       nuclear repulsion energy       356.8539014902 Hartrees.
 IExCor= 4437 DFT=T Ex+Corr=wB97 ExCW=0 ScaHFX=  1.000000
 ScaDFX=  1.000000  1.000000  1.000000  1.000000 ScalE2=  1.000000  1.000000
 IRadAn=      0 IRanWt=     -1 IRanGd=            0 ICorTp=0 IEmpDi=  4
  HFx wShort=  0.000000 wLong=  0.400000 cFull=  0.000000 cShort=  0.000000 cLong=  1.000000
  DFx wShort=  0.000000 wLong=  0.400000 cFull=  0.000000 cShort=  0.000000 cLong=  1.000000
 NAtoms=   15 NActive=   15 NUniq=   15 SFac= 1.00D+00 NAtFMM=   60 NAOKFM=F Big=F
 Integral buffers will be    131072 words long.
 Raffenetti 2 integral format.
 Two-electron integral symmetry is turned on.
 Leave Link  301 at Fri Aug 27 01:01:40 2021, MaxMem= 17179869184 cpu:         4.2
 (Enter /public3/home/sc51754/softwares/g09e01/l302.exe)
 NPDir=0 NMtPBC=     1 NCelOv=     1 NCel=       1 NClECP=     1 NCelD=      1
         NCelK=      1 NCelE2=     1 NClLst=     1 CellRange=     0.0.
 One-electron integrals computed using PRISM.
 NBasis=   338 RedAO= T EigKep=  1.57D-04  NBF=   338
 NBsUse=   338 1.00D-06 EigRej= -1.00D+00 NBFU=   338
 Precomputing XC quadrature grid using
 IXCGrd= 4 IRadAn=           0 IRanWt=          -1 IRanGd=           0 AccXCQ= 0.00D+00.
 Generated NRdTot=       0 NPtTot=           0 NUsed=           0 NTot=          32
 NSgBfM=   385   385   385   385   385 MxSgAt=    15 MxSgA2=    15.
 Leave Link  302 at Fri Aug 27 01:01:41 2021, MaxMem= 17179869184 cpu:        44.7
 (Enter /public3/home/sc51754/softwares/g09e01/l303.exe)
 DipDrv:  MaxL=1.
 Leave Link  303 at Fri Aug 27 01:01:41 2021, MaxMem= 17179869184 cpu:        18.6
 (Enter /public3/home/sc51754/softwares/g09e01/l401.exe)
 ExpMin= 7.41D-02 ExpMax= 1.48D+04 ExpMxC= 5.05D+02 IAcc=2 IRadAn=         4 AccDes= 0.00D+00
 Harris functional with IExCor= 4437 and IRadAn=       4 diagonalized for initial guess.
 HarFok:  IExCor= 4437 AccDes= 0.00D+00 IRadAn=         4 IDoV= 1 UseB2=F ITyADJ=14
 ICtDFT=  3500011 ScaDFX=  1.000000  1.000000  1.000000  1.000000
 FoFCou: FMM=F IPFlag=           0 FMFlag=      100000 FMFlg1=           0
         NFxFlg=           0 DoJE=T BraDBF=F KetDBF=T FulRan=T
         wScrn=  0.000000 ICntrl=     500 IOpCl=  0 I1Cent=   200000004 NGrid=           0
         NMat0=    1 NMatS0=      1 NMatT0=    0 NMatD0=    1 NMtDS0=    0 NMtDT0=    0
 Petite list used in FoFCou.
 Harris En= -388.042958560768    
 JPrj=0 DoOrth=F DoCkMO=F.
 Leave Link  401 at Fri Aug 27 01:01:42 2021, MaxMem= 17179869184 cpu:        54.8
 (Enter /public3/home/sc51754/softwares/g09e01/l502.exe)
 Closed shell SCF:
 Using DIIS extrapolation, IDIIS=  1040.
 Integral symmetry usage will be decided dynamically.
 Keep R1 ints in memory in canonical form, NReq=3311562672.
 IVT=      490665 IEndB=      490665 NGot= 17179869184 MDV= 13897062548
 LenX= 13897062548 LenY= 13896913882
 Requested convergence on RMS density matrix=1.00D-08 within 128 cycles.
 Requested convergence on MAX density matrix=1.00D-06.
 Requested convergence on             energy=1.00D-06.
 No special actions if energy rises.
 FoFCou: FMM=F IPFlag=           0 FMFlag=           0 FMFlg1=           0
         NFxFlg=           0 DoJE=F BraDBF=F KetDBF=F FulRan=T
         wScrn=  0.000000 ICntrl=     600 IOpCl=  0 I1Cent=           0 NGrid=           0
         NMat0=    1 NMatS0=  57291 NMatT0=    0 NMatD0=    1 NMtDS0=    0 NMtDT0=    0
 Symmetry not used in FoFCou.
 Integral accuracy reduced to 1.0D-05 until final iterations.

 Cycle   1  Pass 0  IDiag  1:
 E= -399.948661856375    
 DIIS: error= 1.56D-02 at cycle   1 NSaved=   1.
 NSaved= 1 IEnMin= 1 EnMin= -399.948661856375     IErMin= 1 ErrMin= 1.56D-02
 ErrMax= 1.56D-02  0.00D+00 EMaxC= 1.00D-01 BMatC= 1.34D-01 BMatP= 1.34D-01
 IDIUse=3 WtCom= 8.44D-01 WtEn= 1.56D-01
 Coeff-Com:  0.100D+01
 Coeff-En:   0.100D+01
 Coeff:      0.100D+01
 Gap=     0.339 Goal=   None    Shift=    0.000
 GapD=    0.339 DampG=1.000 DampE=0.500 DampFc=0.5000 IDamp=-1.
 Damping current iteration by 5.00D-01
 RMSDP=1.29D-03 MaxDP=7.02D-02              OVMax= 1.27D-01

 Cycle   2  Pass 0  IDiag  1:
 E= -399.999438445598     Delta-E=       -0.050776589223 Rises=F Damp=T
 DIIS: error= 4.48D-03 at cycle   2 NSaved=   2.
 NSaved= 2 IEnMin= 2 EnMin= -399.999438445598     IErMin= 2 ErrMin= 4.48D-03
 ErrMax= 4.48D-03  0.00D+00 EMaxC= 1.00D-01 BMatC= 8.58D-03 BMatP= 1.34D-01
 IDIUse=3 WtCom= 9.55D-01 WtEn= 4.48D-02
 Coeff-Com: -0.272D-02 0.100D+01
 Coeff-En:   0.000D+00 0.100D+01
 Coeff:     -0.260D-02 0.100D+01
 Gap=     0.365 Goal=   None    Shift=    0.000
 RMSDP=4.49D-04 MaxDP=2.14D-02 DE=-5.08D-02 OVMax= 6.37D-02

 Cycle   3  Pass 0  IDiag  1:
 E= -400.053365835541     Delta-E=       -0.053927389943 Rises=F Damp=F
 DIIS: error= 3.05D-03 at cycle   3 NSaved=   3.
 NSaved= 3 IEnMin= 3 EnMin= -400.053365835541     IErMin= 3 ErrMin= 3.05D-03
 ErrMax= 3.05D-03  0.00D+00 EMaxC= 1.00D-01 BMatC= 2.46D-03 BMatP= 8.58D-03
 IDIUse=3 WtCom= 9.69D-01 WtEn= 3.05D-02
 Coeff-Com: -0.480D-01 0.316D+00 0.732D+00
 Coeff-En:   0.000D+00 0.000D+00 0.100D+01
 Coeff:     -0.466D-01 0.306D+00 0.740D+00
 Gap=     0.356 Goal=   None    Shift=    0.000
 RMSDP=1.39D-04 MaxDP=7.68D-03 DE=-5.39D-02 OVMax= 2.26D-02

 Cycle   4  Pass 0  IDiag  1:
 E= -400.055239373677     Delta-E=       -0.001873538136 Rises=F Damp=F
 DIIS: error= 1.18D-03 at cycle   4 NSaved=   4.
 NSaved= 4 IEnMin= 4 EnMin= -400.055239373677     IErMin= 4 ErrMin= 1.18D-03
 ErrMax= 1.18D-03  0.00D+00 EMaxC= 1.00D-01 BMatC= 6.22D-04 BMatP= 2.46D-03
 IDIUse=3 WtCom= 9.88D-01 WtEn= 1.18D-02
 Coeff-Com: -0.167D-01 0.876D-02 0.343D+00 0.665D+00
 Coeff-En:   0.000D+00 0.000D+00 0.154D-01 0.985D+00
 Coeff:     -0.165D-01 0.866D-02 0.339D+00 0.669D+00
 Gap=     0.359 Goal=   None    Shift=    0.000
 RMSDP=6.23D-05 MaxDP=2.72D-03 DE=-1.87D-03 OVMax= 5.96D-03

 Cycle   5  Pass 0  IDiag  1:
 E= -400.055777899334     Delta-E=       -0.000538525658 Rises=F Damp=F
 DIIS: error= 3.08D-04 at cycle   5 NSaved=   5.
 NSaved= 5 IEnMin= 5 EnMin= -400.055777899334     IErMin= 5 ErrMin= 3.08D-04
 ErrMax= 3.08D-04  0.00D+00 EMaxC= 1.00D-01 BMatC= 4.10D-05 BMatP= 6.22D-04
 IDIUse=3 WtCom= 9.97D-01 WtEn= 3.08D-03
 Coeff-Com: -0.202D-02-0.269D-01 0.666D-01 0.223D+00 0.739D+00
 Coeff-En:   0.000D+00 0.000D+00 0.000D+00 0.000D+00 0.100D+01
 Coeff:     -0.201D-02-0.268D-01 0.664D-01 0.223D+00 0.740D+00
 Gap=     0.359 Goal=   None    Shift=    0.000
 RMSDP=2.48D-05 MaxDP=9.80D-04 DE=-5.39D-04 OVMax= 4.68D-03

 Cycle   6  Pass 0  IDiag  1:
 E= -400.055848603555     Delta-E=       -0.000070704221 Rises=F Damp=F
 DIIS: error= 2.14D-04 at cycle   6 NSaved=   6.
 NSaved= 6 IEnMin= 6 EnMin= -400.055848603555     IErMin= 6 ErrMin= 2.14D-04
 ErrMax= 2.14D-04  0.00D+00 EMaxC= 1.00D-01 BMatC= 7.68D-06 BMatP= 4.10D-05
 IDIUse=3 WtCom= 9.98D-01 WtEn= 2.14D-03
 Coeff-Com:  0.282D-02-0.683D-02-0.463D-01-0.101D+00 0.156D+00 0.995D+00
 Coeff-En:   0.000D+00 0.000D+00 0.000D+00 0.000D+00 0.000D+00 0.100D+01
 Coeff:      0.281D-02-0.682D-02-0.462D-01-0.100D+00 0.156D+00 0.995D+00
 Gap=     0.360 Goal=   None    Shift=    0.000
 RMSDP=1.78D-05 MaxDP=5.71D-04 DE=-7.07D-05 OVMax= 3.92D-03

 Cycle   7  Pass 0  IDiag  1:
 E= -400.055877225259     Delta-E=       -0.000028621704 Rises=F Damp=F
 DIIS: error= 9.77D-05 at cycle   7 NSaved=   7.
 NSaved= 7 IEnMin= 7 EnMin= -400.055877225259     IErMin= 7 ErrMin= 9.77D-05
 ErrMax= 9.77D-05  0.00D+00 EMaxC= 1.00D-01 BMatC= 1.30D-06 BMatP= 7.68D-06
 IDIUse=1 WtCom= 1.00D+00 WtEn= 0.00D+00
 Coeff-Com:  0.121D-02 0.249D-02-0.118D-01-0.536D-01-0.121D+00 0.310D-01
 Coeff-Com:  0.115D+01
 Coeff:      0.121D-02 0.249D-02-0.118D-01-0.536D-01-0.121D+00 0.310D-01
 Coeff:      0.115D+01
 Gap=     0.360 Goal=   None    Shift=    0.000
 RMSDP=1.00D-05 MaxDP=3.49D-04 DE=-2.86D-05 OVMax= 2.55D-03

 Cycle   8  Pass 0  IDiag  1:
 E= -400.055884098853     Delta-E=       -0.000006873594 Rises=F Damp=F
 DIIS: error= 3.35D-05 at cycle   8 NSaved=   8.
 NSaved= 8 IEnMin= 8 EnMin= -400.055884098853     IErMin= 8 ErrMin= 3.35D-05
 ErrMax= 3.35D-05  0.00D+00 EMaxC= 1.00D-01 BMatC= 2.08D-07 BMatP= 1.30D-06
 IDIUse=1 WtCom= 1.00D+00 WtEn= 0.00D+00
 Coeff-Com:  0.211D-03 0.104D-02 0.541D-02 0.266D-02-0.368D-01-0.136D+00
 Coeff-Com:  0.224D+00 0.939D+00
 Coeff:      0.211D-03 0.104D-02 0.541D-02 0.266D-02-0.368D-01-0.136D+00
 Coeff:      0.224D+00 0.939D+00
 Gap=     0.360 Goal=   None    Shift=    0.000
 RMSDP=3.07D-06 MaxDP=1.12D-04 DE=-6.87D-06 OVMax= 7.47D-04

 Initial convergence to 1.0D-05 achieved.  Increase integral accuracy.
 Cycle   9  Pass 1  IDiag  1:
 E= -400.055553451895     Delta-E=        0.000330646958 Rises=F Damp=F
 DIIS: error= 8.53D-05 at cycle   1 NSaved=   1.
 NSaved= 1 IEnMin= 1 EnMin= -400.055553451895     IErMin= 1 ErrMin= 8.53D-05
 ErrMax= 8.53D-05  0.00D+00 EMaxC= 1.00D-01 BMatC= 3.19D-06 BMatP= 3.19D-06
 IDIUse=1 WtCom= 1.00D+00 WtEn= 0.00D+00
 Coeff-Com:  0.100D+01
 Coeff:      0.100D+01
 Gap=     0.360 Goal=   None    Shift=    0.000
 RMSDP=3.07D-06 MaxDP=1.12D-04 DE= 3.31D-04 OVMax= 1.48D-04

 Cycle  10  Pass 1  IDiag  1:
 E= -400.055554901667     Delta-E=       -0.000001449772 Rises=F Damp=F
 DIIS: error= 1.01D-05 at cycle   2 NSaved=   2.
 NSaved= 2 IEnMin= 2 EnMin= -400.055554901667     IErMin= 2 ErrMin= 1.01D-05
 ErrMax= 1.01D-05  0.00D+00 EMaxC= 1.00D-01 BMatC= 4.94D-08 BMatP= 3.19D-06
 IDIUse=1 WtCom= 1.00D+00 WtEn= 0.00D+00
 Coeff-Com: -0.529D-01 0.105D+01
 Coeff:     -0.529D-01 0.105D+01
 Gap=     0.360 Goal=   None    Shift=    0.000
 RMSDP=8.39D-07 MaxDP=5.32D-05 DE=-1.45D-06 OVMax= 9.57D-05

 Cycle  11  Pass 1  IDiag  1:
 E= -400.055554936470     Delta-E=       -0.000000034803 Rises=F Damp=F
 DIIS: error= 8.70D-06 at cycle   3 NSaved=   3.
 NSaved= 3 IEnMin= 3 EnMin= -400.055554936470     IErMin= 3 ErrMin= 8.70D-06
 ErrMax= 8.70D-06  0.00D+00 EMaxC= 1.00D-01 BMatC= 2.95D-08 BMatP= 4.94D-08
 IDIUse=1 WtCom= 1.00D+00 WtEn= 0.00D+00
 Coeff-Com: -0.360D-01 0.480D+00 0.556D+00
 Coeff:     -0.360D-01 0.480D+00 0.556D+00
 Gap=     0.360 Goal=   None    Shift=    0.000
 RMSDP=3.05D-07 MaxDP=3.49D-05 DE=-3.48D-08 OVMax= 3.46D-05

 Cycle  12  Pass 1  IDiag  1:
 E= -400.055554960171     Delta-E=       -0.000000023701 Rises=F Damp=F
 DIIS: error= 3.17D-06 at cycle   4 NSaved=   4.
 NSaved= 4 IEnMin= 4 EnMin= -400.055554960171     IErMin= 4 ErrMin= 3.17D-06
 ErrMax= 3.17D-06  0.00D+00 EMaxC= 1.00D-01 BMatC= 7.45D-10 BMatP= 2.95D-08
 IDIUse=1 WtCom= 1.00D+00 WtEn= 0.00D+00
 Coeff-Com:  0.355D-02-0.839D-01-0.717D-02 0.109D+01
 Coeff:      0.355D-02-0.839D-01-0.717D-02 0.109D+01
 Gap=     0.360 Goal=   None    Shift=    0.000
 RMSDP=1.79D-07 MaxDP=6.97D-06 DE=-2.37D-08 OVMax= 4.43D-05

 Cycle  13  Pass 1  IDiag  1:
 E= -400.055554963424     Delta-E=       -0.000000003253 Rises=F Damp=F
 DIIS: error= 1.54D-06 at cycle   5 NSaved=   5.
 NSaved= 5 IEnMin= 5 EnMin= -400.055554963424     IErMin= 5 ErrMin= 1.54D-06
 ErrMax= 1.54D-06  0.00D+00 EMaxC= 1.00D-01 BMatC= 3.03D-10 BMatP= 7.45D-10
 IDIUse=1 WtCom= 1.00D+00 WtEn= 0.00D+00
 Coeff-Com:  0.532D-02-0.811D-01-0.742D-01 0.379D+00 0.771D+00
 Coeff:      0.532D-02-0.811D-01-0.742D-01 0.379D+00 0.771D+00
 Gap=     0.360 Goal=   None    Shift=    0.000
 RMSDP=7.87D-08 MaxDP=3.26D-06 DE=-3.25D-09 OVMax= 1.55D-05

 Cycle  14  Pass 1  IDiag  1:
 E= -400.055554964265     Delta-E=       -0.000000000842 Rises=F Damp=F
 DIIS: error= 9.41D-07 at cycle   6 NSaved=   6.
 NSaved= 6 IEnMin= 6 EnMin= -400.055554964265     IErMin= 6 ErrMin= 9.41D-07
 ErrMax= 9.41D-07  0.00D+00 EMaxC= 1.00D-01 BMatC= 5.03D-11 BMatP= 3.03D-10
 IDIUse=1 WtCom= 1.00D+00 WtEn= 0.00D+00
 Coeff-Com:  0.330D-03 0.431D-02-0.220D-01-0.218D+00 0.774D-01 0.116D+01
 Coeff:      0.330D-03 0.431D-02-0.220D-01-0.218D+00 0.774D-01 0.116D+01
 Gap=     0.360 Goal=   None    Shift=    0.000
 RMSDP=6.83D-08 MaxDP=2.75D-06 DE=-8.42D-10 OVMax= 1.88D-05

 Cycle  15  Pass 1  IDiag  1:
 E= -400.055554964594     Delta-E=       -0.000000000329 Rises=F Damp=F
 DIIS: error= 2.40D-07 at cycle   7 NSaved=   7.
 NSaved= 7 IEnMin= 7 EnMin= -400.055554964594     IErMin= 7 ErrMin= 2.40D-07
 ErrMax= 2.40D-07  0.00D+00 EMaxC= 1.00D-01 BMatC= 1.44D-11 BMatP= 5.03D-11
 IDIUse=1 WtCom= 1.00D+00 WtEn= 0.00D+00
 Coeff-Com: -0.631D-03 0.131D-01 0.246D-02-0.115D+00-0.131D+00 0.417D+00
 Coeff-Com:  0.814D+00
 Coeff:     -0.631D-03 0.131D-01 0.246D-02-0.115D+00-0.131D+00 0.417D+00
 Coeff:      0.814D+00
 Gap=     0.360 Goal=   None    Shift=    0.000
 RMSDP=2.13D-08 MaxDP=7.22D-07 DE=-3.29D-10 OVMax= 5.27D-06

 Cycle  16  Pass 1  IDiag  1:
 E= -400.055554964625     Delta-E=       -0.000000000031 Rises=F Damp=F
 DIIS: error= 9.28D-08 at cycle   8 NSaved=   8.
 NSaved= 8 IEnMin= 8 EnMin= -400.055554964625     IErMin= 8 ErrMin= 9.28D-08
 ErrMax= 9.28D-08  0.00D+00 EMaxC= 1.00D-01 BMatC= 2.88D-12 BMatP= 1.44D-11
 IDIUse=1 WtCom= 1.00D+00 WtEn= 0.00D+00
 Coeff-Com: -0.367D-03 0.509D-02 0.561D-02-0.625D-04-0.946D-01-0.532D-01
 Coeff-Com:  0.360D+00 0.777D+00
 Coeff:     -0.367D-03 0.509D-02 0.561D-02-0.625D-04-0.946D-01-0.532D-01
 Coeff:      0.360D+00 0.777D+00
 Gap=     0.360 Goal=   None    Shift=    0.000
 RMSDP=8.89D-09 MaxDP=3.18D-07 DE=-3.07D-11 OVMax= 2.25D-06

 SCF Done:  E(RwB97) =  -400.055554965     A.U. after   16 cycles
            NFock= 16  Conv=0.89D-08     -V/T= 2.0037
 KE= 3.985705171593D+02 PE=-1.649300980887D+03 EE= 4.938210072725D+02
 Leave Link  502 at Fri Aug 27 01:02:12 2021, MaxMem= 17179869184 cpu:       509.5
 (Enter /public3/home/sc51754/softwares/g09e01/l601.exe)
 Copying SCF densities to generalized density rwf, IOpCl= 0 IROHF=0.

 **********************************************************************

            Population analysis using the SCF density.

 **********************************************************************

 Orbital symmetries:
       Occupied  (A) (A) (A) (A) (A) (A) (A) (A) (A) (A) (A) (A)
                 (A) (A) (A) (A) (A) (A) (A) (A) (A) (A) (A) (A)
                 (A) (A) (A) (A) (A) (A)
       Virtual   (A) (A) (A) (A) (A) (A) (A) (A) (A) (A) (A) (A)
                 (A) (A) (A) (A) (A) (A) (A) (A) (A) (A) (A) (A)
                 (A) (A) (A) (A) (A) (A) (A) (A) (A) (A) (A) (A)
                 (A) (A) (A) (A) (A) (A) (A) (A) (A) (A) (A) (A)
                 (A) (A) (A) (A) (A) (A) (A) (A) (A) (A) (A) (A)
                 (A) (A) (A) (A) (A) (A) (A) (A) (A) (A) (A) (A)
                 (A) (A) (A) (A) (A) (A) (A) (A) (A) (A) (A) (A)
                 (A) (A) (A) (A) (A) (A) (A) (A) (A) (A) (A) (A)
                 (A) (A) (A) (A) (A) (A) (A) (A) (A) (A) (A) (A)
                 (A) (A) (A) (A) (A) (A) (A) (A) (A) (A) (A) (A)
                 (A) (A) (A) (A) (A) (A) (A) (A) (A) (A) (A) (A)
                 (A) (A) (A) (A) (A) (A) (A) (A) (A) (A) (A) (A)
                 (A) (A) (A) (A) (A) (A) (A) (A) (A) (A) (A) (A)
                 (A) (A) (A) (A) (A) (A) (A) (A) (A) (A) (A) (A)
                 (A) (A) (A) (A) (A) (A) (A) (A) (A) (A) (A) (A)
                 (A) (A) (A) (A) (A) (A) (A) (A) (A) (A) (A) (A)
                 (A) (A) (A) (A) (A) (A) (A) (A) (A) (A) (A) (A)
                 (A) (A) (A) (A) (A) (A) (A) (A) (A) (A) (A) (A)
                 (A) (A) (A) (A) (A) (A) (A) (A) (A) (A) (A) (A)
                 (A) (A) (A) (A) (A) (A) (A) (A) (A) (A) (A) (A)
                 (A) (A) (A) (A) (A) (A) (A) (A) (A) (A) (A) (A)
                 (A) (A) (A) (A) (A) (A) (A) (A) (A) (A) (A) (A)
                 (A) (A) (A) (A) (A) (A) (A) (A) (A) (A) (A) (A)
                 (A) (A) (A) (A) (A) (A) (A) (A) (A) (A) (A) (A)
                 (A) (A) (A) (A) (A) (A) (A) (A) (A) (A) (A) (A)
                 (A) (A) (A) (A) (A) (A) (A) (A)
 The electronic state is 1-A.
 Alpha  occ. eigenvalues --  -18.98482 -18.95991 -14.29197 -10.24632 -10.20426
 Alpha  occ. eigenvalues --  -10.17022 -10.14653 -10.14473  -1.18564  -1.13098
 Alpha  occ. eigenvalues --   -1.10670  -0.97779  -0.91227  -0.80131  -0.77995
 Alpha  occ. eigenvalues --   -0.69833  -0.65651  -0.63752  -0.61308  -0.59305
 Alpha  occ. eigenvalues --   -0.58309  -0.56016  -0.51293  -0.50817  -0.49112
 Alpha  occ. eigenvalues --   -0.47569  -0.43175  -0.42642  -0.38248  -0.32776
 Alpha virt. eigenvalues --    0.03217   0.08602   0.09538   0.11086   0.12011
 Alpha virt. eigenvalues --    0.13544   0.15292   0.18708   0.20561   0.22147
 Alpha virt. eigenvalues --    0.22544   0.23945   0.24835   0.26535   0.27388
 Alpha virt. eigenvalues --    0.27841   0.29039   0.30391   0.31311   0.34071
 Alpha virt. eigenvalues --    0.35541   0.36511   0.36822   0.37646   0.37883
 Alpha virt. eigenvalues --    0.38742   0.39779   0.40970   0.43209   0.44081
 Alpha virt. eigenvalues --    0.45272   0.45929   0.47004   0.49003   0.49596
 Alpha virt. eigenvalues --    0.50986   0.51751   0.54517   0.55687   0.58288
 Alpha virt. eigenvalues --    0.59208   0.61598   0.62495   0.64455   0.65653
 Alpha virt. eigenvalues --    0.67020   0.70282   0.73105   0.73717   0.74079
 Alpha virt. eigenvalues --    0.77169   0.77689   0.81644   0.84634   0.86654
 Alpha virt. eigenvalues --    0.87124   0.89533   0.91961   0.92471   0.95625
 Alpha virt. eigenvalues --    0.98138   1.00172   1.02880   1.03411   1.03955
 Alpha virt. eigenvalues --    1.06251   1.09186   1.10976   1.12390   1.15795
 Alpha virt. eigenvalues --    1.18016   1.18541   1.20409   1.22773   1.23611
 Alpha virt. eigenvalues --    1.25132   1.26167   1.27946   1.28238   1.30418
 Alpha virt. eigenvalues --    1.31360   1.33175   1.36063   1.37141   1.38042
 Alpha virt. eigenvalues --    1.38338   1.40635   1.43790   1.46172   1.49782
 Alpha virt. eigenvalues --    1.51586   1.52656   1.53597   1.56376   1.57458
 Alpha virt. eigenvalues --    1.58873   1.59407   1.59899   1.62733   1.64345
 Alpha virt. eigenvalues --    1.68171   1.70219   1.72301   1.76607   1.76843
 Alpha virt. eigenvalues --    1.77810   1.79696   1.79827   1.84517   1.84924
 Alpha virt. eigenvalues --    1.90094   1.90646   1.92988   1.97498   1.98146
 Alpha virt. eigenvalues --    2.00110   2.00790   2.02792   2.04619   2.08108
 Alpha virt. eigenvalues --    2.12305   2.13582   2.14255   2.17870   2.18141
 Alpha virt. eigenvalues --    2.21726   2.23818   2.27038   2.27422   2.32061
 Alpha virt. eigenvalues --    2.33083   2.33948   2.35442   2.38828   2.42040
 Alpha virt. eigenvalues --    2.42998   2.53860   2.61681   2.64640   2.73449
 Alpha virt. eigenvalues --    2.78628   2.96469   3.00533   3.03214   3.04358
 Alpha virt. eigenvalues --    3.05877   3.12525   3.27233   3.29814   3.30753
 Alpha virt. eigenvalues --    3.31957   3.34023   3.35454   3.39091   3.41447
 Alpha virt. eigenvalues --    3.41828   3.46382   3.48531   3.52677   3.53637
 Alpha virt. eigenvalues --    3.56619   3.57410   3.61701   3.65498   3.66287
 Alpha virt. eigenvalues --    3.67680   3.69655   3.73928   3.75025   3.75817
 Alpha virt. eigenvalues --    3.77861   3.77993   3.81898   3.82338   3.86576
 Alpha virt. eigenvalues --    3.89885   3.94516   3.97087   4.00579   4.00874
 Alpha virt. eigenvalues --    4.03547   4.04717   4.05870   4.06864   4.10099
 Alpha virt. eigenvalues --    4.13588   4.14848   4.16058   4.17957   4.18636
 Alpha virt. eigenvalues --    4.20080   4.20948   4.24161   4.24966   4.26473
 Alpha virt. eigenvalues --    4.27588   4.28468   4.31494   4.31869   4.32750
 Alpha virt. eigenvalues --    4.34139   4.35548   4.36644   4.38031   4.39524
 Alpha virt. eigenvalues --    4.39812   4.42224   4.42956   4.44352   4.44964
 Alpha virt. eigenvalues --    4.46625   4.48109   4.51000   4.52337   4.54553
 Alpha virt. eigenvalues --    4.56395   4.57390   4.57660   4.58788   4.59842
 Alpha virt. eigenvalues --    4.61452   4.62565   4.65242   4.65805   4.68828
 Alpha virt. eigenvalues --    4.69717   4.69864   4.73730   4.74280   4.77159
 Alpha virt. eigenvalues --    4.79870   4.81135   4.82501   4.88876   4.93158
 Alpha virt. eigenvalues --    4.94016   4.97178   4.98361   4.99925   5.01829
 Alpha virt. eigenvalues --    5.02885   5.04968   5.06495   5.07899   5.09487
 Alpha virt. eigenvalues --    5.13152   5.17205   5.19142   5.24878   5.28649
 Alpha virt. eigenvalues --    5.30972   5.34291   5.36677   5.40966   5.42695
 Alpha virt. eigenvalues --    5.43758   5.45620   5.48913   5.51164   5.52932
 Alpha virt. eigenvalues --    5.56656   5.58447   5.64440   5.66091   5.67790
 Alpha virt. eigenvalues --    5.69427   5.74064   5.79505   5.80577   5.83442
 Alpha virt. eigenvalues --    5.86810   5.91060   5.95932   6.01875   6.05055
 Alpha virt. eigenvalues --    6.06455   6.07792   6.13727   6.19108   6.19997
 Alpha virt. eigenvalues --    6.22305   6.23531   6.30820   6.33728   6.37093
 Alpha virt. eigenvalues --    6.39500   6.43478   6.46569   6.52316   6.60038
 Alpha virt. eigenvalues --    6.60962   6.62328   6.70380   6.88043   6.98799
 Alpha virt. eigenvalues --    7.04555   7.08949   7.20142   7.31977   7.51015
 Alpha virt. eigenvalues --    9.58181  12.36759  13.22856  14.77109  15.45419
 Alpha virt. eigenvalues --   18.00242  18.35492  22.73776
          Condensed to atoms (all electrons):
               1          2          3          4          5          6
     1  O    8.189468  -0.106656   0.554536  -0.071812   0.009231   0.006248
     2  N   -0.106656   6.390589   0.395085  -0.046402   0.385885  -0.018446
     3  C    0.554536   0.395085   4.239282   0.467680  -0.036445  -0.035127
     4  C   -0.071812  -0.046402   0.467680   4.850076  -0.028432   0.569137
     5  C    0.009231   0.385885  -0.036445  -0.028432   4.533172  -0.071582
     6  C    0.006248  -0.018446  -0.035127   0.569137  -0.071582   4.664710
     7  C    0.001609  -0.060735  -0.025644  -0.065467   0.619456   0.460034
     8  H    0.031248   0.002061  -0.002130   0.000437   0.001563  -0.000136
     9  H    0.001579   0.003598  -0.036712   0.455425  -0.000094  -0.033885
    10  H   -0.000452  -0.035670   0.001955  -0.002671   0.443493   0.006563
    11  H   -0.000334  -0.001765   0.006081  -0.036127   0.008207   0.441101
    12  H    0.000025   0.004910  -0.001052   0.005714  -0.032701  -0.034945
    13  O   -0.036991  -0.029065  -0.002992  -0.000072  -0.002774   0.000137
    14  H    0.002458   0.000353   0.000544   0.000081  -0.000073  -0.000010
    15  H   -0.000410   0.400583  -0.022386   0.004211  -0.020800  -0.001585
               7          8          9         10         11         12
     1  O    0.001609   0.031248   0.001579  -0.000452  -0.000334   0.000025
     2  N   -0.060735   0.002061   0.003598  -0.035670  -0.001765   0.004910
     3  C   -0.025644  -0.002130  -0.036712   0.001955   0.006081  -0.001052
     4  C   -0.065467   0.000437   0.455425  -0.002671  -0.036127   0.005714
     5  C    0.619456   0.001563  -0.000094   0.443493   0.008207  -0.032701
     6  C    0.460034  -0.000136  -0.033885   0.006563   0.441101  -0.034945
     7  C    4.819331  -0.000023   0.005243  -0.037044  -0.044113   0.449394
     8  H   -0.000023   0.412440   0.000118   0.000127   0.000002  -0.000007
     9  H    0.005243   0.000118   0.561812   0.000197  -0.006808   0.000088
    10  H   -0.037044   0.000127   0.000197   0.583335  -0.000079  -0.003999
    11  H   -0.044113   0.000002  -0.006808  -0.000079   0.590443  -0.006870
    12  H    0.449394  -0.000007   0.000088  -0.003999  -0.006870   0.579217
    13  O   -0.000240   0.348100  -0.000001  -0.000575  -0.000001   0.000013
    14  H    0.000019  -0.019868  -0.000002  -0.000033   0.000000   0.000000
    15  H    0.002429  -0.008050  -0.000344  -0.005904   0.000162  -0.000029
              13         14         15
     1  O   -0.036991   0.002458  -0.000410
     2  N   -0.029065   0.000353   0.400583
     3  C   -0.002992   0.000544  -0.022386
     4  C   -0.000072   0.000081   0.004211
     5  C   -0.002774  -0.000073  -0.020800
     6  C    0.000137  -0.000010  -0.001585
     7  C   -0.000240   0.000019   0.002429
     8  H    0.348100  -0.019868  -0.008050
     9  H   -0.000001  -0.000002  -0.000344
    10  H   -0.000575  -0.000033  -0.005904
    11  H   -0.000001   0.000000   0.000162
    12  H    0.000013   0.000000  -0.000029
    13  O    7.783835   0.356974   0.047597
    14  H    0.356974   0.443141  -0.002218
    15  H    0.047597  -0.002218   0.433340
 Mulliken charges:
               1
     1  O   -0.579747
     2  N   -0.284327
     3  C    0.497327
     4  C   -0.101779
     5  C    0.191893
     6  C    0.047786
     7  C   -0.124248
     8  H    0.234116
     9  H    0.049785
    10  H    0.050757
    11  H    0.050101
    12  H    0.040243
    13  O   -0.463944
    14  H    0.218632
    15  H    0.173406
 Sum of Mulliken charges =  -0.00000
 Mulliken charges with hydrogens summed into heavy atoms:
               1
     1  O   -0.579747
     2  N   -0.110921
     3  C    0.497327
     4  C   -0.051994
     5  C    0.242649
     6  C    0.097887
     7  C   -0.084005
    13  O   -0.011196
 Electronic spatial extent (au):  <R**2>=           1080.3819
 Charge=             -0.0000 electrons
 Dipole moment (field-independent basis, Debye):
    X=             -2.5423    Y=             -2.2317    Z=              1.1419  Tot=              3.5704
 Quadrupole moment (field-independent basis, Debye-Ang):
   XX=            -41.4520   YY=            -45.8736   ZZ=            -49.9972
   XY=             -2.2628   XZ=              4.8619   YZ=             -0.9013
 Traceless Quadrupole moment (field-independent basis, Debye-Ang):
   XX=              4.3223   YY=             -0.0993   ZZ=             -4.2230
   XY=             -2.2628   XZ=              4.8619   YZ=             -0.9013
 Octapole moment (field-independent basis, Debye-Ang**2):
  XXX=             22.6787  YYY=            -12.8402  ZZZ=              0.8072  XYY=             -6.8612
  XXY=              0.6877  XXZ=             19.1375  XZZ=             11.2850  YZZ=              0.5817
  YYZ=              0.6355  XYZ=             -3.3680
 Hexadecapole moment (field-independent basis, Debye-Ang**3):
 XXXX=           -763.0719 YYYY=           -350.3310 ZZZZ=            -54.3126 XXXY=             -6.3166
 XXXZ=             77.6929 YYYX=            -13.5828 YYYZ=             -0.9359 ZZZX=              3.8751
 ZZZY=             -0.6191 XXYY=           -220.7660 XXZZ=           -176.0322 YYZZ=            -77.8601
 XXYZ=            -12.9651 YYXZ=              2.9221 ZZXY=             -2.3791
 N-N= 3.568539014902D+02 E-N=-1.649300979101D+03  KE= 3.985705171593D+02
 No NMR shielding tensors so no spin-rotation constants.
 Leave Link  601 at Fri Aug 27 01:02:13 2021, MaxMem= 17179869184 cpu:        47.9
 (Enter /public3/home/sc51754/softwares/g09e01/l701.exe)
 Compute integral first derivatives.
 ... and contract with generalized density number  0.
 Leave Link  701 at Fri Aug 27 01:02:14 2021, MaxMem= 17179869184 cpu:        69.5
 (Enter /public3/home/sc51754/softwares/g09e01/l702.exe)
 L702 exits ... SP integral derivatives will be done elsewhere.
 Leave Link  702 at Fri Aug 27 01:02:15 2021, MaxMem= 17179869184 cpu:         0.2
 (Enter /public3/home/sc51754/softwares/g09e01/l703.exe)
 Compute integral first derivatives, UseDBF=F ICtDFT=           0.
 Integral derivatives from FoFJK, PRISM(SPDF).
 Calling FoFJK, ICntrl=      2127 FMM=F ISym2X=0 I1Cent= 0 IOpClX= 0 NMat=1 NMatS=1 NMatT=0.
 FoFJK:  IHMeth= 1 ICntrl=    2127 DoSepK=T KAlg= 0 I1Cent=   0 FoldK=F
 IRaf=         1 NMat=   1 IRICut=       1 DoRegI=T DoRafI=F ISym2E= 0.
 FoFCou: FMM=F IPFlag=           0 FMFlag=      100000 FMFlg1=         800
         NFxFlg=           0 DoJE=F BraDBF=F KetDBF=F FulRan=T
         wScrn=  0.000000 ICntrl=    2527 IOpCl=  0 I1Cent=           0 NGrid=           0
         NMat0=    1 NMatS0=      1 NMatT0=    0 NMatD0=    1 NMtDS0=    0 NMtDT0=    0
 Symmetry not used in FoFCou.
 Leave Link  703 at Fri Aug 27 01:02:20 2021, MaxMem= 17179869184 cpu:       324.5
 (Enter /public3/home/sc51754/softwares/g09e01/l716.exe)
 Dipole        =-1.00021589D+00-8.78034534D-01 4.49246619D-01
 ***** Axes restored to original set *****
 -------------------------------------------------------------------
 Center     Atomic                   Forces (Hartrees/Bohr)
 Number     Number              X              Y              Z
 -------------------------------------------------------------------
      1        8          -0.004652582   -0.002609348    0.000138762
      2        7           0.003083626    0.005682858    0.000048153
      3        6           0.005831710   -0.005133088    0.000035872
      4        6          -0.007023481   -0.002608680   -0.000070099
      5        6          -0.006975352    0.004811556   -0.000031046
      6        6           0.006990443    0.005772839    0.000044086
      7        6           0.005861334   -0.005923316    0.000018292
      8        1           0.001780548   -0.002969548   -0.000390598
      9        1          -0.000040199    0.001702523   -0.000013656
     10        1           0.000468940   -0.001826526    0.000001869
     11        1          -0.001308187    0.001023136   -0.000012853
     12        1          -0.001227339   -0.001133606   -0.000001450
     13        8          -0.000306893    0.002854114    0.002559787
     14        1          -0.002167668    0.000156473   -0.002105846
     15        1          -0.000314901    0.000200614   -0.000221273
 -------------------------------------------------------------------
 Cartesian Forces:  Max     0.007023481 RMS     0.003192030
 Leave Link  716 at Fri Aug 27 01:02:20 2021, MaxMem= 17179869184 cpu:         0.4
 (Enter /public3/home/sc51754/softwares/g09e01/l103.exe)

 GradGradGradGradGradGradGradGradGradGradGradGradGradGradGradGradGradGrad
 Berny optimization.
 FormGI is forming the generalized inverse of G from B-inverse, IUseBI=4.
 Internal  Forces:  Max     0.006003040 RMS     0.001618641
 Search for a local minimum.
 Step number   1 out of a maximum of   83
 All quantities printed in internal units (Hartrees-Bohrs-Radians)
 RMS Force = .16186D-02 SwitMx=.10000D-02 MixMth= 1
 Mixed Optimization -- RFO/linear search
 Second derivative matrix not updated -- first step.
 ITU=  0
     Eigenvalues ---    0.00646   0.00900   0.01671   0.02019   0.02045
     Eigenvalues ---    0.02138   0.02190   0.02305   0.02392   0.02435
     Eigenvalues ---    0.02516   0.04986   0.06334   0.06909   0.09520
     Eigenvalues ---    0.16000   0.16000   0.16000   0.16000   0.19047
     Eigenvalues ---    0.20437   0.21968   0.22000   0.22256   0.23654
     Eigenvalues ---    0.35693   0.35983   0.36053   0.36229   0.38136
     Eigenvalues ---    0.40185   0.42590   0.44184   0.49041   0.49982
     Eigenvalues ---    0.52121   0.53321   0.55542   0.84771
 RFO step:  Lambda=-4.02790860D-04 EMin= 6.46442552D-03
 Linear search not attempted -- first point.
 Iteration  1 RMS(Cart)=  0.00419725 RMS(Int)=  0.00000598
 Iteration  2 RMS(Cart)=  0.00000580 RMS(Int)=  0.00000187
 Iteration  3 RMS(Cart)=  0.00000000 RMS(Int)=  0.00000187
 ITry= 1 IFail=0 DXMaxC= 1.40D-02 DCOld= 1.00D+10 DXMaxT= 3.00D-01 DXLimC= 3.00D+00 Rises=F
 Variable       Old X    -DE/DX   Delta X   Delta X   Delta X     New X
                                 (Linear)    (Quad)   (Total)
    R1        2.33752  -0.00495   0.00000  -0.00600  -0.00600   2.33152
    R2        3.44231   0.00000   0.00000  -0.00227  -0.00227   3.44003
    R3        2.63700  -0.00548   0.00000  -0.01229  -0.01228   2.62471
    R4        2.56181   0.00133   0.00000   0.00239   0.00239   2.56419
    R5        1.92716  -0.00113   0.00000  -0.00207  -0.00207   1.92509
    R6        2.72061   0.00231   0.00000   0.00579   0.00579   2.72640
    R7        2.57451  -0.00600   0.00000  -0.01135  -0.01135   2.56315
    R8        2.03999   0.00170   0.00000   0.00471   0.00471   2.04470
    R9        2.56943  -0.00578   0.00000  -0.01086  -0.01086   2.55857
   R10        2.04108   0.00188   0.00000   0.00523   0.00523   2.04631
   R11        2.67927   0.00391   0.00000   0.00926   0.00926   2.68853
   R12        2.04565   0.00161   0.00000   0.00451   0.00451   2.05016
   R13        2.03725   0.00166   0.00000   0.00458   0.00458   2.04183
   R14        1.85494  -0.00363   0.00000  -0.00705  -0.00705   1.84789
   R15        1.81354  -0.00302   0.00000  -0.00543  -0.00543   1.80811
   R16        3.72662  -0.00098   0.00000  -0.01429  -0.01429   3.71234
    A1        1.92766   0.00077   0.00000  -0.00082  -0.00082   1.92684
    A2        2.17565  -0.00046   0.00000  -0.00258  -0.00258   2.17307
    A3        2.00244   0.00044   0.00000   0.00242   0.00242   2.00486
    A4        2.10509   0.00002   0.00000   0.00017   0.00016   2.10526
    A5        2.09773   0.00047   0.00000  -0.00021  -0.00021   2.09752
    A6        2.19333  -0.00120   0.00000  -0.00343  -0.00343   2.18990
    A7        1.99213   0.00074   0.00000   0.00364   0.00364   1.99577
    A8        2.11557  -0.00079   0.00000  -0.00361  -0.00361   2.11196
    A9        2.03563   0.00032   0.00000   0.00133   0.00133   2.03695
   A10        2.13199   0.00047   0.00000   0.00228   0.00228   2.13427
   A11        2.10801   0.00096   0.00000   0.00409   0.00409   2.11210
   A12        2.02357  -0.00062   0.00000  -0.00294  -0.00294   2.02064
   A13        2.15160  -0.00034   0.00000  -0.00116  -0.00116   2.15044
   A14        2.11704   0.00042   0.00000   0.00223   0.00223   2.11927
   A15        2.08601  -0.00061   0.00000  -0.00359  -0.00359   2.08242
   A16        2.08014   0.00018   0.00000   0.00135   0.00135   2.08149
   A17        2.05796  -0.00088   0.00000  -0.00378  -0.00378   2.05418
   A18        2.10191   0.00025   0.00000   0.00071   0.00071   2.10262
   A19        2.12331   0.00063   0.00000   0.00307   0.00307   2.12638
   A20        2.65557  -0.00062   0.00000  -0.00167  -0.00168   2.65389
   A21        1.86229   0.00015   0.00000  -0.00091  -0.00090   1.86139
   A22        1.36782  -0.00047   0.00000   0.00116   0.00116   1.36898
   A23        2.34644   0.00028   0.00000   0.00282   0.00282   2.34926
   A24        2.50984  -0.00060   0.00000  -0.00059  -0.00058   2.50926
    D1        0.03186   0.00008   0.00000   0.00108   0.00109   0.03294
    D2       -3.10924   0.00009   0.00000   0.00158   0.00158  -3.10765
    D3        0.03871  -0.00011   0.00000  -0.00800  -0.00800   0.03072
    D4       -3.13629   0.00000   0.00000   0.00031   0.00031  -3.13598
    D5        0.00485  -0.00001   0.00000  -0.00013  -0.00013   0.00472
    D6        0.00787   0.00002   0.00000  -0.00005  -0.00005   0.00782
    D7       -3.13417   0.00001   0.00000  -0.00050  -0.00050  -3.13467
    D8       -0.00292   0.00001   0.00000   0.00004   0.00004  -0.00288
    D9        3.13789   0.00000   0.00000  -0.00016  -0.00016   3.13774
   D10        3.13597  -0.00001   0.00000   0.00042   0.00042   3.13639
   D11       -0.00641  -0.00001   0.00000   0.00023   0.00023  -0.00618
   D12       -0.10803  -0.00005   0.00000   0.00065   0.00064  -0.10739
   D13        3.03601  -0.00003   0.00000   0.00030   0.00030   3.03631
   D14        3.13723  -0.00001   0.00000  -0.00020  -0.00020   3.13703
   D15       -0.00200  -0.00000   0.00000  -0.00020  -0.00020  -0.00220
   D16       -0.00389   0.00000   0.00000   0.00027   0.00027  -0.00362
   D17        3.14007   0.00000   0.00000   0.00027   0.00027   3.14034
   D18        0.00117  -0.00001   0.00000  -0.00034  -0.00034   0.00083
   D19       -3.13978  -0.00000   0.00000  -0.00003  -0.00003  -3.13981
   D20        3.14027  -0.00001   0.00000  -0.00034  -0.00034   3.13993
   D21       -0.00068  -0.00000   0.00000  -0.00003  -0.00003  -0.00071
   D22       -0.00027  -0.00001   0.00000  -0.00006  -0.00006  -0.00034
   D23        3.14059  -0.00000   0.00000   0.00001   0.00001   3.14060
   D24       -3.14103  -0.00000   0.00000   0.00015   0.00015  -3.14088
   D25       -0.00016   0.00000   0.00000   0.00022   0.00022   0.00006
   D26        0.00106   0.00000   0.00000   0.00021   0.00021   0.00127
   D27       -3.13980  -0.00000   0.00000   0.00013   0.00013  -3.13967
   D28       -3.14118  -0.00000   0.00000  -0.00010  -0.00010  -3.14128
   D29        0.00115  -0.00001   0.00000  -0.00018  -0.00018   0.00098
   D30       -2.40197  -0.00011   0.00000   0.00383   0.00383  -2.39813
   D31       -0.07714   0.00008   0.00000   0.00703   0.00703  -0.07011
   D32        0.12809   0.00002   0.00000  -0.00314  -0.00315   0.12494
   D33        1.90956  -0.00022   0.00000  -0.00330  -0.00330   1.90626
         Item               Value     Threshold  Converged?
 Maximum Force            0.006003     0.000450     NO 
 RMS     Force            0.001619     0.000300     NO 
 Maximum Displacement     0.014007     0.001800     NO 
 RMS     Displacement     0.004200     0.001200     NO 
 Predicted change in Energy=-2.016422D-04
 Lowest energy point so far.  Saving SCF results.
 GradGradGradGradGradGradGradGradGradGradGradGradGradGradGradGradGradGrad

 Leave Link  103 at Fri Aug 27 01:02:21 2021, MaxMem= 17179869184 cpu:        31.9
 (Enter /public3/home/sc51754/softwares/g09e01/l202.exe)
                          Input orientation:                          
 ---------------------------------------------------------------------
 Center     Atomic      Atomic             Coordinates (Angstroms)
 Number     Number       Type             X           Y           Z
 ---------------------------------------------------------------------
      1          8           0        1.258438    1.383423    0.006087
      2          7           0        0.251605   -0.656319    0.012135
      3          6           0        0.210637    0.732005    0.006611
      4          6           0       -1.120748    1.287799    0.000679
      5          6           0       -0.843363   -1.457708    0.006879
      6          6           0       -2.213377    0.484142   -0.003485
      7          6           0       -2.091612   -0.933346   -0.001170
      8          1           0        2.697782    0.270007   -0.042955
      9          1           0       -1.197168    2.367099   -0.002528
     10          1           0       -0.647418   -2.522693    0.008598
     11          1           0       -3.201743    0.931464   -0.009595
     12          1           0       -2.957425   -1.579725   -0.006227
     13          8           0        3.100276   -0.620199   -0.084675
     14          1           0        3.826027   -0.622421    0.538834
     15          1           0        1.188043   -1.057260    0.022745
 ---------------------------------------------------------------------
                    Distance matrix (angstroms):
                    1          2          3          4          5
     1  O    0.000000
     2  N    2.274708   0.000000
     3  C    1.233788   1.388939   0.000000
     4  C    2.381113   2.379722   1.442750   0.000000
     5  C    3.534063   1.356912   2.430177   2.759491   0.000000
     6  C    3.586405   2.716069   2.436674   1.356363   2.376515
     7  C    4.073121   2.359574   2.841445   2.424061   1.353937
     8  H    1.820387   2.616275   2.530175   3.952084   3.940456
     9  H    2.645316   3.352643   2.157668   1.082006   3.841148
    10  H    4.346268   2.071620   3.365906   3.839786   1.082862
    11  H    4.483049   3.800939   3.418243   2.111308   3.357137
    12  H    5.153049   3.339296   3.921847   3.405309   2.117621
    13  O    2.723069   2.850544   3.191677   4.633010   4.032629
    14  H    3.301476   3.613177   3.897278   5.330022   4.773247
    15  H    2.441756   1.018716   2.038885   3.290943   2.070561
                    6          7          8          9         10
     6  C    0.000000
     7  C    1.422710   0.000000
     8  H    4.915983   4.938431   0.000000
     9  H    2.139675   3.419498   4.423806   0.000000
    10  H    3.390196   2.147514   4.358003   4.920611   0.000000
    11  H    1.084897   2.170248   5.936584   2.465647   4.296057
    12  H    2.193892   1.080492   5.950145   4.321567   2.495104
    13  O    5.427805   5.201994   0.977859   5.234379   4.203973
    14  H    6.163845   5.950356   1.551723   5.870502   4.889161
    15  H    3.734470   3.282082   2.011285   4.173261   2.348746
                   11         12         13         14         15
    11  H    0.000000
    12  H    2.523048   0.000000
    13  O    6.490665   6.133726   0.000000
    14  H    7.218371   6.872318   0.956809   0.000000
    15  H    4.819366   4.178363   1.964484   2.722938   0.000000
 Stoichiometry    C5H7NO2
 Framework group  C1[X(C5H7NO2)]
 Deg. of freedom    39
 Full point group                 C1      NOp   1
 RotChk:  IX=0 Diff= 1.14D-03
 Largest Abelian subgroup         C1      NOp   1
 Largest concise Abelian subgroup C1      NOp   1
                         Standard orientation:                         
 ---------------------------------------------------------------------
 Center     Atomic      Atomic             Coordinates (Angstroms)
 Number     Number       Type             X           Y           Z
 ---------------------------------------------------------------------
      1          8           0        1.257521    1.384845    0.005717
      2          7           0        0.252328   -0.655706    0.011765
      3          6           0        0.210244    0.732585    0.006241
      4          6           0       -1.121588    1.287308    0.000309
      5          6           0       -0.841996   -1.457976    0.006509
      6          6           0       -2.213570    0.482772   -0.003855
      7          6           0       -2.090666   -0.934617   -0.001539
      8          1           0        2.697759    0.272587   -0.043325
      9          1           0       -1.198876    2.366546   -0.002898
     10          1           0       -0.645194   -2.522802    0.008228
     11          1           0       -3.202295    0.929299   -0.009965
     12          1           0       -2.955959   -1.581692   -0.006597
     13          8           0        3.100969   -0.617296   -0.085045
     14          1           0        3.826721   -0.618934    0.538464
     15          1           0        1.189088   -1.055894    0.022375
 ---------------------------------------------------------------------
 Rotational constants (GHZ):      4.0341867      1.4025202      1.0424262
 Leave Link  202 at Fri Aug 27 01:02:21 2021, MaxMem= 17179869184 cpu:         2.5
 (Enter /public3/home/sc51754/softwares/g09e01/l301.exe)
 Basis read from rwf:  (5D, 7F)
 No pseudopotential information found on rwf file.
 There are   385 symmetry adapted cartesian basis functions of A   symmetry.
 There are   338 symmetry adapted basis functions of A   symmetry.
   338 basis functions,   566 primitive gaussians,   385 cartesian basis functions
    30 alpha electrons       30 beta electrons
       nuclear repulsion energy       357.3516245589 Hartrees.
 IExCor= 4437 DFT=T Ex+Corr=wB97 ExCW=0 ScaHFX=  1.000000
 ScaDFX=  1.000000  1.000000  1.000000  1.000000 ScalE2=  1.000000  1.000000
 IRadAn=      0 IRanWt=     -1 IRanGd=            0 ICorTp=0 IEmpDi=  4
  HFx wShort=  0.000000 wLong=  0.400000 cFull=  0.000000 cShort=  0.000000 cLong=  1.000000
  DFx wShort=  0.000000 wLong=  0.400000 cFull=  0.000000 cShort=  0.000000 cLong=  1.000000
 NAtoms=   15 NActive=   15 NUniq=   15 SFac= 1.00D+00 NAtFMM=   60 NAOKFM=F Big=F
 Integral buffers will be    131072 words long.
 Raffenetti 2 integral format.
 Two-electron integral symmetry is turned on.
 No density basis found on file   724.
 Leave Link  301 at Fri Aug 27 01:02:21 2021, MaxMem= 17179869184 cpu:         1.1
 (Enter /public3/home/sc51754/softwares/g09e01/l302.exe)
 NPDir=0 NMtPBC=     1 NCelOv=     1 NCel=       1 NClECP=     1 NCelD=      1
         NCelK=      1 NCelE2=     1 NClLst=     1 CellRange=     0.0.
 One-electron integrals computed using PRISM.
 NBasis=   338 RedAO= T EigKep=  1.57D-04  NBF=   338
 NBsUse=   338 1.00D-06 EigRej= -1.00D+00 NBFU=   338
 Precomputing XC quadrature grid using
 IXCGrd= 4 IRadAn=           0 IRanWt=          -1 IRanGd=           0 AccXCQ= 0.00D+00.
 Generated NRdTot=       0 NPtTot=           0 NUsed=           0 NTot=          32
 NSgBfM=   385   385   385   385   385 MxSgAt=    15 MxSgA2=    15.
 Leave Link  302 at Fri Aug 27 01:02:22 2021, MaxMem= 17179869184 cpu:        43.8
 (Enter /public3/home/sc51754/softwares/g09e01/l303.exe)
 DipDrv:  MaxL=1.
 Leave Link  303 at Fri Aug 27 01:02:22 2021, MaxMem= 17179869184 cpu:        13.4
 (Enter /public3/home/sc51754/softwares/g09e01/l401.exe)
 Initial guess from the checkpoint file:  "PY_H2O_wB97_PC2_OPT_FREQ.chk"
 B after Tr=     0.000000   -0.000000   -0.000000
         Rot=    1.000000   -0.000012    0.000076   -0.000340 Ang=  -0.04 deg.
 Guess basis will be translated and rotated to current coordinates.
 JPrj=2 DoOrth=T DoCkMO=T.
 Leave Link  401 at Fri Aug 27 01:02:23 2021, MaxMem= 17179869184 cpu:        44.2
 (Enter /public3/home/sc51754/softwares/g09e01/l502.exe)
 Closed shell SCF:
 Using DIIS extrapolation, IDIIS=  1040.
 Integral symmetry usage will be decided dynamically.
 Keep R1 ints in memory in canonical form, NReq=3311562672.
 IVT=      490665 IEndB=      490665 NGot= 17179869184 MDV= 13897062548
 LenX= 13897062548 LenY= 13896913882
 Requested convergence on RMS density matrix=1.00D-08 within 128 cycles.
 Requested convergence on MAX density matrix=1.00D-06.
 Requested convergence on             energy=1.00D-06.
 No special actions if energy rises.
 FoFCou: FMM=F IPFlag=           0 FMFlag=           0 FMFlg1=           0
         NFxFlg=           0 DoJE=F BraDBF=F KetDBF=F FulRan=T
         wScrn=  0.000000 ICntrl=     600 IOpCl=  0 I1Cent=           0 NGrid=           0
         NMat0=    1 NMatS0=  57291 NMatT0=    0 NMatD0=    1 NMtDS0=    0 NMtDT0=    0
 Symmetry not used in FoFCou.

 Cycle   1  Pass 1  IDiag  1:
 E= -400.055705587292    
 DIIS: error= 3.58D-04 at cycle   1 NSaved=   1.
 NSaved= 1 IEnMin= 1 EnMin= -400.055705587292     IErMin= 1 ErrMin= 3.58D-04
 ErrMax= 3.58D-04  0.00D+00 EMaxC= 1.00D-01 BMatC= 7.53D-05 BMatP= 7.53D-05
 IDIUse=3 WtCom= 9.96D-01 WtEn= 3.58D-03
 Coeff-Com:  0.100D+01
 Coeff-En:   0.100D+01
 Coeff:      0.100D+01
 Gap=     0.772 Goal=   None    Shift=    0.000
 RMSDP=2.41D-05 MaxDP=6.01D-04              OVMax= 3.25D-03

 Cycle   2  Pass 1  IDiag  1:
 E= -400.055786336080     Delta-E=       -0.000080748789 Rises=F Damp=F
 DIIS: error= 1.69D-04 at cycle   2 NSaved=   2.
 NSaved= 2 IEnMin= 2 EnMin= -400.055786336080     IErMin= 2 ErrMin= 1.69D-04
 ErrMax= 1.69D-04  0.00D+00 EMaxC= 1.00D-01 BMatC= 5.62D-06 BMatP= 7.53D-05
 IDIUse=3 WtCom= 9.98D-01 WtEn= 1.69D-03
 Coeff-Com:  0.161D-01 0.984D+00
 Coeff-En:   0.000D+00 0.100D+01
 Coeff:      0.160D-01 0.984D+00
 Gap=     0.362 Goal=   None    Shift=    0.000
 RMSDP=8.76D-06 MaxDP=4.73D-04 DE=-8.07D-05 OVMax= 1.27D-03

 Cycle   3  Pass 1  IDiag  1:
 E= -400.055795261800     Delta-E=       -0.000008925719 Rises=F Damp=F
 DIIS: error= 1.13D-04 at cycle   3 NSaved=   3.
 NSaved= 3 IEnMin= 3 EnMin= -400.055795261800     IErMin= 3 ErrMin= 1.13D-04
 ErrMax= 1.13D-04  0.00D+00 EMaxC= 1.00D-01 BMatC= 2.00D-06 BMatP= 5.62D-06
 IDIUse=3 WtCom= 9.99D-01 WtEn= 1.13D-03
 Coeff-Com: -0.469D-01 0.332D+00 0.715D+00
 Coeff-En:   0.000D+00 0.000D+00 0.100D+01
 Coeff:     -0.469D-01 0.331D+00 0.716D+00
 Gap=     0.362 Goal=   None    Shift=    0.000
 RMSDP=4.13D-06 MaxDP=2.15D-04 DE=-8.93D-06 OVMax= 1.03D-03

 Cycle   4  Pass 1  IDiag  1:
 E= -400.055798318843     Delta-E=       -0.000003057043 Rises=F Damp=F
 DIIS: error= 5.15D-05 at cycle   4 NSaved=   4.
 NSaved= 4 IEnMin= 4 EnMin= -400.055798318843     IErMin= 4 ErrMin= 5.15D-05
 ErrMax= 5.15D-05  0.00D+00 EMaxC= 1.00D-01 BMatC= 5.01D-07 BMatP= 2.00D-06
 IDIUse=1 WtCom= 1.00D+00 WtEn= 0.00D+00
 Coeff-Com: -0.119D-01-0.735D-01 0.262D+00 0.823D+00
 Coeff:     -0.119D-01-0.735D-01 0.262D+00 0.823D+00
 Gap=     0.362 Goal=   None    Shift=    0.000
 RMSDP=2.71D-06 MaxDP=1.06D-04 DE=-3.06D-06 OVMax= 5.72D-04

 Cycle   5  Pass 1  IDiag  1:
 E= -400.055799459992     Delta-E=       -0.000001141149 Rises=F Damp=F
 DIIS: error= 2.75D-05 at cycle   5 NSaved=   5.
 NSaved= 5 IEnMin= 5 EnMin= -400.055799459992     IErMin= 5 ErrMin= 2.75D-05
 ErrMax= 2.75D-05  0.00D+00 EMaxC= 1.00D-01 BMatC= 8.55D-08 BMatP= 5.01D-07
 IDIUse=1 WtCom= 1.00D+00 WtEn= 0.00D+00
[...]
    A9        2.03263   0.00000   0.00000   0.00008   0.00008   2.03272
   A10        2.13761   0.00001   0.00000   0.00005   0.00005   2.13767
   A11        2.11382  -0.00001   0.00000  -0.00013  -0.00013   2.11369
   A12        2.01747   0.00000   0.00000   0.00004   0.00004   2.01750
   A13        2.15190   0.00001   0.00000   0.00010   0.00010   2.15200
   A14        2.11717   0.00000   0.00000   0.00006   0.00006   2.11724
   A15        2.08585   0.00001   0.00000   0.00005   0.00005   2.08590
   A16        2.08016  -0.00001   0.00000  -0.00012  -0.00012   2.08005
   A17        2.05442   0.00000   0.00000   0.00005   0.00005   2.05447
   A18        2.10464   0.00001   0.00000   0.00008   0.00008   2.10471
   A19        2.12412  -0.00001   0.00000  -0.00013  -0.00013   2.12400
   A20        2.62170  -0.00001   0.00000   0.00018   0.00018   2.62188
   A21        1.87032   0.00001   0.00000   0.00009   0.00009   1.87041
   A22        1.39875  -0.00002   0.00000  -0.00035  -0.00036   1.39840
   A23        2.46995   0.00001   0.00000   0.00128   0.00128   2.47123
   A24        2.50587   0.00006   0.00000   0.00077   0.00077   2.50664
    D1        0.03726   0.00001   0.00000   0.00205   0.00205   0.03931
    D2       -3.10340   0.00000   0.00000   0.00201   0.00201  -3.10138
    D3        0.02469  -0.00001   0.00000  -0.00361  -0.00361   0.02109
    D4       -3.13647  -0.00000   0.00000   0.00005   0.00005  -3.13642
    D5        0.00428  -0.00000   0.00000   0.00008   0.00008   0.00436
    D6        0.00758  -0.00001   0.00000  -0.00068  -0.00068   0.00689
    D7       -3.13485  -0.00001   0.00000  -0.00065  -0.00065  -3.13551
    D8       -0.00265   0.00000   0.00000  -0.00005  -0.00005  -0.00270
    D9        3.13819  -0.00000   0.00000  -0.00012  -0.00012   3.13807
   D10        3.13636   0.00001   0.00000   0.00072   0.00072   3.13708
   D11       -0.00599   0.00000   0.00000   0.00065   0.00065  -0.00534
   D12       -0.11593  -0.00000   0.00000  -0.00172  -0.00172  -0.11765
   D13        3.02801  -0.00001   0.00000  -0.00242  -0.00242   3.02559
   D14        3.13732   0.00000   0.00000   0.00001   0.00001   3.13733
   D15       -0.00212   0.00000   0.00000   0.00010   0.00010  -0.00202
   D16       -0.00339  -0.00000   0.00000  -0.00002  -0.00002  -0.00341
   D17        3.14035   0.00000   0.00000   0.00007   0.00007   3.14042
   D18        0.00100  -0.00000   0.00000  -0.00007  -0.00007   0.00093
   D19       -3.13988   0.00000   0.00000   0.00016   0.00016  -3.13972
   D20        3.14030  -0.00000   0.00000  -0.00017  -0.00017   3.14014
   D21       -0.00057   0.00000   0.00000   0.00006   0.00006  -0.00051
   D22       -0.00014  -0.00000   0.00000  -0.00005  -0.00005  -0.00020
   D23        3.14083  -0.00000   0.00000  -0.00004  -0.00004   3.14079
   D24       -3.14092   0.00000   0.00000   0.00003   0.00003  -3.14089
   D25        0.00005   0.00000   0.00000   0.00004   0.00004   0.00009
   D26        0.00088   0.00000   0.00000   0.00011   0.00011   0.00099
   D27       -3.14009   0.00000   0.00000   0.00009   0.00009  -3.13999
   D28       -3.14143  -0.00000   0.00000  -0.00013  -0.00013  -3.14155
   D29        0.00079  -0.00000   0.00000  -0.00014  -0.00014   0.00065
   D30       -2.53100   0.00000   0.00000   0.00062   0.00062  -2.53038
   D31       -0.06890   0.00001   0.00000   0.00188   0.00188  -0.06702
   D32        0.13405   0.00000   0.00000   0.00124   0.00124   0.13529
   D33        1.97065  -0.00000   0.00000   0.00115   0.00115   1.97180
         Item               Value     Threshold  Converged?
 Maximum Force            0.000058     0.000450     YES
 RMS     Force            0.000012     0.000300     YES
 Maximum Displacement     0.004141     0.001800     NO 
 RMS     Displacement     0.000946     0.001200     YES
 Predicted change in Energy=-1.224375D-07
 GradGradGradGradGradGradGradGradGradGradGradGradGradGradGradGradGradGrad

 Leave Link  103 at Fri Aug 27 01:10:25 2021, MaxMem= 17179869184 cpu:        85.9
 (Enter /public3/home/sc51754/softwares/g09e01/l9999.exe)
 1\1\GINC-T1413\Freq\RwB97\Gen\C5H7N1O2\SC51754\27-Aug-2021\0\\#P Geom=
 AllCheck Guess=TCheck SCRF=Check GenChk RwB97/ChkBas Freq\\PY_H2O_wB97
 _PC2_OPT_FREQ\\0,1\O,1.2527284193,1.3894448579,0.0227887861\N,0.252040
 4436,-0.6542616349,0.0240386621\C,0.2101608161,0.7303637669,0.01615229
 67\C,-1.1252966399,1.2877628862,-0.0010215697\C,-0.8464304217,-1.45698
 81918,0.0118855199\C,-2.2167965041,0.4863989588,-0.0122355903\C,-2.093
 0516395,-0.9346835112,-0.0063559627\H,2.7009685875,0.2732730897,-0.021
 0301916\H,-1.1970929017,2.3672772398,-0.0063858001\H,-0.6479569057,-2.
 5214590119,0.0170981192\H,-3.2062379395,0.9312239159,-0.0266468142\H,-
 2.9593297241,-1.5800244572,-0.016612292\O,3.0759898266,-0.6281343856,-
 0.0603534668\H,3.8731257657,-0.6254748753,0.4682559219\H,1.1871318174,
 -1.0584526474,0.0423563817\\Version=EM64L-G09RevE.01\State=1-A\HF=-400
 .0558836\RMSD=1.638e-09\RMSF=2.248e-05\ZeroPoint=0.1203578\Thermal=0.1
 284219\Dipole=-0.8944211,-0.8560641,0.3776076\DipoleDeriv=-1.8011802,-
 0.6220198,-0.0119642,-0.483076,-0.8626837,-0.006629,-0.0115827,-0.0090
 37,-0.4184324,-0.8185141,0.2570462,-0.0080192,-0.7101212,-0.5872055,-0
 .0046583,-0.0104632,0.0059987,-0.2001789,1.8983909,0.8793954,0.0151603
 ,0.8506086,0.9562032,0.0047318,0.0106191,0.0026528,0.286326,-0.7347792
 ,-0.5340331,-0.0047595,0.0779779,-0.0411611,0.0000405,-0.0048138,-0.00
 69826,-0.1963015,0.7658379,-0.3613101,0.0111416,0.2861146,0.1059394,0.
 0042582,0.0069542,-0.0034229,0.0058653,0.2729397,0.1038604,0.0041222,0
 .1391268,0.6935088,-0.0009303,0.0031972,-0.0015915,-0.0598507,-0.30397
 3,0.3992775,-0.0020954,0.0446131,-0.5241524,0.0025218,0.0003246,0.0070
 243,-0.2262704,0.7453936,-0.1471486,-0.0263494,-0.3943179,0.3368435,-0
 .0353592,-0.0350299,-0.0299163,0.252234,0.0627593,-0.0073193,-0.001215
 2,0.0108042,-0.012533,0.0006872,-0.0006556,0.0008516,0.1528981,0.06428
 93,0.0209076,-0.0011682,-0.0011262,-0.0148019,0.0008459,-0.0011374,0.0
 002539,0.1408199,-0.0405207,0.0613933,-0.0022652,0.0612348,0.055607,0.
 0009837,-0.0025334,0.0010054,0.1252241,0.0154983,-0.0530192,-0.0019066
 ,-0.0552423,0.0123039,-0.0002971,-0.0021864,-0.0004749,0.1675349,-1.01
 8115,0.1294897,0.092412,0.3049506,-0.5864269,0.0800235,0.1114035,0.054
 3727,-0.5610899,0.2572978,-0.0079753,-0.0683791,-0.0644202,0.2870929,-
 0.045679,-0.0713825,-0.0238986,0.2856622,0.6346754,-0.1185449,0.005285
 9,-0.0671267,0.1814655,-0.0005397,0.0072861,0.0031644,0.2455592\Polar=
 97.9588756,6.2099483,82.1422422,1.1784229,-0.2153607,43.9092046\PG=C01
  [X(C5H7N1O2)]\NImag=0\\0.55461575,0.28158447,0.30122835,0.00337474,0.
 00130381,0.03911441,0.01568238,-0.06694189,0.00036543,0.87097617,-0.04
 610309,-0.07198688,-0.00002274,-0.01530724,0.69427489,0.00064080,-0.00
 022996,0.01903237,0.01204508,-0.00363619,0.08893262,-0.47915307,-0.226
 72914,-0.00269190,-0.17919334,0.01388903,-0.00205191,0.87465871,-0.218
 42870,-0.23577564,-0.00133226,0.05999157,-0.23479218,0.00140379,0.1316
 6197,0.65600596,-0.00295566,-0.00156425,-0.07684181,-0.00178910,0.0010
 3632,-0.06567887,0.00647856,-0.00075284,0.21006135,-0.07799870,-0.0046
 7258,-0.00097066,0.03352453,0.04884629,0.00027762,-0.20292142,0.048046
 54,-0.00162224,0.69476453,-0.03097718,0.02099762,-0.00023123,0.0378047
 9,-0.01805559,0.00063607,0.07908360,-0.15705228,0.00104165,0.08992116,
 0.79440014,-0.00086629,0.00020633,0.02167664,0.00017165,0.00086282,0.0
 0832898,-0.00167900,0.00050927,-0.08123368,0.00659145,-0.00144606,0.11
 916903,-0.01484223,0.01423597,-0.00036132,-0.27415717,-0.06196504,-0.0
 0276872,0.05696757,-0.08104220,0.00110511,-0.06114736,-0.00569375,-0.0
 0079513,0.78022635,-0.00185608,-0.00004700,0.00003762,-0.11953524,-0.2
 1543871,-0.00083852,-0.01817625,-0.04387872,-0.00011005,-0.00746824,-0
 .00318714,-0.00010981,-0.08627763,0.78441732,-0.00028675,0.00023372,0.
 00609431,-0.00266143,-0.00029576,-0.05024827,0.00089193,-0.00081986,-0
 .00315739,-0.00077385,-0.00004644,-0.00072875,0.00882630,-0.00305240,0
 .14915488,0.00342770,0.00535280,-0.00001311,-0.01141564,-0.00828704,-0
 .00005202,-0.04305417,-0.01069415,-0.00051804,-0.35299034,-0.18118001,
 -0.00312648,0.01753028,0.03671092,0.00001702,0.80326841,0.02700847,-0.
 00211272,0.00030905,-0.04351635,-0.04571721,-0.00048352,-0.04242489,0.
 06120083,-0.00071461,-0.12486762,-0.25159502,-0.00083790,0.08549094,-0
 .01436642,0.00119263,0.02745656,0.67408724,-0.00010370,0.00007677,0.00
 396567,0.00009130,0.00001623,-0.00623727,-0.00038375,-0.00030101,0.000
 25041,-0.00342647,-0.00167191,-0.05767075,-0.00016627,0.00058602,0.008
 28771,0.00844132,-0.00137413,0.14778052,0.00769955,-0.00672378,0.00011
 893,-0.07797979,-0.03687280,-0.00117058,-0.02641691,0.04194068,-0.0003
 9078,0.04227905,-0.02497925,0.00054321,-0.39464518,0.14693494,-0.00485
 202,-0.12705369,-0.01749429,-0.00078145,0.82425016,-0.01806842,-0.0012
 2570,-0.00020599,0.00952477,0.04769064,0.00002480,0.03527004,-0.030716
 06,0.00050498,-0.05755939,-0.03245446,-0.00062558,0.08936544,-0.186934
 89,0.00156130,0.04180283,-0.28737767,0.00119064,0.02374630,0.66684813,
 0.00019041,-0.00005523,-0.00016438,-0.00126512,-0.00060899,0.01324311,
 -0.00039050,0.00059890,-0.00824227,0.00068595,-0.00022299,0.00816347,-
 0.00469572,0.00234754,-0.06779505,-0.00099067,0.00035726,-0.06361582,0
 .00948603,-0.00114657,0.12092891,0.01293303,-0.00146347,-0.00073829,-0
 .00117962,0.00592256,-0.00028630,-0.01860260,-0.01074965,0.00002303,0.
 00488848,0.00138838,0.00018071,0.00002682,-0.00050530,-0.00003369,-0.0
 0046576,-0.00254695,0.00001279,-0.00003281,0.00188664,0.00001080,0.107
 22550,-0.01373130,-0.01197786,0.00074854,0.00190578,-0.00434431,0.0003
 4989,0.01117201,0.01620790,0.00002747,-0.00580214,-0.00204512,-0.00019
 335,-0.00211910,-0.00174660,-0.00002717,0.00065991,0.00373954,-0.00001
 867,0.00153553,-0.00254822,0.00002093,-0.13849457,0.40023393,0.0002624
 1,0.00009866,-0.00841276,-0.00061894,-0.00014036,-0.00103164,-0.000220
 64,-0.00026647,0.00105024,0.00006785,0.00001596,0.00103985,0.00014126,
 0.00020172,-0.00020163,-0.00006044,-0.00013132,0.00009489,-0.00016092,
 0.00008680,0.00008226,0.01422100,0.01826724,0.03175244,0.00175235,-0.0
 0278652,0.00004471,-0.00589859,0.00353610,-0.00014986,0.00435142,0.029
 87666,-0.00011571,-0.05947481,0.02283102,-0.00035968,-0.00222620,-0.00
 098133,-0.00001879,0.00676450,-0.02693258,0.00015726,-0.00346060,-0.00
 256759,-0.00015773,-0.00013108,0.00021014,-0.00001081,0.05641577,0.000
 23970,0.00179624,-0.00001539,0.00240000,-0.00082615,0.00005431,-0.0050
 4410,-0.00877341,0.00000751,0.02513309,-0.35483714,0.00167453,0.000887
 69,0.00107307,0.00000676,0.00387459,-0.01121182,0.00010878,-0.00346631
 ,0.00094869,-0.00000392,0.00003335,-0.00007167,0.00000943,-0.02371135,
 0.37213703,0.00006193,-0.00005904,-0.00235910,-0.00013955,0.00004212,0
 .00433782,-0.00000929,0.00042671,0.00297106,-0.00034766,0.00172138,-0.
 03422950,0.00000063,-0.00000798,-0.00063361,0.00000844,-0.00032477,0.0
 0335896,-0.00017092,-0.00000081,0.00981785,-0.00001515,0.00000893,-0.0
 0001275,0.00048001,-0.00178574,0.02420138,-0.00092577,-0.00216488,0.00
 001286,0.00572297,-0.03471017,0.00014064,-0.00364041,0.00117244,-0.000
 13518,-0.00026965,-0.00051733,0.00000134,-0.07376706,0.06134693,-0.000
 60196,-0.00555715,0.00165254,-0.00019865,0.00363993,0.02727248,-0.0001
 3268,0.00032800,-0.00026793,0.00001110,0.00015262,0.00000541,0.0000165
 8,0.07256986,-0.00065877,-0.00182245,0.00001169,0.00244639,-0.01877406
 ,0.00008606,-0.00274525,0.00417670,-0.00006730,0.00027593,0.00063358,0
 .00000228,0.05433716,-0.34255217,0.00151356,0.00219964,0.00024849,0.00
 004741,-0.00147481,-0.00416900,0.00000537,0.00027559,-0.00018239,-0.00
 000528,0.00004163,-0.00007092,-0.00000238,-0.05484135,0.36191115,-0.00
 001854,-0.00002729,-0.00016789,0.00008170,-0.00030236,0.00308139,-0.00
 008415,-0.00000675,0.00545087,-0.00002286,-0.00000505,-0.00024346,-0.0
 0065493,0.00147821,-0.04094578,-0.00020556,0.00008145,0.00857769,-0.00
 001091,0.00039191,0.00808760,-0.00001359,-0.00000211,-0.00000474,0.000
 01363,-0.00000385,-0.00114783,0.00077197,-0.00158228,0.02576889,-0.002
 00619,0.00031655,0.00001687,0.00008420,-0.00056288,0.00001615,-0.00090
 834,-0.00367111,-0.00017655,-0.01773272,0.01309907,-0.00038681,0.00156
 602,0.00033732,-0.00004353,-0.29983764,0.10775544,-0.00373636,0.002115
 55,-0.00157442,-0.00004065,0.00021960,-0.00017845,-0.00000855,0.001044
 15,-0.00033586,0.00009958,-0.00000055,-0.00007973,0.00000827,0.3151279
 3,-0.00088042,0.00064409,-0.00001324,-0.00110516,0.00048669,-0.0000209
 9,-0.00289093,-0.00288408,0.00001764,-0.01865206,0.01227087,-0.0002627
 3,-0.00002587,-0.00662327,0.00003571,0.10928241,-0.11049033,0.00166389
 ,0.02867543,-0.00572583,0.00040821,0.00005403,-0.00008199,-0.00000156,
 0.00044638,0.00073193,-0.00001932,0.00147863,-0.00038303,0.00002264,-0
 .11571785,0.11083677,-0.00001059,-0.00003046,-0.00229600,0.00001108,-0
 .00002203,-0.00094263,-0.00015341,0.00002278,0.01277876,-0.00023561,0.
 00019580,0.00775239,-0.00003851,0.00003100,0.00461237,-0.00378064,0.00
 163026,-0.04447948,-0.00012719,0.00001609,0.00496586,-0.00001399,0.000
 01419,-0.00012171,0.00008701,-0.00003686,-0.00629343,0.00000274,-0.000
 00169,-0.00052950,0.00419600,-0.00180748,0.02735058,0.00025668,-0.0002
 2067,0.00001292,-0.00383716,0.00413476,-0.00018746,-0.00020132,0.00098
 418,-0.00001210,0.00075629,0.00143155,-0.00004720,-0.01629248,-0.02059
 222,-0.00017948,0.00800737,0.00510463,0.00008963,-0.25171861,-0.142453
 88,-0.00264577,0.00005725,0.00009316,-0.00001841,0.00023984,0.00024465
 ,-0.00000433,0.00063607,0.00030934,0.00008384,0.00041994,-0.00065235,0
 .00003875,0.26216913,-0.00039983,0.00051357,-0.00000691,0.00372008,-0.
 00003680,0.00007767,0.00133932,-0.00149583,0.00001920,0.00211014,-0.00
 503235,0.00005471,0.01219827,0.01152468,0.00013455,-0.02584679,-0.0109
 8666,-0.00033063,-0.14503944,-0.16440161,-0.00165476,0.00005174,-0.000
 12256,0.00000850,-0.00119537,-0.00055786,-0.00000986,-0.00054194,0.000
 52977,-0.00002221,0.00046232,0.00107807,-0.00000163,0.15271677,0.16836
 599,0.00001180,-0.00001924,-0.00056770,-0.00019106,0.00006538,0.008398
 06,-0.00000636,0.00002487,-0.00018010,-0.00004634,0.00005164,0.0039011
 9,-0.00023722,-0.00031530,-0.00009217,0.00018797,0.00011534,0.00016231
 ,-0.00267762,-0.00164150,-0.03036388,0.00000352,-0.00000129,0.00002915
 ,-0.00000068,0.00000771,0.00041937,0.00008437,-0.00000730,-0.00535721,
 0.00003441,-0.00001758,-0.00212404,0.00286386,0.00173354,0.02434013,-0
 .01217149,0.01202784,0.00018564,-0.01284414,-0.00434085,-0.00058118,0.
 00373067,0.00117007,0.00022563,-0.00112059,-0.00011604,0.00000719,0.00
 194440,0.00441653,-0.00002882,-0.00018901,-0.00026260,-0.00001929,-0.0
 0208938,-0.00023381,0.00000396,-0.09254866,0.15942000,-0.00356249,-0.0
 0011744,0.00011221,0.00001044,-0.00005568,-0.00024689,0.00000096,-0.00
 018859,-0.00001025,-0.00000243,-0.00033218,0.00010806,0.00000628,0.495
 59313,0.02186979,-0.00200599,0.00051152,-0.00115007,0.00540980,-0.0009
 3327,-0.01071993,-0.01215815,-0.00000811,0.00435415,0.00179800,-0.0000
 1416,0.00145137,0.00039822,-0.00003344,-0.00043643,-0.00272003,0.00000
 839,-0.00082364,0.00197149,-0.00000189,0.11565340,-0.39957837,-0.04367
 859,-0.00021344,0.00006773,-0.00000316,0.00034725,0.00020789,0.0000195
 9,0.00015083,0.00007991,0.00001090,-0.00001030,0.00007589,0.00002350,-
 0.15228668,0.45302357,-0.00093416,0.00112593,0.00558056,-0.00210717,-0
 .00029593,0.00282918,0.00043042,0.00008364,-0.00071423,-0.00012455,0.0
 0003068,-0.00064981,-0.00034581,0.00020302,0.00023464,0.00005291,0.000
 07622,0.00002096,0.00002230,-0.00020213,-0.00011829,-0.01498686,-0.015
 97728,-0.02621391,0.00001437,-0.00000459,-0.00001611,-0.00003447,-0.00
 004769,-0.00006394,0.00000394,0.00000058,0.00006632,-0.00001880,0.0000
 0670,-0.00007690,0.26047458,0.03770882,0.19304908,0.00070337,0.0010813
 1,0.00063048,-0.00047375,-0.00047283,0.00041024,-0.00082617,-0.0006159
 9,-0.00015766,0.00024380,0.00010277,-0.00010152,-0.00024480,0.00027826
 ,0.00002348,-0.00003018,-0.00014276,0.00000718,-0.00005364,-0.00002900
 ,-0.00001648,-0.01398326,-0.00673210,-0.01123687,-0.00000339,0.0000143
 9,-0.00000505,-0.00002111,-0.00003790,-0.00001428,0.00001057,-0.000003
 98,0.00001104,-0.00002073,0.00001764,-0.00001249,-0.38062149,0.0208016
 0,-0.24440406,0.39549699,0.00258775,-0.00218739,-0.00101457,-0.0021825
 3,0.00038867,0.00042467,-0.00101093,-0.00116816,-0.00004477,0.00023257
 ,0.00018816,0.00012756,0.00029174,0.00062634,0.00001710,-0.00000708,-0
 .00017786,0.00000305,-0.00031500,0.00003194,-0.00000385,0.03420412,0.0
 0489366,0.02505050,-0.00003841,0.00002167,-0.00000376,-0.00000879,-0.0
 0003238,-0.00002531,0.00000007,0.00000482,-0.00001704,-0.00004891,0.00
 002113,-0.00001316,-0.02148323,-0.04268253,-0.02358158,-0.01504537,0.0
 4002178,0.00079629,-0.00094567,-0.00003790,0.00215260,0.00029403,0.000
 19242,-0.00019885,0.00010398,-0.00003766,0.00006041,-0.00003994,-0.000
 03444,0.00008621,-0.00035521,0.00001609,0.00000665,0.00002833,-0.00000
 152,0.00014436,0.00008333,-0.00002638,0.00138145,-0.00295100,-0.000415
 79,0.00000442,-0.00000542,0.00001549,0.00000947,0.00004140,0.00004355,
 0.00000598,-0.00000063,0.00001100,0.00003268,-0.00001210,0.00000678,-0
 .25832083,0.00409718,-0.16924118,0.25585175,0.00030322,0.16967591,-0.0
 0997337,-0.00289599,0.00001270,-0.35901105,0.13229319,-0.00628251,0.01
 520937,0.01035771,0.00004070,-0.00280107,-0.00219878,-0.00013345,-0.02
 093897,0.00536740,-0.00027842,0.00159531,0.00371948,0.00001646,0.00346
 638,-0.00638200,-0.00004183,0.00126510,-0.00767095,0.00119447,0.000591
 45,-0.00038746,0.00001432,0.00118792,0.00019901,0.00006446,0.00008607,
 0.00000197,0.00001575,-0.00014011,0.00029903,-0.00002044,0.00101045,0.
 00101212,0.00195735,-0.00017623,0.00282401,-0.00201257,0.36862876,-0.0
 0218640,0.00396177,-0.00007990,0.13194511,-0.13827879,0.00308517,0.037
 32546,-0.00889688,0.00060716,0.00010214,-0.00602926,0.00005209,-0.0211
 3498,0.01673529,-0.00042025,-0.00088817,-0.00252035,-0.00000483,-0.005
 64356,-0.00193748,-0.00004000,-0.00570989,-0.00237593,0.00048478,0.001
 48465,-0.00042739,0.00001769,-0.00022327,0.00027881,-0.00001659,-0.000
 00129,0.00005539,-0.00000383,-0.00104070,0.00052458,-0.00000660,0.0017
 2565,-0.00388743,0.00087362,0.00078398,0.00005015,-0.00064149,-0.13653
 874,0.14274752,-0.00016268,-0.00011406,-0.00461641,-0.00614647,0.00300
 747,-0.02423726,0.00006885,0.00030526,0.00352333,-0.00011305,-0.000029
 56,0.00475886,-0.00009588,-0.00009585,-0.00459735,0.00003264,0.0000757
 1,-0.00049428,0.00002754,-0.00003727,0.00503701,0.00025458,-0.00026632
 ,0.00236612,0.00001185,-0.00001326,-0.00042960,0.00005187,0.00000615,-
 0.00254964,0.00001124,-0.00000513,-0.00075048,-0.00000812,0.00000322,0
 .00150501,0.00160035,0.00229272,-0.00468637,-0.00098576,-0.00122206,-0
 .00016637,0.00545303,-0.00390702,0.02533744\\-0.00004106,0.00003476,-0
 .00002317,0.00002472,0.00004520,-0.00001728,0.00001096,0.00000920,0.00
 001708,0.00000743,-0.00001531,0.00000743,0.00002176,0.00000824,-0.0000
 1257,-0.00000759,-0.00002310,-0.00001746,-0.00001079,0.00001094,0.0000
 1227,0.00003137,-0.00003141,0.00002973,-0.00000889,-0.00000060,0.00000
 736,0.00000403,-0.00000484,-0.00000467,-0.00000075,-0.00000141,0.00000
 734,0.00000799,-0.00001608,0.00000011,-0.00001873,0.00004764,-0.000025
 07,-0.00000033,0.00001437,0.00000420,-0.00002012,-0.00007759,0.0000147
 0\\\@


 MATERIAL COPIED FROM ONE SCHOLARLY BOOK WITHOUT CREDIT COMPRISES PLAGIARISM.
 MATERIAL COPIED FROM TWO SCHOLARLY BOOKS COMPRISES AN ESSAY.
 MATERIAL COPIED FROM THREE SCHOLARLY BOOKS COMPRISES A DISSERTATION.
 MATERIAL COPIED FROM FOUR SCHOLARLY BOOKS COMPRISES A FIFTH SCHOLARLY BOOK.

                               -- C&EN, 25 FEB 1980
 Job cpu time:       0 days  1 hours 22 minutes 41.1 seconds.
 File lengths (MBytes):  RWF=    137 Int=      0 D2E=      0 Chk=      9 Scr=      1
 Normal termination of Gaussian 09 at Fri Aug 27 01:10:25 2021.
