 Entering Gaussian System, Link 0=g09
 AtFile(1): pc-2.gbs
            -H     0
            S    4   1.00
                  0.754230D+02           0.240650D-02
                  0.113500D+02           0.184870D-01
                  0.259930D+01           0.897420D-01
                  0.735130D+00           0.281110D+00
            S    1   1.00
                  0.231670D+00           0.100000D+01
            S    1   1.00
                  0.741470D-01           0.100000D+01
            P    1   1.00
                  0.160000D+01           0.100000D+01
            P    1   1.00
                  0.450000D+00           0.100000D+01
            D    1   1.00
                  0.125000D+01           0.100000D+01
            ****
            -C     0
            S    7   1.00
                  0.785710D+04           0.568250D-03
                  0.117870D+04           0.439150D-02
                  0.268320D+03           0.225040D-01
                  0.759480D+02           0.866530D-01
                  0.245590D+02           0.244050D+00
                  0.862120D+01           0.441480D+00
                  0.312780D+01           0.353320D+00
            S    7   1.00
                  0.117870D+04          -0.594920D-06
                  0.268320D+03          -0.627480D-04
                  0.759480D+02          -0.757730D-03
                  0.245590D+02          -0.733080D-02
                  0.862120D+01          -0.389320D-01
                  0.312780D+01          -0.889080D-01
                  0.822020D+00           0.216890D+00
            S    1   1.00
                  0.330170D+00           0.100000D+01
            S    1   1.00
                  0.114630D+00           0.100000D+01
            P    4   1.00
                  0.337750D+02           0.602940D-02
                  0.767660D+01           0.432280D-01
                  0.223570D+01           0.163010D+00
                  0.764470D+00           0.365040D+00
            P    1   1.00
                  0.262320D+00           0.100000D+01
            P    1   1.00
                  0.846380D-01           0.100000D+01
            D    1   1.00
                  0.140000D+01           0.100000D+01
            D    1   1.00
                  0.450000D+00           0.100000D+01
            F    1   1.00
                  0.950000D+00           0.100000D+01
            ****
            -N     0
            S    7   1.00
                  0.111010D+05           0.545700D-03
                  0.166530D+04           0.421810D-02
                  0.379080D+03           0.216450D-01
                  0.107300D+03           0.837760D-01
                  0.347470D+02           0.238810D+00
                  0.122490D+02           0.439940D+00
                  0.447430D+01           0.363640D+00
            S    7   1.00
                  0.166530D+04          -0.150060D-05
                  0.379080D+03          -0.587530D-04
                  0.107300D+03          -0.774530D-03
                  0.347470D+02          -0.721610D-02
                  0.122490D+02          -0.393380D-01
                  0.447430D+01          -0.906110D-01
                  0.124040D+01           0.198820D+00
            S    1   1.00
                  0.487430D+00           0.100000D+01
            S    1   1.00
                  0.164840D+00           0.100000D+01
            P    4   1.00
                  0.479340D+02           0.617060D-02
                  0.109990D+02           0.442600D-01
                  0.324720D+01           0.168250D+00
                  0.111140D+01           0.368480D+00
            P    1   1.00
                  0.379880D+00           0.100000D+01
            P    1   1.00
                  0.120680D+00           0.100000D+01
            D    1   1.00
                  0.180000D+01           0.100000D+01
            D    1   1.00
                  0.550000D+00           0.100000D+01
            F    1   1.00
                  0.102000D+01           0.100000D+01
            ****
            -O     0
            S    7   1.00
                  0.147820D+05           0.535190D-03
                  0.221730D+04           0.413750D-02
                  0.504740D+03           0.212450D-01
                  0.142870D+03           0.824530D-01
                  0.463000D+02           0.236710D+00
                  0.163370D+02           0.440390D+00
                  0.598280D+01           0.364650D+00
            S    7   1.00
                  0.221730D+04          -0.192750D-05
                  0.504740D+03          -0.579640D-04
                  0.142870D+03          -0.794940D-03
                  0.463000D+02          -0.731250D-02
                  0.163370D+02          -0.405740D-01
                  0.598280D+01          -0.915940D-01
                  0.167180D+01           0.209400D+00
            S    1   1.00
                  0.646620D+00           0.100000D+01
            S    1   1.00
                  0.216690D+00           0.100000D+01
            P    4   1.00
                  0.604240D+02           0.689490D-02
                  0.139350D+02           0.490050D-01
                  0.415310D+01           0.182550D+00
                  0.141580D+01           0.376330D+00
            P    1   1.00
                  0.475490D+00           0.100000D+01
            P    1   1.00
                  0.145290D+00           0.100000D+01
            D    1   1.00
                  0.220000D+01           0.100000D+01
            D    1   1.00
                  0.650000D+00           0.100000D+01
            F    1   1.00
                  0.110000D+01           0.100000D+01
            ****
 Initial command:
 /public3/home/sc51754/softwares/g09e01/l1.exe "./Gau-13918.inp" -scrdir="./"
 Entering Link 1 = /public3/home/sc51754/softwares/g09e01/l1.exe PID=     13919.
  
 Copyright (c) 1988,1990,1992,1993,1995,1998,2003,2009,2015,
            Gaussian, Inc.  All Rights Reserved.
  
 This is part of the Gaussian(R) 09 program.  It is based on
 the Gaussian(R) 03 system (copyright 2003, Gaussian, Inc.),
 the Gaussian(R) 98 system (copyright 1998, Gaussian, Inc.),
 the Gaussian(R) 94 system (copyright 1995, Gaussian, Inc.),
 the Gaussian 92(TM) system (copyright 1992, Gaussian, Inc.),
 the Gaussian 90(TM) system (copyright 1990, Gaussian, Inc.),
 the Gaussian 88(TM) system (copyright 1988, Gaussian, Inc.),
 the Gaussian 86(TM) system (copyright 1986, Carnegie Mellon
 University), and the Gaussian 82(TM) system (copyright 1983,
 Carnegie Mellon University). Gaussian is a federally registered
 trademark of Gaussian, Inc.
  
 This software contains proprietary and confidential information,
 including trade secrets, belonging to Gaussian, Inc.
  
 This software is provided under written license and may be
 used, copied, transmitted, or stored only in accord with that
 written license.
  
 The following legend is applicable only to US Government
 contracts under FAR:
  
                    RESTRICTED RIGHTS LEGEND
  
 Use, reproduction and disclosure by the US Government is
 subject to restrictions as set forth in subparagraphs (a)
 and (c) of the Commercial Computer Software - Restricted
 Rights clause in FAR 52.227-19.
  
 Gaussian, Inc.
 340 Quinnipiac St., Bldg. 40, Wallingford CT 06492
  
  
 ---------------------------------------------------------------
 Warning -- This program may not be used in any manner that
 competes with the business of Gaussian, Inc. or will provide
 assistance to any competitor of Gaussian, Inc.  The licensee
 of this program is prohibited from giving any competitor of
 Gaussian, Inc. access to this program.  By using this program,
 the user acknowledges that Gaussian, Inc. is engaged in the
 business of creating and licensing software in the field of
 computational chemistry and represents and warrants to the
 licensee that it is not a competitor of Gaussian, Inc. and that
 it will not use this program in any manner prohibited above.
 ---------------------------------------------------------------
  

 Cite this work as:
 Gaussian 09, Revision E.01,
 M. J. Frisch, G. W. Trucks, H. B. Schlegel, G. E. Scuseria, 
 M. A. Robb, J. R. Cheeseman, G. Scalmani, V. Barone, B. Mennucci, 
 G. A. Petersson, H. Nakatsuji, M. Caricato, X. Li, H. P. Hratchian, 
 A. F. Izmaylov, J. Bloino, G. Zheng, J. L. Sonnenberg, M. Hada, 
 M. Ehara, K. Toyota, R. Fukuda, J. Hasegawa, M. Ishida, T. Nakajima, 
 Y. Honda, O. Kitao, H. Nakai, T. Vreven, J. A. Montgomery, Jr., 
 J. E. Peralta, F. Ogliaro, M. Bearpark, J. J. Heyd, E. Brothers, 
 K. N. Kudin, V. N. Staroverov, T. Keith, R. Kobayashi, J. Normand, 
 K. Raghavachari, A. Rendell, J. C. Burant, S. S. Iyengar, J. Tomasi, 
 M. Cossi, N. Rega, J. M. Millam, M. Klene, J. E. Knox, J. B. Cross, 
 V. Bakken, C. Adamo, J. Jaramillo, R. Gomperts, R. E. Stratmann, 
 O. Yazyev, A. J. Austin, R. Cammi, C. Pomelli, J. W. Ochterski, 
 R. L. Martin, K. Morokuma, V. G. Zakrzewski, G. A. Voth, 
 P. Salvador, J. J. Dannenberg, S. Dapprich, A. D. Daniels, 
 O. Farkas, J. B. Foresman, J. V. Ortiz, J. Cioslowski, 
 and D. J. Fox, Gaussian, Inc., Wallingford CT, 2013.
 
 ******************************************
 Gaussian 09:  EM64L-G09RevE.01 30-Nov-2015
                27-Aug-2021 
 ******************************************
 %nprocshared=64
 Will use up to   64 processors via shared memory.
 %mem=128GB
 %chk=PY_H2O_M06_PC2_OPT_FREQ.chk
 -------------------
 #p opt freq M06/gen
 -------------------
 1/14=-1,18=20,19=15,26=3,38=1/1,3;
 2/9=110,12=2,17=6,18=5,40=1/2;
 3/5=7,11=2,16=1,25=1,30=1,71=1,74=-54/1,2,3;
 4//1;
 5/5=2,38=5/2;
 6/7=2,8=2,9=2,10=2,28=1/1;
 7//1,2,3,16;
 1/14=-1,18=20,19=15,26=3/3(2);
 2/9=110/2;
 99//99;
 2/9=110/2;
 3/5=7,6=1,11=2,16=1,25=1,30=1,71=1,74=-54,82=7/1,2,3;
 4/5=5,16=3,69=1/1;
 5/5=2,38=5/2;
 7//1,2,3,16;
 1/14=-1,18=20,19=15,26=3/3(-5);
 2/9=110/2;
 6/7=2,8=2,9=2,10=2,19=2,28=1/1;
 99/9=1/99;
 Leave Link    1 at Fri Aug 27 01:10:25 2021, MaxMem= 17179869184 cpu:         4.5
 (Enter /public3/home/sc51754/softwares/g09e01/l101.exe)
 -----------------------
 PY_H2O_M06_PC2_OPT_FREQ
 -----------------------
 Symbolic Z-matrix:
 Charge =  0 Multiplicity = 1
 O                     1.26148   1.38785   0.00541 
 N                     0.24943  -0.65888   0.01158 
 C                     0.21021   0.736     0.00592 
 C                    -1.11959   1.28763   0.00047 
 C                    -0.84358  -1.46082   0.0067 
 C                    -2.21816   0.48191  -0.00352 
 C                    -2.09559  -0.93059  -0.00106 
 H                     2.7014    0.27314  -0.04162 
 H                    -1.19683   2.36437  -0.00254 
 H                    -0.64999  -2.52343   0.00862 
 H                    -3.20534   0.92605  -0.00928 
 H                    -2.96087  -1.57362  -0.00584 
 O                     3.10667  -0.61979  -0.08598 
 H                     3.83344  -0.62425   0.54074 
 H                     1.18728  -1.05929   0.02234 
 
 Add virtual bond connecting atoms H8         and O1         Dist= 3.44D+00.
 Add virtual bond connecting atoms O13        and H15        Dist= 3.73D+00.
 NAtoms=     15 NQM=       15 NQMF=       0 NMMI=      0 NMMIF=      0
                NMic=       0 NMicF=      0.
                    Isotopes and Nuclear Properties:
 (Nuclear quadrupole moments (NQMom) in fm**2, nuclear magnetic moments (NMagM)
  in nuclear magnetons)

  Atom         1           2           3           4           5           6           7           8           9          10
 IAtWgt=          16          14          12          12          12          12          12           1           1           1
 AtmWgt=  15.9949146  14.0030740  12.0000000  12.0000000  12.0000000  12.0000000  12.0000000   1.0078250   1.0078250   1.0078250
 NucSpn=           0           2           0           0           0           0           0           1           1           1
 AtZEff=   0.0000000   0.0000000   0.0000000   0.0000000   0.0000000   0.0000000   0.0000000   0.0000000   0.0000000   0.0000000
 NQMom=    0.0000000   2.0440000   0.0000000   0.0000000   0.0000000   0.0000000   0.0000000   0.0000000   0.0000000   0.0000000
 NMagM=    0.0000000   0.4037610   0.0000000   0.0000000   0.0000000   0.0000000   0.0000000   2.7928460   2.7928460   2.7928460
 AtZNuc=   8.0000000   7.0000000   6.0000000   6.0000000   6.0000000   6.0000000   6.0000000   1.0000000   1.0000000   1.0000000

  Atom        11          12          13          14          15
 IAtWgt=           1           1          16           1           1
 AtmWgt=   1.0078250   1.0078250  15.9949146   1.0078250   1.0078250
 NucSpn=           1           1           0           1           1
 AtZEff=   0.0000000   0.0000000   0.0000000   0.0000000   0.0000000
 NQMom=    0.0000000   0.0000000   0.0000000   0.0000000   0.0000000
 NMagM=    2.7928460   2.7928460   0.0000000   2.7928460   2.7928460
 AtZNuc=   1.0000000   1.0000000   8.0000000   1.0000000   1.0000000
 Leave Link  101 at Fri Aug 27 01:10:25 2021, MaxMem= 17179869184 cpu:         9.6
 (Enter /public3/home/sc51754/softwares/g09e01/l103.exe)

 GradGradGradGradGradGradGradGradGradGradGradGradGradGradGradGradGradGrad
 Berny optimization.
 Initialization pass.
                           ----------------------------
                           !    Initial Parameters    !
                           ! (Angstroms and Degrees)  !
 --------------------------                            --------------------------
 ! Name  Definition              Value          Derivative Info.                !
 --------------------------------------------------------------------------------
 ! R1    R(1,3)                  1.237          estimate D2E/DX2                !
 ! R2    R(1,8)                  1.8216         estimate D2E/DX2                !
 ! R3    R(2,3)                  1.3954         estimate D2E/DX2                !
 ! R4    R(2,5)                  1.3556         estimate D2E/DX2                !
 ! R5    R(2,15)                 1.0198         estimate D2E/DX2                !
 ! R6    R(3,4)                  1.4397         estimate D2E/DX2                !
 ! R7    R(4,6)                  1.3624         estimate D2E/DX2                !
 ! R8    R(4,9)                  1.0795         estimate D2E/DX2                !
 ! R9    R(5,7)                  1.3597         estimate D2E/DX2                !
 ! R10   R(5,10)                 1.0801         estimate D2E/DX2                !
 ! R11   R(6,7)                  1.4178         estimate D2E/DX2                !
 ! R12   R(6,11)                 1.0825         estimate D2E/DX2                !
 ! R13   R(7,12)                 1.0781         estimate D2E/DX2                !
 ! R14   R(8,13)                 0.9816         estimate D2E/DX2                !
 ! R15   R(13,14)                0.9597         estimate D2E/DX2                !
 ! R16   R(13,15)                1.972          estimate D2E/DX2                !
 ! A1    A(3,1,8)              110.4468         estimate D2E/DX2                !
 ! A2    A(3,2,5)              124.6558         estimate D2E/DX2                !
 ! A3    A(3,2,15)             114.7312         estimate D2E/DX2                !
 ! A4    A(5,2,15)             120.6129         estimate D2E/DX2                !
 ! A5    A(1,3,2)              120.1911         estimate D2E/DX2                !
 ! A6    A(1,3,4)              125.6683         estimate D2E/DX2                !
 ! A7    A(2,3,4)              114.1406         estimate D2E/DX2                !
 ! A8    A(3,4,6)              121.2133         estimate D2E/DX2                !
 ! A9    A(3,4,9)              116.6328         estimate D2E/DX2                !
 ! A10   A(6,4,9)              122.1537         estimate D2E/DX2                !
 ! A11   A(2,5,7)              120.7801         estimate D2E/DX2                !
 ! A12   A(2,5,10)             115.9423         estimate D2E/DX2                !
 ! A13   A(7,5,10)             123.2776         estimate D2E/DX2                !
 ! A14   A(4,6,7)              121.2972         estimate D2E/DX2                !
 ! A15   A(4,6,11)             119.5197         estimate D2E/DX2                !
 ! A16   A(7,6,11)             119.1831         estimate D2E/DX2                !
 ! A17   A(5,7,6)              117.9124         estimate D2E/DX2                !
 ! A18   A(5,7,12)             120.4308         estimate D2E/DX2                !
 ! A19   A(6,7,12)             121.6568         estimate D2E/DX2                !
 ! A20   A(1,8,13)             152.1528         estimate D2E/DX2                !
 ! A21   A(8,13,14)            106.7015         estimate D2E/DX2                !
 ! A22   A(8,13,15)             78.3702         estimate D2E/DX2                !
 ! A23   A(14,13,15)           134.4412         estimate D2E/DX2                !
 ! A24   A(2,15,13)            143.8035         estimate D2E/DX2                !
 ! D1    D(8,1,3,2)              1.8252         estimate D2E/DX2                !
 ! D2    D(8,1,3,4)           -178.1461         estimate D2E/DX2                !
 ! D3    D(3,1,8,13)             2.218          estimate D2E/DX2                !
 ! D4    D(5,2,3,1)           -179.6964         estimate D2E/DX2                !
 ! D5    D(5,2,3,4)              0.278          estimate D2E/DX2                !
 ! D6    D(15,2,3,1)             0.4507         estimate D2E/DX2                !
 ! D7    D(15,2,3,4)          -179.5749         estimate D2E/DX2                !
 ! D8    D(3,2,5,7)             -0.1672         estimate D2E/DX2                !
 ! D9    D(3,2,5,10)           179.7881         estimate D2E/DX2                !
 ! D10   D(15,2,5,7)           179.6776         estimate D2E/DX2                !
 ! D11   D(15,2,5,10)           -0.3671         estimate D2E/DX2                !
 ! D12   D(3,2,15,13)           -6.1898         estimate D2E/DX2                !
 ! D13   D(5,2,15,13)          173.9508         estimate D2E/DX2                !
 ! D14   D(1,3,4,6)            179.7501         estimate D2E/DX2                !
 ! D15   D(1,3,4,9)             -0.1145         estimate D2E/DX2                !
 ! D16   D(2,3,4,6)             -0.2227         estimate D2E/DX2                !
 ! D17   D(2,3,4,9)            179.9126         estimate D2E/DX2                !
 ! D18   D(3,4,6,7)              0.0669         estimate D2E/DX2                !
 ! D19   D(3,4,6,11)          -179.8963         estimate D2E/DX2                !
 ! D20   D(9,4,6,7)            179.924          estimate D2E/DX2                !
 ! D21   D(9,4,6,11)            -0.0392         estimate D2E/DX2                !
 ! D22   D(2,5,7,6)             -0.0156         estimate D2E/DX2                !
 ! D23   D(2,5,7,12)           179.9426         estimate D2E/DX2                !
 ! D24   D(10,5,7,6)          -179.9675         estimate D2E/DX2                !
 ! D25   D(10,5,7,12)           -0.0093         estimate D2E/DX2                !
 ! D26   D(4,6,7,5)              0.0605         estimate D2E/DX2                !
 ! D27   D(4,6,7,12)          -179.8972         estimate D2E/DX2                !
 ! D28   D(11,6,7,5)          -179.9762         estimate D2E/DX2                !
 ! D29   D(11,6,7,12)            0.0661         estimate D2E/DX2                !
 ! D30   D(1,8,13,14)         -137.6226         estimate D2E/DX2                !
 ! D31   D(1,8,13,15)           -4.4198         estimate D2E/DX2                !
 ! D32   D(8,13,15,2)            7.3388         estimate D2E/DX2                !
 ! D33   D(14,13,15,2)         109.4095         estimate D2E/DX2                !
 --------------------------------------------------------------------------------
 Trust Radius=3.00D-01 FncErr=1.00D-07 GrdErr=1.00D-06
 Number of steps in this run=     83 maximum allowed number of steps=    100.
 GradGradGradGradGradGradGradGradGradGradGradGradGradGradGradGradGradGrad

 Leave Link  103 at Fri Aug 27 01:10:26 2021, MaxMem= 17179869184 cpu:         0.2
 (Enter /public3/home/sc51754/softwares/g09e01/l202.exe)
                          Input orientation:                          
 ---------------------------------------------------------------------
 Center     Atomic      Atomic             Coordinates (Angstroms)
 Number     Number       Type             X           Y           Z
 ---------------------------------------------------------------------
      1          8           0        1.261476    1.387852    0.005408
      2          7           0        0.249425   -0.658880    0.011581
      3          6           0        0.210209    0.735997    0.005920
      4          6           0       -1.119592    1.287625    0.000474
      5          6           0       -0.843575   -1.460822    0.006702
      6          6           0       -2.218160    0.481905   -0.003521
      7          6           0       -2.095586   -0.930593   -0.001061
      8          1           0        2.701404    0.273138   -0.041623
      9          1           0       -1.196826    2.364370   -0.002539
     10          1           0       -0.649991   -2.523426    0.008616
     11          1           0       -3.205344    0.926047   -0.009282
     12          1           0       -2.960874   -1.573618   -0.005843
     13          8           0        3.106669   -0.619787   -0.085978
     14          1           0        3.833439   -0.624251    0.540740
     15          1           0        1.187279   -1.059291    0.022340
 ---------------------------------------------------------------------
                    Distance matrix (angstroms):
                    1          2          3          4          5
     1  O    0.000000
     2  N    2.283286   0.000000
     3  C    1.236963   1.395440   0.000000
     4  C    2.383182   2.379751   1.439685   0.000000
     5  C    3.542059   1.355649   2.436488   2.762279   0.000000
     6  C    3.595648   2.718565   2.441645   1.362370   2.379869
     7  C    4.079840   2.360734   2.845042   2.423439   1.359682
     8  H    1.821590   2.623679   2.534275   3.953602   3.946622
     9  H    2.645165   3.351400   2.152073   1.079516   3.841480
    10  H    4.353368   2.070142   3.371022   3.839883   1.080095
    11  H    4.490653   3.801034   3.420870   2.116883   3.357879
    12  H    5.157390   3.338124   3.923038   3.402509   2.120339
    13  O    2.728315   2.859176   3.199387   4.637561   4.039846
    14  H    3.309098   3.623033   3.906930   5.336635   4.781162
    15  H    2.448326   1.019811   2.044014   3.290919   2.070227
                    6          7          8          9         10
     6  C    0.000000
     7  C    1.417809   0.000000
     8  H    4.924139   4.945880   0.000000
     9  H    2.141681   3.415341   4.423910   0.000000
    10  H    3.389884   2.151036   4.365220   4.918303   0.000000
    11  H    1.082510   2.163040   5.942811   2.470418   4.292903
    12  H    2.185590   1.078066   5.955937   4.315046   2.498504
    13  O    5.438228   5.212223   0.981592   5.237578   4.212515
    14  H    6.175893   5.961605   1.557548   5.876272   4.898078
    15  H    3.738043   3.285470   2.017928   4.172053   2.349349
                   11         12         13         14         15
    11  H    0.000000
    12  H    2.511594   0.000000
    13  O    6.498999   6.142580   0.000000
    14  H    7.228445   6.882059   0.959682   0.000000
    15  H    4.820550   4.180012   1.972043   2.731330   0.000000
 Stoichiometry    C5H7NO2
 Framework group  C1[X(C5H7NO2)]
 Deg. of freedom    39
 Full point group                 C1      NOp   1
 Largest Abelian subgroup         C1      NOp   1
 Largest concise Abelian subgroup C1      NOp   1
                         Standard orientation:                         
 ---------------------------------------------------------------------
 Center     Atomic      Atomic             Coordinates (Angstroms)
 Number     Number       Type             X           Y           Z
 ---------------------------------------------------------------------
      1          8           0        1.261476    1.387852    0.005408
      2          7           0        0.249425   -0.658880    0.011581
      3          6           0        0.210209    0.735997    0.005920
      4          6           0       -1.119592    1.287625    0.000474
      5          6           0       -0.843575   -1.460822    0.006702
      6          6           0       -2.218160    0.481905   -0.003521
      7          6           0       -2.095586   -0.930593   -0.001061
      8          1           0        2.701404    0.273138   -0.041623
      9          1           0       -1.196826    2.364370   -0.002539
     10          1           0       -0.649991   -2.523426    0.008616
     11          1           0       -3.205344    0.926047   -0.009282
     12          1           0       -2.960874   -1.573618   -0.005843
     13          8           0        3.106669   -0.619787   -0.085978
     14          1           0        3.833439   -0.624251    0.540740
     15          1           0        1.187279   -1.059291    0.022340
 ---------------------------------------------------------------------
 Rotational constants (GHZ):      4.0248921      1.3974909      1.0390436
 Leave Link  202 at Fri Aug 27 01:10:26 2021, MaxMem= 17179869184 cpu:         3.9
 (Enter /public3/home/sc51754/softwares/g09e01/l301.exe)
 General basis read from cards:  (5D, 7F)
 Centers:       8      9     10     11     12     14     15
 S 4 1.00
     Exponent=  7.5423000000D+01 Coefficients=  2.4065000000D-03
     Exponent=  1.1350000000D+01 Coefficients=  1.8487000000D-02
     Exponent=  2.5993000000D+00 Coefficients=  8.9742000000D-02
     Exponent=  7.3513000000D-01 Coefficients=  2.8111000000D-01
 S 1 1.00
     Exponent=  2.3167000000D-01 Coefficients=  1.0000000000D+00
 S 1 1.00
     Exponent=  7.4147000000D-02 Coefficients=  1.0000000000D+00
 P 1 1.00
     Exponent=  1.6000000000D+00 Coefficients=  1.0000000000D+00
 P 1 1.00
     Exponent=  4.5000000000D-01 Coefficients=  1.0000000000D+00
 D 1 1.00
     Exponent=  1.2500000000D+00 Coefficients=  1.0000000000D+00
 ****
 Centers:       3      4      5      6      7
 S 7 1.00
     Exponent=  7.8571000000D+03 Coefficients=  5.6825000000D-04
     Exponent=  1.1787000000D+03 Coefficients=  4.3915000000D-03
     Exponent=  2.6832000000D+02 Coefficients=  2.2504000000D-02
     Exponent=  7.5948000000D+01 Coefficients=  8.6653000000D-02
     Exponent=  2.4559000000D+01 Coefficients=  2.4405000000D-01
     Exponent=  8.6212000000D+00 Coefficients=  4.4148000000D-01
     Exponent=  3.1278000000D+00 Coefficients=  3.5332000000D-01
 S 7 1.00
     Exponent=  1.1787000000D+03 Coefficients= -5.9492000000D-07
     Exponent=  2.6832000000D+02 Coefficients= -6.2748000000D-05
     Exponent=  7.5948000000D+01 Coefficients= -7.5773000000D-04
     Exponent=  2.4559000000D+01 Coefficients= -7.3308000000D-03
     Exponent=  8.6212000000D+00 Coefficients= -3.8932000000D-02
     Exponent=  3.1278000000D+00 Coefficients= -8.8908000000D-02
     Exponent=  8.2202000000D-01 Coefficients=  2.1689000000D-01
 S 1 1.00
     Exponent=  3.3017000000D-01 Coefficients=  1.0000000000D+00
 S 1 1.00
     Exponent=  1.1463000000D-01 Coefficients=  1.0000000000D+00
 P 4 1.00
     Exponent=  3.3775000000D+01 Coefficients=  6.0294000000D-03
     Exponent=  7.6766000000D+00 Coefficients=  4.3228000000D-02
     Exponent=  2.2357000000D+00 Coefficients=  1.6301000000D-01
     Exponent=  7.6447000000D-01 Coefficients=  3.6504000000D-01
 P 1 1.00
     Exponent=  2.6232000000D-01 Coefficients=  1.0000000000D+00
 P 1 1.00
     Exponent=  8.4638000000D-02 Coefficients=  1.0000000000D+00
 D 1 1.00
     Exponent=  1.4000000000D+00 Coefficients=  1.0000000000D+00
 D 1 1.00
     Exponent=  4.5000000000D-01 Coefficients=  1.0000000000D+00
 F 1 1.00
     Exponent=  9.5000000000D-01 Coefficients=  1.0000000000D+00
 ****
 Centers:       2
 S 7 1.00
     Exponent=  1.1101000000D+04 Coefficients=  5.4570000000D-04
     Exponent=  1.6653000000D+03 Coefficients=  4.2181000000D-03
     Exponent=  3.7908000000D+02 Coefficients=  2.1645000000D-02
     Exponent=  1.0730000000D+02 Coefficients=  8.3776000000D-02
     Exponent=  3.4747000000D+01 Coefficients=  2.3881000000D-01
     Exponent=  1.2249000000D+01 Coefficients=  4.3994000000D-01
     Exponent=  4.4743000000D+00 Coefficients=  3.6364000000D-01
 S 7 1.00
     Exponent=  1.6653000000D+03 Coefficients= -1.5006000000D-06
     Exponent=  3.7908000000D+02 Coefficients= -5.8753000000D-05
     Exponent=  1.0730000000D+02 Coefficients= -7.7453000000D-04
     Exponent=  3.4747000000D+01 Coefficients= -7.2161000000D-03
     Exponent=  1.2249000000D+01 Coefficients= -3.9338000000D-02
     Exponent=  4.4743000000D+00 Coefficients= -9.0611000000D-02
     Exponent=  1.2404000000D+00 Coefficients=  1.9882000000D-01
 S 1 1.00
     Exponent=  4.8743000000D-01 Coefficients=  1.0000000000D+00
 S 1 1.00
     Exponent=  1.6484000000D-01 Coefficients=  1.0000000000D+00
 P 4 1.00
     Exponent=  4.7934000000D+01 Coefficients=  6.1706000000D-03
     Exponent=  1.0999000000D+01 Coefficients=  4.4260000000D-02
     Exponent=  3.2472000000D+00 Coefficients=  1.6825000000D-01
     Exponent=  1.1114000000D+00 Coefficients=  3.6848000000D-01
 P 1 1.00
     Exponent=  3.7988000000D-01 Coefficients=  1.0000000000D+00
 P 1 1.00
     Exponent=  1.2068000000D-01 Coefficients=  1.0000000000D+00
 D 1 1.00
     Exponent=  1.8000000000D+00 Coefficients=  1.0000000000D+00
 D 1 1.00
     Exponent=  5.5000000000D-01 Coefficients=  1.0000000000D+00
 F 1 1.00
     Exponent=  1.0200000000D+00 Coefficients=  1.0000000000D+00
 ****
 Centers:       1     13
 S 7 1.00
     Exponent=  1.4782000000D+04 Coefficients=  5.3519000000D-04
     Exponent=  2.2173000000D+03 Coefficients=  4.1375000000D-03
     Exponent=  5.0474000000D+02 Coefficients=  2.1245000000D-02
     Exponent=  1.4287000000D+02 Coefficients=  8.2453000000D-02
     Exponent=  4.6300000000D+01 Coefficients=  2.3671000000D-01
     Exponent=  1.6337000000D+01 Coefficients=  4.4039000000D-01
     Exponent=  5.9828000000D+00 Coefficients=  3.6465000000D-01
 S 7 1.00
     Exponent=  2.2173000000D+03 Coefficients= -1.9275000000D-06
     Exponent=  5.0474000000D+02 Coefficients= -5.7964000000D-05
     Exponent=  1.4287000000D+02 Coefficients= -7.9494000000D-04
     Exponent=  4.6300000000D+01 Coefficients= -7.3125000000D-03
     Exponent=  1.6337000000D+01 Coefficients= -4.0574000000D-02
     Exponent=  5.9828000000D+00 Coefficients= -9.1594000000D-02
     Exponent=  1.6718000000D+00 Coefficients=  2.0940000000D-01
 S 1 1.00
     Exponent=  6.4662000000D-01 Coefficients=  1.0000000000D+00
 S 1 1.00
     Exponent=  2.1669000000D-01 Coefficients=  1.0000000000D+00
 P 4 1.00
     Exponent=  6.0424000000D+01 Coefficients=  6.8949000000D-03
     Exponent=  1.3935000000D+01 Coefficients=  4.9005000000D-02
     Exponent=  4.1531000000D+00 Coefficients=  1.8255000000D-01
     Exponent=  1.4158000000D+00 Coefficients=  3.7633000000D-01
 P 1 1.00
     Exponent=  4.7549000000D-01 Coefficients=  1.0000000000D+00
 P 1 1.00
     Exponent=  1.4529000000D-01 Coefficients=  1.0000000000D+00
 D 1 1.00
     Exponent=  2.2000000000D+00 Coefficients=  1.0000000000D+00
 D 1 1.00
     Exponent=  6.5000000000D-01 Coefficients=  1.0000000000D+00
 F 1 1.00
     Exponent=  1.1000000000D+00 Coefficients=  1.0000000000D+00
 ****
 Ernie: Thresh=  0.10000D-02 Tol=  0.10000D-05 Strict=F.
 Ernie:  8 primitive shells out of 263 were deleted.
 There are   385 symmetry adapted cartesian basis functions of A   symmetry.
 There are   338 symmetry adapted basis functions of A   symmetry.
   338 basis functions,   566 primitive gaussians,   385 cartesian basis functions
    30 alpha electrons       30 beta electrons
       nuclear repulsion energy       356.8539014902 Hartrees.
 IExCor= 4235 DFT=T Ex+Corr=M06 ExCW=0 ScaHFX=  0.270000
 ScaDFX=  1.000000  1.000000  1.000000  1.000000 ScalE2=  1.000000  1.000000
 IRadAn=      0 IRanWt=     -1 IRanGd=            0 ICorTp=0 IEmpDi=  4
 NAtoms=   15 NActive=   15 NUniq=   15 SFac= 1.00D+00 NAtFMM=   60 NAOKFM=F Big=F
 Integral buffers will be    131072 words long.
 Raffenetti 2 integral format.
 Two-electron integral symmetry is turned on.
 Leave Link  301 at Fri Aug 27 01:10:26 2021, MaxMem= 17179869184 cpu:         1.6
 (Enter /public3/home/sc51754/softwares/g09e01/l302.exe)
 NPDir=0 NMtPBC=     1 NCelOv=     1 NCel=       1 NClECP=     1 NCelD=      1
         NCelK=      1 NCelE2=     1 NClLst=     1 CellRange=     0.0.
 One-electron integrals computed using PRISM.
 NBasis=   338 RedAO= T EigKep=  1.57D-04  NBF=   338
 NBsUse=   338 1.00D-06 EigRej= -1.00D+00 NBFU=   338
 Precomputing XC quadrature grid using
 IXCGrd= 4 IRadAn=           0 IRanWt=          -1 IRanGd=           0 AccXCQ= 0.00D+00.
 Generated NRdTot=       0 NPtTot=           0 NUsed=           0 NTot=          32
 NSgBfM=   385   385   385   385   385 MxSgAt=    15 MxSgA2=    15.
 Leave Link  302 at Fri Aug 27 01:10:27 2021, MaxMem= 17179869184 cpu:        49.2
 (Enter /public3/home/sc51754/softwares/g09e01/l303.exe)
 DipDrv:  MaxL=1.
 Leave Link  303 at Fri Aug 27 01:10:27 2021, MaxMem= 17179869184 cpu:         6.3
 (Enter /public3/home/sc51754/softwares/g09e01/l401.exe)
 ExpMin= 7.41D-02 ExpMax= 1.48D+04 ExpMxC= 5.05D+02 IAcc=2 IRadAn=         4 AccDes= 0.00D+00
 Harris functional with IExCor= 1009 and IRadAn=       4 diagonalized for initial guess.
 HarFok:  IExCor= 1009 AccDes= 0.00D+00 IRadAn=         4 IDoV= 1 UseB2=F ITyADJ=14
 ICtDFT=  3500011 ScaDFX=  1.000000  1.000000  1.000000  1.000000
 FoFCou: FMM=F IPFlag=           0 FMFlag=      100000 FMFlg1=           0
         NFxFlg=           0 DoJE=T BraDBF=F KetDBF=T FulRan=T
         wScrn=  0.000000 ICntrl=     500 IOpCl=  0 I1Cent=   200000004 NGrid=           0
         NMat0=    1 NMatS0=      1 NMatT0=    0 NMatD0=    1 NMtDS0=    0 NMtDT0=    0
 Petite list used in FoFCou.
 Harris En= -399.816960565454    
 JPrj=0 DoOrth=F DoCkMO=F.
 Leave Link  401 at Fri Aug 27 01:10:28 2021, MaxMem= 17179869184 cpu:        49.6
 (Enter /public3/home/sc51754/softwares/g09e01/l502.exe)
 Closed shell SCF:
 Using DIIS extrapolation, IDIIS=  1040.
 Integral symmetry usage will be decided dynamically.
 Keep R1 ints in memory in canonical form, NReq=1670404686.
 IVT=      490665 IEndB=      490665 NGot= 17179869184 MDV= 15538220534
 LenX= 15538220534 LenY= 15538071868
 Requested convergence on RMS density matrix=1.00D-08 within 128 cycles.
 Requested convergence on MAX density matrix=1.00D-06.
 Requested convergence on             energy=1.00D-06.
 No special actions if energy rises.
 FoFCou: FMM=F IPFlag=           0 FMFlag=           0 FMFlg1=           0
         NFxFlg=           0 DoJE=F BraDBF=F KetDBF=F FulRan=T
         wScrn=  0.000000 ICntrl=     600 IOpCl=  0 I1Cent=           0 NGrid=           0
         NMat0=    1 NMatS0=  57291 NMatT0=    0 NMatD0=    1 NMtDS0=    0 NMtDT0=    0
 Symmetry not used in FoFCou.
 Integral accuracy reduced to 1.0D-05 until final iterations.

 Cycle   1  Pass 0  IDiag  1:
 E= -399.666843094860    
 DIIS: error= 2.60D-02 at cycle   1 NSaved=   1.
 NSaved= 1 IEnMin= 1 EnMin= -399.666843094860     IErMin= 1 ErrMin= 2.60D-02
 ErrMax= 2.60D-02  0.00D+00 EMaxC= 1.00D-01 BMatC= 2.70D-01 BMatP= 2.70D-01
 IDIUse=3 WtCom= 7.40D-01 WtEn= 2.60D-01
 Coeff-Com:  0.100D+01
 Coeff-En:   0.100D+01
 Coeff:      0.100D+01
 Gap=     0.172 Goal=   None    Shift=    0.000
 GapD=    0.172 DampG=1.000 DampE=0.500 DampFc=0.5000 IDamp=-1.
 Damping current iteration by 5.00D-01
 RMSDP=2.87D-03 MaxDP=1.09D-01              OVMax= 2.66D-01

 Cycle   2  Pass 0  IDiag  1:
 E= -399.735030874784     Delta-E=       -0.068187779924 Rises=F Damp=T
 DIIS: error= 6.35D-03 at cycle   2 NSaved=   2.
 NSaved= 2 IEnMin= 2 EnMin= -399.735030874784     IErMin= 2 ErrMin= 6.35D-03
 ErrMax= 6.35D-03  0.00D+00 EMaxC= 1.00D-01 BMatC= 2.84D-02 BMatP= 2.70D-01
 IDIUse=3 WtCom= 9.36D-01 WtEn= 6.35D-02
 Coeff-Com:  0.182D+00 0.818D+00
 Coeff-En:   0.306D+00 0.694D+00
 Coeff:      0.190D+00 0.810D+00
 Gap=     0.299 Goal=   None    Shift=    0.000
 RMSDP=9.76D-04 MaxDP=2.82D-02 DE=-6.82D-02 OVMax= 2.01D-01

 Cycle   3  Pass 0  IDiag  1:
 E= -399.865434223236     Delta-E=       -0.130403348452 Rises=F Damp=F
 DIIS: error= 8.01D-03 at cycle   3 NSaved=   3.
 NSaved= 3 IEnMin= 3 EnMin= -399.865434223236     IErMin= 2 ErrMin= 6.35D-03
 ErrMax= 8.01D-03  0.00D+00 EMaxC= 1.00D-01 BMatC= 2.04D-02 BMatP= 2.84D-02
 IDIUse=3 WtCom= 9.20D-01 WtEn= 8.01D-02
 Coeff-Com:  0.535D-01 0.463D+00 0.483D+00
 Coeff-En:   0.000D+00 0.000D+00 0.100D+01
 Coeff:      0.492D-01 0.426D+00 0.525D+00
 Gap=     0.193 Goal=   None    Shift=    0.000
 RMSDP=3.93D-04 MaxDP=2.18D-02 DE=-1.30D-01 OVMax= 6.72D-02

 Cycle   4  Pass 0  IDiag  1:
 E= -399.879826543922     Delta-E=       -0.014392320686 Rises=F Damp=F
 DIIS: error= 3.26D-03 at cycle   4 NSaved=   4.
 NSaved= 4 IEnMin= 4 EnMin= -399.879826543922     IErMin= 4 ErrMin= 3.26D-03
 ErrMax= 3.26D-03  0.00D+00 EMaxC= 1.00D-01 BMatC= 3.96D-03 BMatP= 2.04D-02
 IDIUse=3 WtCom= 9.67D-01 WtEn= 3.26D-02
 Coeff-Com:  0.277D-02 0.123D+00 0.327D+00 0.547D+00
 Coeff-En:   0.000D+00 0.000D+00 0.172D+00 0.828D+00
 Coeff:      0.268D-02 0.119D+00 0.322D+00 0.556D+00
 Gap=     0.196 Goal=   None    Shift=    0.000
 RMSDP=1.40D-04 MaxDP=7.28D-03 DE=-1.44D-02 OVMax= 2.00D-02

 Cycle   5  Pass 0  IDiag  1:
 E= -399.882830597421     Delta-E=       -0.003004053499 Rises=F Damp=F
 DIIS: error= 6.75D-04 at cycle   5 NSaved=   5.
 NSaved= 5 IEnMin= 5 EnMin= -399.882830597421     IErMin= 5 ErrMin= 6.75D-04
 ErrMax= 6.75D-04  0.00D+00 EMaxC= 1.00D-01 BMatC= 2.00D-04 BMatP= 3.96D-03
 IDIUse=3 WtCom= 9.93D-01 WtEn= 6.75D-03
 Coeff-Com: -0.423D-02 0.202D-01 0.124D+00 0.284D+00 0.576D+00
 Coeff-En:   0.000D+00 0.000D+00 0.000D+00 0.000D+00 0.100D+01
 Coeff:     -0.420D-02 0.200D-01 0.123D+00 0.282D+00 0.579D+00
 Gap=     0.195 Goal=   None    Shift=    0.000
 RMSDP=3.93D-05 MaxDP=1.75D-03 DE=-3.00D-03 OVMax= 5.35D-03

 Cycle   6  Pass 0  IDiag  1:
 E= -399.882972099741     Delta-E=       -0.000141502320 Rises=F Damp=F
 DIIS: error= 1.99D-04 at cycle   6 NSaved=   6.
 NSaved= 6 IEnMin= 6 EnMin= -399.882972099741     IErMin= 6 ErrMin= 1.99D-04
 ErrMax= 1.99D-04  0.00D+00 EMaxC= 1.00D-01 BMatC= 2.21D-05 BMatP= 2.00D-04
 IDIUse=3 WtCom= 9.98D-01 WtEn= 1.99D-03
 Coeff-Com: -0.213D-02-0.128D-02 0.271D-01 0.754D-01 0.293D+00 0.607D+00
 Coeff-En:   0.000D+00 0.000D+00 0.000D+00 0.000D+00 0.473D-01 0.953D+00
 Coeff:     -0.213D-02-0.127D-02 0.270D-01 0.753D-01 0.293D+00 0.608D+00
 Gap=     0.196 Goal=   None    Shift=    0.000
 RMSDP=1.19D-05 MaxDP=5.32D-04 DE=-1.42D-04 OVMax= 1.98D-03

 Cycle   7  Pass 0  IDiag  1:
 E= -399.882989206208     Delta-E=       -0.000017106466 Rises=F Damp=F
 DIIS: error= 7.52D-05 at cycle   7 NSaved=   7.
 NSaved= 7 IEnMin= 7 EnMin= -399.882989206208     IErMin= 7 ErrMin= 7.52D-05
 ErrMax= 7.52D-05  0.00D+00 EMaxC= 1.00D-01 BMatC= 2.37D-06 BMatP= 2.21D-05
 IDIUse=1 WtCom= 1.00D+00 WtEn= 0.00D+00
 Coeff-Com: -0.904D-03-0.233D-02 0.689D-02 0.214D-01 0.122D+00 0.330D+00
 Coeff-Com:  0.523D+00
 Coeff:     -0.904D-03-0.233D-02 0.689D-02 0.214D-01 0.122D+00 0.330D+00
 Coeff:      0.523D+00
 Gap=     0.196 Goal=   None    Shift=    0.000
 RMSDP=4.22D-06 MaxDP=2.00D-04 DE=-1.71D-05 OVMax= 7.86D-04

 Initial convergence to 1.0D-05 achieved.  Increase integral accuracy.
 Cycle   8  Pass 1  IDiag  1:
 E= -399.883482194152     Delta-E=       -0.000492987944 Rises=F Damp=F
 DIIS: error= 4.28D-04 at cycle   1 NSaved=   1.
 NSaved= 1 IEnMin= 1 EnMin= -399.883482194152     IErMin= 1 ErrMin= 4.28D-04
 ErrMax= 4.28D-04  0.00D+00 EMaxC= 1.00D-01 BMatC= 1.39D-04 BMatP= 1.39D-04
 IDIUse=3 WtCom= 9.96D-01 WtEn= 4.28D-03
 Coeff-Com:  0.100D+01
 Coeff-En:   0.100D+01
 Coeff:      0.100D+01
 Gap=     0.196 Goal=   None    Shift=    0.000
 RMSDP=4.22D-06 MaxDP=2.00D-04 DE=-4.93D-04 OVMax= 1.13D-03

 Cycle   9  Pass 1  IDiag  1:
 E= -399.883538377421     Delta-E=       -0.000056183269 Rises=F Damp=F
 DIIS: error= 9.38D-05 at cycle   2 NSaved=   2.
 NSaved= 2 IEnMin= 2 EnMin= -399.883538377421     IErMin= 2 ErrMin= 9.38D-05
 ErrMax= 9.38D-05  0.00D+00 EMaxC= 1.00D-01 BMatC= 4.14D-06 BMatP= 1.39D-04
 IDIUse=1 WtCom= 1.00D+00 WtEn= 0.00D+00
 Coeff-Com:  0.936D-01 0.906D+00
 Coeff:      0.936D-01 0.906D+00
 Gap=     0.196 Goal=   None    Shift=    0.000
 RMSDP=7.55D-06 MaxDP=3.27D-04 DE=-5.62D-05 OVMax= 9.38D-04

 Cycle  10  Pass 1  IDiag  1:
 E= -399.883538349781     Delta-E=        0.000000027640 Rises=F Damp=F
 DIIS: error= 9.12D-05 at cycle   3 NSaved=   3.
 NSaved= 3 IEnMin= 2 EnMin= -399.883538377421     IErMin= 3 ErrMin= 9.12D-05
 ErrMax= 9.12D-05  0.00D+00 EMaxC= 1.00D-01 BMatC= 2.65D-06 BMatP= 4.14D-06
 IDIUse=1 WtCom= 1.00D+00 WtEn= 0.00D+00
 Coeff-Com:  0.303D-01 0.458D+00 0.511D+00
 Coeff:      0.303D-01 0.458D+00 0.511D+00
 Gap=     0.196 Goal=   None    Shift=    0.000
 RMSDP=4.78D-06 MaxDP=2.61D-04 DE= 2.76D-08 OVMax= 8.85D-04

 Cycle  11  Pass 1  IDiag  1:
 E= -399.883540368173     Delta-E=       -0.000002018392 Rises=F Damp=F
 DIIS: error= 4.53D-05 at cycle   4 NSaved=   4.
 NSaved= 4 IEnMin= 4 EnMin= -399.883540368173     IErMin= 4 ErrMin= 4.53D-05
 ErrMax= 4.53D-05  0.00D+00 EMaxC= 1.00D-01 BMatC= 4.65D-07 BMatP= 2.65D-06
 IDIUse=1 WtCom= 1.00D+00 WtEn= 0.00D+00
 Coeff-Com: -0.213D-02 0.764D-01 0.306D+00 0.620D+00
 Coeff:     -0.213D-02 0.764D-01 0.306D+00 0.620D+00
 Gap=     0.196 Goal=   None    Shift=    0.000
 RMSDP=1.73D-06 MaxDP=7.13D-05 DE=-2.02D-06 OVMax= 3.22D-04

 Cycle  12  Pass 1  IDiag  1:
 E= -399.883540818147     Delta-E=       -0.000000449974 Rises=F Damp=F
 DIIS: error= 5.93D-06 at cycle   5 NSaved=   5.
 NSaved= 5 IEnMin= 5 EnMin= -399.883540818147     IErMin= 5 ErrMin= 5.93D-06
 ErrMax= 5.93D-06  0.00D+00 EMaxC= 1.00D-01 BMatC= 1.48D-08 BMatP= 4.65D-07
 IDIUse=1 WtCom= 1.00D+00 WtEn= 0.00D+00
 Coeff-Com: -0.189D-02 0.240D-01 0.132D+00 0.307D+00 0.539D+00
 Coeff:     -0.189D-02 0.240D-01 0.132D+00 0.307D+00 0.539D+00
 Gap=     0.196 Goal=   None    Shift=    0.000
 RMSDP=3.43D-07 MaxDP=1.38D-05 DE=-4.50D-07 OVMax= 4.61D-05

 Cycle  13  Pass 1  IDiag  1:
 E= -399.883540830525     Delta-E=       -0.000000012379 Rises=F Damp=F
 DIIS: error= 1.59D-06 at cycle   6 NSaved=   6.
 NSaved= 6 IEnMin= 6 EnMin= -399.883540830525     IErMin= 6 ErrMin= 1.59D-06
 ErrMax= 1.59D-06  0.00D+00 EMaxC= 1.00D-01 BMatC= 1.82D-09 BMatP= 1.48D-08
 IDIUse=1 WtCom= 1.00D+00 WtEn= 0.00D+00
 Coeff-Com: -0.588D-03-0.239D-02 0.917D-02 0.411D-01 0.270D+00 0.682D+00
 Coeff:     -0.588D-03-0.239D-02 0.917D-02 0.411D-01 0.270D+00 0.682D+00
 Gap=     0.196 Goal=   None    Shift=    0.000
 RMSDP=1.12D-07 MaxDP=5.39D-06 DE=-1.24D-08 OVMax= 1.76D-05

 Cycle  14  Pass 1  IDiag  1:
 E= -399.883540831602     Delta-E=       -0.000000001077 Rises=F Damp=F
 DIIS: error= 9.46D-07 at cycle   7 NSaved=   7.
 NSaved= 7 IEnMin= 7 EnMin= -399.883540831602     IErMin= 7 ErrMin= 9.46D-07
 ErrMax= 9.46D-07  0.00D+00 EMaxC= 1.00D-01 BMatC= 4.23D-10 BMatP= 1.82D-09
 IDIUse=1 WtCom= 1.00D+00 WtEn= 0.00D+00
 Coeff-Com: -0.203D-03-0.367D-02-0.617D-02-0.236D-02 0.124D+00 0.425D+00
 Coeff-Com:  0.463D+00
 Coeff:     -0.203D-03-0.367D-02-0.617D-02-0.236D-02 0.124D+00 0.425D+00
 Coeff:      0.463D+00
 Gap=     0.196 Goal=   None    Shift=    0.000
 RMSDP=4.81D-08 MaxDP=2.40D-06 DE=-1.08D-09 OVMax= 6.72D-06

 Cycle  15  Pass 1  IDiag  1:
 E= -399.883540831933     Delta-E=       -0.000000000331 Rises=F Damp=F
 DIIS: error= 3.38D-07 at cycle   8 NSaved=   8.
 NSaved= 8 IEnMin= 8 EnMin= -399.883540831933     IErMin= 8 ErrMin= 3.38D-07
 ErrMax= 3.38D-07  0.00D+00 EMaxC= 1.00D-01 BMatC= 2.75D-11 BMatP= 4.23D-10
 IDIUse=1 WtCom= 1.00D+00 WtEn= 0.00D+00
 Coeff-Com:  0.236D-04-0.126D-02-0.493D-02-0.101D-01 0.882D-02 0.696D-01
 Coeff-Com:  0.221D+00 0.717D+00
 Coeff:      0.236D-04-0.126D-02-0.493D-02-0.101D-01 0.882D-02 0.696D-01
 Coeff:      0.221D+00 0.717D+00
 Gap=     0.196 Goal=   None    Shift=    0.000
 RMSDP=1.44D-08 MaxDP=7.17D-07 DE=-3.31D-10 OVMax= 2.14D-06

 Cycle  16  Pass 1  IDiag  1:
 E= -399.883540831964     Delta-E=       -0.000000000031 Rises=F Damp=F
 DIIS: error= 9.49D-08 at cycle   9 NSaved=   9.
 NSaved= 9 IEnMin= 9 EnMin= -399.883540831964     IErMin= 9 ErrMin= 9.49D-08
 ErrMax= 9.49D-08  0.00D+00 EMaxC= 1.00D-01 BMatC= 3.32D-12 BMatP= 2.75D-11
 IDIUse=1 WtCom= 1.00D+00 WtEn= 0.00D+00
 Coeff-Com:  0.300D-04-0.260D-03-0.180D-02-0.456D-02-0.671D-02-0.462D-02
 Coeff-Com:  0.645D-01 0.351D+00 0.603D+00
 Coeff:      0.300D-04-0.260D-03-0.180D-02-0.456D-02-0.671D-02-0.462D-02
 Coeff:      0.645D-01 0.351D+00 0.603D+00
 Gap=     0.196 Goal=   None    Shift=    0.000
 RMSDP=4.54D-09 MaxDP=2.56D-07 DE=-3.12D-11 OVMax= 4.09D-07

 SCF Done:  E(RM06) =  -399.883540832     A.U. after   16 cycles
            NFock= 16  Conv=0.45D-08     -V/T= 2.0031
 KE= 3.986359608681D+02 PE=-1.649994147036D+03 EE= 4.946207438457D+02
 Leave Link  502 at Fri Aug 27 01:10:53 2021, MaxMem= 17179869184 cpu:       439.7
 (Enter /public3/home/sc51754/softwares/g09e01/l601.exe)
 Copying SCF densities to generalized density rwf, IOpCl= 0 IROHF=0.

 **********************************************************************

            Population analysis using the SCF density.

 **********************************************************************

 Orbital symmetries:
       Occupied  (A) (A) (A) (A) (A) (A) (A) (A) (A) (A) (A) (A)
                 (A) (A) (A) (A) (A) (A) (A) (A) (A) (A) (A) (A)
                 (A) (A) (A) (A) (A) (A)
       Virtual   (A) (A) (A) (A) (A) (A) (A) (A) (A) (A) (A) (A)
                 (A) (A) (A) (A) (A) (A) (A) (A) (A) (A) (A) (A)
                 (A) (A) (A) (A) (A) (A) (A) (A) (A) (A) (A) (A)
                 (A) (A) (A) (A) (A) (A) (A) (A) (A) (A) (A) (A)
                 (A) (A) (A) (A) (A) (A) (A) (A) (A) (A) (A) (A)
                 (A) (A) (A) (A) (A) (A) (A) (A) (A) (A) (A) (A)
                 (A) (A) (A) (A) (A) (A) (A) (A) (A) (A) (A) (A)
                 (A) (A) (A) (A) (A) (A) (A) (A) (A) (A) (A) (A)
                 (A) (A) (A) (A) (A) (A) (A) (A) (A) (A) (A) (A)
                 (A) (A) (A) (A) (A) (A) (A) (A) (A) (A) (A) (A)
                 (A) (A) (A) (A) (A) (A) (A) (A) (A) (A) (A) (A)
                 (A) (A) (A) (A) (A) (A) (A) (A) (A) (A) (A) (A)
                 (A) (A) (A) (A) (A) (A) (A) (A) (A) (A) (A) (A)
                 (A) (A) (A) (A) (A) (A) (A) (A) (A) (A) (A) (A)
                 (A) (A) (A) (A) (A) (A) (A) (A) (A) (A) (A) (A)
                 (A) (A) (A) (A) (A) (A) (A) (A) (A) (A) (A) (A)
                 (A) (A) (A) (A) (A) (A) (A) (A) (A) (A) (A) (A)
                 (A) (A) (A) (A) (A) (A) (A) (A) (A) (A) (A) (A)
                 (A) (A) (A) (A) (A) (A) (A) (A) (A) (A) (A) (A)
                 (A) (A) (A) (A) (A) (A) (A) (A) (A) (A) (A) (A)
                 (A) (A) (A) (A) (A) (A) (A) (A) (A) (A) (A) (A)
                 (A) (A) (A) (A) (A) (A) (A) (A) (A) (A) (A) (A)
                 (A) (A) (A) (A) (A) (A) (A) (A) (A) (A) (A) (A)
                 (A) (A) (A) (A) (A) (A) (A) (A) (A) (A) (A) (A)
                 (A) (A) (A) (A) (A) (A) (A) (A) (A) (A) (A) (A)
                 (A) (A) (A) (A) (A) (A) (A) (A)
 The electronic state is 1-A.
 Alpha  occ. eigenvalues --  -19.18989 -19.16943 -14.44131 -10.34724 -10.30560
 Alpha  occ. eigenvalues --  -10.27073 -10.25135 -10.24862  -1.06216  -1.02065
 Alpha  occ. eigenvalues --   -0.97905  -0.83872  -0.77650  -0.67221  -0.65351
 Alpha  occ. eigenvalues --   -0.57786  -0.54046  -0.52277  -0.49882  -0.47975
 Alpha  occ. eigenvalues --   -0.46432  -0.45139  -0.40851  -0.40144  -0.38695
 Alpha  occ. eigenvalues --   -0.36933  -0.32994  -0.32415  -0.28338  -0.24452
 Alpha virt. eigenvalues --   -0.04884   0.00085   0.00184   0.01082   0.02140
 Alpha virt. eigenvalues --    0.03253   0.04924   0.09147   0.11530   0.12060
 Alpha virt. eigenvalues --    0.13883   0.15809   0.15975   0.17244   0.18364
 Alpha virt. eigenvalues --    0.19447   0.20754   0.20860   0.21285   0.23854
 Alpha virt. eigenvalues --    0.25094   0.25883   0.26521   0.26971   0.27689
 Alpha virt. eigenvalues --    0.28288   0.28913   0.29912   0.31989   0.33558
 Alpha virt. eigenvalues --    0.34478   0.35373   0.36207   0.37631   0.38832
 Alpha virt. eigenvalues --    0.40367   0.41492   0.43424   0.45103   0.46911
 Alpha virt. eigenvalues --    0.47239   0.50139   0.50229   0.52730   0.54153
 Alpha virt. eigenvalues --    0.54655   0.57351   0.60031   0.60995   0.62842
 Alpha virt. eigenvalues --    0.63211   0.64726   0.68496   0.72127   0.74530
 Alpha virt. eigenvalues --    0.74949   0.78365   0.79429   0.80159   0.83254
 Alpha virt. eigenvalues --    0.85501   0.87452   0.90161   0.90662   0.91171
 Alpha virt. eigenvalues --    0.92836   0.95338   0.97257   0.99150   1.01864
 Alpha virt. eigenvalues --    1.04826   1.04852   1.06172   1.08939   1.10126
 Alpha virt. eigenvalues --    1.10297   1.11960   1.14312   1.14572   1.17131
 Alpha virt. eigenvalues --    1.17607   1.20263   1.22660   1.23906   1.24381
 Alpha virt. eigenvalues --    1.24841   1.26773   1.30522   1.32377   1.36154
 Alpha virt. eigenvalues --    1.37978   1.38874   1.39399   1.42687   1.44327
 Alpha virt. eigenvalues --    1.44489   1.45232   1.45865   1.48173   1.50979
 Alpha virt. eigenvalues --    1.54861   1.56202   1.58605   1.62098   1.63814
 Alpha virt. eigenvalues --    1.64650   1.65007   1.65031   1.70010   1.71876
 Alpha virt. eigenvalues --    1.75633   1.77832   1.78950   1.82971   1.84813
 Alpha virt. eigenvalues --    1.87145   1.88487   1.89381   1.91026   1.94066
 Alpha virt. eigenvalues --    1.99989   2.00353   2.02799   2.04865   2.06477
 Alpha virt. eigenvalues --    2.07852   2.09417   2.12223   2.14099   2.15228
 Alpha virt. eigenvalues --    2.20782   2.21353   2.22139   2.23090   2.26732
 Alpha virt. eigenvalues --    2.28794   2.43546   2.52619   2.52956   2.56784
 Alpha virt. eigenvalues --    2.62185   2.86014   2.86978   2.88314   2.88689
 Alpha virt. eigenvalues --    2.93158   3.00347   3.09669   3.14767   3.16676
 Alpha virt. eigenvalues --    3.18046   3.18727   3.20182   3.23793   3.24252
 Alpha virt. eigenvalues --    3.28292   3.31281   3.35309   3.36176   3.40971
 Alpha virt. eigenvalues --    3.42721   3.43722   3.47411   3.50797   3.52598
 Alpha virt. eigenvalues --    3.53597   3.54573   3.56335   3.59776   3.60542
 Alpha virt. eigenvalues --    3.61096   3.62527   3.67415   3.68859   3.71766
 Alpha virt. eigenvalues --    3.73080   3.78434   3.82266   3.85059   3.87011
 Alpha virt. eigenvalues --    3.88387   3.89386   3.90861   3.93554   3.96230
 Alpha virt. eigenvalues --    4.01037   4.01470   4.02126   4.03066   4.04425
 Alpha virt. eigenvalues --    4.04736   4.06908   4.10232   4.10677   4.11224
 Alpha virt. eigenvalues --    4.12833   4.14911   4.15450   4.17548   4.18005
 Alpha virt. eigenvalues --    4.20210   4.20895   4.23147   4.23753   4.25431
 Alpha virt. eigenvalues --    4.25850   4.27264   4.28427   4.28953   4.29276
 Alpha virt. eigenvalues --    4.31220   4.33366   4.35828   4.36063   4.39185
 Alpha virt. eigenvalues --    4.40611   4.41250   4.42677   4.42829   4.43274
 Alpha virt. eigenvalues --    4.46106   4.47259   4.47649   4.50384   4.52347
 Alpha virt. eigenvalues --    4.55197   4.55897   4.58442   4.59437   4.63162
 Alpha virt. eigenvalues --    4.63475   4.66957   4.67429   4.75160   4.78328
 Alpha virt. eigenvalues --    4.79176   4.82141   4.83749   4.85582   4.86468
 Alpha virt. eigenvalues --    4.89377   4.89778   4.90341   4.94519   4.95513
 Alpha virt. eigenvalues --    4.97079   5.03417   5.04026   5.10806   5.11398
 Alpha virt. eigenvalues --    5.14758   5.17444   5.18922   5.20211   5.23800
 Alpha virt. eigenvalues --    5.26560   5.27186   5.32239   5.32876   5.35846
 Alpha virt. eigenvalues --    5.40854   5.42632   5.45689   5.46201   5.46405
 Alpha virt. eigenvalues --    5.52308   5.56554   5.60381   5.62162   5.64329
 Alpha virt. eigenvalues --    5.68813   5.76743   5.78761   5.82978   5.86057
 Alpha virt. eigenvalues --    5.91177   5.92805   5.99357   5.99920   6.03726
 Alpha virt. eigenvalues --    6.07064   6.16170   6.18393   6.21477   6.25609
 Alpha virt. eigenvalues --    6.26866   6.33821   6.39043   6.41867   6.45230
 Alpha virt. eigenvalues --    6.52097   6.58287   6.61843   6.78518   6.90186
 Alpha virt. eigenvalues --    6.94250   7.00118   7.11528   7.12923   7.40264
 Alpha virt. eigenvalues --    9.45760  12.27759  13.13570  14.71174  15.41094
 Alpha virt. eigenvalues --   17.94540  18.30569  22.71509
          Condensed to atoms (all electrons):
               1          2          3          4          5          6
     1  O    8.260804  -0.090275   0.447753  -0.058739   0.011284   0.007590
     2  N   -0.090275   6.358585   0.371834  -0.036879   0.352660  -0.029134
     3  C    0.447753   0.371834   4.450897   0.404643  -0.039460  -0.021654
     4  C   -0.058739  -0.036879   0.404643   5.003797  -0.042129   0.467135
     5  C    0.011284   0.352660  -0.039460  -0.042129   4.720028  -0.048798
     6  C    0.007590  -0.029134  -0.021654   0.467135  -0.048798   4.856646
     7  C    0.001821  -0.041932  -0.038559  -0.040345   0.535320   0.375269
     8  H    0.027183   0.003297  -0.003416   0.000476   0.000896  -0.000102
     9  H    0.003906   0.005686  -0.057725   0.477648  -0.001736  -0.059212
    10  H   -0.000568  -0.038466   0.001512  -0.003577   0.446289   0.007504
    11  H   -0.000680  -0.002985   0.011114  -0.055966   0.011517   0.462460
    12  H    0.000035   0.008614  -0.001615   0.008871  -0.050132  -0.064157
    13  O   -0.035263  -0.030366  -0.002415  -0.000007  -0.000712   0.000106
    14  H    0.003612   0.000370   0.000540   0.000107   0.000103  -0.000012
    15  H    0.000041   0.399310  -0.036229   0.004078  -0.010572  -0.000355
               7          8          9         10         11         12
     1  O    0.001821   0.027183   0.003906  -0.000568  -0.000680   0.000035
     2  N   -0.041932   0.003297   0.005686  -0.038466  -0.002985   0.008614
     3  C   -0.038559  -0.003416  -0.057725   0.001512   0.011114  -0.001615
     4  C   -0.040345   0.000476   0.477648  -0.003577  -0.055966   0.008871
     5  C    0.535320   0.000896  -0.001736   0.446289   0.011517  -0.050132
     6  C    0.375269  -0.000102  -0.059212   0.007504   0.462460  -0.064157
     7  C    4.953568  -0.000015   0.010499  -0.056139  -0.068011   0.475869
     8  H   -0.000015   0.431926   0.000125   0.000134  -0.000000  -0.000006
     9  H    0.010499   0.000125   0.581336   0.000245  -0.018262   0.000380
    10  H   -0.056139   0.000134   0.000245   0.582119  -0.000387  -0.010722
    11  H   -0.068011  -0.000000  -0.018262  -0.000387   0.623880  -0.015748
    12  H    0.475869  -0.000006   0.000380  -0.010722  -0.015748   0.611463
    13  O   -0.000180   0.331077   0.000026  -0.000385  -0.000003   0.000015
    14  H    0.000017  -0.017483  -0.000005  -0.000056   0.000001  -0.000001
    15  H    0.003892  -0.008706  -0.000603  -0.006636   0.000233  -0.000153
              13         14         15
     1  O   -0.035263   0.003612   0.000041
     2  N   -0.030366   0.000370   0.399310
     3  C   -0.002415   0.000540  -0.036229
     4  C   -0.000007   0.000107   0.004078
     5  C   -0.000712   0.000103  -0.010572
     6  C    0.000106  -0.000012  -0.000355
     7  C   -0.000180   0.000017   0.003892
     8  H    0.331077  -0.017483  -0.008706
     9  H    0.000026  -0.000005  -0.000603
    10  H   -0.000385  -0.000056  -0.006636
    11  H   -0.000003   0.000001   0.000233
    12  H    0.000015  -0.000001  -0.000153
    13  O    7.810427   0.351733   0.045273
    14  H    0.351733   0.439764  -0.002145
    15  H    0.045273  -0.002145   0.454184
 Mulliken charges:
               1
     1  O   -0.578505
     2  N   -0.230322
     3  C    0.512781
     4  C   -0.129115
     5  C    0.115442
     6  C    0.046716
     7  C   -0.111074
     8  H    0.234612
     9  H    0.057692
    10  H    0.079132
    11  H    0.052836
    12  H    0.037285
    13  O   -0.469325
    14  H    0.223456
    15  H    0.158387
 Sum of Mulliken charges =  -0.00000
 Mulliken charges with hydrogens summed into heavy atoms:
               1
     1  O   -0.578505
     2  N   -0.071935
     3  C    0.512781
     4  C   -0.071423
     5  C    0.194575
     6  C    0.099552
     7  C   -0.073789
    13  O   -0.011256
 Electronic spatial extent (au):  <R**2>=           1079.2820
 Charge=             -0.0000 electrons
 Dipole moment (field-independent basis, Debye):
    X=             -2.4395    Y=             -2.1534    Z=              1.1200  Tot=              3.4413
 Quadrupole moment (field-independent basis, Debye-Ang):
   XX=            -41.1063   YY=            -45.4921   ZZ=            -49.2451
   XY=             -2.1192   XZ=              4.7712   YZ=             -0.8843
 Traceless Quadrupole moment (field-independent basis, Debye-Ang):
   XX=              4.1749   YY=             -0.2110   ZZ=             -3.9639
   XY=             -2.1192   XZ=              4.7712   YZ=             -0.8843
 Octapole moment (field-independent basis, Debye-Ang**2):
  XXX=             24.6228  YYY=            -11.8952  ZZZ=              0.7320  XYY=             -6.0475
  XXY=              0.4496  XXZ=             18.7942  XZZ=             11.3154  YZZ=              0.6162
  YYZ=              0.6029  XYZ=             -3.3159
 Hexadecapole moment (field-independent basis, Debye-Ang**3):
 XXXX=           -756.9948 YYYY=           -347.6434 ZZZZ=            -52.3886 XXXY=             -5.3901
 XXXZ=             76.1770 YYYX=            -13.2206 YYYZ=             -0.8629 ZZZX=              3.5824
 ZZZY=             -0.5655 XXYY=           -217.7705 XXZZ=           -172.8522 YYZZ=            -76.2514
 XXYZ=            -12.7582 YYXZ=              2.7955 ZZXY=             -2.2519
 N-N= 3.568539014902D+02 E-N=-1.649994173045D+03  KE= 3.986359608681D+02
 No NMR shielding tensors so no spin-rotation constants.
 Leave Link  601 at Fri Aug 27 01:10:55 2021, MaxMem= 17179869184 cpu:        56.0
 (Enter /public3/home/sc51754/softwares/g09e01/l701.exe)
 Compute integral first derivatives.
 ... and contract with generalized density number  0.
 Leave Link  701 at Fri Aug 27 01:10:56 2021, MaxMem= 17179869184 cpu:        69.4
 (Enter /public3/home/sc51754/softwares/g09e01/l702.exe)
 L702 exits ... SP integral derivatives will be done elsewhere.
 Leave Link  702 at Fri Aug 27 01:10:56 2021, MaxMem= 17179869184 cpu:         0.2
 (Enter /public3/home/sc51754/softwares/g09e01/l703.exe)
 Compute integral first derivatives, UseDBF=F ICtDFT=           0.
 Integral derivatives from FoFJK, PRISM(SPDF).
 Calling FoFJK, ICntrl=      2127 FMM=F ISym2X=0 I1Cent= 0 IOpClX= 0 NMat=1 NMatS=1 NMatT=0.
 FoFJK:  IHMeth= 1 ICntrl=    2127 DoSepK=F KAlg= 0 I1Cent=   0 FoldK=F
 IRaf=         0 NMat=   1 IRICut=       1 DoRegI=T DoRafI=F ISym2E= 0.
 FoFCou: FMM=F IPFlag=           0 FMFlag=      100000 FMFlg1=         800
         NFxFlg=           0 DoJE=F BraDBF=F KetDBF=F FulRan=T
         wScrn=  0.000000 ICntrl=    2127 IOpCl=  0 I1Cent=           0 NGrid=           0
         NMat0=    1 NMatS0=      1 NMatT0=    0 NMatD0=    1 NMtDS0=    0 NMtDT0=    0
 Symmetry not used in FoFCou.
 Leave Link  703 at Fri Aug 27 01:10:59 2021, MaxMem= 17179869184 cpu:       189.4
 (Enter /public3/home/sc51754/softwares/g09e01/l716.exe)
 Dipole        =-9.59787432D-01-8.47207210D-01 4.40643062D-01
 ***** Axes restored to original set *****
 -------------------------------------------------------------------
 Center     Atomic                   Forces (Hartrees/Bohr)
 Number     Number              X              Y              Z
 -------------------------------------------------------------------
      1        8          -0.013130108   -0.007426142    0.000114395
      2        7          -0.003791538    0.001245465    0.000007237
      3        6           0.009830571    0.005077692   -0.000017144
      4        6          -0.002090677   -0.006151757   -0.000042220
      5        6          -0.003062571    0.006396267   -0.000000606
      6        6           0.006838510   -0.000101926    0.000042866
      7        6           0.005815137    0.000761573    0.000002820
      8        1           0.002963378   -0.004092550   -0.000031691
      9        1           0.000179784    0.000244965   -0.000005681
     10        1          -0.000228351   -0.000511341   -0.000006234
     11        1          -0.000112578    0.000158965   -0.000007376
     12        1          -0.000059234   -0.000129774    0.000004777
     13        8           0.000712909    0.003397817    0.003506421
     14        1          -0.004271549    0.000565521   -0.003469157
     15        1           0.000406318    0.000565224   -0.000098407
 -------------------------------------------------------------------
 Cartesian Forces:  Max     0.013130108 RMS     0.003714931
 Leave Link  716 at Fri Aug 27 01:10:59 2021, MaxMem= 17179869184 cpu:         0.4
 (Enter /public3/home/sc51754/softwares/g09e01/l103.exe)

 GradGradGradGradGradGradGradGradGradGradGradGradGradGradGradGradGradGrad
 Berny optimization.
 FormGI is forming the generalized inverse of G from B-inverse, IUseBI=4.
 Internal  Forces:  Max     0.014173184 RMS     0.002472112
 Search for a local minimum.
 Step number   1 out of a maximum of   83
 All quantities printed in internal units (Hartrees-Bohrs-Radians)
 RMS Force = .24721D-02 SwitMx=.10000D-02 MixMth= 1
 Mixed Optimization -- RFO/linear search
 Second derivative matrix not updated -- first step.
 ITU=  0
     Eigenvalues ---    0.00646   0.00900   0.01671   0.02019   0.02045
     Eigenvalues ---    0.02138   0.02190   0.02305   0.02392   0.02435
     Eigenvalues ---    0.02516   0.04986   0.06334   0.06909   0.09520
     Eigenvalues ---    0.16000   0.16000   0.16000   0.16000   0.19047
     Eigenvalues ---    0.20437   0.21968   0.22000   0.22256   0.23654
     Eigenvalues ---    0.35693   0.35983   0.36053   0.36229   0.38136
     Eigenvalues ---    0.40185   0.42590   0.44184   0.49041   0.49982
     Eigenvalues ---    0.52121   0.53321   0.55542   0.84771
 RFO step:  Lambda=-7.43535960D-04 EMin= 6.46442552D-03
 Linear search not attempted -- first point.
 Iteration  1 RMS(Cart)=  0.00744743 RMS(Int)=  0.00001016
 Iteration  2 RMS(Cart)=  0.00000931 RMS(Int)=  0.00000203
 Iteration  3 RMS(Cart)=  0.00000000 RMS(Int)=  0.00000203
 ITry= 1 IFail=0 DXMaxC= 2.86D-02 DCOld= 1.00D+10 DXMaxT= 3.00D-01 DXLimC= 3.00D+00 Rises=F
 Variable       Old X    -DE/DX   Delta X   Delta X   Delta X     New X
                                 (Linear)    (Quad)   (Total)
    R1        2.33752  -0.01417   0.00000  -0.01689  -0.01689   2.32063
    R2        3.44231   0.00053   0.00000   0.00138   0.00138   3.44368
    R3        2.63700  -0.00409   0.00000  -0.00910  -0.00910   2.62790
    R4        2.56181  -0.00424   0.00000  -0.00779  -0.00779   2.55402
    R5        1.92716  -0.00107   0.00000  -0.00105  -0.00105   1.92611
    R6        2.72061  -0.00439   0.00000  -0.01102  -0.01102   2.70959
    R7        2.57451  -0.00705   0.00000  -0.01349  -0.01349   2.56102
    R8        2.03999   0.00023   0.00000   0.00063   0.00063   2.04062
    R9        2.56943  -0.00738   0.00000  -0.01394  -0.01394   2.55549
   R10        2.04108   0.00047   0.00000   0.00129   0.00129   2.04238
   R11        2.67927  -0.00395   0.00000  -0.00936  -0.00936   2.66991
   R12        2.04565   0.00017   0.00000   0.00047   0.00047   2.04611
   R13        2.03725   0.00013   0.00000   0.00035   0.00035   2.03760
   R14        1.85494  -0.00482   0.00000  -0.00963  -0.00963   1.84531
   R15        1.81354  -0.00551   0.00000  -0.00990  -0.00990   1.80364
   R16        3.72662  -0.00153   0.00000  -0.01648  -0.01648   3.71015
    A1        1.92766   0.00174   0.00000  -0.00116  -0.00116   1.92650
    A2        2.17565   0.00020   0.00000   0.00025   0.00025   2.17590
    A3        2.00244  -0.00057   0.00000  -0.00143  -0.00143   2.00101
    A4        2.10509   0.00038   0.00000   0.00119   0.00118   2.10628
    A5        2.09773   0.00185   0.00000   0.00349   0.00349   2.10122
    A6        2.19333  -0.00079   0.00000  -0.00127  -0.00127   2.19206
    A7        1.99213  -0.00106   0.00000  -0.00223  -0.00223   1.98990
    A8        2.11557   0.00029   0.00000   0.00093   0.00093   2.11650
    A9        2.03563  -0.00033   0.00000  -0.00164  -0.00164   2.03398
   A10        2.13199   0.00005   0.00000   0.00072   0.00072   2.13270
   A11        2.10801   0.00028   0.00000   0.00108   0.00108   2.10909
   A12        2.02357   0.00017   0.00000   0.00141   0.00141   2.02498
   A13        2.15160  -0.00045   0.00000  -0.00249  -0.00249   2.14911
   A14        2.11704   0.00061   0.00000   0.00205   0.00205   2.11909
   A15        2.08601  -0.00039   0.00000  -0.00157  -0.00157   2.08445
   A16        2.08014  -0.00022   0.00000  -0.00048  -0.00049   2.07965
   A17        2.05796  -0.00032   0.00000  -0.00208  -0.00208   2.05588
   A18        2.10191   0.00007   0.00000   0.00052   0.00052   2.10243
   A19        2.12331   0.00024   0.00000   0.00156   0.00156   2.12487
   A20        2.65557  -0.00089   0.00000  -0.00256  -0.00256   2.65301
   A21        1.86229  -0.00008   0.00000  -0.00629  -0.00629   1.85600
   A22        1.36782  -0.00080   0.00000   0.00136   0.00136   1.36917
   A23        2.34644   0.00006   0.00000   0.00059   0.00058   2.34703
   A24        2.50984  -0.00136   0.00000   0.00034   0.00035   2.51019
    D1        0.03186   0.00017   0.00000   0.00122   0.00122   0.03308
    D2       -3.10924   0.00014   0.00000   0.00125   0.00125  -3.10799
    D3        0.03871  -0.00002   0.00000  -0.00516  -0.00517   0.03355
    D4       -3.13629  -0.00003   0.00000   0.00008   0.00008  -3.13622
    D5        0.00485  -0.00001   0.00000   0.00006   0.00005   0.00491
    D6        0.00787   0.00002   0.00000  -0.00000  -0.00000   0.00786
    D7       -3.13417   0.00005   0.00000  -0.00002  -0.00002  -3.13420
    D8       -0.00292   0.00002   0.00000   0.00008   0.00009  -0.00283
    D9        3.13789   0.00001   0.00000  -0.00021  -0.00021   3.13768
   D10        3.13597  -0.00004   0.00000   0.00017   0.00017   3.13613
   D11       -0.00641  -0.00005   0.00000  -0.00013  -0.00013  -0.00654
   D12       -0.10803  -0.00017   0.00000  -0.00114  -0.00114  -0.10917
   D13        3.03601  -0.00012   0.00000  -0.00121  -0.00121   3.03480
   D14        3.13723   0.00002   0.00000  -0.00003  -0.00003   3.13720
   D15       -0.00200   0.00002   0.00000  -0.00012  -0.00012  -0.00212
   D16       -0.00389  -0.00001   0.00000  -0.00001  -0.00001  -0.00390
   D17        3.14007  -0.00001   0.00000  -0.00009  -0.00009   3.13997
   D18        0.00117   0.00001   0.00000  -0.00017  -0.00017   0.00099
   D19       -3.13978   0.00000   0.00000  -0.00002  -0.00002  -3.13981
   D20        3.14027   0.00001   0.00000  -0.00009  -0.00009   3.14018
   D21       -0.00068   0.00000   0.00000   0.00006   0.00006  -0.00062
   D22       -0.00027  -0.00002   0.00000  -0.00027  -0.00027  -0.00054
   D23        3.14059  -0.00000   0.00000  -0.00000  -0.00000   3.14059
   D24       -3.14103  -0.00001   0.00000   0.00005   0.00005  -3.14098
   D25       -0.00016   0.00000   0.00000   0.00032   0.00032   0.00015
   D26        0.00106   0.00001   0.00000   0.00032   0.00032   0.00137
   D27       -3.13980  -0.00001   0.00000   0.00005   0.00005  -3.13975
   D28       -3.14118   0.00001   0.00000   0.00017   0.00017  -3.14101
   D29        0.00115  -0.00000   0.00000  -0.00010  -0.00010   0.00105
   D30       -2.40197   0.00001   0.00000   0.00304   0.00303  -2.39894
   D31       -0.07714  -0.00010   0.00000   0.00395   0.00395  -0.07319
   D32        0.12809   0.00019   0.00000  -0.00027  -0.00027   0.12781
   D33        1.90956  -0.00069   0.00000  -0.00778  -0.00779   1.90177
         Item               Value     Threshold  Converged?
 Maximum Force            0.014173     0.000450     NO 
 RMS     Force            0.002472     0.000300     NO 
 Maximum Displacement     0.028612     0.001800     NO 
 RMS     Displacement     0.007447     0.001200     NO 
 Predicted change in Energy=-3.724045D-04
 Lowest energy point so far.  Saving SCF results.
 GradGradGradGradGradGradGradGradGradGradGradGradGradGradGradGradGradGrad

 Leave Link  103 at Fri Aug 27 01:11:01 2021, MaxMem= 17179869184 cpu:        65.1
 (Enter /public3/home/sc51754/softwares/g09e01/l202.exe)
                          Input orientation:                          
 ---------------------------------------------------------------------
 Center     Atomic      Atomic             Coordinates (Angstroms)
 Number     Number       Type             X           Y           Z
 ---------------------------------------------------------------------
      1          8           0        1.252190    1.383086    0.006274
      2          7           0        0.247743   -0.656718    0.012117
      3          6           0        0.210111    0.733384    0.006539
      4          6           0       -1.114954    1.281207    0.000831
      5          6           0       -0.842569   -1.455355    0.006889
      6          6           0       -2.207558    0.479425   -0.003450
      7          6           0       -2.087936   -0.928355   -0.001275
      8          1           0        2.694112    0.269840   -0.042638
      9          1           0       -1.191720    2.358320   -0.002055
     10          1           0       -0.651205   -2.519056    0.008592
     11          1           0       -3.194383    0.924960   -0.009398
     12          1           0       -2.953522   -1.571288   -0.006346
     13          8           0        3.096107   -0.619035   -0.085610
     14          1           0        3.818298   -0.617602    0.538410
     15          1           0        1.185238   -1.056546    0.023056
 ---------------------------------------------------------------------
                    Distance matrix (angstroms):
                    1          2          3          4          5
     1  O    0.000000
     2  N    2.273708   0.000000
     3  C    1.228024   1.390623   0.000000
     4  C    2.369342   2.369097   1.433854   0.000000
     5  C    3.527713   1.351528   2.428727   2.750091   0.000000
     6  C    3.575829   2.705469   2.430991   1.355232   2.367842
     7  C    4.061928   2.351459   2.835923   2.414304   1.352307
     8  H    1.822319   2.616530   2.527362   3.941287   3.935336
     9  H    2.631321   3.341064   2.146070   1.079849   3.829635
    10  H    4.341616   2.067952   3.364556   3.828462   1.080779
    11  H    4.470139   3.788192   3.409917   2.109749   3.346221
    12  H    5.139698   3.329396   3.914109   3.393686   2.114175
    13  O    2.723409   2.850289   3.188495   4.620760   4.027549
    14  H    3.297094   3.609346   3.889353   5.313327   4.765294
    15  H    2.440608   1.019254   2.038381   3.279705   2.066715
                    6          7          8          9         10
     6  C    0.000000
     7  C    1.412855   0.000000
     8  H    4.906305   4.930047   0.000000
     9  H    2.135925   3.406675   4.411699   0.000000
    10  H    3.378353   2.143507   4.355653   4.907246   0.000000
    11  H    1.082756   2.158488   5.924919   2.462770   4.281276
    12  H    2.182177   1.078252   5.940273   4.306481   2.489809
    13  O    5.416846   5.193947   0.976496   5.220831   4.202535
    14  H    6.148822   5.938975   1.545627   5.852221   4.885969
    15  H    3.724375   3.275773   2.010054   4.160753   2.347694
                   11         12         13         14         15
    11  H    0.000000
    12  H    2.507843   0.000000
    13  O    6.477653   6.124628   0.000000
    14  H    7.201201   6.860308   0.954444   0.000000
    15  H    4.807130   4.170750   1.963325   2.718689   0.000000
 Stoichiometry    C5H7NO2
 Framework group  C1[X(C5H7NO2)]
 Deg. of freedom    39
 Full point group                 C1      NOp   1
 RotChk:  IX=0 Diff= 3.40D-04
 Largest Abelian subgroup         C1      NOp   1
 Largest concise Abelian subgroup C1      NOp   1
                         Standard orientation:                         
 ---------------------------------------------------------------------
 Center     Atomic      Atomic             Coordinates (Angstroms)
 Number     Number       Type             X           Y           Z
 ---------------------------------------------------------------------
      1          8           0        1.252766    1.383589    0.005628
      2          7           0        0.248209   -0.656159    0.011979
      3          6           0        0.210651    0.733944    0.006079
      4          6           0       -1.114384    1.281836    0.000289
      5          6           0       -0.842147   -1.454739    0.006972
      6          6           0       -2.207031    0.480113   -0.003769
      7          6           0       -2.087485   -0.927674   -0.001272
      8          1           0        2.694626    0.270254   -0.043075
      9          1           0       -1.191092    2.358953   -0.002845
     10          1           0       -0.650840   -2.518450    0.008916
     11          1           0       -3.193833    0.925699   -0.009787
     12          1           0       -2.953106   -1.570561   -0.006164
     13          8           0        3.096571   -0.618653   -0.085854
     14          1           0        3.818784   -0.617114    0.538141
     15          1           0        1.185682   -1.056036    0.022978
 ---------------------------------------------------------------------
 Rotational constants (GHZ):      4.0524976      1.4084536      1.0469323
 Leave Link  202 at Fri Aug 27 01:11:01 2021, MaxMem= 17179869184 cpu:         4.5
 (Enter /public3/home/sc51754/softwares/g09e01/l301.exe)
 Basis read from rwf:  (5D, 7F)
 No pseudopotential information found on rwf file.
 There are   385 symmetry adapted cartesian basis functions of A   symmetry.
 There are   338 symmetry adapted basis functions of A   symmetry.
   338 basis functions,   566 primitive gaussians,   385 cartesian basis functions
    30 alpha electrons       30 beta electrons
       nuclear repulsion energy       358.2423052062 Hartrees.
 IExCor= 4235 DFT=T Ex+Corr=M06 ExCW=0 ScaHFX=  0.270000
 ScaDFX=  1.000000  1.000000  1.000000  1.000000 ScalE2=  1.000000  1.000000
 IRadAn=      0 IRanWt=     -1 IRanGd=            0 ICorTp=0 IEmpDi=  4
 NAtoms=   15 NActive=   15 NUniq=   15 SFac= 1.00D+00 NAtFMM=   60 NAOKFM=F Big=F
 Integral buffers will be    131072 words long.
 Raffenetti 2 integral format.
 Two-electron integral symmetry is turned on.
 No density basis found on file   724.
 Leave Link  301 at Fri Aug 27 01:11:01 2021, MaxMem= 17179869184 cpu:         2.7
 (Enter /public3/home/sc51754/softwares/g09e01/l302.exe)
 NPDir=0 NMtPBC=     1 NCelOv=     1 NCel=       1 NClECP=     1 NCelD=      1
         NCelK=      1 NCelE2=     1 NClLst=     1 CellRange=     0.0.
 One-electron integrals computed using PRISM.
 NBasis=   338 RedAO= T EigKep=  1.53D-04  NBF=   338
 NBsUse=   338 1.00D-06 EigRej= -1.00D+00 NBFU=   338
 Precomputing XC quadrature grid using
 IXCGrd= 4 IRadAn=           0 IRanWt=          -1 IRanGd=           0 AccXCQ= 0.00D+00.
 Generated NRdTot=       0 NPtTot=           0 NUsed=           0 NTot=          32
 NSgBfM=   385   385   385   385   385 MxSgAt=    15 MxSgA2=    15.
 Leave Link  302 at Fri Aug 27 01:11:02 2021, MaxMem= 17179869184 cpu:        46.5
 (Enter /public3/home/sc51754/softwares/g09e01/l303.exe)
 DipDrv:  MaxL=1.
 Leave Link  303 at Fri Aug 27 01:11:02 2021, MaxMem= 17179869184 cpu:        11.8
 (Enter /public3/home/sc51754/softwares/g09e01/l401.exe)
 Initial guess from the checkpoint file:  "PY_H2O_M06_PC2_OPT_FREQ.chk"
 B after Tr=     0.000000   -0.000000   -0.000000
         Rot=    1.000000    0.000050    0.000008   -0.000005 Ang=   0.01 deg.
 Guess basis will be translated and rotated to current coordinates.
 JPrj=2 DoOrth=T DoCkMO=T.
 Generating alternative initial guess.
 ExpMin= 7.41D-02 ExpMax= 1.48D+04 ExpMxC= 5.05D+02 IAcc=2 IRadAn=         4 AccDes= 0.00D+00
 Harris functional with IExCor= 1009 and IRadAn=       4 diagonalized for initial guess.
 HarFok:  IExCor= 1009 AccDes= 0.00D+00 IRadAn=         4 IDoV= 1 UseB2=F ITyADJ=14
 ICtDFT=  3500011 ScaDFX=  1.000000  1.000000  1.000000  1.000000
 FoFCou: FMM=F IPFlag=           0 FMFlag=      100000 FMFlg1=           0
         NFxFlg=           0 DoJE=T BraDBF=F KetDBF=T FulRan=T
         wScrn=  0.000000 ICntrl=     500 IOpCl=  0 I1Cent=   200000004 NGrid=           0
         NMat0=    1 NMatS0=      1 NMatT0=    0 NMatD0=    1 NMtDS0=    0 NMtDT0=    0
 Petite list used in FoFCou.
 Harris En= -399.820128372016    
 Leave Link  401 at Fri Aug 27 01:11:04 2021, MaxMem= 17179869184 cpu:        70.5
 (Enter /public3/home/sc51754/softwares/g09e01/l502.exe)
 Closed shell SCF:
 Using DIIS extrapolation, IDIIS=  1040.
 Integral symmetry usage will be decided dynamically.
 Keep R1 ints in memory in canonical form, NReq=1670404686.
 IVT=      490665 IEndB=      490665 NGot= 17179869184 MDV= 15538220534
 LenX= 15538220534 LenY= 15538071868
 Requested convergence on RMS density matrix=1.00D-08 within 128 cycles.
 Requested convergence on MAX density matrix=1.00D-06.
 Requested convergence on             energy=1.00D-06.
 No special actions if energy rises.
 FoFCou: FMM=F IPFlag=           0 FMFlag=           0 FMFlg1=           0
         NFxFlg=           0 DoJE=F BraDBF=F KetDBF=F FulRan=T
         wScrn=  0.000000 ICntrl=     600 IOpCl=  0 I1Cent=           0 NGrid=           0
         NMat0=    1 NMatS0=  57291 NMatT0=    0 NMatD0=    1 NMtDS0=    0 NMtDT0=    0
 Symmetry not used in FoFCou.
 Integral accuracy reduced to 1.0D-05 until final iterations.

 Cycle   1  Pass 0  IDiag  1:
 E= -399.883158628479    
 DIIS: error= 5.05D-04 at cycle   1 NSaved=   1.
 NSaved= 1 IEnMin= 1 EnMin= -399.883158628479     IErMin= 1 ErrMin= 5.05D-04
 ErrMax= 5.05D-04  0.00D+00 EMaxC= 1.00D-01 BMatC= 2.80D-04 BMatP= 2.80D-04
 IDIUse=3 WtCom= 9.95D-01 WtEn= 5.05D-03
 Coeff-Com:  0.100D+01
 Coeff-En:   0.100D+01
 Coeff:      0.100D+01
 Gap=     0.588 Goal=   None    Shift=    0.000
 RMSDP=5.46D-05 MaxDP=1.44D-03              OVMax= 2.12D-03

 Cycle   2  Pass 0  IDiag  1:
 E= -399.883314031448     Delta-E=       -0.000155402970 Rises=F Damp=F
 DIIS: error= 2.24D-04 at cycle   2 NSaved=   2.
 NSaved= 2 IEnMin= 2 EnMin= -399.883314031448     IErMin= 2 ErrMin= 2.24D-04
 ErrMax= 2.24D-04  0.00D+00 EMaxC= 1.00D-01 BMatC= 2.31D-05 BMatP= 2.80D-04
 IDIUse=3 WtCom= 9.98D-01 WtEn= 2.24D-03
 Coeff-Com:  0.149D+00 0.851D+00
 Coeff-En:   0.000D+00 0.100D+01
 Coeff:      0.148D+00 0.852D+00
 Gap=     0.198 Goal=   None    Shift=    0.000
 RMSDP=1.92D-05 MaxDP=9.77D-04 DE=-1.55D-04 OVMax= 1.33D-03

 Cycle   3  Pass 0  IDiag  1:
 E= -399.883321189941     Delta-E=       -0.000007158493 Rises=F Damp=F
 DIIS: error= 1.73D-04 at cycle   3 NSaved=   3.
 NSaved= 3 IEnMin= 3 EnMin= -399.883321189941     IErMin= 3 ErrMin= 1.73D-04
 ErrMax= 1.73D-04  0.00D+00 EMaxC= 1.00D-01 BMatC= 1.23D-05 BMatP= 2.31D-05
 IDIUse=3 WtCom= 9.98D-01 WtEn= 1.73D-03
 Coeff-Com:  0.192D-01 0.421D+00 0.559D+00
 Coeff-En:   0.000D+00 0.363D+00 0.637D+00
 Coeff:      0.192D-01 0.421D+00 0.559D+00
 Gap=     0.198 Goal=   None    Shift=    0.000
 RMSDP=8.44D-06 MaxDP=4.00D-04 DE=-7.16D-06 OVMax= 6.99D-04

 Initial convergence to 1.0D-05 achieved.  Increase integral accuracy.
 Cycle   4  Pass 1  IDiag  1:
 E= -399.883857502482     Delta-E=       -0.000536312541 Rises=F Damp=F
 DIIS: error= 4.15D-04 at cycle   1 NSaved=   1.
 NSaved= 1 IEnMin= 1 EnMin= -399.883857502482     IErMin= 1 ErrMin= 4.15D-04
 ErrMax= 4.15D-04  0.00D+00 EMaxC= 1.00D-01 BMatC= 1.36D-04 BMatP= 1.36D-04
 IDIUse=3 WtCom= 9.96D-01 WtEn= 4.15D-03
 Coeff-Com:  0.100D+01
[...]
    A5        2.10260   0.00000   0.00000   0.00002   0.00002   2.10262
    A6        2.19332  -0.00000   0.00000  -0.00002  -0.00002   2.19330
    A7        1.98727  -0.00000   0.00000  -0.00001  -0.00001   1.98726
    A8        2.11813   0.00000   0.00000   0.00001   0.00001   2.11814
    A9        2.03213   0.00000   0.00000   0.00000   0.00000   2.03214
   A10        2.13292  -0.00000   0.00000  -0.00001  -0.00001   2.13290
   A11        2.11067   0.00000   0.00000   0.00000   0.00000   2.11067
   A12        2.02488   0.00000   0.00000   0.00000   0.00000   2.02488
   A13        2.14764  -0.00000   0.00000  -0.00000  -0.00000   2.14763
   A14        2.11871  -0.00000   0.00000  -0.00001  -0.00001   2.11870
   A15        2.08477  -0.00000   0.00000  -0.00001  -0.00001   2.08476
   A16        2.07971   0.00000   0.00000   0.00002   0.00002   2.07973
   A17        2.05521  -0.00000   0.00000  -0.00000  -0.00000   2.05521
   A18        2.10332  -0.00000   0.00000  -0.00002  -0.00002   2.10330
   A19        2.12466   0.00000   0.00000   0.00002   0.00002   2.12468
   A20        2.60989   0.00001   0.00000   0.00006   0.00006   2.60995
   A21        1.86049   0.00000   0.00000   0.00001   0.00001   1.86051
   A22        1.39975  -0.00000   0.00000  -0.00012  -0.00012   1.39963
   A23        2.38580  -0.00000   0.00000   0.00056   0.00056   2.38636
   A24        2.52384   0.00000   0.00000  -0.00008  -0.00008   2.52376
    D1        0.03703   0.00000   0.00000   0.00129   0.00129   0.03833
    D2       -3.10404   0.00000   0.00000   0.00128   0.00128  -3.10276
    D3        0.01467   0.00000   0.00000   0.00034   0.00034   0.01501
    D4       -3.13584  -0.00000   0.00000   0.00008   0.00008  -3.13575
    D5        0.00529   0.00000   0.00000   0.00010   0.00010   0.00539
    D6        0.00745  -0.00000   0.00000  -0.00035  -0.00035   0.00710
    D7       -3.13461  -0.00000   0.00000  -0.00034  -0.00034  -3.13495
    D8       -0.00320  -0.00000   0.00000  -0.00009  -0.00009  -0.00330
    D9        3.13736  -0.00000   0.00000  -0.00009  -0.00009   3.13727
   D10        3.13660   0.00000   0.00000   0.00037   0.00037   3.13696
   D11       -0.00603   0.00000   0.00000   0.00037   0.00037  -0.00566
   D12       -0.11433  -0.00000   0.00000  -0.00237  -0.00237  -0.11670
   D13        3.02889  -0.00000   0.00000  -0.00279  -0.00279   3.02610
   D14        3.13699   0.00000   0.00000  -0.00004  -0.00004   3.13695
   D15       -0.00237   0.00000   0.00000  -0.00002  -0.00002  -0.00238
   D16       -0.00411  -0.00000   0.00000  -0.00006  -0.00006  -0.00417
   D17        3.13972  -0.00000   0.00000  -0.00003  -0.00003   3.13969
   D18        0.00102   0.00000   0.00000   0.00002   0.00002   0.00104
   D19       -3.13978   0.00000   0.00000   0.00004   0.00004  -3.13974
   D20        3.14025   0.00000   0.00000  -0.00001  -0.00001   3.14024
   D21       -0.00055   0.00000   0.00000   0.00001   0.00001  -0.00054
   D22       -0.00040   0.00000   0.00000   0.00004   0.00004  -0.00036
   D23        3.14076   0.00000   0.00000   0.00004   0.00004   3.14080
   D24       -3.14089   0.00000   0.00000   0.00003   0.00003  -3.14085
   D25        0.00028   0.00000   0.00000   0.00003   0.00003   0.00031
   D26        0.00139  -0.00000   0.00000  -0.00001  -0.00001   0.00138
   D27       -3.13977  -0.00000   0.00000  -0.00000  -0.00000  -3.13977
   D28       -3.14099  -0.00000   0.00000  -0.00003  -0.00003  -3.14102
   D29        0.00104   0.00000   0.00000  -0.00003  -0.00003   0.00101
   D30       -2.43163  -0.00000   0.00000  -0.00211  -0.00211  -2.43374
   D31       -0.05829  -0.00000   0.00000  -0.00155  -0.00155  -0.05984
   D32        0.12917   0.00000   0.00000   0.00304   0.00304   0.13221
   D33        1.94171  -0.00000   0.00000   0.00297   0.00297   1.94468
         Item               Value     Threshold  Converged?
 Maximum Force            0.000009     0.000450     YES
 RMS     Force            0.000002     0.000300     YES
 Maximum Displacement     0.004268     0.001800     NO 
 RMS     Displacement     0.000892     0.001200     YES
 Predicted change in Energy=-2.387229D-08
 GradGradGradGradGradGradGradGradGradGradGradGradGradGradGradGradGradGrad

 Leave Link  103 at Fri Aug 27 01:18:14 2021, MaxMem= 17179869184 cpu:        57.3
 (Enter /public3/home/sc51754/softwares/g09e01/l9999.exe)
 1\1\GINC-T1413\Freq\RM06\Gen\C5H7N1O2\SC51754\27-Aug-2021\0\\#P Geom=A
 llCheck Guess=TCheck SCRF=Check GenChk RM06/ChkBas Freq\\PY_H2O_M06_PC
 2_OPT_FREQ\\0,1\O,1.2465845656,1.394559144,0.0114848429\N,0.2497352838
 ,-0.6497627248,0.0170689191\C,0.2085532224,0.741728833,0.0097543357\C,
 -1.1217697348,1.28369437,-0.0001220465\C,-0.8380975839,-1.4516406315,0
 .009459878\C,-2.2113561682,0.4781752894,-0.0065947958\C,-2.0861366895,
 -0.9302460604,-0.0026744956\H,2.7121477521,0.2720675496,-0.0397220797\
 H,-1.2021172419,2.3608053133,-0.0042305252\H,-0.6433827711,-2.51500576
 38,0.0126695504\H,-3.2001211439,0.9200047232,-0.0156953637\H,-2.949331
 7612,-1.5763877782,-0.009461068\O,3.0783684776,-0.6309414896,-0.076113
 104\H,3.8271457153,-0.6455254332,0.5155175514\H,1.1897310776,-1.045259
 341,0.030592401\\Version=EM64L-G09RevE.01\State=1-A\HF=-399.8839646\RM
 SD=3.013e-09\RMSF=6.294e-06\ZeroPoint=0.1188954\Thermal=0.127042\Dipol
 e=-0.8426464,-0.8434277,0.4138142\DipoleDeriv=-1.7490996,-0.594206,-0.
 0081268,-0.4871483,-0.8298418,-0.0038049,-0.0058977,-0.0056894,-0.4088
 835,-0.8244769,0.2483335,-0.0048156,-0.6487166,-0.5362488,-0.0021015,-
 0.0099373,0.0047805,-0.192868,1.8205382,0.8225694,0.0084021,0.8101158,
 0.9229142,0.0018656,0.002551,-0.0017237,0.2795595,-0.683846,-0.4695242
 ,-0.0028649,0.0826476,-0.0252141,-0.0004759,-0.0009679,-0.0041331,-0.1
 833501,0.7363427,-0.3529822,0.0075189,0.2894736,0.0955031,0.0036479,0.
 003476,-0.0011961,0.004461,0.2703783,0.0873718,0.0028669,0.1334542,0.6
 174945,-0.0007794,0.0012609,-0.0013923,-0.058743,-0.2766877,0.3680984,
 -0.001608,0.024334,-0.4731016,0.001789,0.0015736,0.0046238,-0.2029345,
 0.734067,-0.1325851,-0.0239772,-0.3849006,0.334632,-0.0393254,-0.03507
 86,-0.0313504,0.2462042,0.0565555,-0.0080343,-0.0007649,0.0085132,-0.0
 291542,0.0005149,-0.0001382,0.000803,0.1413995,0.0589668,0.0221453,-0.
 0007585,-0.0038739,-0.0303295,0.0007502,-0.0011479,0.0000446,0.1312574
 ,-0.0532975,0.0619769,-0.0014738,0.061951,0.0557335,0.0006086,-0.00176
 28,0.0005664,0.1146821,0.0083852,-0.0512315,-0.0012675,-0.0527053,0.01
 3701,-0.000206,-0.0015518,-0.00044,0.1558332,-1.0432237,0.1225855,0.08
 55594,0.2928945,-0.5766637,0.081822,0.0968844,0.0554548,-0.5306413,0.2
 761185,-0.0086474,-0.0635616,-0.0561185,0.2833557,-0.0447119,-0.057713
 9,-0.0243003,0.2669361,0.6692793,-0.1158701,0.0048714,-0.0699207,0.177
 2197,0.0004068,0.0084502,0.003952,0.2370875\Polar=98.7768315,5.9584134
 ,83.6386072,1.116309,-0.2676482,43.6146192\PG=C01 [X(C5H7N1O2)]\NImag=
 0\\0.56669400,0.28819800,0.30040801,0.00105023,-0.00011107,0.03769840,
 0.01405763,-0.06686037,0.00038078,0.84824422,-0.04436912,-0.07218553,0
 .00019413,-0.00951105,0.64565101,0.00069014,0.00007963,0.01825539,0.00
 789262,-0.00286055,0.08426790,-0.48954278,-0.23092737,-0.00087926,-0.1
 6716609,0.01144223,-0.00143093,0.88233555,-0.22441476,-0.23514674,-0.0
 0033465,0.05720811,-0.19578823,0.00077754,0.13926256,0.60678527,-0.001
 09141,-0.00050243,-0.07442902,-0.00118217,0.00073876,-0.06311115,0.003
 33599,-0.00102256,0.20349792,-0.07819388,-0.00628861,-0.00043908,0.026
 91769,0.04869007,0.00011565,-0.20906139,0.04844420,-0.00102325,0.68207
 079,-0.03079502,0.02089145,-0.00007297,0.03817936,-0.02341620,0.000483
 80,0.07690814,-0.14848524,0.00060533,0.07899822,0.76701909,-0.00039730
 ,0.00022147,0.02132250,0.00001760,0.00060460,0.00751841,-0.00104128,0.
 00027591,-0.07897893,0.00377709,-0.00132216,0.11540639,-0.01395111,0.0
 1384431,-0.00025010,-0.26870181,-0.06467972,-0.00170963,0.04975109,-0.
 07688821,0.00069494,-0.05240721,-0.00520025,-0.00043562,0.75099428,-0.
 00277161,-0.00074774,0.00003291,-0.11703793,-0.20933026,-0.00034055,-0
 .01731923,-0.04128604,-0.00005713,-0.00564720,-0.00105644,-0.00007053,
 -0.07608712,0.75563486,-0.00017244,0.00016689,0.00570328,-0.00169107,-
 0.00015210,-0.04695816,0.00052680,-0.00045267,-0.00307199,-0.00041800,
 -0.00001740,-0.00022857,0.00551669,-0.00190827,0.13976572,0.00291076,0
 .00521275,-0.00002305,-0.00885046,-0.00793581,-0.00000620,-0.04285177,
 -0.01034651,-0.00029671,-0.33094669,-0.16927520,-0.00172927,0.01398078
 ,0.03530951,-0.00001347,0.76692766,0.02309882,-0.00277081,0.00014646,-
 0.03687615,-0.04012719,-0.00026489,-0.03479166,0.05658926,-0.00041557,
 -0.12234270,-0.23673044,-0.00037865,0.07809017,-0.02004057,0.00070621,
 0.02159795,0.66270599,-0.00007960,0.00004672,0.00414310,0.00008903,0.0
 0004095,-0.00555136,-0.00021733,-0.00018274,0.00009375,-0.00197723,-0.
 00089979,-0.05482165,-0.00013955,0.00036539,0.00774962,0.00499839,-0.0
 0099961,0.14090189,0.00712903,-0.00637395,0.00007273,-0.07764027,-0.03
 337357,-0.00079935,-0.02252177,0.03783323,-0.00022730,0.03691643,-0.02
 512929,0.00031566,-0.37330993,0.13645595,-0.00294877,-0.12023877,-0.01
 295244,-0.00049582,0.79101800,-0.01494590,-0.00051335,-0.00009567,0.00
 409229,0.04364255,-0.00004241,0.02770276,-0.02812381,0.00026870,-0.051
 48256,-0.03640242,-0.00033701,0.08768027,-0.17198232,0.00095907,0.0408
 0059,-0.28909984,0.00078020,0.02498129,0.65641411,0.00012472,-0.000023
 28,-0.00018689,-0.00080924,-0.00036233,0.01240299,-0.00023087,0.000336
 41,-0.00760574,0.00042574,-0.00013277,0.00731067,-0.00287076,0.0014135
 8,-0.06303756,-0.00065087,0.00028500,-0.06043828,0.00596747,-0.0007162
 1,0.11375689,0.01203646,-0.00031080,-0.00083975,-0.00137445,0.00580390
 ,-0.00033720,-0.01779599,-0.01045574,0.00010671,0.00450531,0.00134490,
 0.00016269,0.00004816,-0.00041669,-0.00003821,-0.00041580,-0.00224208,
 0.00001218,0.00001019,0.00168735,0.00002243,0.10214860,-0.01263425,-0.
 01181718,0.00092086,0.00221154,-0.00398336,0.00036287,0.01066143,0.015
 70041,-0.00003295,-0.00531879,-0.00204768,-0.00016492,-0.00203264,-0.0
 0192147,-0.00002135,0.00055500,0.00330540,-0.00001871,0.00139936,-0.00
 219704,0.00000396,-0.14194472,0.40955561,0.00024204,0.00011949,-0.0079
 1933,-0.00062831,-0.00013803,-0.00093097,-0.00015763,-0.00023340,0.000
 89682,0.00005540,0.00001846,0.00098244,0.00014514,0.00021711,-0.000170
 33,-0.00005352,-0.00011239,0.00010358,-0.00015461,0.00006572,0.0000891
 4,0.01601400,0.01623327,0.03345270,0.00202655,-0.00271035,0.00002649,-
 0.00567070,0.00380538,-0.00009836,0.00371576,0.02912050,-0.00010137,-0
 .05817615,0.02423872,-0.00021769,-0.00227741,-0.00097366,-0.00001110,0
 .00604613,-0.02649116,0.00011497,-0.00330854,-0.00245307,-0.00009268,-
 0.00012837,0.00020315,-0.00001185,0.05582387,0.00004251,0.00157421,-0.
 00001475,0.00250007,-0.00052787,0.00003973,-0.00403921,-0.00978246,0.0
 0003441,0.02617032,-0.34311268,0.00115679,0.00077601,0.00097062,0.0000
 0449,0.00334280,-0.01236450,0.00007228,-0.00336082,0.00120149,0.000003
 93,0.00000897,-0.00007236,0.00001075,-0.02532412,0.36230455,0.00004895
 ,-0.00004447,-0.00236917,-0.00008732,0.00001773,0.00469889,-0.00004134
 ,0.00027990,0.00270790,-0.00019325,0.00121264,-0.03345325,0.00001084,-
 0.00000496,-0.00075259,-0.00000451,-0.00019373,0.00275386,-0.00010244,
 0.00000302,0.00935527,-0.00001299,0.00000785,-0.00001039,0.00030375,-0
 .00125957,0.02402623,-0.00098111,-0.00223409,0.00001675,0.00471925,-0.
 03446673,0.00009690,-0.00343153,0.00180424,-0.00009745,-0.00008153,-0.
 00064056,0.00000308,-0.06912580,0.05877021,-0.00038503,-0.00555291,0.0
 0129419,-0.00012583,0.00278159,0.02732347,-0.00008393,0.00030957,-0.00
 026219,0.00001146,0.00015285,0.00000790,0.00001081,0.06930978,-0.00074
 256,-0.00196973,0.00001740,0.00051440,-0.02059311,0.00004271,-0.002499
 26,0.00537337,-0.00006744,0.00033213,0.00053958,0.00000328,0.05305565,
 -0.33120009,0.00094321,0.00241151,0.00042286,0.00002995,-0.00084957,-0
 .00549189,0.00000732,0.00029948,-0.00018534,-0.00000939,0.00005160,-0.
 00008191,-0.00000194,-0.05265769,0.35259669,-0.00001709,-0.00002215,-0
 .00014983,0.00008517,-0.00015461,0.00270335,-0.00004992,0.00000168,0.0
 0549965,-0.00001065,-0.00000037,-0.00017518,-0.00044966,0.00084220,-0.
 03866589,-0.00014103,0.00004697,0.00801675,0.00000773,0.00027585,0.006
 96412,-0.00001613,0.00000129,-0.00001918,0.00000787,-0.00000280,-0.001
 20693,0.00049218,-0.00096955,0.02501539,-0.00215123,0.00023662,0.00001
 717,0.00015610,-0.00046328,0.00000889,-0.00008444,-0.00380296,-0.00010
 700,-0.01939265,0.01205143,-0.00025259,0.00157844,0.00049478,-0.000032
 29,-0.28969350,0.10428184,-0.00223622,0.00102762,-0.00066812,-0.000037
 32,0.00023830,-0.00019860,-0.00001034,0.00111023,-0.00008160,0.0000596
 9,-0.00001470,-0.00008800,0.00000528,0.30698093,-0.00087649,0.00053694
 ,-0.00000609,-0.00114199,0.00027547,-0.00001352,-0.00272120,-0.0026040
 3,0.00001744,-0.01796748,0.01170177,-0.00016019,-0.00003912,-0.0063612
 0,0.00002380,0.10506116,-0.10498068,0.00096989,0.02854468,-0.00690275,
 0.00025717,0.00004372,-0.00007417,-0.00000172,0.00045002,0.00073394,-0
 .00001563,0.00146588,-0.00041260,0.00001748,-0.11222403,0.10671356,-0.
 00001516,-0.00002930,-0.00231608,0.00001492,-0.00001611,-0.00095059,-0
 .00008755,0.00002722,0.01227123,-0.00012597,0.00013050,0.00708156,-0.0
 0002790,0.00001332,0.00484987,-0.00228915,0.00094239,-0.04218858,-0.00
 009370,0.00002822,0.00464764,-0.00001733,0.00001656,-0.00013264,0.0000
 5307,-0.00002515,-0.00589393,0.00000145,-0.00000101,-0.00047239,0.0025
 4147,-0.00107202,0.02609784,0.00023017,-0.00026330,0.00000900,-0.00369
 609,0.00397733,-0.00012097,-0.00023825,0.00111051,-0.00001051,0.000820
 98,0.00148163,-0.00003353,-0.01746131,-0.02019225,-0.00013155,0.007488
 55,0.00450090,0.00005989,-0.24338751,-0.13846209,-0.00172056,0.0000558
 0,0.00009902,-0.00001976,0.00023119,0.00028550,-0.00000521,0.00081636,
 0.00003699,0.00005427,0.00035211,-0.00058604,0.00002659,0.25519811,-0.
 00042485,0.00047152,-0.00000478,0.00372768,0.00005026,0.00005280,0.001
 29676,-0.00141105,0.00001250,0.00224835,-0.00477006,0.00003641,0.01119
 359,0.01078585,0.00007990,-0.02548934,-0.01207861,-0.00021279,-0.14077
 009,-0.16020534,-0.00106555,0.00004430,-0.00011922,0.00000870,-0.00115
 769,-0.00053078,-0.00000464,-0.00053979,0.00048189,-0.00001682,0.00029
 241,0.00124277,-0.00000333,0.14913293,0.16549203,0.00000751,-0.0000188
 7,-0.00054250,-0.00012801,0.00003593,0.00788237,-0.00000337,0.00002191
 ,-0.00041172,-0.00003255,0.00003410,0.00411782,-0.00016070,-0.00020913
 ,-0.00083927,0.00012342,0.00008341,-0.00020577,-0.00174259,-0.00106650
 ,-0.02827734,0.00000454,-0.00000181,0.00002735,-0.00000256,0.00000598,
 0.00054839,0.00005067,-0.00000475,-0.00482929,0.00002451,-0.00001190,-
 0.00230273,0.00187611,0.00112193,0.02331101,-0.01108493,0.01076982,0.0
 0008886,-0.01297013,-0.00433966,-0.00061566,0.00350216,0.00096884,0.00
 020728,-0.00103697,-0.00002078,0.00004384,0.00195061,0.00471315,-0.000
 04768,-0.00013288,-0.00025345,-0.00002241,-0.00207556,-0.00035286,0.00
 003050,-0.08932967,0.16242184,-0.00426633,-0.00013501,0.00014381,0.000
 00866,-0.00004543,-0.00031072,-0.00000789,-0.00020481,-0.00000541,-0.0
 0000766,-0.00035487,0.00012145,0.00000936,0.45004921,0.02085875,-0.001
 26834,0.00045314,-0.00151447,0.00535610,-0.00096079,-0.01089327,-0.012
 43681,0.00006474,0.00408501,0.00185339,-0.00004148,0.00145501,0.000652
 51,-0.00003466,-0.00038004,-0.00248284,0.00000918,-0.00079582,0.001769
 69,0.00000765,0.11985870,-0.40682550,-0.04445180,-0.00021879,0.0000693
 4,-0.00000511,0.00033225,0.00022766,0.00001875,0.00016850,0.00007497,0
 .00001247,-0.00002088,0.00007831,0.00002421,-0.16388107,0.45864494,-0.
 00131843,0.00125828,0.00536954,-0.00250278,-0.00022375,0.00294522,0.00
 056464,0.00016859,-0.00075331,-0.00017158,0.00000896,-0.00063534,-0.00
 026011,0.00024810,0.00024650,0.00004819,0.00007090,0.00002225,-0.00000
 679,-0.00018501,-0.00015243,-0.01683449,-0.01228890,-0.02785228,0.0000
 1463,-0.00000274,-0.00001561,-0.00003432,-0.00006221,-0.00003319,0.000
 00154,0.00000024,0.00007900,-0.00002500,0.00000469,-0.00007954,0.27691
 114,0.02978591,0.23882946,0.00080802,0.00087763,0.00072040,-0.00052314
 ,-0.00047137,0.00054378,-0.00081055,-0.00056279,-0.00018934,0.00023790
 ,0.00009431,-0.00012309,-0.00026807,0.00027090,0.00003440,-0.00002342,
 -0.00011996,0.00000875,-0.00003134,-0.00004963,-0.00003057,-0.01262665
 ,-0.00718623,-0.01240410,-0.00000343,0.00001342,-0.00000546,-0.0000200
 4,-0.00004479,-0.00000823,0.00001427,-0.00000485,0.00001659,-0.0000188
 1,0.00001679,-0.00001459,-0.33977100,0.02916381,-0.25851373,0.35320837
 ,0.00236675,-0.00198991,-0.00103280,-0.00212066,0.00044589,0.00044047,
 -0.00083253,-0.00107774,-0.00003807,0.00017301,0.00017183,0.00012894,0
 .00024744,0.00058844,0.00001322,0.00000996,-0.00011958,0.00000238,-0.0
 0026449,-0.00001425,-0.00000100,0.03230669,0.00307687,0.02778045,-0.00
 003474,0.00001748,-0.00000150,-0.00000926,-0.00003717,-0.00002713,0.00
 000181,0.00000410,-0.00001921,-0.00004641,0.00001921,-0.00001281,-0.01
 175369,-0.04176551,-0.01957665,-0.02279319,0.04067831,0.00111582,-0.00
 102939,-0.00009226,0.00248676,0.00024093,0.00007662,-0.00031552,0.0000
 4578,-0.00000395,0.00010054,-0.00002985,-0.00002704,0.00001640,-0.0004
 1850,0.00000776,0.00000692,0.00002335,-0.00000053,0.00016929,0.0000853
 1,-0.00001900,0.00140925,-0.00471917,-0.00079657,0.00000625,-0.0000081
 5,0.00001452,0.00000679,0.00005377,0.00003844,0.00000962,-0.00000062,0
 .00000933,0.00003946,-0.00001135,0.00000669,-0.27394169,0.01267864,-0.
 21298010,0.27119765,-0.00634100,0.21375965,-0.00998760,-0.00317030,0.0
 0004882,-0.34750173,0.12589141,-0.00422967,0.01419998,0.01071878,-0.00
 001839,-0.00217264,-0.00223561,-0.00008959,-0.02080071,0.00443120,-0.0
 0018826,0.00135233,0.00320572,0.00001078,0.00363083,-0.00585378,-0.000
 04407,0.00231851,-0.00797394,0.00123839,0.00059302,-0.00048556,0.00000
 981,0.00116364,0.00049082,0.00004812,0.00008332,0.00000117,0.00001033,
 -0.00003642,0.00030750,-0.00001176,0.00163928,0.00178230,0.00212709,-0
 .00017212,0.00274930,-0.00230753,0.35569029,-0.00259027,0.00452720,-0.
 00009212,0.12662917,-0.12946955,0.00220315,0.03674985,-0.00830615,0.00
 039428,-0.00009397,-0.00615596,0.00004754,-0.02141540,0.01529387,-0.00
 031032,-0.00087433,-0.00222846,-0.00000331,-0.00534445,-0.00209482,-0.
 00001389,-0.00602798,-0.00239497,0.00049278,0.00149422,-0.00039908,0.0
 0001041,-0.00018785,0.00032978,-0.00001078,-0.00000081,0.00005189,-0.0
 0000455,-0.00105384,0.00049319,-0.00000170,0.00177872,-0.00394793,0.00
 079362,0.00079595,0.00000204,-0.00056976,-0.12985900,0.13429893,-0.000
 18798,-0.00011152,-0.00448714,-0.00393798,0.00203445,-0.02324892,0.000
 02757,0.00029108,0.00339853,-0.00008286,-0.00001847,0.00458018,-0.0000
 7999,-0.00012354,-0.00459840,0.00003086,0.00006015,-0.00057866,0.00003
 848,-0.00002327,0.00519049,0.00036431,-0.00029884,0.00227964,0.0000085
 7,-0.00001520,-0.00040319,0.00003648,0.00001864,-0.00268583,0.00000759
 ,-0.00000435,-0.00077952,0.00000177,0.00000235,0.00159453,0.00160967,0
 .00243915,-0.00499018,-0.00123245,-0.00131529,0.00000642,0.00339597,-0
 .00293534,0.02472205\\0.00000167,-0.00001338,0.00000106,-0.00000077,-0
 .00000801,-0.00000422,-0.00000125,0.00001401,0.00000660,-0.00000518,-0
 .00000290,0.00000681,0.00000257,0.00000099,-0.00000123,0.00000147,-0.0
 0000097,0.00000551,0.00000241,-0.00000573,0.00000091,-0.00000215,0.000
 02063,-0.00001107,-0.00000294,-0.00000135,0.00000943,0.00000449,-0.000
 00104,-0.00000685,-0.00000277,-0.00000640,0.00000852,0.00000116,-0.000
 00302,-0.00000018,-0.00000247,0.00000066,0.00000427,0.00000093,0.00000
 497,-0.00000778,0.00000283,0.00000154,-0.00001178\\\@


 THERE ARE PEOPLE SO ADDICTED TO EXAGERATING THEY
 CAN'T TELL THE TRUTH WITHOUT LYING. -- FORTUNE COOKIE
 Job cpu time:       0 days  1 hours 21 minutes 55.7 seconds.
 File lengths (MBytes):  RWF=    137 Int=      0 D2E=      0 Chk=      9 Scr=      1
 Normal termination of Gaussian 09 at Fri Aug 27 01:18:14 2021.
