 Entering Gaussian System, Link 0=g09
 AtFile(1): pc-2.gbs
            -H     0
            S    4   1.00
                  0.754230D+02           0.240650D-02
                  0.113500D+02           0.184870D-01
                  0.259930D+01           0.897420D-01
                  0.735130D+00           0.281110D+00
            S    1   1.00
                  0.231670D+00           0.100000D+01
            S    1   1.00
                  0.741470D-01           0.100000D+01
            P    1   1.00
                  0.160000D+01           0.100000D+01
            P    1   1.00
                  0.450000D+00           0.100000D+01
            D    1   1.00
                  0.125000D+01           0.100000D+01
            ****
            -C     0
            S    7   1.00
                  0.785710D+04           0.568250D-03
                  0.117870D+04           0.439150D-02
                  0.268320D+03           0.225040D-01
                  0.759480D+02           0.866530D-01
                  0.245590D+02           0.244050D+00
                  0.862120D+01           0.441480D+00
                  0.312780D+01           0.353320D+00
            S    7   1.00
                  0.117870D+04          -0.594920D-06
                  0.268320D+03          -0.627480D-04
                  0.759480D+02          -0.757730D-03
                  0.245590D+02          -0.733080D-02
                  0.862120D+01          -0.389320D-01
                  0.312780D+01          -0.889080D-01
                  0.822020D+00           0.216890D+00
            S    1   1.00
                  0.330170D+00           0.100000D+01
            S    1   1.00
                  0.114630D+00           0.100000D+01
            P    4   1.00
                  0.337750D+02           0.602940D-02
                  0.767660D+01           0.432280D-01
                  0.223570D+01           0.163010D+00
                  0.764470D+00           0.365040D+00
            P    1   1.00
                  0.262320D+00           0.100000D+01
            P    1   1.00
                  0.846380D-01           0.100000D+01
            D    1   1.00
                  0.140000D+01           0.100000D+01
            D    1   1.00
                  0.450000D+00           0.100000D+01
            F    1   1.00
                  0.950000D+00           0.100000D+01
            ****
            -N     0
            S    7   1.00
                  0.111010D+05           0.545700D-03
                  0.166530D+04           0.421810D-02
                  0.379080D+03           0.216450D-01
                  0.107300D+03           0.837760D-01
                  0.347470D+02           0.238810D+00
                  0.122490D+02           0.439940D+00
                  0.447430D+01           0.363640D+00
            S    7   1.00
                  0.166530D+04          -0.150060D-05
                  0.379080D+03          -0.587530D-04
                  0.107300D+03          -0.774530D-03
                  0.347470D+02          -0.721610D-02
                  0.122490D+02          -0.393380D-01
                  0.447430D+01          -0.906110D-01
                  0.124040D+01           0.198820D+00
            S    1   1.00
                  0.487430D+00           0.100000D+01
            S    1   1.00
                  0.164840D+00           0.100000D+01
            P    4   1.00
                  0.479340D+02           0.617060D-02
                  0.109990D+02           0.442600D-01
                  0.324720D+01           0.168250D+00
                  0.111140D+01           0.368480D+00
            P    1   1.00
                  0.379880D+00           0.100000D+01
            P    1   1.00
                  0.120680D+00           0.100000D+01
            D    1   1.00
                  0.180000D+01           0.100000D+01
            D    1   1.00
                  0.550000D+00           0.100000D+01
            F    1   1.00
                  0.102000D+01           0.100000D+01
            ****
            -O     0
            S    7   1.00
                  0.147820D+05           0.535190D-03
                  0.221730D+04           0.413750D-02
                  0.504740D+03           0.212450D-01
                  0.142870D+03           0.824530D-01
                  0.463000D+02           0.236710D+00
                  0.163370D+02           0.440390D+00
                  0.598280D+01           0.364650D+00
            S    7   1.00
                  0.221730D+04          -0.192750D-05
                  0.504740D+03          -0.579640D-04
                  0.142870D+03          -0.794940D-03
                  0.463000D+02          -0.731250D-02
                  0.163370D+02          -0.405740D-01
                  0.598280D+01          -0.915940D-01
                  0.167180D+01           0.209400D+00
            S    1   1.00
                  0.646620D+00           0.100000D+01
            S    1   1.00
                  0.216690D+00           0.100000D+01
            P    4   1.00
                  0.604240D+02           0.689490D-02
                  0.139350D+02           0.490050D-01
                  0.415310D+01           0.182550D+00
                  0.141580D+01           0.376330D+00
            P    1   1.00
                  0.475490D+00           0.100000D+01
            P    1   1.00
                  0.145290D+00           0.100000D+01
            D    1   1.00
                  0.220000D+01           0.100000D+01
            D    1   1.00
                  0.650000D+00           0.100000D+01
            F    1   1.00
                  0.110000D+01           0.100000D+01
            ****
 Initial command:
 /public3/home/sc51754/softwares/g09e01/l1.exe "./Gau-17177.inp" -scrdir="./"
 Entering Link 1 = /public3/home/sc51754/softwares/g09e01/l1.exe PID=     17178.
  
 Copyright (c) 1988,1990,1992,1993,1995,1998,2003,2009,2015,
            Gaussian, Inc.  All Rights Reserved.
  
 This is part of the Gaussian(R) 09 program.  It is based on
 the Gaussian(R) 03 system (copyright 2003, Gaussian, Inc.),
 the Gaussian(R) 98 system (copyright 1998, Gaussian, Inc.),
 the Gaussian(R) 94 system (copyright 1995, Gaussian, Inc.),
 the Gaussian 92(TM) system (copyright 1992, Gaussian, Inc.),
 the Gaussian 90(TM) system (copyright 1990, Gaussian, Inc.),
 the Gaussian 88(TM) system (copyright 1988, Gaussian, Inc.),
 the Gaussian 86(TM) system (copyright 1986, Carnegie Mellon
 University), and the Gaussian 82(TM) system (copyright 1983,
 Carnegie Mellon University). Gaussian is a federally registered
 trademark of Gaussian, Inc.
  
 This software contains proprietary and confidential information,
 including trade secrets, belonging to Gaussian, Inc.
  
 This software is provided under written license and may be
 used, copied, transmitted, or stored only in accord with that
 written license.
  
 The following legend is applicable only to US Government
 contracts under FAR:
  
                    RESTRICTED RIGHTS LEGEND
  
 Use, reproduction and disclosure by the US Government is
 subject to restrictions as set forth in subparagraphs (a)
 and (c) of the Commercial Computer Software - Restricted
 Rights clause in FAR 52.227-19.
  
 Gaussian, Inc.
 340 Quinnipiac St., Bldg. 40, Wallingford CT 06492
  
  
 ---------------------------------------------------------------
 Warning -- This program may not be used in any manner that
 competes with the business of Gaussian, Inc. or will provide
 assistance to any competitor of Gaussian, Inc.  The licensee
 of this program is prohibited from giving any competitor of
 Gaussian, Inc. access to this program.  By using this program,
 the user acknowledges that Gaussian, Inc. is engaged in the
 business of creating and licensing software in the field of
 computational chemistry and represents and warrants to the
 licensee that it is not a competitor of Gaussian, Inc. and that
 it will not use this program in any manner prohibited above.
 ---------------------------------------------------------------
  

 Cite this work as:
 Gaussian 09, Revision E.01,
 M. J. Frisch, G. W. Trucks, H. B. Schlegel, G. E. Scuseria, 
 M. A. Robb, J. R. Cheeseman, G. Scalmani, V. Barone, B. Mennucci, 
 G. A. Petersson, H. Nakatsuji, M. Caricato, X. Li, H. P. Hratchian, 
 A. F. Izmaylov, J. Bloino, G. Zheng, J. L. Sonnenberg, M. Hada, 
 M. Ehara, K. Toyota, R. Fukuda, J. Hasegawa, M. Ishida, T. Nakajima, 
 Y. Honda, O. Kitao, H. Nakai, T. Vreven, J. A. Montgomery, Jr., 
 J. E. Peralta, F. Ogliaro, M. Bearpark, J. J. Heyd, E. Brothers, 
 K. N. Kudin, V. N. Staroverov, T. Keith, R. Kobayashi, J. Normand, 
 K. Raghavachari, A. Rendell, J. C. Burant, S. S. Iyengar, J. Tomasi, 
 M. Cossi, N. Rega, J. M. Millam, M. Klene, J. E. Knox, J. B. Cross, 
 V. Bakken, C. Adamo, J. Jaramillo, R. Gomperts, R. E. Stratmann, 
 O. Yazyev, A. J. Austin, R. Cammi, C. Pomelli, J. W. Ochterski, 
 R. L. Martin, K. Morokuma, V. G. Zakrzewski, G. A. Voth, 
 P. Salvador, J. J. Dannenberg, S. Dapprich, A. D. Daniels, 
 O. Farkas, J. B. Foresman, J. V. Ortiz, J. Cioslowski, 
 and D. J. Fox, Gaussian, Inc., Wallingford CT, 2013.
 
 ******************************************
 Gaussian 09:  EM64L-G09RevE.01 30-Nov-2015
                27-Aug-2021 
 ******************************************
 %nprocshared=64
 Will use up to   64 processors via shared memory.
 %mem=128GB
 %chk=PY_H2O_B3LYP_PC2_OPT_FREQ.chk
 ---------------------
 #p opt freq B3LYP/gen
 ---------------------
 1/14=-1,18=20,19=15,26=3,38=1/1,3;
 2/9=110,12=2,17=6,18=5,40=1/2;
 3/5=7,11=2,16=1,25=1,30=1,71=1,74=-5/1,2,3;
 4//1;
 5/5=2,38=5/2;
 6/7=2,8=2,9=2,10=2,28=1/1;
 7//1,2,3,16;
 1/14=-1,18=20,19=15,26=3/3(2);
 2/9=110/2;
 99//99;
 2/9=110/2;
 3/5=7,6=1,11=2,16=1,25=1,30=1,71=1,74=-5,82=7/1,2,3;
 4/5=5,16=3,69=1/1;
 5/5=2,38=5/2;
 7//1,2,3,16;
 1/14=-1,18=20,19=15,26=3/3(-5);
 2/9=110/2;
 6/7=2,8=2,9=2,10=2,19=2,28=1/1;
 99/9=1/99;
 Leave Link    1 at Fri Aug 27 00:35:03 2021, MaxMem= 17179869184 cpu:         5.7
 (Enter /public3/home/sc51754/softwares/g09e01/l101.exe)
 -------------------------
 PY_H2O_B3LYP_PC2_OPT_FREQ
 -------------------------
 Symbolic Z-matrix:
 Charge =  0 Multiplicity = 1
 O                     1.26148   1.38785   0.00541 
 N                     0.24943  -0.65888   0.01158 
 C                     0.21021   0.736     0.00592 
 C                    -1.11959   1.28763   0.00047 
 C                    -0.84358  -1.46082   0.0067 
 C                    -2.21816   0.48191  -0.00352 
 C                    -2.09559  -0.93059  -0.00106 
 H                     2.7014    0.27314  -0.04162 
 H                    -1.19683   2.36437  -0.00254 
 H                    -0.64999  -2.52343   0.00862 
 H                    -3.20534   0.92605  -0.00928 
 H                    -2.96087  -1.57362  -0.00584 
 O                     3.10667  -0.61979  -0.08598 
 H                     3.83344  -0.62425   0.54074 
 H                     1.18728  -1.05929   0.02234 
 
 Add virtual bond connecting atoms H8         and O1         Dist= 3.44D+00.
 Add virtual bond connecting atoms O13        and H15        Dist= 3.73D+00.
 NAtoms=     15 NQM=       15 NQMF=       0 NMMI=      0 NMMIF=      0
                NMic=       0 NMicF=      0.
                    Isotopes and Nuclear Properties:
 (Nuclear quadrupole moments (NQMom) in fm**2, nuclear magnetic moments (NMagM)
  in nuclear magnetons)

  Atom         1           2           3           4           5           6           7           8           9          10
 IAtWgt=          16          14          12          12          12          12          12           1           1           1
 AtmWgt=  15.9949146  14.0030740  12.0000000  12.0000000  12.0000000  12.0000000  12.0000000   1.0078250   1.0078250   1.0078250
 NucSpn=           0           2           0           0           0           0           0           1           1           1
 AtZEff=   0.0000000   0.0000000   0.0000000   0.0000000   0.0000000   0.0000000   0.0000000   0.0000000   0.0000000   0.0000000
 NQMom=    0.0000000   2.0440000   0.0000000   0.0000000   0.0000000   0.0000000   0.0000000   0.0000000   0.0000000   0.0000000
 NMagM=    0.0000000   0.4037610   0.0000000   0.0000000   0.0000000   0.0000000   0.0000000   2.7928460   2.7928460   2.7928460
 AtZNuc=   8.0000000   7.0000000   6.0000000   6.0000000   6.0000000   6.0000000   6.0000000   1.0000000   1.0000000   1.0000000

  Atom        11          12          13          14          15
 IAtWgt=           1           1          16           1           1
 AtmWgt=   1.0078250   1.0078250  15.9949146   1.0078250   1.0078250
 NucSpn=           1           1           0           1           1
 AtZEff=   0.0000000   0.0000000   0.0000000   0.0000000   0.0000000
 NQMom=    0.0000000   0.0000000   0.0000000   0.0000000   0.0000000
 NMagM=    2.7928460   2.7928460   0.0000000   2.7928460   2.7928460
 AtZNuc=   1.0000000   1.0000000   8.0000000   1.0000000   1.0000000
 Leave Link  101 at Fri Aug 27 00:35:03 2021, MaxMem= 17179869184 cpu:         5.2
 (Enter /public3/home/sc51754/softwares/g09e01/l103.exe)

 GradGradGradGradGradGradGradGradGradGradGradGradGradGradGradGradGradGrad
 Berny optimization.
 Initialization pass.
                           ----------------------------
                           !    Initial Parameters    !
                           ! (Angstroms and Degrees)  !
 --------------------------                            --------------------------
 ! Name  Definition              Value          Derivative Info.                !
 --------------------------------------------------------------------------------
 ! R1    R(1,3)                  1.237          estimate D2E/DX2                !
 ! R2    R(1,8)                  1.8216         estimate D2E/DX2                !
 ! R3    R(2,3)                  1.3954         estimate D2E/DX2                !
 ! R4    R(2,5)                  1.3556         estimate D2E/DX2                !
 ! R5    R(2,15)                 1.0198         estimate D2E/DX2                !
 ! R6    R(3,4)                  1.4397         estimate D2E/DX2                !
 ! R7    R(4,6)                  1.3624         estimate D2E/DX2                !
 ! R8    R(4,9)                  1.0795         estimate D2E/DX2                !
 ! R9    R(5,7)                  1.3597         estimate D2E/DX2                !
 ! R10   R(5,10)                 1.0801         estimate D2E/DX2                !
 ! R11   R(6,7)                  1.4178         estimate D2E/DX2                !
 ! R12   R(6,11)                 1.0825         estimate D2E/DX2                !
 ! R13   R(7,12)                 1.0781         estimate D2E/DX2                !
 ! R14   R(8,13)                 0.9816         estimate D2E/DX2                !
 ! R15   R(13,14)                0.9597         estimate D2E/DX2                !
 ! R16   R(13,15)                1.972          estimate D2E/DX2                !
 ! A1    A(3,1,8)              110.4468         estimate D2E/DX2                !
 ! A2    A(3,2,5)              124.6558         estimate D2E/DX2                !
 ! A3    A(3,2,15)             114.7312         estimate D2E/DX2                !
 ! A4    A(5,2,15)             120.6129         estimate D2E/DX2                !
 ! A5    A(1,3,2)              120.1911         estimate D2E/DX2                !
 ! A6    A(1,3,4)              125.6683         estimate D2E/DX2                !
 ! A7    A(2,3,4)              114.1406         estimate D2E/DX2                !
 ! A8    A(3,4,6)              121.2133         estimate D2E/DX2                !
 ! A9    A(3,4,9)              116.6328         estimate D2E/DX2                !
 ! A10   A(6,4,9)              122.1537         estimate D2E/DX2                !
 ! A11   A(2,5,7)              120.7801         estimate D2E/DX2                !
 ! A12   A(2,5,10)             115.9423         estimate D2E/DX2                !
 ! A13   A(7,5,10)             123.2776         estimate D2E/DX2                !
 ! A14   A(4,6,7)              121.2972         estimate D2E/DX2                !
 ! A15   A(4,6,11)             119.5197         estimate D2E/DX2                !
 ! A16   A(7,6,11)             119.1831         estimate D2E/DX2                !
 ! A17   A(5,7,6)              117.9124         estimate D2E/DX2                !
 ! A18   A(5,7,12)             120.4308         estimate D2E/DX2                !
 ! A19   A(6,7,12)             121.6568         estimate D2E/DX2                !
 ! A20   A(1,8,13)             152.1528         estimate D2E/DX2                !
 ! A21   A(8,13,14)            106.7015         estimate D2E/DX2                !
 ! A22   A(8,13,15)             78.3702         estimate D2E/DX2                !
 ! A23   A(14,13,15)           134.4412         estimate D2E/DX2                !
 ! A24   A(2,15,13)            143.8035         estimate D2E/DX2                !
 ! D1    D(8,1,3,2)              1.8252         estimate D2E/DX2                !
 ! D2    D(8,1,3,4)           -178.1461         estimate D2E/DX2                !
 ! D3    D(3,1,8,13)             2.218          estimate D2E/DX2                !
 ! D4    D(5,2,3,1)           -179.6964         estimate D2E/DX2                !
 ! D5    D(5,2,3,4)              0.278          estimate D2E/DX2                !
 ! D6    D(15,2,3,1)             0.4507         estimate D2E/DX2                !
 ! D7    D(15,2,3,4)          -179.5749         estimate D2E/DX2                !
 ! D8    D(3,2,5,7)             -0.1672         estimate D2E/DX2                !
 ! D9    D(3,2,5,10)           179.7881         estimate D2E/DX2                !
 ! D10   D(15,2,5,7)           179.6776         estimate D2E/DX2                !
 ! D11   D(15,2,5,10)           -0.3671         estimate D2E/DX2                !
 ! D12   D(3,2,15,13)           -6.1898         estimate D2E/DX2                !
 ! D13   D(5,2,15,13)          173.9508         estimate D2E/DX2                !
 ! D14   D(1,3,4,6)            179.7501         estimate D2E/DX2                !
 ! D15   D(1,3,4,9)             -0.1145         estimate D2E/DX2                !
 ! D16   D(2,3,4,6)             -0.2227         estimate D2E/DX2                !
 ! D17   D(2,3,4,9)            179.9126         estimate D2E/DX2                !
 ! D18   D(3,4,6,7)              0.0669         estimate D2E/DX2                !
 ! D19   D(3,4,6,11)          -179.8963         estimate D2E/DX2                !
 ! D20   D(9,4,6,7)            179.924          estimate D2E/DX2                !
 ! D21   D(9,4,6,11)            -0.0392         estimate D2E/DX2                !
 ! D22   D(2,5,7,6)             -0.0156         estimate D2E/DX2                !
 ! D23   D(2,5,7,12)           179.9426         estimate D2E/DX2                !
 ! D24   D(10,5,7,6)          -179.9675         estimate D2E/DX2                !
 ! D25   D(10,5,7,12)           -0.0093         estimate D2E/DX2                !
 ! D26   D(4,6,7,5)              0.0605         estimate D2E/DX2                !
 ! D27   D(4,6,7,12)          -179.8972         estimate D2E/DX2                !
 ! D28   D(11,6,7,5)          -179.9762         estimate D2E/DX2                !
 ! D29   D(11,6,7,12)            0.0661         estimate D2E/DX2                !
 ! D30   D(1,8,13,14)         -137.6226         estimate D2E/DX2                !
 ! D31   D(1,8,13,15)           -4.4198         estimate D2E/DX2                !
 ! D32   D(8,13,15,2)            7.3388         estimate D2E/DX2                !
 ! D33   D(14,13,15,2)         109.4095         estimate D2E/DX2                !
 --------------------------------------------------------------------------------
 Trust Radius=3.00D-01 FncErr=1.00D-07 GrdErr=1.00D-06
 Number of steps in this run=     83 maximum allowed number of steps=    100.
 GradGradGradGradGradGradGradGradGradGradGradGradGradGradGradGradGradGrad

 Leave Link  103 at Fri Aug 27 00:35:03 2021, MaxMem= 17179869184 cpu:         0.2
 (Enter /public3/home/sc51754/softwares/g09e01/l202.exe)
                          Input orientation:                          
 ---------------------------------------------------------------------
 Center     Atomic      Atomic             Coordinates (Angstroms)
 Number     Number       Type             X           Y           Z
 ---------------------------------------------------------------------
      1          8           0        1.261476    1.387852    0.005408
      2          7           0        0.249425   -0.658880    0.011581
      3          6           0        0.210209    0.735997    0.005920
      4          6           0       -1.119592    1.287625    0.000474
      5          6           0       -0.843575   -1.460822    0.006702
      6          6           0       -2.218160    0.481905   -0.003521
      7          6           0       -2.095586   -0.930593   -0.001061
      8          1           0        2.701404    0.273138   -0.041623
      9          1           0       -1.196826    2.364370   -0.002539
     10          1           0       -0.649991   -2.523426    0.008616
     11          1           0       -3.205344    0.926047   -0.009282
     12          1           0       -2.960874   -1.573618   -0.005843
     13          8           0        3.106669   -0.619787   -0.085978
     14          1           0        3.833439   -0.624251    0.540740
     15          1           0        1.187279   -1.059291    0.022340
 ---------------------------------------------------------------------
                    Distance matrix (angstroms):
                    1          2          3          4          5
     1  O    0.000000
     2  N    2.283286   0.000000
     3  C    1.236963   1.395440   0.000000
     4  C    2.383182   2.379751   1.439685   0.000000
     5  C    3.542059   1.355649   2.436488   2.762279   0.000000
     6  C    3.595648   2.718565   2.441645   1.362370   2.379869
     7  C    4.079840   2.360734   2.845042   2.423439   1.359682
     8  H    1.821590   2.623679   2.534275   3.953602   3.946622
     9  H    2.645165   3.351400   2.152073   1.079516   3.841480
    10  H    4.353368   2.070142   3.371022   3.839883   1.080095
    11  H    4.490653   3.801034   3.420870   2.116883   3.357879
    12  H    5.157390   3.338124   3.923038   3.402509   2.120339
    13  O    2.728315   2.859176   3.199387   4.637561   4.039846
    14  H    3.309098   3.623033   3.906930   5.336635   4.781162
    15  H    2.448326   1.019811   2.044014   3.290919   2.070227
                    6          7          8          9         10
     6  C    0.000000
     7  C    1.417809   0.000000
     8  H    4.924139   4.945880   0.000000
     9  H    2.141681   3.415341   4.423910   0.000000
    10  H    3.389884   2.151036   4.365220   4.918303   0.000000
    11  H    1.082510   2.163040   5.942811   2.470418   4.292903
    12  H    2.185590   1.078066   5.955937   4.315046   2.498504
    13  O    5.438228   5.212223   0.981592   5.237578   4.212515
    14  H    6.175893   5.961605   1.557548   5.876272   4.898078
    15  H    3.738043   3.285470   2.017928   4.172053   2.349349
                   11         12         13         14         15
    11  H    0.000000
    12  H    2.511594   0.000000
    13  O    6.498999   6.142580   0.000000
    14  H    7.228445   6.882059   0.959682   0.000000
    15  H    4.820550   4.180012   1.972043   2.731330   0.000000
 Stoichiometry    C5H7NO2
 Framework group  C1[X(C5H7NO2)]
 Deg. of freedom    39
 Full point group                 C1      NOp   1
 Largest Abelian subgroup         C1      NOp   1
 Largest concise Abelian subgroup C1      NOp   1
                         Standard orientation:                         
 ---------------------------------------------------------------------
 Center     Atomic      Atomic             Coordinates (Angstroms)
 Number     Number       Type             X           Y           Z
 ---------------------------------------------------------------------
      1          8           0        1.261476    1.387852    0.005408
      2          7           0        0.249425   -0.658880    0.011581
      3          6           0        0.210209    0.735997    0.005920
      4          6           0       -1.119592    1.287625    0.000474
      5          6           0       -0.843575   -1.460822    0.006702
      6          6           0       -2.218160    0.481905   -0.003521
      7          6           0       -2.095586   -0.930593   -0.001061
      8          1           0        2.701404    0.273138   -0.041623
      9          1           0       -1.196826    2.364370   -0.002539
     10          1           0       -0.649991   -2.523426    0.008616
     11          1           0       -3.205344    0.926047   -0.009282
     12          1           0       -2.960874   -1.573618   -0.005843
     13          8           0        3.106669   -0.619787   -0.085978
     14          1           0        3.833439   -0.624251    0.540740
     15          1           0        1.187279   -1.059291    0.022340
 ---------------------------------------------------------------------
 Rotational constants (GHZ):      4.0248921      1.3974909      1.0390436
 Leave Link  202 at Fri Aug 27 00:35:03 2021, MaxMem= 17179869184 cpu:         4.3
 (Enter /public3/home/sc51754/softwares/g09e01/l301.exe)
 General basis read from cards:  (5D, 7F)
 Centers:       8      9     10     11     12     14     15
 S 4 1.00
     Exponent=  7.5423000000D+01 Coefficients=  2.4065000000D-03
     Exponent=  1.1350000000D+01 Coefficients=  1.8487000000D-02
     Exponent=  2.5993000000D+00 Coefficients=  8.9742000000D-02
     Exponent=  7.3513000000D-01 Coefficients=  2.8111000000D-01
 S 1 1.00
     Exponent=  2.3167000000D-01 Coefficients=  1.0000000000D+00
 S 1 1.00
     Exponent=  7.4147000000D-02 Coefficients=  1.0000000000D+00
 P 1 1.00
     Exponent=  1.6000000000D+00 Coefficients=  1.0000000000D+00
 P 1 1.00
     Exponent=  4.5000000000D-01 Coefficients=  1.0000000000D+00
 D 1 1.00
     Exponent=  1.2500000000D+00 Coefficients=  1.0000000000D+00
 ****
 Centers:       3      4      5      6      7
 S 7 1.00
     Exponent=  7.8571000000D+03 Coefficients=  5.6825000000D-04
     Exponent=  1.1787000000D+03 Coefficients=  4.3915000000D-03
     Exponent=  2.6832000000D+02 Coefficients=  2.2504000000D-02
     Exponent=  7.5948000000D+01 Coefficients=  8.6653000000D-02
     Exponent=  2.4559000000D+01 Coefficients=  2.4405000000D-01
     Exponent=  8.6212000000D+00 Coefficients=  4.4148000000D-01
     Exponent=  3.1278000000D+00 Coefficients=  3.5332000000D-01
 S 7 1.00
     Exponent=  1.1787000000D+03 Coefficients= -5.9492000000D-07
     Exponent=  2.6832000000D+02 Coefficients= -6.2748000000D-05
     Exponent=  7.5948000000D+01 Coefficients= -7.5773000000D-04
     Exponent=  2.4559000000D+01 Coefficients= -7.3308000000D-03
     Exponent=  8.6212000000D+00 Coefficients= -3.8932000000D-02
     Exponent=  3.1278000000D+00 Coefficients= -8.8908000000D-02
     Exponent=  8.2202000000D-01 Coefficients=  2.1689000000D-01
 S 1 1.00
     Exponent=  3.3017000000D-01 Coefficients=  1.0000000000D+00
 S 1 1.00
     Exponent=  1.1463000000D-01 Coefficients=  1.0000000000D+00
 P 4 1.00
     Exponent=  3.3775000000D+01 Coefficients=  6.0294000000D-03
     Exponent=  7.6766000000D+00 Coefficients=  4.3228000000D-02
     Exponent=  2.2357000000D+00 Coefficients=  1.6301000000D-01
     Exponent=  7.6447000000D-01 Coefficients=  3.6504000000D-01
 P 1 1.00
     Exponent=  2.6232000000D-01 Coefficients=  1.0000000000D+00
 P 1 1.00
     Exponent=  8.4638000000D-02 Coefficients=  1.0000000000D+00
 D 1 1.00
     Exponent=  1.4000000000D+00 Coefficients=  1.0000000000D+00
 D 1 1.00
     Exponent=  4.5000000000D-01 Coefficients=  1.0000000000D+00
 F 1 1.00
     Exponent=  9.5000000000D-01 Coefficients=  1.0000000000D+00
 ****
 Centers:       2
 S 7 1.00
     Exponent=  1.1101000000D+04 Coefficients=  5.4570000000D-04
     Exponent=  1.6653000000D+03 Coefficients=  4.2181000000D-03
     Exponent=  3.7908000000D+02 Coefficients=  2.1645000000D-02
     Exponent=  1.0730000000D+02 Coefficients=  8.3776000000D-02
     Exponent=  3.4747000000D+01 Coefficients=  2.3881000000D-01
     Exponent=  1.2249000000D+01 Coefficients=  4.3994000000D-01
     Exponent=  4.4743000000D+00 Coefficients=  3.6364000000D-01
 S 7 1.00
     Exponent=  1.6653000000D+03 Coefficients= -1.5006000000D-06
     Exponent=  3.7908000000D+02 Coefficients= -5.8753000000D-05
     Exponent=  1.0730000000D+02 Coefficients= -7.7453000000D-04
     Exponent=  3.4747000000D+01 Coefficients= -7.2161000000D-03
     Exponent=  1.2249000000D+01 Coefficients= -3.9338000000D-02
     Exponent=  4.4743000000D+00 Coefficients= -9.0611000000D-02
     Exponent=  1.2404000000D+00 Coefficients=  1.9882000000D-01
 S 1 1.00
     Exponent=  4.8743000000D-01 Coefficients=  1.0000000000D+00
 S 1 1.00
     Exponent=  1.6484000000D-01 Coefficients=  1.0000000000D+00
 P 4 1.00
     Exponent=  4.7934000000D+01 Coefficients=  6.1706000000D-03
     Exponent=  1.0999000000D+01 Coefficients=  4.4260000000D-02
     Exponent=  3.2472000000D+00 Coefficients=  1.6825000000D-01
     Exponent=  1.1114000000D+00 Coefficients=  3.6848000000D-01
 P 1 1.00
     Exponent=  3.7988000000D-01 Coefficients=  1.0000000000D+00
 P 1 1.00
     Exponent=  1.2068000000D-01 Coefficients=  1.0000000000D+00
 D 1 1.00
     Exponent=  1.8000000000D+00 Coefficients=  1.0000000000D+00
 D 1 1.00
     Exponent=  5.5000000000D-01 Coefficients=  1.0000000000D+00
 F 1 1.00
     Exponent=  1.0200000000D+00 Coefficients=  1.0000000000D+00
 ****
 Centers:       1     13
 S 7 1.00
     Exponent=  1.4782000000D+04 Coefficients=  5.3519000000D-04
     Exponent=  2.2173000000D+03 Coefficients=  4.1375000000D-03
     Exponent=  5.0474000000D+02 Coefficients=  2.1245000000D-02
     Exponent=  1.4287000000D+02 Coefficients=  8.2453000000D-02
     Exponent=  4.6300000000D+01 Coefficients=  2.3671000000D-01
     Exponent=  1.6337000000D+01 Coefficients=  4.4039000000D-01
     Exponent=  5.9828000000D+00 Coefficients=  3.6465000000D-01
 S 7 1.00
     Exponent=  2.2173000000D+03 Coefficients= -1.9275000000D-06
     Exponent=  5.0474000000D+02 Coefficients= -5.7964000000D-05
     Exponent=  1.4287000000D+02 Coefficients= -7.9494000000D-04
     Exponent=  4.6300000000D+01 Coefficients= -7.3125000000D-03
     Exponent=  1.6337000000D+01 Coefficients= -4.0574000000D-02
     Exponent=  5.9828000000D+00 Coefficients= -9.1594000000D-02
     Exponent=  1.6718000000D+00 Coefficients=  2.0940000000D-01
 S 1 1.00
     Exponent=  6.4662000000D-01 Coefficients=  1.0000000000D+00
 S 1 1.00
     Exponent=  2.1669000000D-01 Coefficients=  1.0000000000D+00
 P 4 1.00
     Exponent=  6.0424000000D+01 Coefficients=  6.8949000000D-03
     Exponent=  1.3935000000D+01 Coefficients=  4.9005000000D-02
     Exponent=  4.1531000000D+00 Coefficients=  1.8255000000D-01
     Exponent=  1.4158000000D+00 Coefficients=  3.7633000000D-01
 P 1 1.00
     Exponent=  4.7549000000D-01 Coefficients=  1.0000000000D+00
 P 1 1.00
     Exponent=  1.4529000000D-01 Coefficients=  1.0000000000D+00
 D 1 1.00
     Exponent=  2.2000000000D+00 Coefficients=  1.0000000000D+00
 D 1 1.00
     Exponent=  6.5000000000D-01 Coefficients=  1.0000000000D+00
 F 1 1.00
     Exponent=  1.1000000000D+00 Coefficients=  1.0000000000D+00
 ****
 Ernie: Thresh=  0.10000D-02 Tol=  0.10000D-05 Strict=F.
 Ernie:  8 primitive shells out of 263 were deleted.
 There are   385 symmetry adapted cartesian basis functions of A   symmetry.
 There are   338 symmetry adapted basis functions of A   symmetry.
   338 basis functions,   566 primitive gaussians,   385 cartesian basis functions
    30 alpha electrons       30 beta electrons
       nuclear repulsion energy       356.8539014902 Hartrees.
 IExCor=  402 DFT=T Ex+Corr=B3LYP ExCW=0 ScaHFX=  0.200000
 ScaDFX=  0.800000  0.720000  1.000000  0.810000 ScalE2=  1.000000  1.000000
 IRadAn=      0 IRanWt=     -1 IRanGd=            0 ICorTp=0 IEmpDi=  4
 NAtoms=   15 NActive=   15 NUniq=   15 SFac= 1.00D+00 NAtFMM=   60 NAOKFM=F Big=F
 Integral buffers will be    131072 words long.
 Raffenetti 2 integral format.
 Two-electron integral symmetry is turned on.
 Leave Link  301 at Fri Aug 27 00:35:03 2021, MaxMem= 17179869184 cpu:         1.4
 (Enter /public3/home/sc51754/softwares/g09e01/l302.exe)
 NPDir=0 NMtPBC=     1 NCelOv=     1 NCel=       1 NClECP=     1 NCelD=      1
         NCelK=      1 NCelE2=     1 NClLst=     1 CellRange=     0.0.
 One-electron integrals computed using PRISM.
 NBasis=   338 RedAO= T EigKep=  1.57D-04  NBF=   338
 NBsUse=   338 1.00D-06 EigRej= -1.00D+00 NBFU=   338
 Precomputing XC quadrature grid using
 IXCGrd= 4 IRadAn=           0 IRanWt=          -1 IRanGd=           0 AccXCQ= 0.00D+00.
 Generated NRdTot=       0 NPtTot=           0 NUsed=           0 NTot=          32
 NSgBfM=   385   385   385   385   385 MxSgAt=    15 MxSgA2=    15.
 Leave Link  302 at Fri Aug 27 00:35:04 2021, MaxMem= 17179869184 cpu:        45.8
 (Enter /public3/home/sc51754/softwares/g09e01/l303.exe)
 DipDrv:  MaxL=1.
 Leave Link  303 at Fri Aug 27 00:35:05 2021, MaxMem= 17179869184 cpu:        15.0
 (Enter /public3/home/sc51754/softwares/g09e01/l401.exe)
 ExpMin= 7.41D-02 ExpMax= 1.48D+04 ExpMxC= 5.05D+02 IAcc=2 IRadAn=         4 AccDes= 0.00D+00
 Harris functional with IExCor=  402 and IRadAn=       4 diagonalized for initial guess.
 HarFok:  IExCor=  402 AccDes= 0.00D+00 IRadAn=         4 IDoV= 1 UseB2=F ITyADJ=14
 ICtDFT=  3500011 ScaDFX=  1.000000  1.000000  1.000000  1.000000
 FoFCou: FMM=F IPFlag=           0 FMFlag=      100000 FMFlg1=           0
         NFxFlg=           0 DoJE=T BraDBF=F KetDBF=T FulRan=T
         wScrn=  0.000000 ICntrl=     500 IOpCl=  0 I1Cent=   200000004 NGrid=           0
         NMat0=    1 NMatS0=      1 NMatT0=    0 NMatD0=    1 NMtDS0=    0 NMtDT0=    0
 Petite list used in FoFCou.
 Harris En= -400.202621339576    
 JPrj=0 DoOrth=F DoCkMO=F.
 Leave Link  401 at Fri Aug 27 00:35:06 2021, MaxMem= 17179869184 cpu:        51.1
 (Enter /public3/home/sc51754/softwares/g09e01/l502.exe)
 Closed shell SCF:
 Using DIIS extrapolation, IDIIS=  1040.
 Integral symmetry usage will be decided dynamically.
 Keep R1 ints in memory in canonical form, NReq=1670404686.
 IVT=      490665 IEndB=      490665 NGot= 17179869184 MDV= 15538220534
 LenX= 15538220534 LenY= 15538071868
 Requested convergence on RMS density matrix=1.00D-08 within 128 cycles.
 Requested convergence on MAX density matrix=1.00D-06.
 Requested convergence on             energy=1.00D-06.
 No special actions if energy rises.
 FoFCou: FMM=F IPFlag=           0 FMFlag=           0 FMFlg1=           0
         NFxFlg=           0 DoJE=F BraDBF=F KetDBF=F FulRan=T
         wScrn=  0.000000 ICntrl=     600 IOpCl=  0 I1Cent=           0 NGrid=           0
         NMat0=    1 NMatS0=  57291 NMatT0=    0 NMatD0=    1 NMtDS0=    0 NMtDT0=    0
 Symmetry not used in FoFCou.
 Integral accuracy reduced to 1.0D-05 until final iterations.

 Cycle   1  Pass 0  IDiag  1:
 E= -399.874530129098    
 DIIS: error= 3.10D-02 at cycle   1 NSaved=   1.
 NSaved= 1 IEnMin= 1 EnMin= -399.874530129098     IErMin= 1 ErrMin= 3.10D-02
 ErrMax= 3.10D-02  0.00D+00 EMaxC= 1.00D-01 BMatC= 3.41D-01 BMatP= 3.41D-01
 IDIUse=3 WtCom= 6.90D-01 WtEn= 3.10D-01
 Coeff-Com:  0.100D+01
 Coeff-En:   0.100D+01
 Coeff:      0.100D+01
 Gap=     0.153 Goal=   None    Shift=    0.000
 GapD=    0.153 DampG=1.000 DampE=0.500 DampFc=0.5000 IDamp=-1.
 Damping current iteration by 5.00D-01
 RMSDP=3.30D-03 MaxDP=1.33D-01              OVMax= 3.20D-01

 Cycle   2  Pass 0  IDiag  1:
 E= -399.942073500606     Delta-E=       -0.067543371508 Rises=F Damp=T
 DIIS: error= 8.61D-03 at cycle   2 NSaved=   2.
 NSaved= 2 IEnMin= 2 EnMin= -399.942073500606     IErMin= 2 ErrMin= 8.61D-03
 ErrMax= 8.61D-03  0.00D+00 EMaxC= 1.00D-01 BMatC= 4.89D-02 BMatP= 3.41D-01
 IDIUse=3 WtCom= 9.14D-01 WtEn= 8.61D-02
 Coeff-Com:  0.221D+00 0.779D+00
 Coeff-En:   0.366D+00 0.634D+00
 Coeff:      0.233D+00 0.767D+00
 Gap=     0.247 Goal=   None    Shift=    0.000
 RMSDP=1.02D-03 MaxDP=3.55D-02 DE=-6.75D-02 OVMax= 2.50D-01

 Cycle   3  Pass 0  IDiag  1:
 E= -400.114604980198     Delta-E=       -0.172531479593 Rises=F Damp=F
 DIIS: error= 1.12D-02 at cycle   3 NSaved=   3.
 NSaved= 3 IEnMin= 3 EnMin= -400.114604980198     IErMin= 2 ErrMin= 8.61D-03
 ErrMax= 1.12D-02  0.00D+00 EMaxC= 1.00D-01 BMatC= 3.66D-02 BMatP= 4.89D-02
 IDIUse=3 WtCom= 8.88D-01 WtEn= 1.12D-01
 Coeff-Com:  0.766D-01 0.468D+00 0.455D+00
 Coeff-En:   0.000D+00 0.000D+00 0.100D+01
 Coeff:      0.681D-01 0.416D+00 0.516D+00
 Gap=     0.176 Goal=   None    Shift=    0.000
 RMSDP=5.50D-04 MaxDP=3.10D-02 DE=-1.73D-01 OVMax= 1.07D-01

 Cycle   4  Pass 0  IDiag  1:
 E= -400.138874010381     Delta-E=       -0.024269030183 Rises=F Damp=F
 DIIS: error= 5.16D-03 at cycle   4 NSaved=   4.
 NSaved= 4 IEnMin= 4 EnMin= -400.138874010381     IErMin= 4 ErrMin= 5.16D-03
 ErrMax= 5.16D-03  0.00D+00 EMaxC= 1.00D-01 BMatC= 9.22D-03 BMatP= 3.66D-02
 IDIUse=3 WtCom= 9.48D-01 WtEn= 5.16D-02
 Coeff-Com:  0.102D-01 0.134D+00 0.345D+00 0.511D+00
 Coeff-En:   0.000D+00 0.000D+00 0.230D+00 0.770D+00
 Coeff:      0.970D-02 0.127D+00 0.339D+00 0.524D+00
 Gap=     0.180 Goal=   None    Shift=    0.000
 RMSDP=2.13D-04 MaxDP=1.23D-02 DE=-2.43D-02 OVMax= 3.87D-02

 Cycle   5  Pass 0  IDiag  1:
 E= -400.145994325098     Delta-E=       -0.007120314717 Rises=F Damp=F
 DIIS: error= 1.10D-03 at cycle   5 NSaved=   5.
 NSaved= 5 IEnMin= 5 EnMin= -400.145994325098     IErMin= 5 ErrMin= 1.10D-03
 ErrMax= 1.10D-03  0.00D+00 EMaxC= 1.00D-01 BMatC= 5.18D-04 BMatP= 9.22D-03
 IDIUse=3 WtCom= 9.89D-01 WtEn= 1.10D-02
 Coeff-Com: -0.314D-02 0.252D-01 0.143D+00 0.298D+00 0.537D+00
 Coeff-En:   0.000D+00 0.000D+00 0.000D+00 0.000D+00 0.100D+01
 Coeff:     -0.311D-02 0.249D-01 0.141D+00 0.295D+00 0.542D+00
 Gap=     0.178 Goal=   None    Shift=    0.000
 RMSDP=5.70D-05 MaxDP=2.53D-03 DE=-7.12D-03 OVMax= 7.83D-03

 Cycle   6  Pass 0  IDiag  1:
 E= -400.146372374252     Delta-E=       -0.000378049154 Rises=F Damp=F
 DIIS: error= 2.73D-04 at cycle   6 NSaved=   6.
 NSaved= 6 IEnMin= 6 EnMin= -400.146372374252     IErMin= 6 ErrMin= 2.73D-04
 ErrMax= 2.73D-04  0.00D+00 EMaxC= 1.00D-01 BMatC= 3.97D-05 BMatP= 5.18D-04
 IDIUse=3 WtCom= 9.97D-01 WtEn= 2.73D-03
 Coeff-Com: -0.224D-02 0.429D-04 0.353D-01 0.924D-01 0.279D+00 0.596D+00
 Coeff-En:   0.000D+00 0.000D+00 0.000D+00 0.000D+00 0.134D-01 0.987D+00
 Coeff:     -0.224D-02 0.428D-04 0.352D-01 0.922D-01 0.278D+00 0.597D+00
 Gap=     0.178 Goal=   None    Shift=    0.000
 RMSDP=1.56D-05 MaxDP=6.99D-04 DE=-3.78D-04 OVMax= 2.82D-03

 Cycle   7  Pass 0  IDiag  1:
 E= -400.146402516722     Delta-E=       -0.000030142470 Rises=F Damp=F
 DIIS: error= 1.26D-04 at cycle   7 NSaved=   7.
 NSaved= 7 IEnMin= 7 EnMin= -400.146402516722     IErMin= 7 ErrMin= 1.26D-04
 ErrMax= 1.26D-04  0.00D+00 EMaxC= 1.00D-01 BMatC= 4.89D-06 BMatP= 3.97D-05
 IDIUse=3 WtCom= 9.99D-01 WtEn= 1.26D-03
 Coeff-Com: -0.114D-02-0.154D-02 0.139D-01 0.401D-01 0.140D+00 0.362D+00
 Coeff-Com:  0.447D+00
 Coeff-En:   0.000D+00 0.000D+00 0.000D+00 0.000D+00 0.000D+00 0.508D-01
 Coeff-En:   0.949D+00
 Coeff:     -0.114D-02-0.154D-02 0.139D-01 0.401D-01 0.140D+00 0.362D+00
 Coeff:      0.447D+00
 Gap=     0.178 Goal=   None    Shift=    0.000
 RMSDP=5.41D-06 MaxDP=2.57D-04 DE=-3.01D-05 OVMax= 9.68D-04

 Initial convergence to 1.0D-05 achieved.  Increase integral accuracy.
 Cycle   8  Pass 1  IDiag  1:
 E= -400.146446814047     Delta-E=       -0.000044297325 Rises=F Damp=F
 DIIS: error= 3.15D-05 at cycle   1 NSaved=   1.
 NSaved= 1 IEnMin= 1 EnMin= -400.146446814047     IErMin= 1 ErrMin= 3.15D-05
 ErrMax= 3.15D-05  0.00D+00 EMaxC= 1.00D-01 BMatC= 4.03D-07 BMatP= 4.03D-07
 IDIUse=1 WtCom= 1.00D+00 WtEn= 0.00D+00
 Coeff-Com:  0.100D+01
 Coeff:      0.100D+01
 Gap=     0.178 Goal=   None    Shift=    0.000
 RMSDP=5.41D-06 MaxDP=2.57D-04 DE=-4.43D-05 OVMax= 5.97D-04

 Cycle   9  Pass 1  IDiag  1:
 E= -400.146446341660     Delta-E=        0.000000472387 Rises=F Damp=F
 DIIS: error= 5.54D-05 at cycle   2 NSaved=   2.
 NSaved= 2 IEnMin= 1 EnMin= -400.146446814047     IErMin= 1 ErrMin= 3.15D-05
 ErrMax= 5.54D-05  0.00D+00 EMaxC= 1.00D-01 BMatC= 9.29D-07 BMatP= 4.03D-07
 IDIUse=1 WtCom= 1.00D+00 WtEn= 0.00D+00
 Coeff-Com:  0.616D+00 0.384D+00
 Coeff:      0.616D+00 0.384D+00
 Gap=     0.178 Goal=   None    Shift=    0.000
 RMSDP=2.46D-06 MaxDP=1.04D-04 DE= 4.72D-07 OVMax= 4.95D-04

 Cycle  10  Pass 1  IDiag  1:
 E= -400.146447217192     Delta-E=       -0.000000875531 Rises=F Damp=F
 DIIS: error= 9.89D-06 at cycle   3 NSaved=   3.
 NSaved= 3 IEnMin= 3 EnMin= -400.146447217192     IErMin= 3 ErrMin= 9.89D-06
 ErrMax= 9.89D-06  0.00D+00 EMaxC= 1.00D-01 BMatC= 3.16D-08 BMatP= 4.03D-07
 IDIUse=1 WtCom= 1.00D+00 WtEn= 0.00D+00
 Coeff-Com:  0.100D+00 0.165D+00 0.734D+00
 Coeff:      0.100D+00 0.165D+00 0.734D+00
 Gap=     0.178 Goal=   None    Shift=    0.000
 RMSDP=6.02D-07 MaxDP=3.10D-05 DE=-8.76D-07 OVMax= 9.48D-05

 Cycle  11  Pass 1  IDiag  1:
 E= -400.146447237854     Delta-E=       -0.000000020662 Rises=F Damp=F
 DIIS: error= 5.99D-06 at cycle   4 NSaved=   4.
 NSaved= 4 IEnMin= 4 EnMin= -400.146447237854     IErMin= 4 ErrMin= 5.99D-06
 ErrMax= 5.99D-06  0.00D+00 EMaxC= 1.00D-01 BMatC= 1.36D-08 BMatP= 3.16D-08
 IDIUse=1 WtCom= 1.00D+00 WtEn= 0.00D+00
 Coeff-Com:  0.418D-03 0.668D-01 0.484D+00 0.449D+00
 Coeff:      0.418D-03 0.668D-01 0.484D+00 0.449D+00
 Gap=     0.178 Goal=   None    Shift=    0.000
 RMSDP=2.44D-07 MaxDP=1.38D-05 DE=-2.07D-08 OVMax= 3.43D-05

 Cycle  12  Pass 1  IDiag  1:
 E= -400.146447247333     Delta-E=       -0.000000009479 Rises=F Damp=F
 DIIS: error= 1.07D-06 at cycle   5 NSaved=   5.
 NSaved= 5 IEnMin= 5 EnMin= -400.146447247333     IErMin= 5 ErrMin= 1.07D-06
 ErrMax= 1.07D-06  0.00D+00 EMaxC= 1.00D-01 BMatC= 6.21D-10 BMatP= 1.36D-08
 IDIUse=1 WtCom= 1.00D+00 WtEn= 0.00D+00
 Coeff-Com: -0.777D-02 0.231D-01 0.211D+00 0.249D+00 0.524D+00
 Coeff:     -0.777D-02 0.231D-01 0.211D+00 0.249D+00 0.524D+00
 Gap=     0.178 Goal=   None    Shift=    0.000
 RMSDP=6.02D-08 MaxDP=2.93D-06 DE=-9.48D-09 OVMax= 9.25D-06

 Cycle  13  Pass 1  IDiag  1:
 E= -400.146447247743     Delta-E=       -0.000000000411 Rises=F Damp=F
 DIIS: error= 4.85D-07 at cycle   6 NSaved=   6.
 NSaved= 6 IEnMin= 6 EnMin= -400.146447247743     IErMin= 6 ErrMin= 4.85D-07
 ErrMax= 4.85D-07  0.00D+00 EMaxC= 1.00D-01 BMatC= 1.08D-10 BMatP= 6.21D-10
 IDIUse=1 WtCom= 1.00D+00 WtEn= 0.00D+00
 Coeff-Com: -0.505D-02 0.795D-02 0.866D-01 0.115D+00 0.338D+00 0.458D+00
 Coeff:     -0.505D-02 0.795D-02 0.866D-01 0.115D+00 0.338D+00 0.458D+00
 Gap=     0.178 Goal=   None    Shift=    0.000
 RMSDP=2.20D-08 MaxDP=1.28D-06 DE=-4.11D-10 OVMax= 3.88D-06

 Cycle  14  Pass 1  IDiag  1:
 E= -400.146447247835     Delta-E=       -0.000000000092 Rises=F Damp=F
 DIIS: error= 8.65D-08 at cycle   7 NSaved=   7.
 NSaved= 7 IEnMin= 7 EnMin= -400.146447247835     IErMin= 7 ErrMin= 8.65D-08
 ErrMax= 8.65D-08  0.00D+00 EMaxC= 1.00D-01 BMatC= 3.06D-12 BMatP= 1.08D-10
 IDIUse=1 WtCom= 1.00D+00 WtEn= 0.00D+00
 Coeff-Com: -0.109D-02 0.110D-02 0.138D-01 0.218D-01 0.817D-01 0.197D+00
 Coeff-Com:  0.686D+00
 Coeff:     -0.109D-02 0.110D-02 0.138D-01 0.218D-01 0.817D-01 0.197D+00
 Coeff:      0.686D+00
 Gap=     0.178 Goal=   None    Shift=    0.000
 RMSDP=4.49D-09 MaxDP=2.08D-07 DE=-9.16D-11 OVMax= 5.48D-07

 SCF Done:  E(RB3LYP) =  -400.146447248     A.U. after   14 cycles
            NFock= 14  Conv=0.45D-08     -V/T= 2.0038
 KE= 3.986336288044D+02 PE=-1.649670203008D+03 EE= 4.940362254655D+02
 Leave Link  502 at Fri Aug 27 00:35:30 2021, MaxMem= 17179869184 cpu:       351.3
 (Enter /public3/home/sc51754/softwares/g09e01/l601.exe)
 Copying SCF densities to generalized density rwf, IOpCl= 0 IROHF=0.

 **********************************************************************

            Population analysis using the SCF density.

 **********************************************************************

 Orbital symmetries:
       Occupied  (A) (A) (A) (A) (A) (A) (A) (A) (A) (A) (A) (A)
                 (A) (A) (A) (A) (A) (A) (A) (A) (A) (A) (A) (A)
                 (A) (A) (A) (A) (A) (A)
       Virtual   (A) (A) (A) (A) (A) (A) (A) (A) (A) (A) (A) (A)
                 (A) (A) (A) (A) (A) (A) (A) (A) (A) (A) (A) (A)
                 (A) (A) (A) (A) (A) (A) (A) (A) (A) (A) (A) (A)
                 (A) (A) (A) (A) (A) (A) (A) (A) (A) (A) (A) (A)
                 (A) (A) (A) (A) (A) (A) (A) (A) (A) (A) (A) (A)
                 (A) (A) (A) (A) (A) (A) (A) (A) (A) (A) (A) (A)
                 (A) (A) (A) (A) (A) (A) (A) (A) (A) (A) (A) (A)
                 (A) (A) (A) (A) (A) (A) (A) (A) (A) (A) (A) (A)
                 (A) (A) (A) (A) (A) (A) (A) (A) (A) (A) (A) (A)
                 (A) (A) (A) (A) (A) (A) (A) (A) (A) (A) (A) (A)
                 (A) (A) (A) (A) (A) (A) (A) (A) (A) (A) (A) (A)
                 (A) (A) (A) (A) (A) (A) (A) (A) (A) (A) (A) (A)
                 (A) (A) (A) (A) (A) (A) (A) (A) (A) (A) (A) (A)
                 (A) (A) (A) (A) (A) (A) (A) (A) (A) (A) (A) (A)
                 (A) (A) (A) (A) (A) (A) (A) (A) (A) (A) (A) (A)
                 (A) (A) (A) (A) (A) (A) (A) (A) (A) (A) (A) (A)
                 (A) (A) (A) (A) (A) (A) (A) (A) (A) (A) (A) (A)
                 (A) (A) (A) (A) (A) (A) (A) (A) (A) (A) (A) (A)
                 (A) (A) (A) (A) (A) (A) (A) (A) (A) (A) (A) (A)
                 (A) (A) (A) (A) (A) (A) (A) (A) (A) (A) (A) (A)
                 (A) (A) (A) (A) (A) (A) (A) (A) (A) (A) (A) (A)
                 (A) (A) (A) (A) (A) (A) (A) (A) (A) (A) (A) (A)
                 (A) (A) (A) (A) (A) (A) (A) (A) (A) (A) (A) (A)
                 (A) (A) (A) (A) (A) (A) (A) (A) (A) (A) (A) (A)
                 (A) (A) (A) (A) (A) (A) (A) (A) (A) (A) (A) (A)
                 (A) (A) (A) (A) (A) (A) (A) (A)
 The electronic state is 1-A.
 Alpha  occ. eigenvalues --  -19.11551 -19.09217 -14.37707 -10.28352 -10.24425
 Alpha  occ. eigenvalues --  -10.20866 -10.19168 -10.18891  -1.04748  -1.00056
 Alpha  occ. eigenvalues --   -0.96801  -0.83187  -0.77077  -0.66635  -0.64899
 Alpha  occ. eigenvalues --   -0.57293  -0.53378  -0.51686  -0.49397  -0.47481
 Alpha  occ. eigenvalues --   -0.45319  -0.44379  -0.40353  -0.39382  -0.37923
 Alpha  occ. eigenvalues --   -0.35870  -0.32159  -0.31356  -0.27343  -0.23667
 Alpha virt. eigenvalues --   -0.05846  -0.00858   0.00759   0.02313   0.03486
 Alpha virt. eigenvalues --    0.05216   0.07318   0.09770   0.11237   0.11618
 Alpha virt. eigenvalues --    0.13425   0.14434   0.15736   0.17504   0.18012
 Alpha virt. eigenvalues --    0.18390   0.19679   0.20680   0.21963   0.24461
 Alpha virt. eigenvalues --    0.25660   0.26551   0.27117   0.27256   0.27655
 Alpha virt. eigenvalues --    0.29332   0.30027   0.30707   0.32851   0.33360
 Alpha virt. eigenvalues --    0.34330   0.34913   0.36382   0.38575   0.39303
 Alpha virt. eigenvalues --    0.40549   0.41699   0.44026   0.45087   0.47837
 Alpha virt. eigenvalues --    0.49058   0.50719   0.52075   0.53631   0.55167
 Alpha virt. eigenvalues --    0.56084   0.59516   0.61492   0.62581   0.62863
 Alpha virt. eigenvalues --    0.65659   0.66910   0.70725   0.73532   0.75055
 Alpha virt. eigenvalues --    0.75546   0.77963   0.80306   0.81183   0.83923
 Alpha virt. eigenvalues --    0.86315   0.88634   0.91136   0.91678   0.92092
 Alpha virt. eigenvalues --    0.94136   0.96823   0.98689   1.00691   1.03738
 Alpha virt. eigenvalues --    1.05697   1.06781   1.08801   1.10258   1.11898
 Alpha virt. eigenvalues --    1.13127   1.14109   1.16172   1.16437   1.17802
 Alpha virt. eigenvalues --    1.19598   1.21391   1.23121   1.23962   1.24696
 Alpha virt. eigenvalues --    1.25917   1.27442   1.31332   1.32901   1.37371
 Alpha virt. eigenvalues --    1.38919   1.39759   1.41028   1.43958   1.45171
 Alpha virt. eigenvalues --    1.46451   1.47189   1.47671   1.49243   1.52453
 Alpha virt. eigenvalues --    1.55727   1.57749   1.60036   1.64240   1.64381
 Alpha virt. eigenvalues --    1.65592   1.67541   1.67811   1.72027   1.72327
 Alpha virt. eigenvalues --    1.77535   1.78137   1.80250   1.84686   1.85339
 Alpha virt. eigenvalues --    1.87517   1.88272   1.89854   1.92303   1.95672
 Alpha virt. eigenvalues --    1.99709   2.00533   2.01465   2.05277   2.05558
 Alpha virt. eigenvalues --    2.08970   2.11151   2.14163   2.15244   2.19807
 Alpha virt. eigenvalues --    2.20349   2.21098   2.23057   2.26102   2.29473
 Alpha virt. eigenvalues --    2.30876   2.40663   2.48699   2.51747   2.61163
 Alpha virt. eigenvalues --    2.67043   2.85108   2.88062   2.90905   2.93254
 Alpha virt. eigenvalues --    2.93674   2.99937   3.16143   3.17296   3.19399
 Alpha virt. eigenvalues --    3.21102   3.23272   3.23678   3.27396   3.30202
 Alpha virt. eigenvalues --    3.31309   3.34073   3.37253   3.40295   3.41313
 Alpha virt. eigenvalues --    3.44385   3.46134   3.49388   3.53179   3.53970
 Alpha virt. eigenvalues --    3.55812   3.57778   3.62236   3.62986   3.64979
 Alpha virt. eigenvalues --    3.66266   3.66908   3.70401   3.70619   3.74809
 Alpha virt. eigenvalues --    3.78273   3.82789   3.85500   3.88846   3.88935
 Alpha virt. eigenvalues --    3.92055   3.93230   3.94186   3.95572   3.98166
 Alpha virt. eigenvalues --    4.01225   4.02485   4.04471   4.05842   4.06769
 Alpha virt. eigenvalues --    4.07843   4.09006   4.11748   4.12808   4.14419
 Alpha virt. eigenvalues --    4.16075   4.16776   4.19548   4.20207   4.21319
 Alpha virt. eigenvalues --    4.22931   4.23755   4.25589   4.26152   4.28027
 Alpha virt. eigenvalues --    4.28380   4.30844   4.31198   4.32437   4.32820
 Alpha virt. eigenvalues --    4.34524   4.36122   4.39042   4.40512   4.43039
 Alpha virt. eigenvalues --    4.44186   4.45477   4.46121   4.47124   4.48067
 Alpha virt. eigenvalues --    4.49957   4.50873   4.53290   4.53855   4.57003
 Alpha virt. eigenvalues --    4.57877   4.58010   4.61979   4.62009   4.65186
 Alpha virt. eigenvalues --    4.67829   4.69374   4.72210   4.76821   4.81365
 Alpha virt. eigenvalues --    4.83426   4.85234   4.86836   4.88022   4.90902
 Alpha virt. eigenvalues --    4.91491   4.94555   4.94645   4.95949   4.97642
 Alpha virt. eigenvalues --    5.01467   5.05507   5.08692   5.12883   5.17329
 Alpha virt. eigenvalues --    5.18733   5.23261   5.24788   5.30113   5.30764
 Alpha virt. eigenvalues --    5.32958   5.34016   5.38215   5.39646   5.41287
 Alpha virt. eigenvalues --    5.46240   5.46665   5.53420   5.55558   5.57662
 Alpha virt. eigenvalues --    5.57769   5.62628   5.67348   5.69942   5.71616
 Alpha virt. eigenvalues --    5.74973   5.79743   5.84338   5.90224   5.94655
 Alpha virt. eigenvalues --    5.95363   5.96605   6.02623   6.07863   6.08921
 Alpha virt. eigenvalues --    6.10855   6.14573   6.20508   6.23774   6.26105
 Alpha virt. eigenvalues --    6.28874   6.32352   6.36972   6.42562   6.50037
 Alpha virt. eigenvalues --    6.51912   6.52647   6.60569   6.78252   6.88960
 Alpha virt. eigenvalues --    6.94851   6.98528   7.10231   7.22718   7.41341
 Alpha virt. eigenvalues --    9.50745  12.31051  13.17940  14.71950  15.39149
 Alpha virt. eigenvalues --   17.98135  18.33893  22.74889
          Condensed to atoms (all electrons):
               1          2          3          4          5          6
     1  O    8.158224  -0.107821   0.537592  -0.071489   0.009225   0.006897
     2  N   -0.107821   6.390591   0.362301  -0.046226   0.385172  -0.018143
     3  C    0.537592   0.362301   4.362619   0.454658  -0.038793  -0.043674
     4  C   -0.071489  -0.046226   0.454658   4.929055  -0.035913   0.536638
     5  C    0.009225   0.385172  -0.038793  -0.035913   4.623133  -0.079624
     6  C    0.006897  -0.018143  -0.043674   0.536638  -0.079624   4.750469
     7  C    0.001466  -0.060850  -0.025298  -0.069781   0.594689   0.452557
     8  H    0.037829   0.002010  -0.003744   0.000728   0.002061  -0.000273
     9  H    0.005423   0.006100  -0.041628   0.442077  -0.000569  -0.036015
    10  H   -0.000787  -0.036759   0.002761  -0.003233   0.431022   0.008302
    11  H   -0.000514  -0.002270   0.007524  -0.034496   0.008947   0.426730
    12  H    0.000028   0.005864  -0.001099   0.006698  -0.031964  -0.035341
    13  O   -0.037784  -0.031690   0.000984   0.000134  -0.005082   0.000096
    14  H    0.003369   0.000514   0.000736   0.000119   0.000035  -0.000017
    15  H    0.001157   0.392870  -0.024989   0.007143  -0.027336  -0.002558
               7          8          9         10         11         12
     1  O    0.001466   0.037829   0.005423  -0.000787  -0.000514   0.000028
     2  N   -0.060850   0.002010   0.006100  -0.036759  -0.002270   0.005864
     3  C   -0.025298  -0.003744  -0.041628   0.002761   0.007524  -0.001099
     4  C   -0.069781   0.000728   0.442077  -0.003233  -0.034496   0.006698
     5  C    0.594689   0.002061  -0.000569   0.431022   0.008947  -0.031964
     6  C    0.452557  -0.000273  -0.036015   0.008302   0.426730  -0.035341
     7  C    4.865036  -0.000057   0.007399  -0.040699  -0.043088   0.436682
     8  H   -0.000057   0.404820   0.000128   0.000167   0.000005  -0.000014
     9  H    0.007399   0.000128   0.571216   0.000290  -0.008767  -0.000029
    10  H   -0.040699   0.000167   0.000290   0.593524  -0.000359  -0.004552
    11  H   -0.043088   0.000005  -0.008767  -0.000359   0.597832  -0.007139
    12  H    0.436682  -0.000014  -0.000029  -0.004552  -0.007139   0.584391
    13  O   -0.000129   0.342556   0.000033  -0.000778  -0.000003   0.000024
    14  H    0.000030  -0.020863  -0.000006  -0.000053   0.000001   0.000000
    15  H    0.005506  -0.010511  -0.000448  -0.009544   0.000200   0.000050
              13         14         15
     1  O   -0.037784   0.003369   0.001157
     2  N   -0.031690   0.000514   0.392870
     3  C    0.000984   0.000736  -0.024989
     4  C    0.000134   0.000119   0.007143
     5  C   -0.005082   0.000035  -0.027336
     6  C    0.000096  -0.000017  -0.002558
     7  C   -0.000129   0.000030   0.005506
     8  H    0.342556  -0.020863  -0.010511
     9  H    0.000033  -0.000006  -0.000448
    10  H   -0.000778  -0.000053  -0.009544
    11  H   -0.000003   0.000001   0.000200
    12  H    0.000024   0.000000   0.000050
    13  O    7.793201   0.350616   0.054102
    14  H    0.350616   0.462142  -0.003534
    15  H    0.054102  -0.003534   0.445923
 Mulliken charges:
               1
     1  O   -0.542816
     2  N   -0.241663
     3  C    0.450050
     4  C   -0.116108
     5  C    0.164996
     6  C    0.033955
     7  C   -0.123462
     8  H    0.245158
     9  H    0.054796
    10  H    0.060697
    11  H    0.055397
    12  H    0.046401
    13  O   -0.466280
    14  H    0.206911
    15  H    0.171969
 Sum of Mulliken charges =  -0.00000
 Mulliken charges with hydrogens summed into heavy atoms:
               1
     1  O   -0.542816
     2  N   -0.069695
     3  C    0.450050
     4  C   -0.061312
     5  C    0.225693
     6  C    0.089352
     7  C   -0.077061
    13  O   -0.014211
 Electronic spatial extent (au):  <R**2>=           1080.8156
 Charge=             -0.0000 electrons
 Dipole moment (field-independent basis, Debye):
    X=             -2.5168    Y=             -2.1961    Z=              1.1227  Tot=              3.5239
 Quadrupole moment (field-independent basis, Debye-Ang):
   XX=            -41.9025   YY=            -46.0692   ZZ=            -49.9344
   XY=             -2.1372   XZ=              4.7805   YZ=             -0.8857
 Traceless Quadrupole moment (field-independent basis, Debye-Ang):
   XX=              4.0662   YY=             -0.1005   ZZ=             -3.9657
   XY=             -2.1372   XZ=              4.7805   YZ=             -0.8857
 Octapole moment (field-independent basis, Debye-Ang**2):
  XXX=             23.3941  YYY=            -12.0720  ZZZ=              0.7523  XYY=             -6.5614
  XXY=              0.4414  XXZ=             18.8131  XZZ=             11.3108  YZZ=              0.6261
  YYZ=              0.6127  XYZ=             -3.3167
 Hexadecapole moment (field-independent basis, Debye-Ang**3):
 XXXX=           -775.1383 YYYY=           -353.9649 ZZZZ=            -55.0535 XXXY=             -4.6423
 XXXZ=             76.2266 YYYX=            -13.3188 YYYZ=             -0.8833 ZZZX=              3.6577
 ZZZY=             -0.5730 XXYY=           -221.6709 XXZZ=           -176.5415 YYZZ=            -78.1134
 XXYZ=            -12.7520 YYXZ=              2.8364 ZZXY=             -2.2721
 N-N= 3.568539014902D+02 E-N=-1.649670216856D+03  KE= 3.986336288044D+02
 No NMR shielding tensors so no spin-rotation constants.
 Leave Link  601 at Fri Aug 27 00:35:31 2021, MaxMem= 17179869184 cpu:        49.9
 (Enter /public3/home/sc51754/softwares/g09e01/l701.exe)
 Compute integral first derivatives.
 ... and contract with generalized density number  0.
 Leave Link  701 at Fri Aug 27 00:35:32 2021, MaxMem= 17179869184 cpu:        70.1
 (Enter /public3/home/sc51754/softwares/g09e01/l702.exe)
 L702 exits ... SP integral derivatives will be done elsewhere.
 Leave Link  702 at Fri Aug 27 00:35:32 2021, MaxMem= 17179869184 cpu:         0.2
 (Enter /public3/home/sc51754/softwares/g09e01/l703.exe)
 Compute integral first derivatives, UseDBF=F ICtDFT=           0.
 Integral derivatives from FoFJK, PRISM(SPDF).
 Calling FoFJK, ICntrl=      2127 FMM=F ISym2X=0 I1Cent= 0 IOpClX= 0 NMat=1 NMatS=1 NMatT=0.
 FoFJK:  IHMeth= 1 ICntrl=    2127 DoSepK=F KAlg= 0 I1Cent=   0 FoldK=F
 IRaf=         0 NMat=   1 IRICut=       1 DoRegI=T DoRafI=F ISym2E= 0.
 FoFCou: FMM=F IPFlag=           0 FMFlag=      100000 FMFlg1=         800
         NFxFlg=           0 DoJE=F BraDBF=F KetDBF=F FulRan=T
         wScrn=  0.000000 ICntrl=    2127 IOpCl=  0 I1Cent=           0 NGrid=           0
         NMat0=    1 NMatS0=      1 NMatT0=    0 NMatD0=    1 NMtDS0=    0 NMtDT0=    0
 Symmetry not used in FoFCou.
 Leave Link  703 at Fri Aug 27 00:35:36 2021, MaxMem= 17179869184 cpu:       239.6
 (Enter /public3/home/sc51754/softwares/g09e01/l716.exe)
 Dipole        =-9.90195174D-01-8.64013419D-01 4.41700298D-01
 ***** Axes restored to original set *****
 -------------------------------------------------------------------
 Center     Atomic                   Forces (Hartrees/Bohr)
 Number     Number              X              Y              Z
 -------------------------------------------------------------------
      1        8          -0.000494855   -0.000276129    0.000070932
      2        7          -0.000115195   -0.000194642   -0.000030469
      3        6           0.000722790    0.000543031    0.000049061
      4        6          -0.000304854   -0.000189774   -0.000033911
      5        6          -0.000252246    0.000127211    0.000040502
      6        6           0.000198519    0.000125983    0.000011634
      7        6           0.000159406   -0.000106683   -0.000024461
      8        1           0.000278127   -0.000290020   -0.000222710
      9        1           0.000032655   -0.000034252   -0.000005254
     10        1           0.000024755   -0.000017365   -0.000011684
     11        1           0.000013386   -0.000008946   -0.000002582
     12        1          -0.000035496    0.000003781    0.000002310
     13        8          -0.000332372    0.000342250    0.000459816
     14        1          -0.000169713   -0.000016282   -0.000242755
     15        1           0.000275091   -0.000008161   -0.000060427
 -------------------------------------------------------------------
 Cartesian Forces:  Max     0.000722790 RMS     0.000227287
 Leave Link  716 at Fri Aug 27 00:35:37 2021, MaxMem= 17179869184 cpu:         0.4
 (Enter /public3/home/sc51754/softwares/g09e01/l103.exe)

 GradGradGradGradGradGradGradGradGradGradGradGradGradGradGradGradGradGrad
 Berny optimization.
 FormGI is forming the generalized inverse of G from B-inverse, IUseBI=4.
 Internal  Forces:  Max     0.000541015 RMS     0.000107343
 Search for a local minimum.
 Step number   1 out of a maximum of   83
 All quantities printed in internal units (Hartrees-Bohrs-Radians)
 RMS Force = .10734D-03 SwitMx=.10000D-02 MixMth= 2
 Mixed Optimization -- En-DIIS/RFO-DIIS
 Second derivative matrix not updated -- first step.
 ITU=  0
     Eigenvalues ---    0.00646   0.00900   0.01671   0.02019   0.02045
     Eigenvalues ---    0.02138   0.02190   0.02305   0.02392   0.02435
     Eigenvalues ---    0.02516   0.04986   0.06334   0.06909   0.09520
     Eigenvalues ---    0.16000   0.16000   0.16000   0.16000   0.19047
     Eigenvalues ---    0.20437   0.21968   0.22000   0.22256   0.23654
     Eigenvalues ---    0.35693   0.35983   0.36053   0.36229   0.38136
     Eigenvalues ---    0.40185   0.42590   0.44184   0.49041   0.49982
     Eigenvalues ---    0.52121   0.53321   0.55542   0.84771
 RFO step:  Lambda=-3.30253138D-06 EMin= 6.46442552D-03
 Linear search not attempted -- first point.
 Iteration  1 RMS(Cart)=  0.00069810 RMS(Int)=  0.00000105
 Iteration  2 RMS(Cart)=  0.00000075 RMS(Int)=  0.00000036
 ITry= 1 IFail=0 DXMaxC= 3.45D-03 DCOld= 1.00D+10 DXMaxT= 3.00D-01 DXLimC= 3.00D+00 Rises=F
 Variable       Old X    -DE/DX   Delta X   Delta X   Delta X     New X
                                 (Linear)    (Quad)   (Total)
    R1        2.33752  -0.00054   0.00000  -0.00065  -0.00065   2.33687
    R2        3.44231   0.00001   0.00000  -0.00067  -0.00067   3.44164
    R3        2.63700   0.00017   0.00000   0.00045   0.00045   2.63745
    R4        2.56181   0.00005   0.00000   0.00011   0.00011   2.56192
    R5        1.92716   0.00002   0.00000   0.00017   0.00017   1.92733
    R6        2.72061   0.00006   0.00000   0.00014   0.00014   2.72076
    R7        2.57451  -0.00021   0.00000  -0.00042  -0.00042   2.57408
    R8        2.03999  -0.00004   0.00000  -0.00010  -0.00010   2.03989
    R9        2.56943  -0.00019   0.00000  -0.00037  -0.00037   2.56906
   R10        2.04108   0.00002   0.00000   0.00006   0.00006   2.04114
   R11        2.67927  -0.00001   0.00000  -0.00005  -0.00005   2.67922
   R12        2.04565  -0.00002   0.00000  -0.00004  -0.00004   2.04560
   R13        2.03725   0.00003   0.00000   0.00007   0.00007   2.03732
   R14        1.85494  -0.00039   0.00000  -0.00083  -0.00083   1.85411
   R15        1.81354  -0.00029   0.00000  -0.00052  -0.00052   1.81302
   R16        3.72662  -0.00024   0.00000  -0.00430  -0.00430   3.72232
    A1        1.92766   0.00002   0.00000  -0.00068  -0.00069   1.92697
    A2        2.17565   0.00002   0.00000   0.00009   0.00009   2.17574
    A3        2.00244  -0.00010   0.00000  -0.00023  -0.00023   2.00220
    A4        2.10509   0.00007   0.00000   0.00014   0.00014   2.10523
    A5        2.09773   0.00012   0.00000   0.00037   0.00037   2.09810
    A6        2.19333   0.00005   0.00000   0.00017   0.00017   2.19350
    A7        1.99213  -0.00017   0.00000  -0.00054  -0.00054   1.99159
    A8        2.11557   0.00008   0.00000   0.00032   0.00032   2.11589
    A9        2.03563  -0.00007   0.00000  -0.00035  -0.00035   2.03527
   A10        2.13199  -0.00001   0.00000   0.00004   0.00004   2.13202
   A11        2.10801   0.00002   0.00000   0.00017   0.00017   2.10818
   A12        2.02357  -0.00003   0.00000  -0.00022  -0.00022   2.02336
   A13        2.15160   0.00001   0.00000   0.00005   0.00005   2.15165
   A14        2.11704   0.00006   0.00000   0.00017   0.00017   2.11720
   A15        2.08601  -0.00003   0.00000  -0.00007  -0.00007   2.08594
   A16        2.08014  -0.00003   0.00000  -0.00010  -0.00010   2.08004
   A17        2.05796  -0.00003   0.00000  -0.00020  -0.00020   2.05776
   A18        2.10191   0.00004   0.00000   0.00026   0.00026   2.10217
   A19        2.12331  -0.00001   0.00000  -0.00006  -0.00006   2.12325
   A20        2.65557  -0.00005   0.00000  -0.00050  -0.00050   2.65506
   A21        1.86229  -0.00001   0.00000   0.00046   0.00046   1.86275
   A22        1.36782   0.00013   0.00000   0.00125   0.00124   1.36906
   A23        2.34644   0.00008   0.00000   0.00098   0.00098   2.34742
   A24        2.50984  -0.00012   0.00000  -0.00004  -0.00004   2.50980
    D1        0.03186  -0.00000   0.00000   0.00034   0.00034   0.03220
    D2       -3.10924   0.00002   0.00000   0.00112   0.00112  -3.10812
    D3        0.03871  -0.00007   0.00000  -0.00472  -0.00472   0.03399
    D4       -3.13629   0.00001   0.00000   0.00022   0.00022  -3.13607
    D5        0.00485  -0.00001   0.00000  -0.00047  -0.00047   0.00438
    D6        0.00787   0.00002   0.00000   0.00049   0.00049   0.00836
    D7       -3.13417  -0.00001   0.00000  -0.00020  -0.00020  -3.13437
    D8       -0.00292   0.00001   0.00000   0.00044   0.00044  -0.00248
    D9        3.13789  -0.00000   0.00000  -0.00002  -0.00002   3.13788
   D10        3.13597   0.00001   0.00000   0.00015   0.00015   3.13611
   D11       -0.00641  -0.00000   0.00000  -0.00030  -0.00030  -0.00671
   D12       -0.10803   0.00002   0.00000  -0.00024  -0.00024  -0.10827
   D13        3.03601   0.00002   0.00000   0.00002   0.00002   3.03604
   D14        3.13723  -0.00002   0.00000  -0.00038  -0.00038   3.13685
   D15       -0.00200  -0.00001   0.00000  -0.00037  -0.00037  -0.00237
   D16       -0.00389   0.00001   0.00000   0.00036   0.00036  -0.00353
   D17        3.14007   0.00001   0.00000   0.00036   0.00036   3.14043
   D18        0.00117  -0.00001   0.00000  -0.00022  -0.00022   0.00095
   D19       -3.13978  -0.00000   0.00000  -0.00003  -0.00003  -3.13981
   D20        3.14027  -0.00001   0.00000  -0.00023  -0.00023   3.14004
   D21       -0.00068  -0.00000   0.00000  -0.00004  -0.00004  -0.00072
   D22       -0.00027  -0.00000   0.00000  -0.00025  -0.00025  -0.00052
   D23        3.14059  -0.00000   0.00000  -0.00016  -0.00016   3.14043
   D24       -3.14103   0.00001   0.00000   0.00024   0.00024  -3.14079
   D25       -0.00016   0.00001   0.00000   0.00033   0.00033   0.00016
   D26        0.00106   0.00000   0.00000   0.00015   0.00015   0.00121
   D27       -3.13980   0.00000   0.00000   0.00006   0.00006  -3.13974
   D28       -3.14118  -0.00000   0.00000  -0.00004  -0.00004  -3.14121
   D29        0.00115  -0.00000   0.00000  -0.00013  -0.00013   0.00103
   D30       -2.40197  -0.00004   0.00000   0.00289   0.00289  -2.39907
   D31       -0.07714   0.00007   0.00000   0.00418   0.00418  -0.07295
   D32        0.12809  -0.00004   0.00000  -0.00147  -0.00148   0.12661
   D33        1.90956   0.00006   0.00000   0.00037   0.00037   1.90992
         Item               Value     Threshold  Converged?
 Maximum Force            0.000541     0.000450     NO 
 RMS     Force            0.000107     0.000300     YES
 Maximum Displacement     0.003454     0.001800     NO 
 RMS     Displacement     0.000698     0.001200     YES
 Predicted change in Energy=-1.651267D-06
 Lowest energy point so far.  Saving SCF results.
 GradGradGradGradGradGradGradGradGradGradGradGradGradGradGradGradGradGrad

 Leave Link  103 at Fri Aug 27 00:35:37 2021, MaxMem= 17179869184 cpu:        22.1
 (Enter /public3/home/sc51754/softwares/g09e01/l202.exe)
                          Input orientation:                          
 ---------------------------------------------------------------------
 Center     Atomic      Atomic             Coordinates (Angstroms)
 Number     Number       Type             X           Y           Z
 ---------------------------------------------------------------------
      1          8           0        1.261571    1.388209    0.005648
      2          7           0        0.249747   -0.658813    0.011793
      3          6           0        0.210737    0.736310    0.006400
      4          6           0       -1.119349    1.287446    0.000602
      5          6           0       -0.843352   -1.460721    0.006894
      6          6           0       -2.217678    0.481779   -0.003523
      7          6           0       -2.095238   -0.930702   -0.001127
      8          1           0        2.700669    0.273055   -0.042663
      9          1           0       -1.196618    2.364135   -0.002568
     10          1           0       -0.649598   -2.523327    0.008570
     11          1           0       -3.204840    0.925909   -0.009520
     12          1           0       -2.960653   -1.573619   -0.006072
     13          8           0        3.104841   -0.619955   -0.085482
     14          1           0        3.832001   -0.624254    0.540364
     15          1           0        1.187714   -1.059185    0.022618
 ---------------------------------------------------------------------
                    Distance matrix (angstroms):
                    1          2          3          4          5
     1  O    0.000000
     2  N    2.283446   0.000000
     3  C    1.236619   1.395679   0.000000
     4  C    2.383058   2.379595   1.439762   0.000000
     5  C    3.542190   1.355708   2.436811   2.761999   0.000000
     6  C    3.595397   2.718339   2.441737   1.362146   2.379535
     7  C    4.079898   2.360729   2.845436   2.423333   1.359486
     8  H    1.821237   2.622664   2.533135   3.952645   3.945697
     9  H    2.644843   3.351178   2.151869   1.079462   3.841147
    10  H    4.353469   2.070082   3.371262   3.839625   1.080127
    11  H    4.490299   3.800785   3.420872   2.116621   3.357514
    12  H    5.157494   3.338241   3.923473   3.402372   2.120348
    13  O    2.727393   2.857016   3.197458   4.635664   4.037778
    14  H    3.308026   3.621206   3.905100   5.334961   4.779456
    15  H    2.448567   1.019901   2.044150   3.290852   2.070436
                    6          7          8          9         10
     6  C    0.000000
     7  C    1.417780   0.000000
     8  H    4.922929   4.944843   0.000000
     9  H    2.141455   3.415182   4.423015   0.000000
    10  H    3.389643   2.150912   4.364248   4.917991   0.000000
    11  H    1.082486   2.162936   5.941578   2.470121   4.292647
    12  H    2.185561   1.078105   5.955007   4.314827   2.498627
    13  O    5.435968   5.210039   0.981150   5.235859   4.210402
    14  H    6.173956   5.959806   1.557240   5.874713   4.896327
    15  H    3.737907   3.285551   2.016968   4.171905   2.349387
                   11         12         13         14         15
    11  H    0.000000
    12  H    2.511429   0.000000
    13  O    6.496734   6.140521   0.000000
    14  H    7.226515   6.880410   0.959408   0.000000
    15  H    4.820390   4.180241   1.969768   2.729374   0.000000
 Stoichiometry    C5H7NO2
 Framework group  C1[X(C5H7NO2)]
 Deg. of freedom    39
 Full point group                 C1      NOp   1
 RotChk:  IX=0 Diff= 1.55D-04
 Largest Abelian subgroup         C1      NOp   1
 Largest concise Abelian subgroup C1      NOp   1
                         Standard orientation:                         
 ---------------------------------------------------------------------
 Center     Atomic      Atomic             Coordinates (Angstroms)
 Number     Number       Type             X           Y           Z
 ---------------------------------------------------------------------
      1          8           0        1.261742    1.388042    0.005480
      2          7           0        0.249692   -0.658869    0.011625
      3          6           0        0.210836    0.736258    0.006232
      4          6           0       -1.119190    1.287540    0.000434
      5          6           0       -0.843495   -1.460657    0.006726
      6          6           0       -2.217607    0.481994   -0.003691
      7          6           0       -2.095322   -0.930501   -0.001296
      8          1           0        2.700717    0.272730   -0.042831
      9          1           0       -1.196340    2.364238   -0.002736
     10          1           0       -0.649857   -2.523284    0.008402
     11          1           0       -3.204720    0.926232   -0.009689
     12          1           0       -2.960808   -1.573322   -0.006240
     13          8           0        3.104791   -0.620325   -0.085650
     14          1           0        3.831951   -0.624704    0.540196
     15          1           0        1.187615   -1.059345    0.022450
 ---------------------------------------------------------------------
 Rotational constants (GHZ):      4.0245216      1.3984473      1.0395434
 Leave Link  202 at Fri Aug 27 00:35:37 2021, MaxMem= 17179869184 cpu:         5.2
 (Enter /public3/home/sc51754/softwares/g09e01/l301.exe)
 Basis read from rwf:  (5D, 7F)
 No pseudopotential information found on rwf file.
 There are   385 symmetry adapted cartesian basis functions of A   symmetry.
 There are   338 symmetry adapted basis functions of A   symmetry.
   338 basis functions,   566 primitive gaussians,   385 cartesian basis functions
    30 alpha electrons       30 beta electrons
       nuclear repulsion energy       356.8996358534 Hartrees.
 IExCor=  402 DFT=T Ex+Corr=B3LYP ExCW=0 ScaHFX=  0.200000
 ScaDFX=  0.800000  0.720000  1.000000  0.810000 ScalE2=  1.000000  1.000000
 IRadAn=      0 IRanWt=     -1 IRanGd=            0 ICorTp=0 IEmpDi=  4
 NAtoms=   15 NActive=   15 NUniq=   15 SFac= 1.00D+00 NAtFMM=   60 NAOKFM=F Big=F
 Integral buffers will be    131072 words long.
 Raffenetti 2 integral format.
 Two-electron integral symmetry is turned on.
 No density basis found on file   724.
 Leave Link  301 at Fri Aug 27 00:35:37 2021, MaxMem= 17179869184 cpu:         1.0
 (Enter /public3/home/sc51754/softwares/g09e01/l302.exe)
 NPDir=0 NMtPBC=     1 NCelOv=     1 NCel=       1 NClECP=     1 NCelD=      1
         NCelK=      1 NCelE2=     1 NClLst=     1 CellRange=     0.0.
 One-electron integrals computed using PRISM.
 NBasis=   338 RedAO= T EigKep=  1.57D-04  NBF=   338
 NBsUse=   338 1.00D-06 EigRej= -1.00D+00 NBFU=   338
 Precomputing XC quadrature grid using
 IXCGrd= 4 IRadAn=           0 IRanWt=          -1 IRanGd=           0 AccXCQ= 0.00D+00.
 Generated NRdTot=       0 NPtTot=           0 NUsed=           0 NTot=          32
 NSgBfM=   385   385   385   385   385 MxSgAt=    15 MxSgA2=    15.
 Leave Link  302 at Fri Aug 27 00:35:38 2021, MaxMem= 17179869184 cpu:        48.6
 (Enter /public3/home/sc51754/softwares/g09e01/l303.exe)
 DipDrv:  MaxL=1.
 Leave Link  303 at Fri Aug 27 00:35:39 2021, MaxMem= 17179869184 cpu:        10.4
 (Enter /public3/home/sc51754/softwares/g09e01/l401.exe)
 Initial guess from the checkpoint file:  "PY_H2O_B3LYP_PC2_OPT_FREQ.chk"
 B after Tr=    -0.000000    0.000000   -0.000000
         Rot=    1.000000   -0.000005    0.000029    0.000066 Ang=  -0.01 deg.
 Guess basis will be translated and rotated to current coordinates.
 JPrj=2 DoOrth=T DoCkMO=T.
 Leave Link  401 at Fri Aug 27 00:35:40 2021, MaxMem= 17179869184 cpu:        40.4
 (Enter /public3/home/sc51754/softwares/g09e01/l502.exe)
 Closed shell SCF:
 Using DIIS extrapolation, IDIIS=  1040.
 Integral symmetry usage will be decided dynamically.
 Keep R1 ints in memory in canonical form, NReq=1670404686.
 IVT=      490665 IEndB=      490665 NGot= 17179869184 MDV= 15538220534
 LenX= 15538220534 LenY= 15538071868
 Requested convergence on RMS density matrix=1.00D-08 within 128 cycles.
 Requested convergence on MAX density matrix=1.00D-06.
 Requested convergence on             energy=1.00D-06.
 No special actions if energy rises.
 FoFCou: FMM=F IPFlag=           0 FMFlag=           0 FMFlg1=           0
         NFxFlg=           0 DoJE=F BraDBF=F KetDBF=F FulRan=T
         wScrn=  0.000000 ICntrl=     600 IOpCl=  0 I1Cent=           0 NGrid=           0
         NMat0=    1 NMatS0=  57291 NMatT0=    0 NMatD0=    1 NMtDS0=    0 NMtDT0=    0
 Symmetry not used in FoFCou.

 Cycle   1  Pass 1  IDiag  1:
 E= -400.146448763344    
 DIIS: error= 5.01D-05 at cycle   1 NSaved=   1.
 NSaved= 1 IEnMin= 1 EnMin= -400.146448763344     IErMin= 1 ErrMin= 5.01D-05
 ErrMax= 5.01D-05  0.00D+00 EMaxC= 1.00D-01 BMatC= 9.70D-07 BMatP= 9.70D-07
 IDIUse=1 WtCom= 1.00D+00 WtEn= 0.00D+00
 Coeff-Com:  0.100D+01
 Coeff:      0.100D+01
 Gap=     0.571 Goal=   None    Shift=    0.000
 RMSDP=4.21D-06 MaxDP=1.98D-04              OVMax= 4.39D-04

 Cycle   2  Pass 1  IDiag  1:
 E= -400.146449640586     Delta-E=       -0.000000877242 Rises=F Damp=F
 DIIS: error= 1.91D-05 at cycle   2 NSaved=   2.
 NSaved= 2 IEnMin= 2 EnMin= -400.146449640586     IErMin= 2 ErrMin= 1.91D-05
 ErrMax= 1.91D-05  0.00D+00 EMaxC= 1.00D-01 BMatC= 1.71D-07 BMatP= 9.70D-07
 IDIUse=1 WtCom= 1.00D+00 WtEn= 0.00D+00
 Coeff-Com:  0.184D+00 0.816D+00
 Coeff:      0.184D+00 0.816D+00
 Gap=     0.178 Goal=   None    Shift=    0.000
 RMSDP=1.61D-06 MaxDP=8.60D-05 DE=-8.77D-07 OVMax= 1.95D-04

 Cycle   3  Pass 1  IDiag  1:
 E= -400.146449544274     Delta-E=        0.000000096312 Rises=F Damp=F
 DIIS: error= 2.34D-05 at cycle   3 NSaved=   3.
 NSaved= 3 IEnMin= 2 EnMin= -400.146449640586     IErMin= 2 ErrMin= 1.91D-05
 ErrMax= 2.34D-05  0.00D+00 EMaxC= 1.00D-01 BMatC= 2.92D-07 BMatP= 1.71D-07
 IDIUse=1 WtCom= 1.00D+00 WtEn= 0.00D+00
 Coeff-Com: -0.142D-01 0.574D+00 0.440D+00
 Coeff:     -0.142D-01 0.574D+00 0.440D+00
 Gap=     0.178 Goal=   None    Shift=    0.000
 RMSDP=1.07D-06 MaxDP=6.18D-05 DE= 9.63D-08 OVMax= 1.58D-04

 Cycle   4  Pass 1  IDiag  1:
 E= -400.146449755071     Delta-E=       -0.000000210796 Rises=F Damp=F
 DIIS: error= 6.71D-06 at cycle   4 NSaved=   4.
 NSaved= 4 IEnMin= 4 EnMin= -400.146449755071     IErMin= 4 ErrMin= 6.71D-06
 ErrMax= 6.71D-06  0.00D+00 EMaxC= 1.00D-01 BMatC= 1.02D-08 BMatP= 1.71D-07
 IDIUse=1 WtCom= 1.00D+00 WtEn= 0.00D+00
 Coeff-Com: -0.130D-01 0.275D+00 0.251D+00 0.487D+00
 Coeff:     -0.130D-01 0.275D+00 0.251D+00 0.487D+00
 Gap=     0.178 Goal=   None    Shift=    0.000
 RMSDP=2.66D-07 MaxDP=1.39D-05 DE=-2.11D-07 OVMax= 4.47D-05

 Cycle   5  Pass 1  IDiag  1:
 E= -400.146449762377     Delta-E=       -0.000000007306 Rises=F Damp=F
 DIIS: error= 2.13D-06 at cycle   5 NSaved=   5.
 NSaved= 5 IEnMin= 5 EnMin= -400.146449762377     IErMin= 5 ErrMin= 2.13D-06
 ErrMax= 2.13D-06  0.00D+00 EMaxC= 1.00D-01 BMatC= 1.55D-09 BMatP= 1.02D-08
 IDIUse=1 WtCom= 1.00D+00 WtEn= 0.00D+00
 Coeff-Com: -0.571D-02 0.827D-01 0.907D-01 0.308D+00 0.525D+00
 Coeff:     -0.571D-02 0.827D-01 0.907D-01 0.308D+00 0.525D+00
 Gap=     0.178 Goal=   None    Shift=    0.000
 RMSDP=8.37D-08 MaxDP=4.02D-06 DE=-7.31D-09 OVMax= 1.05D-05

 Cycle   6  Pass 1  IDiag  1:
 E= -400.146449763468     Delta-E=       -0.000000001091 Rises=F Damp=F
 DIIS: error= 3.71D-07 at cycle   6 NSaved=   6.
 NSaved= 6 IEnMin= 6 EnMin= -400.146449763468     IErMin= 6 ErrMin= 3.71D-07
 ErrMax= 3.71D-07  0.00D+00 EMaxC= 1.00D-01 BMatC= 4.44D-11 BMatP= 1.55D-09
 IDIUse=1 WtCom= 1.00D+00 WtEn= 0.00D+00
 Coeff-Com: -0.184D-02 0.215D-01 0.275D-01 0.122D+00 0.248D+00 0.582D+00
 Coeff:     -0.184D-02 0.215D-01 0.275D-01 0.122D+00 0.248D+00 0.582D+00
 Gap=     0.178 Goal=   None    Shift=    0.000
 RMSDP=2.33D-08 MaxDP=8.89D-07 DE=-1.09D-09 OVMax= 4.17D-06

 Cycle   7  Pass 1  IDiag  1:
 E= -400.146449763502     Delta-E=       -0.000000000034 Rises=F Damp=F
 DIIS: error= 2.14D-07 at cycle   7 NSaved=   7.
 NSaved= 7 IEnMin= 7 EnMin= -400.146449763502     IErMin= 7 ErrMin= 2.14D-07
 ErrMax= 2.14D-07  0.00D+00 EMaxC= 1.00D-01 BMatC= 1.30D-11 BMatP= 4.44D-11
 IDIUse=1 WtCom= 1.00D+00 WtEn= 0.00D+00
 Coeff-Com: -0.219D-03-0.150D-02 0.106D-02 0.248D-01 0.660D-01 0.383D+00
 Coeff-Com:  0.527D+00
 Coeff:     -0.219D-03-0.150D-02 0.106D-02 0.248D-01 0.660D-01 0.383D+00
 Coeff:      0.527D+00
 Gap=     0.178 Goal=   None    Shift=    0.000
 RMSDP=9.14D-09 MaxDP=3.93D-07 DE=-3.38D-11 OVMax= 1.64D-06

 SCF Done:  E(RB3LYP) =  -400.146449764     A.U. after    7 cycles
            NFock=  7  Conv=0.91D-08     -V/T= 2.0038
 KE= 3.986366722589D+02 PE=-1.649764625404D+03 EE= 4.940818675287D+02
 Leave Link  502 at Fri Aug 27 00:35:54 2021, MaxMem= 17179869184 cpu:       258.8
[...]
    A5        2.09813   0.00001   0.00000   0.00020   0.00020   2.09833
    A6        2.19353  -0.00000   0.00000  -0.00012  -0.00012   2.19341
    A7        1.99153  -0.00001   0.00000  -0.00008  -0.00008   1.99144
    A8        2.11591   0.00001   0.00000   0.00011   0.00011   2.11603
    A9        2.03524  -0.00001   0.00000  -0.00011  -0.00011   2.03513
   A10        2.13203  -0.00000   0.00000  -0.00000  -0.00000   2.13202
   A11        2.10835   0.00001   0.00000   0.00009   0.00009   2.10844
   A12        2.02321  -0.00000   0.00000  -0.00005  -0.00005   2.02316
   A13        2.15162  -0.00000   0.00000  -0.00003  -0.00003   2.15159
   A14        2.11721   0.00000   0.00000  -0.00004  -0.00004   2.11717
   A15        2.08595  -0.00000   0.00000   0.00001   0.00001   2.08596
   A16        2.08002   0.00000   0.00000   0.00003   0.00003   2.08005
   A17        2.05770  -0.00000   0.00000  -0.00003  -0.00003   2.05767
   A18        2.10232   0.00000   0.00000   0.00001   0.00001   2.10233
   A19        2.12316   0.00000   0.00000   0.00002   0.00002   2.12318
   A20        2.64351   0.00002   0.00000   0.00063   0.00063   2.64414
   A21        1.86430  -0.00000   0.00000   0.00030   0.00029   1.86459
   A22        1.37886   0.00000   0.00000  -0.00002  -0.00002   1.37884
   A23        2.36306   0.00002   0.00000   0.00749   0.00749   2.37055
   A24        2.51380  -0.00004   0.00000  -0.00145  -0.00145   2.51235
    D1        0.03517   0.00000   0.00000  -0.00070  -0.00070   0.03448
    D2       -3.10544   0.00000   0.00000  -0.00073  -0.00073  -3.10617
    D3        0.02195  -0.00001   0.00000   0.00054   0.00054   0.02249
    D4       -3.13639   0.00000   0.00000  -0.00019  -0.00019  -3.13658
    D5        0.00433  -0.00000   0.00000  -0.00016  -0.00016   0.00417
    D6        0.00806   0.00000   0.00000   0.00036   0.00035   0.00841
    D7       -3.13441   0.00000   0.00000   0.00038   0.00038  -3.13403
    D8       -0.00250   0.00000   0.00000   0.00015   0.00015  -0.00235
    D9        3.13789   0.00000   0.00000   0.00015   0.00015   3.13803
   D10        3.13608  -0.00000   0.00000  -0.00042  -0.00042   3.13566
   D11       -0.00672  -0.00000   0.00000  -0.00043  -0.00043  -0.00715
   D12       -0.11118  -0.00000   0.00000   0.00084   0.00084  -0.11034
   D13        3.03314   0.00000   0.00000   0.00136   0.00136   3.03450
   D14        3.13719  -0.00000   0.00000   0.00011   0.00011   3.13730
   D15       -0.00211  -0.00000   0.00000   0.00005   0.00005  -0.00205
   D16       -0.00348  -0.00000   0.00000   0.00008   0.00008  -0.00340
   D17        3.14042  -0.00000   0.00000   0.00002   0.00002   3.14044
   D18        0.00095   0.00000   0.00000   0.00001   0.00001   0.00096
   D19       -3.13980  -0.00000   0.00000  -0.00005  -0.00005  -3.13985
   D20        3.14012   0.00000   0.00000   0.00007   0.00007   3.14018
   D21       -0.00064  -0.00000   0.00000   0.00001   0.00001  -0.00063
   D22       -0.00044  -0.00000   0.00000  -0.00005  -0.00005  -0.00049
   D23        3.14057   0.00000   0.00000  -0.00003  -0.00003   3.14055
   D24       -3.14074  -0.00000   0.00000  -0.00004  -0.00004  -3.14078
   D25        0.00028  -0.00000   0.00000  -0.00002  -0.00002   0.00026
   D26        0.00114  -0.00000   0.00000  -0.00003  -0.00003   0.00111
   D27       -3.13987  -0.00000   0.00000  -0.00005  -0.00005  -3.13992
   D28       -3.14130   0.00000   0.00000   0.00003   0.00003  -3.14127
   D29        0.00088   0.00000   0.00000   0.00001   0.00001   0.00089
   D30       -2.40858  -0.00002   0.00000  -0.00780  -0.00780  -2.41638
   D31       -0.06388   0.00001   0.00000   0.00003   0.00003  -0.06385
   D32        0.12673  -0.00001   0.00000  -0.00102  -0.00102   0.12572
   D33        1.92208  -0.00000   0.00000  -0.00036  -0.00036   1.92172
         Item               Value     Threshold  Converged?
 Maximum Force            0.000045     0.000450     YES
 RMS     Force            0.000010     0.000300     YES
 Maximum Displacement     0.007610     0.001800     NO 
 RMS     Displacement     0.001446     0.001200     NO 
 Predicted change in Energy=-2.434899D-07
 GradGradGradGradGradGradGradGradGradGradGradGradGradGradGradGradGradGrad

 Leave Link  103 at Fri Aug 27 00:39:34 2021, MaxMem= 17179869184 cpu:        26.3
 (Enter /public3/home/sc51754/softwares/g09e01/l9999.exe)
 1\1\GINC-T1413\Freq\RB3LYP\Gen\C5H7N1O2\SC51754\27-Aug-2021\0\\#P Geom
 =AllCheck Guess=TCheck SCRF=Check GenChk RB3LYP/ChkBas Freq\\PY_H2O_B3
 LYP_PC2_OPT_FREQ\\0,1\O,1.2606874484,1.3912030971,0.0085885351\N,0.250
 9706153,-0.6569414178,0.0137933774\C,0.2105896646,0.7382796174,0.00795
 46581\C,-1.1201803536,1.2880715918,0.0003666142\C,-0.8413073994,-1.459
 770766,0.0078350377\C,-2.2176518186,0.4813011517,-0.0048147025\C,-2.09
 37774834,-0.9310877859,-0.0017922549\H,2.7016483278,0.2738379646,-0.04
 24532472\H,-1.198541264,2.3647058797,-0.0031927465\H,-0.6464398719,-2.
 522195647,0.0100513352\H,-3.2052779434,0.9244153492,-0.0121650073\H,-2
 .9585911208,-1.5748037314,-0.0074418126\O,3.0950706873,-0.6239980807,-
 0.081965745\H,3.8327500872,-0.6310065755,0.5313154231\H,1.1900034245,-
 1.0557446471,0.0258545353\\Version=EM64L-G09RevE.01\State=1-A\HF=-400.
 1464547\RMSD=2.634e-09\RMSF=1.530e-05\ZeroPoint=0.1186417\Thermal=0.12
 66663\Dipole=-0.9607509,-0.8648569,0.4297755\DipoleDeriv=-1.755287,-0.
 5687882,-0.0071985,-0.4524229,-0.8062383,-0.0032483,-0.0054142,-0.0058
 329,-0.3991788,-0.7814542,0.2493222,-0.0039007,-0.6277411,-0.5066594,-
 0.0013208,-0.011435,0.0034717,-0.1740886,1.7813968,0.7898542,0.0072501
 ,0.7992625,0.8499206,0.0017036,0.0011188,-0.0027756,0.2433287,-0.67125
 28,-0.4476786,-0.0026859,0.0824652,0.0005332,-0.000496,0.0005524,-0.00
 31217,-0.1733292,0.686958,-0.3372481,0.0055847,0.267493,0.101114,0.003
 0307,0.0023839,-0.0000988,-0.0048938,0.2697273,0.0827732,0.0022496,0.1
 286551,0.5847284,-0.0004011,0.0011217,-0.0012119,-0.0731674,-0.2505492
 ,0.3529923,-0.0008206,0.0246301,-0.4492795,0.0013632,0.0020266,0.00354
 46,-0.2046515,0.7734688,-0.1450966,-0.0248483,-0.4157702,0.3357781,-0.
 0416184,-0.0360058,-0.0307651,0.2382109,0.0616572,-0.0066673,-0.000640
 6,0.0099861,-0.0237296,0.0004614,-0.0000388,0.0007026,0.1481975,0.0611
 131,0.0202204,-0.0006969,-0.0003756,-0.0304639,0.0006084,-0.0011036,-0
 .0002416,0.1401178,-0.0582914,0.0625738,-0.0012993,0.0637946,0.0546855
 ,0.0005095,-0.0018075,0.0005235,0.1240656,0.0055429,-0.0578129,-0.0010
 983,-0.0597186,0.0114617,-0.0002237,-0.0013073,-0.0003459,0.1619102,-1
 .0353201,0.1173319,0.1017652,0.3067486,-0.5792446,0.0872042,0.1235529,
 0.0539271,-0.5111329,0.2554239,-0.0034128,-0.0777501,-0.0566306,0.2807
 1,-0.0482277,-0.0824933,-0.0227432,0.2478622,0.6568665,-0.1083635,0.00
 40895,-0.0703763,0.1766838,0.000655,0.0088492,0.0049672,0.2367492\Pola
 r=101.2528859,5.8534814,84.6416908,1.1010023,-0.2818484,44.3171733\PG=
 C01 [X(C5H7N1O2)]\NImag=0\\0.52534044,0.26139320,0.28207100,0.00048384
 ,-0.00032500,0.03723985,0.01360807,-0.06596106,0.00032358,0.84476427,-
 0.04293510,-0.06806028,0.00018191,-0.01422059,0.63871101,0.00063349,0.
 00007092,0.01777391,0.00668157,-0.00245789,0.08733272,-0.45109184,-0.2
 0506586,-0.00039305,-0.17100697,0.01088634,-0.00127483,0.83838731,-0.1
 9930662,-0.21991560,-0.00010617,0.05524610,-0.18988406,0.00051924,0.11
 964408,0.58811992,-0.00060349,-0.00026741,-0.07249585,-0.00096287,0.00
 054286,-0.06306058,0.00229723,-0.00087110,0.20005052,-0.07624689,-0.00
 539461,-0.00026619,0.02652713,0.04762089,0.00012609,-0.19653183,0.0424
 3438,-0.00075052,0.65604347,-0.02947488,0.02090015,-0.00002618,0.03806
 945,-0.02308949,0.00038712,0.06977776,-0.15010318,0.00040075,0.0732478
 0,0.76193868,-0.00025418,0.00025425,0.02031204,-0.00000481,0.00045837,
 0.00661133,-0.00072827,0.00013672,-0.07785546,0.00276138,-0.00116774,0
 .11739077,-0.01431992,0.01319366,-0.00019852,-0.26479630,-0.05957648,-
 0.00133571,0.04908786,-0.07346326,0.00051267,-0.05015900,-0.00469006,-
 0.00032317,0.73260817,-0.00295641,-0.00112684,0.00003503,-0.10934730,-
 0.21060754,-0.00014917,-0.01871495,-0.04082513,-0.00006955,-0.00466948
 ,-0.00131826,-0.00003644,-0.07395846,0.75799182,-0.00013608,0.00013107
 ,0.00558431,-0.00135739,-0.00009370,-0.04768782,0.00040699,-0.00029977
 ,-0.00291188,-0.00031532,-0.00001380,-0.00007306,0.00435659,-0.0014785
 6,0.14050119,0.00321231,0.00510958,-0.00001761,-0.00908405,-0.00801882
 ,-0.00001391,-0.04478306,-0.00932369,-0.00024992,-0.31803657,-0.156324
 37,-0.00126197,0.01392088,0.03591738,-0.00001677,0.75911577,0.02219469
 ,-0.00326243,0.00010078,-0.03535146,-0.03848503,-0.00020404,-0.0320501
 9,0.05597557,-0.00028504,-0.11083006,-0.23056520,-0.00022428,0.0757518
 5,-0.02126928,0.00055211,0.01110526,0.65215456,-0.00005580,0.00003543,
 0.00430839,0.00006619,0.00001605,-0.00511661,-0.00018339,-0.00013488,-
 0.00001428,-0.00147963,-0.00063873,-0.05577371,-0.00011235,0.00030903,
 0.00764139,0.00392138,-0.00086151,0.14279641,0.00692698,-0.00611718,0.
 00005260,-0.07718477,-0.03102636,-0.00065664,-0.02141637,0.03575353,-0
 .00015644,0.03564498,-0.02618624,0.00023572,-0.35573580,0.12636449,-0.
 00227994,-0.12519144,-0.01259281,-0.00041968,0.77934824,-0.01447957,-0
 .00016847,-0.00007278,0.00300696,0.04327376,-0.00005662,0.02652861,-0.
 02762665,0.00019908,-0.05051631,-0.03654450,-0.00026569,0.08008521,-0.
 17305632,0.00076047,0.03960160,-0.28123855,0.00059388,0.03254750,0.650
 24575,0.00009356,-0.00000877,-0.00036267,-0.00062469,-0.00026770,0.012
 18992,-0.00017150,0.00024312,-0.00714732,0.00032729,-0.00011639,0.0073
 4479,-0.00225687,0.00110839,-0.06378732,-0.00053198,0.00017133,-0.0612
 0068,0.00476356,-0.00048191,0.11568900,0.01476757,-0.00286713,-0.00102
 539,-0.00155569,0.00587162,-0.00035095,-0.01882805,-0.01128598,0.00015
 090,0.00487992,0.00147936,0.00016681,0.00022890,-0.00026772,-0.0000289
 1,-0.00045421,-0.00241943,0.00001359,-0.00006663,0.00181333,0.00002089
 ,0.10329545,-0.01523792,-0.01147702,0.00094343,0.00197867,-0.00404436,
 0.00035597,0.01087596,0.01662815,-0.00000428,-0.00562762,-0.00220471,-
 0.00017106,-0.00208355,-0.00201550,-0.00001741,0.00057488,0.00343497,-
 0.00001960,0.00142057,-0.00228039,-0.00000208,-0.13506879,0.37405144,0
 .00011796,0.00007530,-0.00864951,-0.00064114,-0.00014610,-0.00083140,-
 0.00013003,-0.00016436,0.00078041,0.00004355,0.00000451,0.00106994,0.0
 0012368,0.00020426,-0.00019071,-0.00005633,-0.00010517,0.00012759,-0.0
 0014973,0.00006226,0.00009186,0.01600759,0.01639208,0.03733325,0.00193
 925,-0.00245165,0.00001224,-0.00600620,0.00356101,-0.00008350,0.003392
 04,0.02999227,-0.00008996,-0.05948456,0.02331339,-0.00017793,-0.002101
 67,-0.00092973,-0.00000905,0.00637575,-0.02735116,0.00010041,-0.003550
 85,-0.00243979,-0.00007118,-0.00016022,0.00024343,-0.00000992,0.057544
 73,0.00013474,0.00192830,-0.00001205,0.00248029,-0.00040450,0.00003226
 ,-0.00367144,-0.00998616,0.00004048,0.02544136,-0.34261279,0.00099745,
 0.00074743,0.00094825,0.00000490,0.00291942,-0.01293746,0.00006407,-0.
 00344316,0.00120886,0.00000533,0.00005553,-0.00008308,0.00000953,-0.02
 442560,0.36202691,0.00003479,-0.00003829,-0.00232196,-0.00006865,0.000
 01558,0.00478481,-0.00002618,0.00022424,0.00272714,-0.00017052,0.00106
 439,-0.03389027,0.00001139,-0.00000110,-0.00066948,-0.00000466,-0.0001
 6387,0.00280318,-0.00008499,0.00000271,0.00919435,-0.00001512,0.000007
 26,-0.00001924,0.00025918,-0.00109458,0.02418037,-0.00099091,-0.002216
 40,0.00001460,0.00523073,-0.03539948,0.00007486,-0.00364470,0.00171952
 ,-0.00007522,-0.00008534,-0.00057350,0.00000083,-0.07204620,0.05889464
 ,-0.00030225,-0.00560546,0.00117121,-0.00010040,0.00283388,0.02810068,
 -0.00005676,0.00034677,-0.00029121,0.00001051,0.00016578,0.00000655,0.
 00000832,0.07184730,-0.00067094,-0.00187370,0.00001610,0.00083131,-0.0
 2075216,0.00002587,-0.00273841,0.00490426,-0.00005637,0.00028539,0.000
 57534,0.00000042,0.05253349,-0.33127310,0.00066688,0.00235435,0.000560
 80,0.00002215,-0.00043207,-0.00549618,-0.00000213,0.00030529,-0.000203
 01,-0.00000888,0.00003799,-0.00007555,-0.00000110,-0.05250301,0.352788
 88,-0.00001605,-0.00001989,-0.00009546,0.00008062,-0.00010909,0.002571
 02,-0.00003762,-0.00000327,0.00558054,-0.00000777,0.00000410,-0.000128
 23,-0.00035182,0.00055338,-0.03822597,-0.00011324,0.00003647,0.0079025
 0,0.00000528,0.00022321,0.00666624,-0.00001956,0.00000056,-0.00002228,
 0.00000557,-0.00000289,-0.00120364,0.00038158,-0.00066947,0.02487139,-
 0.00212351,0.00036234,0.00001437,0.00024763,-0.00036877,0.00000762,-0.
 00016950,-0.00410785,-0.00007968,-0.02029206,0.01227042,-0.00021496,0.
 00149251,0.00040063,-0.00002457,-0.28836803,0.10312683,-0.00179331,0.0
 0150114,-0.00073364,-0.00002993,0.00026998,-0.00023057,-0.00001142,0.0
 0117897,-0.00021274,0.00004787,0.00000140,-0.00011690,0.00000392,0.305
 86130,-0.00090234,0.00058583,-0.00000282,-0.00108379,0.00029288,-0.000
 01048,-0.00285493,-0.00268878,0.00001253,-0.01850660,0.01213608,-0.000
 13633,-0.00017431,-0.00655693,0.00001732,0.10368109,-0.10683447,0.0007
 9167,0.02940959,-0.00734388,0.00021507,0.00005457,-0.00009181,-0.00000
 221,0.00040997,0.00085541,-0.00001216,0.00151812,-0.00039379,0.0000147
 8,-0.11096746,0.10870514,-0.00001237,-0.00003145,-0.00214518,0.0000097
 8,-0.00001068,-0.00091094,-0.00006008,0.00001782,0.01187996,-0.0001044
 9,0.00011389,0.00692895,-0.00002385,0.00000808,0.00498669,-0.00184081,
 0.00076939,-0.04279536,-0.00007070,0.00002206,0.00450924,-0.00001919,0
 .00001842,-0.00013945,0.00003747,-0.00002515,-0.00574762,0.00000072,-0
 .00000036,-0.00043376,0.00204023,-0.00087407,0.02688779,0.00020598,-0.
 00025775,0.00000706,-0.00369196,0.00417379,-0.00009783,-0.00011278,0.0
 0106731,-0.00001103,0.00079716,0.00141727,-0.00002711,-0.01834090,-0.0
 2031379,-0.00011775,0.00765658,0.00436658,0.00004634,-0.24447535,-0.13
 709026,-0.00141214,0.00005783,0.00009973,-0.00001961,0.00022674,0.0002
 8937,-0.00000435,0.00077170,0.00020558,0.00004419,0.00053532,-0.000565
 04,0.00002423,0.25680777,-0.00042818,0.00046527,-0.00000215,0.00372949
 ,-0.00028669,0.00004381,0.00122245,-0.00125956,0.00000485,0.00241179,-
 0.00492068,0.00003260,0.01175772,0.01162542,0.00006045,-0.02631829,-0.
 01274686,-0.00018565,-0.13929209,-0.16055680,-0.00086477,0.00005895,-0
 .00012984,0.00000832,-0.00123120,-0.00055636,-0.00000436,-0.00052604,0
 .00060606,-0.00000872,0.00038042,0.00118470,0.00000071,0.14775961,0.16
 595194,0.00000887,-0.00001799,-0.00055787,-0.00010591,0.00002873,0.007
 78176,-0.00000408,0.00001720,-0.00031465,-0.00002646,0.00002693,0.0042
 2999,-0.00013484,-0.00017209,-0.00088397,0.00010132,0.00006973,-0.0000
 6975,-0.00143995,-0.00087955,-0.02830620,0.00000451,-0.00000182,0.0000
 2606,-0.00000240,0.00000562,0.00055627,0.00004151,0.00000005,-0.004732
 20,0.00002165,-0.00000903,-0.00236748,0.00154839,0.00092066,0.02309392
 ,-0.01222463,0.01168879,0.00013151,-0.01261386,-0.00409102,-0.00059863
 ,0.00361853,0.00166808,0.00021020,-0.00116676,-0.00014292,0.00005364,0
 .00165280,0.00434884,-0.00005033,-0.00013712,-0.00011865,-0.00002440,-
 0.00190083,-0.00042216,0.00003862,-0.09105896,0.15770608,-0.00293644,-
 0.00011743,0.00011069,0.00001153,-0.00005575,-0.00028524,-0.00000774,-
 0.00021131,-0.00000769,-0.00000766,-0.00034714,0.00010492,0.00001196,0
 .42272144,0.02262549,-0.00230375,0.00047187,-0.00150050,0.00520622,-0.
 00097470,-0.01058822,-0.01280774,0.00006583,0.00422735,0.00195513,-0.0
 0006134,0.00152257,0.00071804,-0.00004754,-0.00038918,-0.00254710,0.00
 000643,-0.00081118,0.00180895,0.00001268,0.11656714,-0.37266808,-0.045
 51740,-0.00024957,0.00008159,-0.00000308,0.00035713,0.00022811,0.00002
 249,0.00019019,0.00008739,0.00001513,-0.00002025,0.00008486,0.00002787
 ,-0.15876687,0.42518044,-0.00091156,0.00113514,0.00573508,-0.00249620,
 -0.00008110,0.00298368,0.00044400,-0.00002477,-0.00048622,-0.00012267,
 0.00004834,-0.00069805,-0.00030527,0.00018792,0.00027552,0.00005816,0.
 00004979,0.00001964,0.00001405,-0.00017667,-0.00017051,-0.01660873,-0.
 01353384,-0.03106976,0.00001513,-0.00000594,-0.00001260,-0.00003089,-0
 .00005544,-0.00003487,0.00000846,0.00000166,0.00008279,-0.00002104,0.0
 0000426,-0.00007930,0.26584950,0.03477717,0.24615399,0.00049580,0.0011
 0648,0.00081475,-0.00066959,-0.00048629,0.00050316,-0.00066119,-0.0004
 3509,-0.00016553,0.00017586,0.00008274,-0.00014101,-0.00025361,0.00027
 869,0.00004207,-0.00001567,-0.00009364,0.00000929,-0.00004515,-0.00007
 009,-0.00003232,-0.01358456,-0.00604692,-0.01364229,-0.00000222,0.0000
 1425,-0.00000654,-0.00002011,-0.00004768,-0.00001298,0.00001115,-0.000
 00519,0.00001744,-0.00002049,0.00001780,-0.00001544,-0.31176956,0.0248
 4613,-0.24824821,0.32626479,0.00235224,-0.00205533,-0.00114686,-0.0020
 9090,0.00041791,0.00047604,-0.00084254,-0.00103323,-0.00006454,0.00018
 511,0.00016904,0.00014516,0.00023079,0.00058507,0.00002125,0.00000463,
 -0.00012910,0.00000517,-0.00026908,-0.00000911,-0.00000248,0.03125910,
 0.00371082,0.02869252,-0.00003453,0.00002124,-0.00000266,-0.00000665,-
 0.00003918,-0.00003103,0.00000138,0.00000408,-0.00002187,-0.00004861,0
 .00001963,-0.00001506,-0.01362012,-0.04133478,-0.02310367,-0.01992626,
 0.03962683,0.00081186,-0.00090104,-0.00007071,0.00245459,0.00011632,0.
 00006290,-0.00020509,0.00015753,-0.00000594,0.00005814,-0.00004951,-0.
 00002446,0.00007173,-0.00034764,0.00000156,0.00000499,0.00003757,-0.00
 000244,0.00014383,0.00007559,-0.00001539,0.00132330,-0.00369784,-0.000
 78501,0.00000451,-0.00000409,0.00001379,0.00000433,0.00004742,0.000036
 66,0.00000418,-0.00000158,0.00001001,0.00003565,-0.00001053,0.00000694
 ,-0.26432798,0.00877324,-0.21743910,0.26212924,-0.00361796,0.21815859,
 -0.00949868,-0.00252241,0.00004620,-0.34376843,0.12400926,-0.00361481,
 0.01376054,0.01039722,-0.00002633,-0.00206550,-0.00226620,-0.00008495,
 -0.02123771,0.00495316,-0.00016730,0.00139435,0.00309097,0.00001176,0.
 00331197,-0.00593207,-0.00005656,0.00186189,-0.00831275,0.00129360,0.0
 0059991,-0.00044669,0.00000792,0.00125091,0.00024085,0.00004562,0.0000
 6500,-0.00000600,0.00000929,-0.00007045,0.00035264,-0.00000913,0.00361
 056,0.00198977,0.00235527,0.00009456,0.00280543,-0.00251327,0.35069110
 ,-0.00230839,0.00429287,-0.00005513,0.12421332,-0.13228767,0.00194170,
 0.03759133,-0.00949783,0.00035191,-0.00030940,-0.00631560,0.00003789,-
 0.02187658,0.01618029,-0.00026366,-0.00089385,-0.00211044,-0.00000351,
 -0.00532551,-0.00221647,-0.00000968,-0.00555585,-0.00262758,0.00049532
 ,0.00155515,-0.00041466,0.00000703,-0.00025156,0.00044320,-0.00001063,
 0.00000573,0.00005815,-0.00000192,-0.00108356,0.00051892,-0.00000123,0
 .00182727,-0.00368928,0.00077715,0.00076507,0.00004610,-0.00057749,-0.
 12835318,0.13761998,-0.00019484,-0.00009227,-0.00425438,-0.00335469,0.
 00180643,-0.02448469,0.00006589,0.00028845,0.00327362,-0.00007288,-0.0
 0003769,0.00455545,-0.00003365,-0.00015153,-0.00456045,0.00002135,0.00
 005674,-0.00062628,0.00004303,-0.00000604,0.00530470,0.00038026,-0.000
 26978,0.00227826,0.00000944,-0.00001494,-0.00039511,0.00002826,0.00001
 485,-0.00275194,0.00000557,-0.00000433,-0.00074564,0.00000500,0.000000
 51,0.00161648,0.00164621,0.00243135,-0.00526029,-0.00125163,-0.0013340
 0,0.00005261,0.00270268,-0.00268774,0.02599767\\0.00002413,-0.00000545
 ,-0.00000100,-0.00002445,-0.00002554,0.00000837,-0.00002986,-0.0000288
 0,0.00000102,0.00000714,0.00000958,-0.00000140,-0.00000100,-0.00000389
 ,-0.00000217,-0.00000021,-0.00000254,0.00000398,0.00000113,0.00000663,
 -0.00000123,0.00000749,0.00002016,0.00000209,-0.00000192,-0.00000045,0
 .00000121,0.00000040,0.00000093,0.00000013,0.00000004,0.00000056,0.000
 00172,-0.00000021,0.00000019,0.00000112,0.00000137,-0.00001685,-0.0000
 3312,-0.00001537,-0.00001131,0.00001300,0.00003132,0.00005679,0.000006
 29\\\@


 SIGN SEEN IN A RESTAURANT-
 WE RESERVE THE RIGHT TO SERVE REFUSE TO ANYONE.
 Job cpu time:       0 days  1 hours  3 minutes 48.6 seconds.
 File lengths (MBytes):  RWF=    137 Int=      0 D2E=      0 Chk=      9 Scr=      1
 Normal termination of Gaussian 09 at Fri Aug 27 00:39:34 2021.
