 Entering Gaussian System, Link 0=g09
 AtFile(1): pc-2.gbs
            -H     0
            S    4   1.00
                  0.754230D+02           0.240650D-02
                  0.113500D+02           0.184870D-01
                  0.259930D+01           0.897420D-01
                  0.735130D+00           0.281110D+00
            S    1   1.00
                  0.231670D+00           0.100000D+01
            S    1   1.00
                  0.741470D-01           0.100000D+01
            P    1   1.00
                  0.160000D+01           0.100000D+01
            P    1   1.00
                  0.450000D+00           0.100000D+01
            D    1   1.00
                  0.125000D+01           0.100000D+01
            ****
            -C     0
            S    7   1.00
                  0.785710D+04           0.568250D-03
                  0.117870D+04           0.439150D-02
                  0.268320D+03           0.225040D-01
                  0.759480D+02           0.866530D-01
                  0.245590D+02           0.244050D+00
                  0.862120D+01           0.441480D+00
                  0.312780D+01           0.353320D+00
            S    7   1.00
                  0.117870D+04          -0.594920D-06
                  0.268320D+03          -0.627480D-04
                  0.759480D+02          -0.757730D-03
                  0.245590D+02          -0.733080D-02
                  0.862120D+01          -0.389320D-01
                  0.312780D+01          -0.889080D-01
                  0.822020D+00           0.216890D+00
            S    1   1.00
                  0.330170D+00           0.100000D+01
            S    1   1.00
                  0.114630D+00           0.100000D+01
            P    4   1.00
                  0.337750D+02           0.602940D-02
                  0.767660D+01           0.432280D-01
                  0.223570D+01           0.163010D+00
                  0.764470D+00           0.365040D+00
            P    1   1.00
                  0.262320D+00           0.100000D+01
            P    1   1.00
                  0.846380D-01           0.100000D+01
            D    1   1.00
                  0.140000D+01           0.100000D+01
            D    1   1.00
                  0.450000D+00           0.100000D+01
            F    1   1.00
                  0.950000D+00           0.100000D+01
            ****
            -N     0
            S    7   1.00
                  0.111010D+05           0.545700D-03
                  0.166530D+04           0.421810D-02
                  0.379080D+03           0.216450D-01
                  0.107300D+03           0.837760D-01
                  0.347470D+02           0.238810D+00
                  0.122490D+02           0.439940D+00
                  0.447430D+01           0.363640D+00
            S    7   1.00
                  0.166530D+04          -0.150060D-05
                  0.379080D+03          -0.587530D-04
                  0.107300D+03          -0.774530D-03
                  0.347470D+02          -0.721610D-02
                  0.122490D+02          -0.393380D-01
                  0.447430D+01          -0.906110D-01
                  0.124040D+01           0.198820D+00
            S    1   1.00
                  0.487430D+00           0.100000D+01
            S    1   1.00
                  0.164840D+00           0.100000D+01
            P    4   1.00
                  0.479340D+02           0.617060D-02
                  0.109990D+02           0.442600D-01
                  0.324720D+01           0.168250D+00
                  0.111140D+01           0.368480D+00
            P    1   1.00
                  0.379880D+00           0.100000D+01
            P    1   1.00
                  0.120680D+00           0.100000D+01
            D    1   1.00
                  0.180000D+01           0.100000D+01
            D    1   1.00
                  0.550000D+00           0.100000D+01
            F    1   1.00
                  0.102000D+01           0.100000D+01
            ****
            -O     0
            S    7   1.00
                  0.147820D+05           0.535190D-03
                  0.221730D+04           0.413750D-02
                  0.504740D+03           0.212450D-01
                  0.142870D+03           0.824530D-01
                  0.463000D+02           0.236710D+00
                  0.163370D+02           0.440390D+00
                  0.598280D+01           0.364650D+00
            S    7   1.00
                  0.221730D+04          -0.192750D-05
                  0.504740D+03          -0.579640D-04
                  0.142870D+03          -0.794940D-03
                  0.463000D+02          -0.731250D-02
                  0.163370D+02          -0.405740D-01
                  0.598280D+01          -0.915940D-01
                  0.167180D+01           0.209400D+00
            S    1   1.00
                  0.646620D+00           0.100000D+01
            S    1   1.00
                  0.216690D+00           0.100000D+01
            P    4   1.00
                  0.604240D+02           0.689490D-02
                  0.139350D+02           0.490050D-01
                  0.415310D+01           0.182550D+00
                  0.141580D+01           0.376330D+00
            P    1   1.00
                  0.475490D+00           0.100000D+01
            P    1   1.00
                  0.145290D+00           0.100000D+01
            D    1   1.00
                  0.220000D+01           0.100000D+01
            D    1   1.00
                  0.650000D+00           0.100000D+01
            F    1   1.00
                  0.110000D+01           0.100000D+01
            ****
 Initial command:
 /public3/home/sc51754/softwares/g09e01/l1.exe "./Gau-40206.inp" -scrdir="./"
 Entering Link 1 = /public3/home/sc51754/softwares/g09e01/l1.exe PID=     40207.
  
 Copyright (c) 1988,1990,1992,1993,1995,1998,2003,2009,2015,
            Gaussian, Inc.  All Rights Reserved.
  
 This is part of the Gaussian(R) 09 program.  It is based on
 the Gaussian(R) 03 system (copyright 2003, Gaussian, Inc.),
 the Gaussian(R) 98 system (copyright 1998, Gaussian, Inc.),
 the Gaussian(R) 94 system (copyright 1995, Gaussian, Inc.),
 the Gaussian 92(TM) system (copyright 1992, Gaussian, Inc.),
 the Gaussian 90(TM) system (copyright 1990, Gaussian, Inc.),
 the Gaussian 88(TM) system (copyright 1988, Gaussian, Inc.),
 the Gaussian 86(TM) system (copyright 1986, Carnegie Mellon
 University), and the Gaussian 82(TM) system (copyright 1983,
 Carnegie Mellon University). Gaussian is a federally registered
 trademark of Gaussian, Inc.
  
 This software contains proprietary and confidential information,
 including trade secrets, belonging to Gaussian, Inc.
  
 This software is provided under written license and may be
 used, copied, transmitted, or stored only in accord with that
 written license.
  
 The following legend is applicable only to US Government
 contracts under FAR:
  
                    RESTRICTED RIGHTS LEGEND
  
 Use, reproduction and disclosure by the US Government is
 subject to restrictions as set forth in subparagraphs (a)
 and (c) of the Commercial Computer Software - Restricted
 Rights clause in FAR 52.227-19.
  
 Gaussian, Inc.
 340 Quinnipiac St., Bldg. 40, Wallingford CT 06492
  
  
 ---------------------------------------------------------------
 Warning -- This program may not be used in any manner that
 competes with the business of Gaussian, Inc. or will provide
 assistance to any competitor of Gaussian, Inc.  The licensee
 of this program is prohibited from giving any competitor of
 Gaussian, Inc. access to this program.  By using this program,
 the user acknowledges that Gaussian, Inc. is engaged in the
 business of creating and licensing software in the field of
 computational chemistry and represents and warrants to the
 licensee that it is not a competitor of Gaussian, Inc. and that
 it will not use this program in any manner prohibited above.
 ---------------------------------------------------------------
  

 Cite this work as:
 Gaussian 09, Revision E.01,
 M. J. Frisch, G. W. Trucks, H. B. Schlegel, G. E. Scuseria, 
 M. A. Robb, J. R. Cheeseman, G. Scalmani, V. Barone, B. Mennucci, 
 G. A. Petersson, H. Nakatsuji, M. Caricato, X. Li, H. P. Hratchian, 
 A. F. Izmaylov, J. Bloino, G. Zheng, J. L. Sonnenberg, M. Hada, 
 M. Ehara, K. Toyota, R. Fukuda, J. Hasegawa, M. Ishida, T. Nakajima, 
 Y. Honda, O. Kitao, H. Nakai, T. Vreven, J. A. Montgomery, Jr., 
 J. E. Peralta, F. Ogliaro, M. Bearpark, J. J. Heyd, E. Brothers, 
 K. N. Kudin, V. N. Staroverov, T. Keith, R. Kobayashi, J. Normand, 
 K. Raghavachari, A. Rendell, J. C. Burant, S. S. Iyengar, J. Tomasi, 
 M. Cossi, N. Rega, J. M. Millam, M. Klene, J. E. Knox, J. B. Cross, 
 V. Bakken, C. Adamo, J. Jaramillo, R. Gomperts, R. E. Stratmann, 
 O. Yazyev, A. J. Austin, R. Cammi, C. Pomelli, J. W. Ochterski, 
 R. L. Martin, K. Morokuma, V. G. Zakrzewski, G. A. Voth, 
 P. Salvador, J. J. Dannenberg, S. Dapprich, A. D. Daniels, 
 O. Farkas, J. B. Foresman, J. V. Ortiz, J. Cioslowski, 
 and D. J. Fox, Gaussian, Inc., Wallingford CT, 2013.
 
 ******************************************
 Gaussian 09:  EM64L-G09RevE.01 30-Nov-2015
                27-Aug-2021 
 ******************************************
 %nprocshared=64
 Will use up to   64 processors via shared memory.
 %mem=128GB
 %chk=PY_H2O_CAM-B3LYP_PC2_OPT_FREQ.chk
 -------------------------
 #p opt freq CAM-B3LYP/gen
 -------------------------
 1/14=-1,18=20,19=15,26=3,38=1/1,3;
 2/9=110,12=2,17=6,18=5,40=1/2;
 3/5=7,11=2,16=1,25=1,30=1,71=1,74=-40/1,2,3;
 4//1;
 5/5=2,38=5/2;
 6/7=2,8=2,9=2,10=2,28=1/1;
 7//1,2,3,16;
 1/14=-1,18=20,19=15,26=3/3(2);
 2/9=110/2;
 99//99;
 2/9=110/2;
 3/5=7,6=1,11=2,16=1,25=1,30=1,71=1,74=-40,82=7/1,2,3;
 4/5=5,16=3,69=1/1;
 5/5=2,38=5/2;
 7//1,2,3,16;
 1/14=-1,18=20,19=15,26=3/3(-5);
 2/9=110/2;
 6/7=2,8=2,9=2,10=2,19=2,28=1/1;
 99/9=1/99;
 Leave Link    1 at Fri Aug 27 00:47:10 2021, MaxMem= 17179869184 cpu:         5.0
 (Enter /public3/home/sc51754/softwares/g09e01/l101.exe)
 -----------------------------
 PY_H2O_CAM-B3LYP_PC2_OPT_FREQ
 -----------------------------
 Symbolic Z-matrix:
 Charge =  0 Multiplicity = 1
 O                     1.26148   1.38785   0.00541 
 N                     0.24943  -0.65888   0.01158 
 C                     0.21021   0.736     0.00592 
 C                    -1.11959   1.28763   0.00047 
 C                    -0.84358  -1.46082   0.0067 
 C                    -2.21816   0.48191  -0.00352 
 C                    -2.09559  -0.93059  -0.00106 
 H                     2.7014    0.27314  -0.04162 
 H                    -1.19683   2.36437  -0.00254 
 H                    -0.64999  -2.52343   0.00862 
 H                    -3.20534   0.92605  -0.00928 
 H                    -2.96087  -1.57362  -0.00584 
 O                     3.10667  -0.61979  -0.08598 
 H                     3.83344  -0.62425   0.54074 
 H                     1.18728  -1.05929   0.02234 
 
 Add virtual bond connecting atoms H8         and O1         Dist= 3.44D+00.
 Add virtual bond connecting atoms O13        and H15        Dist= 3.73D+00.
 NAtoms=     15 NQM=       15 NQMF=       0 NMMI=      0 NMMIF=      0
                NMic=       0 NMicF=      0.
                    Isotopes and Nuclear Properties:
 (Nuclear quadrupole moments (NQMom) in fm**2, nuclear magnetic moments (NMagM)
  in nuclear magnetons)

  Atom         1           2           3           4           5           6           7           8           9          10
 IAtWgt=          16          14          12          12          12          12          12           1           1           1
 AtmWgt=  15.9949146  14.0030740  12.0000000  12.0000000  12.0000000  12.0000000  12.0000000   1.0078250   1.0078250   1.0078250
 NucSpn=           0           2           0           0           0           0           0           1           1           1
 AtZEff=   0.0000000   0.0000000   0.0000000   0.0000000   0.0000000   0.0000000   0.0000000   0.0000000   0.0000000   0.0000000
 NQMom=    0.0000000   2.0440000   0.0000000   0.0000000   0.0000000   0.0000000   0.0000000   0.0000000   0.0000000   0.0000000
 NMagM=    0.0000000   0.4037610   0.0000000   0.0000000   0.0000000   0.0000000   0.0000000   2.7928460   2.7928460   2.7928460
 AtZNuc=   8.0000000   7.0000000   6.0000000   6.0000000   6.0000000   6.0000000   6.0000000   1.0000000   1.0000000   1.0000000

  Atom        11          12          13          14          15
 IAtWgt=           1           1          16           1           1
 AtmWgt=   1.0078250   1.0078250  15.9949146   1.0078250   1.0078250
 NucSpn=           1           1           0           1           1
 AtZEff=   0.0000000   0.0000000   0.0000000   0.0000000   0.0000000
 NQMom=    0.0000000   0.0000000   0.0000000   0.0000000   0.0000000
 NMagM=    2.7928460   2.7928460   0.0000000   2.7928460   2.7928460
 AtZNuc=   1.0000000   1.0000000   8.0000000   1.0000000   1.0000000
 Leave Link  101 at Fri Aug 27 00:47:10 2021, MaxMem= 17179869184 cpu:        12.2
 (Enter /public3/home/sc51754/softwares/g09e01/l103.exe)

 GradGradGradGradGradGradGradGradGradGradGradGradGradGradGradGradGradGrad
 Berny optimization.
 Initialization pass.
                           ----------------------------
                           !    Initial Parameters    !
                           ! (Angstroms and Degrees)  !
 --------------------------                            --------------------------
 ! Name  Definition              Value          Derivative Info.                !
 --------------------------------------------------------------------------------
 ! R1    R(1,3)                  1.237          estimate D2E/DX2                !
 ! R2    R(1,8)                  1.8216         estimate D2E/DX2                !
 ! R3    R(2,3)                  1.3954         estimate D2E/DX2                !
 ! R4    R(2,5)                  1.3556         estimate D2E/DX2                !
 ! R5    R(2,15)                 1.0198         estimate D2E/DX2                !
 ! R6    R(3,4)                  1.4397         estimate D2E/DX2                !
 ! R7    R(4,6)                  1.3624         estimate D2E/DX2                !
 ! R8    R(4,9)                  1.0795         estimate D2E/DX2                !
 ! R9    R(5,7)                  1.3597         estimate D2E/DX2                !
 ! R10   R(5,10)                 1.0801         estimate D2E/DX2                !
 ! R11   R(6,7)                  1.4178         estimate D2E/DX2                !
 ! R12   R(6,11)                 1.0825         estimate D2E/DX2                !
 ! R13   R(7,12)                 1.0781         estimate D2E/DX2                !
 ! R14   R(8,13)                 0.9816         estimate D2E/DX2                !
 ! R15   R(13,14)                0.9597         estimate D2E/DX2                !
 ! R16   R(13,15)                1.972          estimate D2E/DX2                !
 ! A1    A(3,1,8)              110.4468         estimate D2E/DX2                !
 ! A2    A(3,2,5)              124.6558         estimate D2E/DX2                !
 ! A3    A(3,2,15)             114.7312         estimate D2E/DX2                !
 ! A4    A(5,2,15)             120.6129         estimate D2E/DX2                !
 ! A5    A(1,3,2)              120.1911         estimate D2E/DX2                !
 ! A6    A(1,3,4)              125.6683         estimate D2E/DX2                !
 ! A7    A(2,3,4)              114.1406         estimate D2E/DX2                !
 ! A8    A(3,4,6)              121.2133         estimate D2E/DX2                !
 ! A9    A(3,4,9)              116.6328         estimate D2E/DX2                !
 ! A10   A(6,4,9)              122.1537         estimate D2E/DX2                !
 ! A11   A(2,5,7)              120.7801         estimate D2E/DX2                !
 ! A12   A(2,5,10)             115.9423         estimate D2E/DX2                !
 ! A13   A(7,5,10)             123.2776         estimate D2E/DX2                !
 ! A14   A(4,6,7)              121.2972         estimate D2E/DX2                !
 ! A15   A(4,6,11)             119.5197         estimate D2E/DX2                !
 ! A16   A(7,6,11)             119.1831         estimate D2E/DX2                !
 ! A17   A(5,7,6)              117.9124         estimate D2E/DX2                !
 ! A18   A(5,7,12)             120.4308         estimate D2E/DX2                !
 ! A19   A(6,7,12)             121.6568         estimate D2E/DX2                !
 ! A20   A(1,8,13)             152.1528         estimate D2E/DX2                !
 ! A21   A(8,13,14)            106.7015         estimate D2E/DX2                !
 ! A22   A(8,13,15)             78.3702         estimate D2E/DX2                !
 ! A23   A(14,13,15)           134.4412         estimate D2E/DX2                !
 ! A24   A(2,15,13)            143.8035         estimate D2E/DX2                !
 ! D1    D(8,1,3,2)              1.8252         estimate D2E/DX2                !
 ! D2    D(8,1,3,4)           -178.1461         estimate D2E/DX2                !
 ! D3    D(3,1,8,13)             2.218          estimate D2E/DX2                !
 ! D4    D(5,2,3,1)           -179.6964         estimate D2E/DX2                !
 ! D5    D(5,2,3,4)              0.278          estimate D2E/DX2                !
 ! D6    D(15,2,3,1)             0.4507         estimate D2E/DX2                !
 ! D7    D(15,2,3,4)          -179.5749         estimate D2E/DX2                !
 ! D8    D(3,2,5,7)             -0.1672         estimate D2E/DX2                !
 ! D9    D(3,2,5,10)           179.7881         estimate D2E/DX2                !
 ! D10   D(15,2,5,7)           179.6776         estimate D2E/DX2                !
 ! D11   D(15,2,5,10)           -0.3671         estimate D2E/DX2                !
 ! D12   D(3,2,15,13)           -6.1898         estimate D2E/DX2                !
 ! D13   D(5,2,15,13)          173.9508         estimate D2E/DX2                !
 ! D14   D(1,3,4,6)            179.7501         estimate D2E/DX2                !
 ! D15   D(1,3,4,9)             -0.1145         estimate D2E/DX2                !
 ! D16   D(2,3,4,6)             -0.2227         estimate D2E/DX2                !
 ! D17   D(2,3,4,9)            179.9126         estimate D2E/DX2                !
 ! D18   D(3,4,6,7)              0.0669         estimate D2E/DX2                !
 ! D19   D(3,4,6,11)          -179.8963         estimate D2E/DX2                !
 ! D20   D(9,4,6,7)            179.924          estimate D2E/DX2                !
 ! D21   D(9,4,6,11)            -0.0392         estimate D2E/DX2                !
 ! D22   D(2,5,7,6)             -0.0156         estimate D2E/DX2                !
 ! D23   D(2,5,7,12)           179.9426         estimate D2E/DX2                !
 ! D24   D(10,5,7,6)          -179.9675         estimate D2E/DX2                !
 ! D25   D(10,5,7,12)           -0.0093         estimate D2E/DX2                !
 ! D26   D(4,6,7,5)              0.0605         estimate D2E/DX2                !
 ! D27   D(4,6,7,12)          -179.8972         estimate D2E/DX2                !
 ! D28   D(11,6,7,5)          -179.9762         estimate D2E/DX2                !
 ! D29   D(11,6,7,12)            0.0661         estimate D2E/DX2                !
 ! D30   D(1,8,13,14)         -137.6226         estimate D2E/DX2                !
 ! D31   D(1,8,13,15)           -4.4198         estimate D2E/DX2                !
 ! D32   D(8,13,15,2)            7.3388         estimate D2E/DX2                !
 ! D33   D(14,13,15,2)         109.4095         estimate D2E/DX2                !
 --------------------------------------------------------------------------------
 Trust Radius=3.00D-01 FncErr=1.00D-07 GrdErr=1.00D-06
 Number of steps in this run=     83 maximum allowed number of steps=    100.
 GradGradGradGradGradGradGradGradGradGradGradGradGradGradGradGradGradGrad

 Leave Link  103 at Fri Aug 27 00:47:11 2021, MaxMem= 17179869184 cpu:         0.1
 (Enter /public3/home/sc51754/softwares/g09e01/l202.exe)
                          Input orientation:                          
 ---------------------------------------------------------------------
 Center     Atomic      Atomic             Coordinates (Angstroms)
 Number     Number       Type             X           Y           Z
 ---------------------------------------------------------------------
      1          8           0        1.261476    1.387852    0.005408
      2          7           0        0.249425   -0.658880    0.011581
      3          6           0        0.210209    0.735997    0.005920
      4          6           0       -1.119592    1.287625    0.000474
      5          6           0       -0.843575   -1.460822    0.006702
      6          6           0       -2.218160    0.481905   -0.003521
      7          6           0       -2.095586   -0.930593   -0.001061
      8          1           0        2.701404    0.273138   -0.041623
      9          1           0       -1.196826    2.364370   -0.002539
     10          1           0       -0.649991   -2.523426    0.008616
     11          1           0       -3.205344    0.926047   -0.009282
     12          1           0       -2.960874   -1.573618   -0.005843
     13          8           0        3.106669   -0.619787   -0.085978
     14          1           0        3.833439   -0.624251    0.540740
     15          1           0        1.187279   -1.059291    0.022340
 ---------------------------------------------------------------------
                    Distance matrix (angstroms):
                    1          2          3          4          5
     1  O    0.000000
     2  N    2.283286   0.000000
     3  C    1.236963   1.395440   0.000000
     4  C    2.383182   2.379751   1.439685   0.000000
     5  C    3.542059   1.355649   2.436488   2.762279   0.000000
     6  C    3.595648   2.718565   2.441645   1.362370   2.379869
     7  C    4.079840   2.360734   2.845042   2.423439   1.359682
     8  H    1.821590   2.623679   2.534275   3.953602   3.946622
     9  H    2.645165   3.351400   2.152073   1.079516   3.841480
    10  H    4.353368   2.070142   3.371022   3.839883   1.080095
    11  H    4.490653   3.801034   3.420870   2.116883   3.357879
    12  H    5.157390   3.338124   3.923038   3.402509   2.120339
    13  O    2.728315   2.859176   3.199387   4.637561   4.039846
    14  H    3.309098   3.623033   3.906930   5.336635   4.781162
    15  H    2.448326   1.019811   2.044014   3.290919   2.070227
                    6          7          8          9         10
     6  C    0.000000
     7  C    1.417809   0.000000
     8  H    4.924139   4.945880   0.000000
     9  H    2.141681   3.415341   4.423910   0.000000
    10  H    3.389884   2.151036   4.365220   4.918303   0.000000
    11  H    1.082510   2.163040   5.942811   2.470418   4.292903
    12  H    2.185590   1.078066   5.955937   4.315046   2.498504
    13  O    5.438228   5.212223   0.981592   5.237578   4.212515
    14  H    6.175893   5.961605   1.557548   5.876272   4.898078
    15  H    3.738043   3.285470   2.017928   4.172053   2.349349
                   11         12         13         14         15
    11  H    0.000000
    12  H    2.511594   0.000000
    13  O    6.498999   6.142580   0.000000
    14  H    7.228445   6.882059   0.959682   0.000000
    15  H    4.820550   4.180012   1.972043   2.731330   0.000000
 Stoichiometry    C5H7NO2
 Framework group  C1[X(C5H7NO2)]
 Deg. of freedom    39
 Full point group                 C1      NOp   1
 Largest Abelian subgroup         C1      NOp   1
 Largest concise Abelian subgroup C1      NOp   1
                         Standard orientation:                         
 ---------------------------------------------------------------------
 Center     Atomic      Atomic             Coordinates (Angstroms)
 Number     Number       Type             X           Y           Z
 ---------------------------------------------------------------------
      1          8           0        1.261476    1.387852    0.005408
      2          7           0        0.249425   -0.658880    0.011581
      3          6           0        0.210209    0.735997    0.005920
      4          6           0       -1.119592    1.287625    0.000474
      5          6           0       -0.843575   -1.460822    0.006702
      6          6           0       -2.218160    0.481905   -0.003521
      7          6           0       -2.095586   -0.930593   -0.001061
      8          1           0        2.701404    0.273138   -0.041623
      9          1           0       -1.196826    2.364370   -0.002539
     10          1           0       -0.649991   -2.523426    0.008616
     11          1           0       -3.205344    0.926047   -0.009282
     12          1           0       -2.960874   -1.573618   -0.005843
     13          8           0        3.106669   -0.619787   -0.085978
     14          1           0        3.833439   -0.624251    0.540740
     15          1           0        1.187279   -1.059291    0.022340
 ---------------------------------------------------------------------
 Rotational constants (GHZ):      4.0248921      1.3974909      1.0390436
 Leave Link  202 at Fri Aug 27 00:47:11 2021, MaxMem= 17179869184 cpu:         5.2
 (Enter /public3/home/sc51754/softwares/g09e01/l301.exe)
 General basis read from cards:  (5D, 7F)
 Centers:       8      9     10     11     12     14     15
 S 4 1.00
     Exponent=  7.5423000000D+01 Coefficients=  2.4065000000D-03
     Exponent=  1.1350000000D+01 Coefficients=  1.8487000000D-02
     Exponent=  2.5993000000D+00 Coefficients=  8.9742000000D-02
     Exponent=  7.3513000000D-01 Coefficients=  2.8111000000D-01
 S 1 1.00
     Exponent=  2.3167000000D-01 Coefficients=  1.0000000000D+00
 S 1 1.00
     Exponent=  7.4147000000D-02 Coefficients=  1.0000000000D+00
 P 1 1.00
     Exponent=  1.6000000000D+00 Coefficients=  1.0000000000D+00
 P 1 1.00
     Exponent=  4.5000000000D-01 Coefficients=  1.0000000000D+00
 D 1 1.00
     Exponent=  1.2500000000D+00 Coefficients=  1.0000000000D+00
 ****
 Centers:       3      4      5      6      7
 S 7 1.00
     Exponent=  7.8571000000D+03 Coefficients=  5.6825000000D-04
     Exponent=  1.1787000000D+03 Coefficients=  4.3915000000D-03
     Exponent=  2.6832000000D+02 Coefficients=  2.2504000000D-02
     Exponent=  7.5948000000D+01 Coefficients=  8.6653000000D-02
     Exponent=  2.4559000000D+01 Coefficients=  2.4405000000D-01
     Exponent=  8.6212000000D+00 Coefficients=  4.4148000000D-01
     Exponent=  3.1278000000D+00 Coefficients=  3.5332000000D-01
 S 7 1.00
     Exponent=  1.1787000000D+03 Coefficients= -5.9492000000D-07
     Exponent=  2.6832000000D+02 Coefficients= -6.2748000000D-05
     Exponent=  7.5948000000D+01 Coefficients= -7.5773000000D-04
     Exponent=  2.4559000000D+01 Coefficients= -7.3308000000D-03
     Exponent=  8.6212000000D+00 Coefficients= -3.8932000000D-02
     Exponent=  3.1278000000D+00 Coefficients= -8.8908000000D-02
     Exponent=  8.2202000000D-01 Coefficients=  2.1689000000D-01
 S 1 1.00
     Exponent=  3.3017000000D-01 Coefficients=  1.0000000000D+00
 S 1 1.00
     Exponent=  1.1463000000D-01 Coefficients=  1.0000000000D+00
 P 4 1.00
     Exponent=  3.3775000000D+01 Coefficients=  6.0294000000D-03
     Exponent=  7.6766000000D+00 Coefficients=  4.3228000000D-02
     Exponent=  2.2357000000D+00 Coefficients=  1.6301000000D-01
     Exponent=  7.6447000000D-01 Coefficients=  3.6504000000D-01
 P 1 1.00
     Exponent=  2.6232000000D-01 Coefficients=  1.0000000000D+00
 P 1 1.00
     Exponent=  8.4638000000D-02 Coefficients=  1.0000000000D+00
 D 1 1.00
     Exponent=  1.4000000000D+00 Coefficients=  1.0000000000D+00
 D 1 1.00
     Exponent=  4.5000000000D-01 Coefficients=  1.0000000000D+00
 F 1 1.00
     Exponent=  9.5000000000D-01 Coefficients=  1.0000000000D+00
 ****
 Centers:       2
 S 7 1.00
     Exponent=  1.1101000000D+04 Coefficients=  5.4570000000D-04
     Exponent=  1.6653000000D+03 Coefficients=  4.2181000000D-03
     Exponent=  3.7908000000D+02 Coefficients=  2.1645000000D-02
     Exponent=  1.0730000000D+02 Coefficients=  8.3776000000D-02
     Exponent=  3.4747000000D+01 Coefficients=  2.3881000000D-01
     Exponent=  1.2249000000D+01 Coefficients=  4.3994000000D-01
     Exponent=  4.4743000000D+00 Coefficients=  3.6364000000D-01
 S 7 1.00
     Exponent=  1.6653000000D+03 Coefficients= -1.5006000000D-06
     Exponent=  3.7908000000D+02 Coefficients= -5.8753000000D-05
     Exponent=  1.0730000000D+02 Coefficients= -7.7453000000D-04
     Exponent=  3.4747000000D+01 Coefficients= -7.2161000000D-03
     Exponent=  1.2249000000D+01 Coefficients= -3.9338000000D-02
     Exponent=  4.4743000000D+00 Coefficients= -9.0611000000D-02
     Exponent=  1.2404000000D+00 Coefficients=  1.9882000000D-01
 S 1 1.00
     Exponent=  4.8743000000D-01 Coefficients=  1.0000000000D+00
 S 1 1.00
     Exponent=  1.6484000000D-01 Coefficients=  1.0000000000D+00
 P 4 1.00
     Exponent=  4.7934000000D+01 Coefficients=  6.1706000000D-03
     Exponent=  1.0999000000D+01 Coefficients=  4.4260000000D-02
     Exponent=  3.2472000000D+00 Coefficients=  1.6825000000D-01
     Exponent=  1.1114000000D+00 Coefficients=  3.6848000000D-01
 P 1 1.00
     Exponent=  3.7988000000D-01 Coefficients=  1.0000000000D+00
 P 1 1.00
     Exponent=  1.2068000000D-01 Coefficients=  1.0000000000D+00
 D 1 1.00
     Exponent=  1.8000000000D+00 Coefficients=  1.0000000000D+00
 D 1 1.00
     Exponent=  5.5000000000D-01 Coefficients=  1.0000000000D+00
 F 1 1.00
     Exponent=  1.0200000000D+00 Coefficients=  1.0000000000D+00
 ****
 Centers:       1     13
 S 7 1.00
     Exponent=  1.4782000000D+04 Coefficients=  5.3519000000D-04
     Exponent=  2.2173000000D+03 Coefficients=  4.1375000000D-03
     Exponent=  5.0474000000D+02 Coefficients=  2.1245000000D-02
     Exponent=  1.4287000000D+02 Coefficients=  8.2453000000D-02
     Exponent=  4.6300000000D+01 Coefficients=  2.3671000000D-01
     Exponent=  1.6337000000D+01 Coefficients=  4.4039000000D-01
     Exponent=  5.9828000000D+00 Coefficients=  3.6465000000D-01
 S 7 1.00
     Exponent=  2.2173000000D+03 Coefficients= -1.9275000000D-06
     Exponent=  5.0474000000D+02 Coefficients= -5.7964000000D-05
     Exponent=  1.4287000000D+02 Coefficients= -7.9494000000D-04
     Exponent=  4.6300000000D+01 Coefficients= -7.3125000000D-03
     Exponent=  1.6337000000D+01 Coefficients= -4.0574000000D-02
     Exponent=  5.9828000000D+00 Coefficients= -9.1594000000D-02
     Exponent=  1.6718000000D+00 Coefficients=  2.0940000000D-01
 S 1 1.00
     Exponent=  6.4662000000D-01 Coefficients=  1.0000000000D+00
 S 1 1.00
     Exponent=  2.1669000000D-01 Coefficients=  1.0000000000D+00
 P 4 1.00
     Exponent=  6.0424000000D+01 Coefficients=  6.8949000000D-03
     Exponent=  1.3935000000D+01 Coefficients=  4.9005000000D-02
     Exponent=  4.1531000000D+00 Coefficients=  1.8255000000D-01
     Exponent=  1.4158000000D+00 Coefficients=  3.7633000000D-01
 P 1 1.00
     Exponent=  4.7549000000D-01 Coefficients=  1.0000000000D+00
 P 1 1.00
     Exponent=  1.4529000000D-01 Coefficients=  1.0000000000D+00
 D 1 1.00
     Exponent=  2.2000000000D+00 Coefficients=  1.0000000000D+00
 D 1 1.00
     Exponent=  6.5000000000D-01 Coefficients=  1.0000000000D+00
 F 1 1.00
     Exponent=  1.1000000000D+00 Coefficients=  1.0000000000D+00
 ****
 Ernie: Thresh=  0.10000D-02 Tol=  0.10000D-05 Strict=F.
 Ernie:  8 primitive shells out of 263 were deleted.
 There are   385 symmetry adapted cartesian basis functions of A   symmetry.
 There are   338 symmetry adapted basis functions of A   symmetry.
   338 basis functions,   566 primitive gaussians,   385 cartesian basis functions
    30 alpha electrons       30 beta electrons
       nuclear repulsion energy       356.8539014902 Hartrees.
 IExCor=20419 DFT=T Ex+Corr=CAM-B3LYP ExCW=0 ScaHFX=  1.000000
 ScaDFX=  1.000000  1.000000  1.000000  0.810000 ScalE2=  1.000000  1.000000
 IRadAn=      0 IRanWt=     -1 IRanGd=            0 ICorTp=0 IEmpDi=  4
  HFx wShort=  0.000000 wLong=  0.330000 cFull=  0.190000 cShort=  0.000000 cLong=  0.460000
  DFx wShort=  0.000000 wLong=  0.330000 cFull=  0.190000 cShort=  0.000000 cLong=  0.460000
 NAtoms=   15 NActive=   15 NUniq=   15 SFac= 1.00D+00 NAtFMM=   60 NAOKFM=F Big=F
 Integral buffers will be    131072 words long.
 Raffenetti 2 integral format.
 Two-electron integral symmetry is turned on.
 Leave Link  301 at Fri Aug 27 00:47:11 2021, MaxMem= 17179869184 cpu:         2.2
 (Enter /public3/home/sc51754/softwares/g09e01/l302.exe)
 NPDir=0 NMtPBC=     1 NCelOv=     1 NCel=       1 NClECP=     1 NCelD=      1
         NCelK=      1 NCelE2=     1 NClLst=     1 CellRange=     0.0.
 One-electron integrals computed using PRISM.
 NBasis=   338 RedAO= T EigKep=  1.57D-04  NBF=   338
 NBsUse=   338 1.00D-06 EigRej= -1.00D+00 NBFU=   338
 Precomputing XC quadrature grid using
 IXCGrd= 4 IRadAn=           0 IRanWt=          -1 IRanGd=           0 AccXCQ= 0.00D+00.
 Generated NRdTot=       0 NPtTot=           0 NUsed=           0 NTot=          32
 NSgBfM=   385   385   385   385   385 MxSgAt=    15 MxSgA2=    15.
 Leave Link  302 at Fri Aug 27 00:47:12 2021, MaxMem= 17179869184 cpu:        45.5
 (Enter /public3/home/sc51754/softwares/g09e01/l303.exe)
 DipDrv:  MaxL=1.
 Leave Link  303 at Fri Aug 27 00:47:12 2021, MaxMem= 17179869184 cpu:        17.6
 (Enter /public3/home/sc51754/softwares/g09e01/l401.exe)
 ExpMin= 7.41D-02 ExpMax= 1.48D+04 ExpMxC= 5.05D+02 IAcc=2 IRadAn=         4 AccDes= 0.00D+00
 Harris functional with IExCor=20419 and IRadAn=       4 diagonalized for initial guess.
 HarFok:  IExCor=20419 AccDes= 0.00D+00 IRadAn=         4 IDoV= 1 UseB2=F ITyADJ=14
 ICtDFT=  3500011 ScaDFX=  1.000000  1.000000  1.000000  1.000000
 FoFCou: FMM=F IPFlag=           0 FMFlag=      100000 FMFlg1=           0
         NFxFlg=           0 DoJE=T BraDBF=F KetDBF=T FulRan=T
         wScrn=  0.000000 ICntrl=     500 IOpCl=  0 I1Cent=   200000004 NGrid=           0
         NMat0=    1 NMatS0=      1 NMatT0=    0 NMatD0=    1 NMtDS0=    0 NMtDT0=    0
 Petite list used in FoFCou.
 Harris En= -385.287151528431    
 JPrj=0 DoOrth=F DoCkMO=F.
 Leave Link  401 at Fri Aug 27 00:47:13 2021, MaxMem= 17179869184 cpu:        51.6
 (Enter /public3/home/sc51754/softwares/g09e01/l502.exe)
 Closed shell SCF:
 Using DIIS extrapolation, IDIIS=  1040.
 Integral symmetry usage will be decided dynamically.
 Keep R1 ints in memory in canonical form, NReq=3311562672.
 IVT=      490665 IEndB=      490665 NGot= 17179869184 MDV= 13897062548
 LenX= 13897062548 LenY= 13896913882
 Requested convergence on RMS density matrix=1.00D-08 within 128 cycles.
 Requested convergence on MAX density matrix=1.00D-06.
 Requested convergence on             energy=1.00D-06.
 No special actions if energy rises.
 FoFCou: FMM=F IPFlag=           0 FMFlag=           0 FMFlg1=           0
         NFxFlg=           0 DoJE=F BraDBF=F KetDBF=F FulRan=T
         wScrn=  0.000000 ICntrl=     600 IOpCl=  0 I1Cent=           0 NGrid=           0
         NMat0=    1 NMatS0=  57291 NMatT0=    0 NMatD0=    1 NMtDS0=    0 NMtDT0=    0
 Symmetry not used in FoFCou.
 Integral accuracy reduced to 1.0D-05 until final iterations.

 Cycle   1  Pass 0  IDiag  1:
 E= -399.872455495943    
 DIIS: error= 4.58D-02 at cycle   1 NSaved=   1.
 NSaved= 1 IEnMin= 1 EnMin= -399.872455495943     IErMin= 1 ErrMin= 4.58D-02
 ErrMax= 4.58D-02  0.00D+00 EMaxC= 1.00D-01 BMatC= 2.44D-01 BMatP= 2.44D-01
 IDIUse=3 WtCom= 5.42D-01 WtEn= 4.58D-01
 Coeff-Com:  0.100D+01
 Coeff-En:   0.100D+01
 Coeff:      0.100D+01
 Gap=     0.284 Goal=   None    Shift=    0.000
 GapD=    0.284 DampG=1.000 DampE=0.500 DampFc=0.5000 IDamp=-1.
 Damping current iteration by 5.00D-01
 RMSDP=2.24D-03 MaxDP=1.42D-01              OVMax= 1.77D-01

 Cycle   2  Pass 0  IDiag  1:
 E= -399.909380950057     Delta-E=       -0.036925454114 Rises=F Damp=T
 DIIS: error= 2.26D-02 at cycle   2 NSaved=   2.
 NSaved= 2 IEnMin= 2 EnMin= -399.909380950057     IErMin= 2 ErrMin= 2.26D-02
 ErrMax= 2.26D-02  0.00D+00 EMaxC= 1.00D-01 BMatC= 4.90D-02 BMatP= 2.44D-01
 IDIUse=3 WtCom= 7.74D-01 WtEn= 2.26D-01
 Coeff-Com: -0.279D+00 0.128D+01
 Coeff-En:   0.520D-01 0.948D+00
 Coeff:     -0.205D+00 0.120D+01
 Gap=     0.293 Goal=   None    Shift=    0.000
 RMSDP=1.03D-03 MaxDP=6.17D-02 DE=-3.69D-02 OVMax= 1.50D-01

 Cycle   3  Pass 0  IDiag  1:
 E= -399.940796800393     Delta-E=       -0.031415850336 Rises=F Damp=F
 DIIS: error= 9.01D-03 at cycle   3 NSaved=   3.
 NSaved= 3 IEnMin= 3 EnMin= -399.940796800393     IErMin= 3 ErrMin= 9.01D-03
 ErrMax= 9.01D-03  0.00D+00 EMaxC= 1.00D-01 BMatC= 2.07D-02 BMatP= 4.90D-02
 IDIUse=3 WtCom= 9.10D-01 WtEn= 9.01D-02
 Coeff-Com: -0.289D+00 0.617D+00 0.672D+00
 Coeff-En:   0.000D+00 0.000D+00 0.100D+01
 Coeff:     -0.263D+00 0.562D+00 0.701D+00
 Gap=     0.277 Goal=   None    Shift=    0.000
 RMSDP=3.29D-04 MaxDP=2.37D-02 DE=-3.14D-02 OVMax= 5.53D-02

 Cycle   4  Pass 0  IDiag  1:
 E= -399.959195141389     Delta-E=       -0.018398340996 Rises=F Damp=F
 DIIS: error= 1.70D-03 at cycle   4 NSaved=   4.
 NSaved= 4 IEnMin= 4 EnMin= -399.959195141389     IErMin= 4 ErrMin= 1.70D-03
 ErrMax= 1.70D-03  0.00D+00 EMaxC= 1.00D-01 BMatC= 1.32D-03 BMatP= 2.07D-02
 IDIUse=3 WtCom= 9.83D-01 WtEn= 1.70D-02
 Coeff-Com: -0.130D+00 0.267D+00 0.380D+00 0.483D+00
 Coeff-En:   0.000D+00 0.000D+00 0.000D+00 0.100D+01
 Coeff:     -0.127D+00 0.263D+00 0.373D+00 0.492D+00
 Gap=     0.276 Goal=   None    Shift=    0.000
 RMSDP=6.81D-05 MaxDP=5.01D-03 DE=-1.84D-02 OVMax= 7.87D-03

 Cycle   5  Pass 0  IDiag  1:
 E= -399.960259712886     Delta-E=       -0.001064571497 Rises=F Damp=F
 DIIS: error= 3.90D-04 at cycle   5 NSaved=   5.
 NSaved= 5 IEnMin= 5 EnMin= -399.960259712886     IErMin= 5 ErrMin= 3.90D-04
 ErrMax= 3.90D-04  0.00D+00 EMaxC= 1.00D-01 BMatC= 3.26D-05 BMatP= 1.32D-03
 IDIUse=3 WtCom= 9.96D-01 WtEn= 3.90D-03
 Coeff-Com: -0.157D-01 0.308D-01 0.690D-01 0.162D+00 0.753D+00
 Coeff-En:   0.000D+00 0.000D+00 0.000D+00 0.000D+00 0.100D+01
 Coeff:     -0.157D-01 0.306D-01 0.688D-01 0.162D+00 0.754D+00
 Gap=     0.276 Goal=   None    Shift=    0.000
 RMSDP=2.10D-05 MaxDP=1.41D-03 DE=-1.06D-03 OVMax= 4.63D-03

 Cycle   6  Pass 0  IDiag  1:
 E= -399.960293689542     Delta-E=       -0.000033976656 Rises=F Damp=F
 DIIS: error= 2.21D-04 at cycle   6 NSaved=   6.
 NSaved= 6 IEnMin= 6 EnMin= -399.960293689542     IErMin= 6 ErrMin= 2.21D-04
 ErrMax= 2.21D-04  0.00D+00 EMaxC= 1.00D-01 BMatC= 1.75D-05 BMatP= 3.26D-05
 IDIUse=3 WtCom= 9.98D-01 WtEn= 2.21D-03
 Coeff-Com:  0.189D-01-0.399D-01-0.398D-01-0.205D-01 0.465D+00 0.616D+00
 Coeff-En:   0.000D+00 0.000D+00 0.000D+00 0.000D+00 0.000D+00 0.100D+01
 Coeff:      0.189D-01-0.398D-01-0.398D-01-0.205D-01 0.464D+00 0.617D+00
 Gap=     0.276 Goal=   None    Shift=    0.000
 RMSDP=1.19D-05 MaxDP=4.78D-04 DE=-3.40D-05 OVMax= 1.58D-03

 Cycle   7  Pass 0  IDiag  1:
 E= -399.960311602955     Delta-E=       -0.000017913413 Rises=F Damp=F
 DIIS: error= 6.22D-05 at cycle   7 NSaved=   7.
 NSaved= 7 IEnMin= 7 EnMin= -399.960311602955     IErMin= 7 ErrMin= 6.22D-05
 ErrMax= 6.22D-05  0.00D+00 EMaxC= 1.00D-01 BMatC= 6.95D-07 BMatP= 1.75D-05
 IDIUse=1 WtCom= 1.00D+00 WtEn= 0.00D+00
 Coeff-Com:  0.480D-02-0.980D-02-0.136D-01-0.317D-01 0.346D-02 0.800D-01
 Coeff-Com:  0.967D+00
 Coeff:      0.480D-02-0.980D-02-0.136D-01-0.317D-01 0.346D-02 0.800D-01
 Coeff:      0.967D+00
 Gap=     0.276 Goal=   None    Shift=    0.000
 RMSDP=5.24D-06 MaxDP=1.66D-04 DE=-1.79D-05 OVMax= 1.32D-03

 Initial convergence to 1.0D-05 achieved.  Increase integral accuracy.
 Cycle   8  Pass 1  IDiag  1:
 E= -399.960341569056     Delta-E=       -0.000029966100 Rises=F Damp=F
 DIIS: error= 1.90D-05 at cycle   1 NSaved=   1.
 NSaved= 1 IEnMin= 1 EnMin= -399.960341569056     IErMin= 1 ErrMin= 1.90D-05
 ErrMax= 1.90D-05  0.00D+00 EMaxC= 1.00D-01 BMatC= 2.18D-07 BMatP= 2.18D-07
 IDIUse=1 WtCom= 1.00D+00 WtEn= 0.00D+00
 Coeff-Com:  0.100D+01
 Coeff:      0.100D+01
 Gap=     0.276 Goal=   None    Shift=    0.000
 RMSDP=5.24D-06 MaxDP=1.66D-04 DE=-3.00D-05 OVMax= 2.57D-04

 Cycle   9  Pass 1  IDiag  1:
 E= -399.960341782540     Delta-E=       -0.000000213485 Rises=F Damp=F
 DIIS: error= 2.22D-05 at cycle   2 NSaved=   2.
 NSaved= 2 IEnMin= 2 EnMin= -399.960341782540     IErMin= 1 ErrMin= 1.90D-05
 ErrMax= 2.22D-05  0.00D+00 EMaxC= 1.00D-01 BMatC= 1.96D-07 BMatP= 2.18D-07
 IDIUse=1 WtCom= 1.00D+00 WtEn= 0.00D+00
 Coeff-Com:  0.483D+00 0.517D+00
 Coeff:      0.483D+00 0.517D+00
 Gap=     0.276 Goal=   None    Shift=    0.000
 RMSDP=1.07D-06 MaxDP=5.58D-05 DE=-2.13D-07 OVMax= 2.47D-04

 Cycle  10  Pass 1  IDiag  1:
 E= -399.960341953563     Delta-E=       -0.000000171022 Rises=F Damp=F
 DIIS: error= 8.01D-06 at cycle   3 NSaved=   3.
 NSaved= 3 IEnMin= 3 EnMin= -399.960341953563     IErMin= 3 ErrMin= 8.01D-06
 ErrMax= 8.01D-06  0.00D+00 EMaxC= 1.00D-01 BMatC= 2.54D-08 BMatP= 1.96D-07
 IDIUse=1 WtCom= 1.00D+00 WtEn= 0.00D+00
 Coeff-Com: -0.594D-01 0.217D+00 0.843D+00
 Coeff:     -0.594D-01 0.217D+00 0.843D+00
 Gap=     0.276 Goal=   None    Shift=    0.000
 RMSDP=6.46D-07 MaxDP=2.13D-05 DE=-1.71D-07 OVMax= 1.06D-04

 Cycle  11  Pass 1  IDiag  1:
 E= -399.960341990362     Delta-E=       -0.000000036799 Rises=F Damp=F
 DIIS: error= 4.59D-06 at cycle   4 NSaved=   4.
 NSaved= 4 IEnMin= 4 EnMin= -399.960341990362     IErMin= 4 ErrMin= 4.59D-06
 ErrMax= 4.59D-06  0.00D+00 EMaxC= 1.00D-01 BMatC= 5.23D-09 BMatP= 2.54D-08
 IDIUse=1 WtCom= 1.00D+00 WtEn= 0.00D+00
 Coeff-Com: -0.111D+00 0.566D-01 0.434D+00 0.620D+00
 Coeff:     -0.111D+00 0.566D-01 0.434D+00 0.620D+00
 Gap=     0.276 Goal=   None    Shift=    0.000
 RMSDP=2.58D-07 MaxDP=1.21D-05 DE=-3.68D-08 OVMax= 6.07D-05

 Cycle  12  Pass 1  IDiag  1:
 E= -399.960341998509     Delta-E=       -0.000000008147 Rises=F Damp=F
 DIIS: error= 1.53D-06 at cycle   5 NSaved=   5.
 NSaved= 5 IEnMin= 5 EnMin= -399.960341998509     IErMin= 5 ErrMin= 1.53D-06
 ErrMax= 1.53D-06  0.00D+00 EMaxC= 1.00D-01 BMatC= 6.43D-10 BMatP= 5.23D-09
 IDIUse=1 WtCom= 1.00D+00 WtEn= 0.00D+00
 Coeff-Com: -0.121D-01-0.241D-01-0.130D+00 0.164D+00 0.100D+01
 Coeff:     -0.121D-01-0.241D-01-0.130D+00 0.164D+00 0.100D+01
 Gap=     0.276 Goal=   None    Shift=    0.000
 RMSDP=1.72D-07 MaxDP=5.62D-06 DE=-8.15D-09 OVMax= 4.28D-05

 Cycle  13  Pass 1  IDiag  1:
 E= -399.960342000192     Delta-E=       -0.000000001683 Rises=F Damp=F
 DIIS: error= 7.04D-07 at cycle   6 NSaved=   6.
 NSaved= 6 IEnMin= 6 EnMin= -399.960342000192     IErMin= 6 ErrMin= 7.04D-07
 ErrMax= 7.04D-07  0.00D+00 EMaxC= 1.00D-01 BMatC= 9.72D-11 BMatP= 6.43D-10
 IDIUse=1 WtCom= 1.00D+00 WtEn= 0.00D+00
 Coeff-Com:  0.760D-02-0.168D-01-0.118D+00 0.238D-02 0.456D+00 0.669D+00
 Coeff:      0.760D-02-0.168D-01-0.118D+00 0.238D-02 0.456D+00 0.669D+00
 Gap=     0.276 Goal=   None    Shift=    0.000
 RMSDP=4.18D-08 MaxDP=1.66D-06 DE=-1.68D-09 OVMax= 7.34D-06

 Cycle  14  Pass 1  IDiag  1:
 E= -399.960342000321     Delta-E=       -0.000000000129 Rises=F Damp=F
 DIIS: error= 1.71D-07 at cycle   7 NSaved=   7.
 NSaved= 7 IEnMin= 7 EnMin= -399.960342000321     IErMin= 7 ErrMin= 1.71D-07
 ErrMax= 1.71D-07  0.00D+00 EMaxC= 1.00D-01 BMatC= 4.84D-12 BMatP= 9.72D-11
 IDIUse=1 WtCom= 1.00D+00 WtEn= 0.00D+00
 Coeff-Com:  0.383D-02-0.416D-02-0.358D-01-0.837D-02 0.107D+00 0.254D+00
 Coeff-Com:  0.683D+00
 Coeff:      0.383D-02-0.416D-02-0.358D-01-0.837D-02 0.107D+00 0.254D+00
 Coeff:      0.683D+00
 Gap=     0.276 Goal=   None    Shift=    0.000
 RMSDP=6.91D-09 MaxDP=3.67D-07 DE=-1.29D-10 OVMax= 1.28D-06

 SCF Done:  E(RCAM-B3LYP) =  -399.960342000     A.U. after   14 cycles
            NFock= 14  Conv=0.69D-08     -V/T= 2.0036
 KE= 3.985319240285D+02 PE=-1.649474647550D+03 EE= 4.941284800313D+02
 Leave Link  502 at Fri Aug 27 00:47:41 2021, MaxMem= 17179869184 cpu:       452.3
 (Enter /public3/home/sc51754/softwares/g09e01/l601.exe)
 Copying SCF densities to generalized density rwf, IOpCl= 0 IROHF=0.

 **********************************************************************

            Population analysis using the SCF density.

 **********************************************************************

 Orbital symmetries:
       Occupied  (A) (A) (A) (A) (A) (A) (A) (A) (A) (A) (A) (A)
                 (A) (A) (A) (A) (A) (A) (A) (A) (A) (A) (A) (A)
                 (A) (A) (A) (A) (A) (A)
       Virtual   (A) (A) (A) (A) (A) (A) (A) (A) (A) (A) (A) (A)
                 (A) (A) (A) (A) (A) (A) (A) (A) (A) (A) (A) (A)
                 (A) (A) (A) (A) (A) (A) (A) (A) (A) (A) (A) (A)
                 (A) (A) (A) (A) (A) (A) (A) (A) (A) (A) (A) (A)
                 (A) (A) (A) (A) (A) (A) (A) (A) (A) (A) (A) (A)
                 (A) (A) (A) (A) (A) (A) (A) (A) (A) (A) (A) (A)
                 (A) (A) (A) (A) (A) (A) (A) (A) (A) (A) (A) (A)
                 (A) (A) (A) (A) (A) (A) (A) (A) (A) (A) (A) (A)
                 (A) (A) (A) (A) (A) (A) (A) (A) (A) (A) (A) (A)
                 (A) (A) (A) (A) (A) (A) (A) (A) (A) (A) (A) (A)
                 (A) (A) (A) (A) (A) (A) (A) (A) (A) (A) (A) (A)
                 (A) (A) (A) (A) (A) (A) (A) (A) (A) (A) (A) (A)
                 (A) (A) (A) (A) (A) (A) (A) (A) (A) (A) (A) (A)
                 (A) (A) (A) (A) (A) (A) (A) (A) (A) (A) (A) (A)
                 (A) (A) (A) (A) (A) (A) (A) (A) (A) (A) (A) (A)
                 (A) (A) (A) (A) (A) (A) (A) (A) (A) (A) (A) (A)
                 (A) (A) (A) (A) (A) (A) (A) (A) (A) (A) (A) (A)
                 (A) (A) (A) (A) (A) (A) (A) (A) (A) (A) (A) (A)
                 (A) (A) (A) (A) (A) (A) (A) (A) (A) (A) (A) (A)
                 (A) (A) (A) (A) (A) (A) (A) (A) (A) (A) (A) (A)
                 (A) (A) (A) (A) (A) (A) (A) (A) (A) (A) (A) (A)
                 (A) (A) (A) (A) (A) (A) (A) (A) (A) (A) (A) (A)
                 (A) (A) (A) (A) (A) (A) (A) (A) (A) (A) (A) (A)
                 (A) (A) (A) (A) (A) (A) (A) (A) (A) (A) (A) (A)
                 (A) (A) (A) (A) (A) (A) (A) (A) (A) (A) (A) (A)
                 (A) (A) (A) (A) (A) (A) (A) (A)
 The electronic state is 1-A.
 Alpha  occ. eigenvalues --  -19.18740 -19.16398 -14.44915 -10.36075 -10.31872
 Alpha  occ. eigenvalues --  -10.28339 -10.26344 -10.26116  -1.12892  -1.07890
 Alpha  occ. eigenvalues --   -1.04859  -0.91316  -0.84981  -0.74194  -0.72303
 Alpha  occ. eigenvalues --   -0.64400  -0.60373  -0.58585  -0.56182  -0.54193
 Alpha  occ. eigenvalues --   -0.52514  -0.51099  -0.46741  -0.45941  -0.44415
 Alpha  occ. eigenvalues --   -0.42406  -0.38313  -0.37910  -0.33727  -0.28788
 Alpha virt. eigenvalues --   -0.01163   0.03999   0.04327   0.05900   0.06851
 Alpha virt. eigenvalues --    0.08519   0.10546   0.13540   0.15542   0.16691
 Alpha virt. eigenvalues --    0.17614   0.18691   0.19734   0.21465   0.22298
 Alpha virt. eigenvalues --    0.22586   0.23800   0.25248   0.26266   0.29012
 Alpha virt. eigenvalues --    0.30088   0.31580   0.31815   0.32165   0.32467
 Alpha virt. eigenvalues --    0.33758   0.34882   0.35641   0.37737   0.38670
 Alpha virt. eigenvalues --    0.39656   0.40412   0.41484   0.43713   0.44317
 Alpha virt. eigenvalues --    0.45542   0.46551   0.49055   0.50248   0.52925
 Alpha virt. eigenvalues --    0.53917   0.56036   0.57087   0.58877   0.60159
 Alpha virt. eigenvalues --    0.61420   0.64669   0.67262   0.68170   0.68757
 Alpha virt. eigenvalues --    0.71305   0.72204   0.76198   0.79161   0.81230
 Alpha virt. eigenvalues --    0.81647   0.84412   0.86402   0.86930   0.90209
 Alpha virt. eigenvalues --    0.92341   0.94627   0.97288   0.97716   0.98221
 Alpha virt. eigenvalues --    1.00347   1.03154   1.05007   1.06754   1.09889
 Alpha virt. eigenvalues --    1.12228   1.12764   1.14814   1.16801   1.18071
 Alpha virt. eigenvalues --    1.19537   1.20267   1.22298   1.22499   1.24339
 Alpha virt. eigenvalues --    1.25758   1.27701   1.29590   1.30449   1.31201
 Alpha virt. eigenvalues --    1.32248   1.34063   1.37808   1.39344   1.43884
 Alpha virt. eigenvalues --    1.45376   1.46392   1.47618   1.50468   1.52039
 Alpha virt. eigenvalues --    1.52846   1.53718   1.54139   1.55879   1.58817
 Alpha virt. eigenvalues --    1.62533   1.64405   1.66402   1.70857   1.71361
 Alpha virt. eigenvalues --    1.72559   1.74078   1.74176   1.78683   1.79195
 Alpha virt. eigenvalues --    1.84219   1.84921   1.86923   1.91482   1.92120
 Alpha virt. eigenvalues --    1.94478   1.95282   1.96686   1.99021   2.02434
 Alpha virt. eigenvalues --    2.06740   2.07635   2.08427   2.12426   2.12709
 Alpha virt. eigenvalues --    2.16068   2.18282   2.21259   2.22448   2.26870
 Alpha virt. eigenvalues --    2.27411   2.28208   2.30102   2.33120   2.36555
 Alpha virt. eigenvalues --    2.38089   2.47919   2.55965   2.59063   2.68432
 Alpha virt. eigenvalues --    2.74440   2.92593   2.95282   2.98158   3.00594
 Alpha virt. eigenvalues --    3.01135   3.07193   3.23582   3.24554   3.26901
 Alpha virt. eigenvalues --    3.28576   3.30681   3.31135   3.34812   3.37662
 Alpha virt. eigenvalues --    3.38807   3.41483   3.44732   3.47742   3.48785
 Alpha virt. eigenvalues --    3.51823   3.53599   3.56781   3.60653   3.61356
 Alpha virt. eigenvalues --    3.63189   3.65178   3.69665   3.70411   3.72485
 Alpha virt. eigenvalues --    3.73616   3.74367   3.77820   3.78019   3.82230
 Alpha virt. eigenvalues --    3.85728   3.90334   3.92977   3.96316   3.96408
 Alpha virt. eigenvalues --    3.99579   4.00616   4.01588   4.02983   4.05520
 Alpha virt. eigenvalues --    4.08712   4.09810   4.11984   4.13257   4.14179
 Alpha virt. eigenvalues --    4.15170   4.16409   4.19149   4.20322   4.21944
 Alpha virt. eigenvalues --    4.23499   4.24121   4.26958   4.27593   4.28760
 Alpha virt. eigenvalues --    4.30298   4.31166   4.32975   4.33586   4.35428
 Alpha virt. eigenvalues --    4.35639   4.38285   4.38650   4.39859   4.40292
 Alpha virt. eigenvalues --    4.41999   4.43606   4.46453   4.48032   4.50491
 Alpha virt. eigenvalues --    4.51643   4.52924   4.53532   4.54564   4.55492
 Alpha virt. eigenvalues --    4.57402   4.58321   4.60729   4.61275   4.64444
 Alpha virt. eigenvalues --    4.65245   4.65517   4.69337   4.69446   4.72574
 Alpha virt. eigenvalues --    4.75274   4.76770   4.79528   4.84238   4.88748
 Alpha virt. eigenvalues --    4.90806   4.92590   4.94230   4.95403   4.98391
 Alpha virt. eigenvalues --    4.98959   5.01978   5.02066   5.03344   5.05096
 Alpha virt. eigenvalues --    5.08788   5.12896   5.16126   5.20306   5.24740
 Alpha virt. eigenvalues --    5.26101   5.30726   5.32157   5.37621   5.38158
 Alpha virt. eigenvalues --    5.40428   5.41362   5.45803   5.47102   5.48751
 Alpha virt. eigenvalues --    5.53778   5.54120   5.60852   5.63092   5.65130
 Alpha virt. eigenvalues --    5.65223   5.70085   5.74834   5.77461   5.79147
 Alpha virt. eigenvalues --    5.82461   5.87219   5.91817   5.97670   6.02189
 Alpha virt. eigenvalues --    6.02861   6.04107   6.10240   6.15428   6.16462
 Alpha virt. eigenvalues --    6.18305   6.22444   6.28151   6.31444   6.33645
 Alpha virt. eigenvalues --    6.36516   6.39955   6.44656   6.50264   6.57707
 Alpha virt. eigenvalues --    6.59634   6.60326   6.68204   6.85968   6.96682
 Alpha virt. eigenvalues --    7.02515   7.06176   7.17996   7.30326   7.49094
 Alpha virt. eigenvalues --    9.57410  12.37552  13.24340  14.78592  15.46372
 Alpha virt. eigenvalues --   18.04437  18.40157  22.81101
          Condensed to atoms (all electrons):
               1          2          3          4          5          6
     1  O    8.153204  -0.108536   0.552161  -0.074322   0.009077   0.006739
     2  N   -0.108536   6.399934   0.369141  -0.050465   0.382525  -0.015549
     3  C    0.552161   0.369141   4.338699   0.454256  -0.039995  -0.046900
     4  C   -0.074322  -0.050465   0.454256   4.939922  -0.033424   0.546004
     5  C    0.009077   0.382525  -0.039995  -0.033424   4.614647  -0.084013
     6  C    0.006739  -0.015549  -0.046900   0.546004  -0.084013   4.749546
     7  C    0.001254  -0.063918  -0.025000  -0.073650   0.601762   0.446381
     8  H    0.034741   0.001958  -0.003195   0.000647   0.001939  -0.000252
     9  H    0.003791   0.005076  -0.037984   0.445912  -0.000461  -0.035396
    10  H   -0.000625  -0.037033   0.003087  -0.003209   0.436047   0.007836
    11  H   -0.000379  -0.002046   0.007062  -0.034450   0.008711   0.432529
    12  H    0.000019   0.005298  -0.001139   0.006375  -0.030872  -0.035037
    13  O   -0.038037  -0.032386   0.000340   0.000024  -0.004895   0.000123
    14  H    0.002934   0.000562   0.000665   0.000103  -0.000011  -0.000014
    15  H    0.000415   0.395983  -0.024121   0.006649  -0.027490  -0.002581
               7          8          9         10         11         12
     1  O    0.001254   0.034741   0.003791  -0.000625  -0.000379   0.000019
     2  N   -0.063918   0.001958   0.005076  -0.037033  -0.002046   0.005298
     3  C   -0.025000  -0.003195  -0.037984   0.003087   0.007062  -0.001139
     4  C   -0.073650   0.000647   0.445912  -0.003209  -0.034450   0.006375
     5  C    0.601762   0.001939  -0.000461   0.436047   0.008711  -0.030872
     6  C    0.446381  -0.000252  -0.035396   0.007836   0.432529  -0.035037
     7  C    4.883188  -0.000058   0.006524  -0.041065  -0.042872   0.440625
     8  H   -0.000058   0.402629   0.000139   0.000181   0.000003  -0.000012
     9  H    0.006524   0.000139   0.556620   0.000239  -0.007651   0.000067
    10  H   -0.041065   0.000181   0.000239   0.581711  -0.000144  -0.004104
    11  H   -0.042872   0.000003  -0.007651  -0.000144   0.581281  -0.006836
    12  H    0.440625  -0.000012   0.000067  -0.004104  -0.006836   0.571070
    13  O   -0.000177   0.347605   0.000020  -0.000825  -0.000002   0.000020
    14  H    0.000027  -0.021533  -0.000004  -0.000038   0.000000   0.000000
    15  H    0.005491  -0.010082  -0.000389  -0.009304   0.000157   0.000045
              13         14         15
     1  O   -0.038037   0.002934   0.000415
     2  N   -0.032386   0.000562   0.395983
     3  C    0.000340   0.000665  -0.024121
     4  C    0.000024   0.000103   0.006649
     5  C   -0.004895  -0.000011  -0.027490
     6  C    0.000123  -0.000014  -0.002581
     7  C   -0.000177   0.000027   0.005491
     8  H    0.347605  -0.021533  -0.010082
     9  H    0.000020  -0.000004  -0.000389
    10  H   -0.000825  -0.000038  -0.009304
    11  H   -0.000002   0.000000   0.000157
    12  H    0.000020   0.000000   0.000045
    13  O    7.791831   0.353010   0.053288
    14  H    0.353010   0.455753  -0.003392
    15  H    0.053288  -0.003392   0.440575
 Mulliken charges:
               1
     1  O   -0.542438
     2  N   -0.250544
     3  C    0.452923
     4  C   -0.130373
     5  C    0.166454
     6  C    0.030586
     7  C   -0.138512
     8  H    0.245290
     9  H    0.063496
    10  H    0.067247
    11  H    0.064638
    12  H    0.054481
    13  O   -0.469941
    14  H    0.211937
    15  H    0.174754
 Sum of Mulliken charges =  -0.00000
 Mulliken charges with hydrogens summed into heavy atoms:
               1
     1  O   -0.542438
     2  N   -0.075789
     3  C    0.452923
     4  C   -0.066877
     5  C    0.233702
     6  C    0.095224
     7  C   -0.084031
    13  O   -0.012713
 Electronic spatial extent (au):  <R**2>=           1080.9082
 Charge=             -0.0000 electrons
 Dipole moment (field-independent basis, Debye):
    X=             -2.5828    Y=             -2.2317    Z=              1.1447  Tot=              3.6002
 Quadrupole moment (field-independent basis, Debye-Ang):
   XX=            -41.7781   YY=            -46.1181   ZZ=            -50.1345
   XY=             -2.2235   XZ=              4.8662   YZ=             -0.9026
 Traceless Quadrupole moment (field-independent basis, Debye-Ang):
   XX=              4.2321   YY=             -0.1079   ZZ=             -4.1242
   XY=             -2.2235   XZ=              4.8662   YZ=             -0.9026
 Octapole moment (field-independent basis, Debye-Ang**2):
  XXX=             23.0269  YYY=            -12.5462  ZZZ=              0.7848  XYY=             -6.8439
  XXY=              0.6176  XXZ=             19.1278  XZZ=             11.4129  YZZ=              0.6194
  YYZ=              0.6296  XYZ=             -3.3718
 Hexadecapole moment (field-independent basis, Debye-Ang**3):
 XXXX=           -771.8033 YYYY=           -354.0483 ZZZZ=            -55.5443 XXXY=             -5.3064
 XXXZ=             77.5157 YYYX=            -13.5565 YYYZ=             -0.9164 ZZZX=              3.7808
 ZZZY=             -0.5970 XXYY=           -222.3527 XXZZ=           -177.1627 YYZZ=            -78.5806
 XXYZ=            -12.9576 YYXZ=              2.9012 ZZXY=             -2.3643
 N-N= 3.568539014902D+02 E-N=-1.649474643231D+03  KE= 3.985319240285D+02
 No NMR shielding tensors so no spin-rotation constants.
 Leave Link  601 at Fri Aug 27 00:47:42 2021, MaxMem= 17179869184 cpu:        56.0
 (Enter /public3/home/sc51754/softwares/g09e01/l701.exe)
 Compute integral first derivatives.
 ... and contract with generalized density number  0.
 Leave Link  701 at Fri Aug 27 00:47:43 2021, MaxMem= 17179869184 cpu:        52.0
 (Enter /public3/home/sc51754/softwares/g09e01/l702.exe)
 L702 exits ... SP integral derivatives will be done elsewhere.
 Leave Link  702 at Fri Aug 27 00:47:43 2021, MaxMem= 17179869184 cpu:         0.3
 (Enter /public3/home/sc51754/softwares/g09e01/l703.exe)
 Compute integral first derivatives, UseDBF=F ICtDFT=           0.
 Integral derivatives from FoFJK, PRISM(SPDF).
 Calling FoFJK, ICntrl=      2127 FMM=F ISym2X=0 I1Cent= 0 IOpClX= 0 NMat=1 NMatS=1 NMatT=0.
 FoFJK:  IHMeth= 1 ICntrl=    2127 DoSepK=T KAlg= 0 I1Cent=   0 FoldK=F
 IRaf=         1 NMat=   1 IRICut=       1 DoRegI=T DoRafI=F ISym2E= 0.
 FoFCou: FMM=F IPFlag=           0 FMFlag=      100000 FMFlg1=         800
         NFxFlg=           0 DoJE=F BraDBF=F KetDBF=F FulRan=T
         wScrn=  0.000000 ICntrl=    2527 IOpCl=  0 I1Cent=           0 NGrid=           0
         NMat0=    1 NMatS0=      1 NMatT0=    0 NMatD0=    1 NMtDS0=    0 NMtDT0=    0
 Symmetry not used in FoFCou.
 Leave Link  703 at Fri Aug 27 00:47:49 2021, MaxMem= 17179869184 cpu:       339.5
 (Enter /public3/home/sc51754/softwares/g09e01/l716.exe)
 Dipole        =-1.01614100D+00-8.78014377D-01 4.50371920D-01
 ***** Axes restored to original set *****
 -------------------------------------------------------------------
 Center     Atomic                   Forces (Hartrees/Bohr)
 Number     Number              X              Y              Z
 -------------------------------------------------------------------
      1        8          -0.007590353   -0.005836151    0.000121182
      2        7          -0.001445205    0.004689283    0.000002800
      3        6           0.004294652   -0.001944000    0.000028737
      4        6          -0.003572460   -0.004718654   -0.000058568
      5        6          -0.004595517    0.005937479   -0.000006818
      6        6           0.006961862    0.001998537    0.000041255
      7        6           0.006645156   -0.001376935    0.000012174
      8        1           0.000276982   -0.001444220   -0.000652295
      9        1           0.000106673   -0.000537834   -0.000004465
     10        1          -0.000049759    0.000491664   -0.000010176
     11        1           0.000669768   -0.000075517    0.000004463
     12        1           0.000402966    0.000265160    0.000004838
     13        8          -0.000827634    0.002336799    0.002070217
     14        1          -0.001119932   -0.000318382   -0.001346900
     15        1          -0.000157198    0.000532772   -0.000206445
 -------------------------------------------------------------------
 Cartesian Forces:  Max     0.007590353 RMS     0.002771621
 Leave Link  716 at Fri Aug 27 00:47:49 2021, MaxMem= 17179869184 cpu:         0.3
 (Enter /public3/home/sc51754/softwares/g09e01/l103.exe)

 GradGradGradGradGradGradGradGradGradGradGradGradGradGradGradGradGradGrad
 Berny optimization.
 FormGI is forming the generalized inverse of G from B-inverse, IUseBI=4.
 Internal  Forces:  Max     0.009185485 RMS     0.002163952
 Search for a local minimum.
 Step number   1 out of a maximum of   83
 All quantities printed in internal units (Hartrees-Bohrs-Radians)
 RMS Force = .21640D-02 SwitMx=.10000D-02 MixMth= 1
 Mixed Optimization -- RFO/linear search
 Second derivative matrix not updated -- first step.
 ITU=  0
     Eigenvalues ---    0.00646   0.00900   0.01671   0.02019   0.02045
     Eigenvalues ---    0.02138   0.02190   0.02305   0.02392   0.02435
     Eigenvalues ---    0.02516   0.04986   0.06334   0.06909   0.09520
     Eigenvalues ---    0.16000   0.16000   0.16000   0.16000   0.19047
     Eigenvalues ---    0.20437   0.21968   0.22000   0.22256   0.23654
     Eigenvalues ---    0.35693   0.35983   0.36053   0.36229   0.38136
     Eigenvalues ---    0.40185   0.42590   0.44184   0.49041   0.49982
     Eigenvalues ---    0.52121   0.53321   0.55542   0.84771
 RFO step:  Lambda=-6.60974668D-04 EMin= 6.46442552D-03
 Linear search not attempted -- first point.
 Iteration  1 RMS(Cart)=  0.00811377 RMS(Int)=  0.00000575
 Iteration  2 RMS(Cart)=  0.00000566 RMS(Int)=  0.00000211
 Iteration  3 RMS(Cart)=  0.00000000 RMS(Int)=  0.00000211
 ITry= 1 IFail=0 DXMaxC= 2.56D-02 DCOld= 1.00D+10 DXMaxT= 3.00D-01 DXLimC= 3.00D+00 Rises=F
 Variable       Old X    -DE/DX   Delta X   Delta X   Delta X     New X
                                 (Linear)    (Quad)   (Total)
    R1        2.33752  -0.00919   0.00000  -0.01100  -0.01100   2.32652
    R2        3.44231  -0.00093   0.00000  -0.01702  -0.01702   3.42529
    R3        2.63700  -0.00735   0.00000  -0.01674  -0.01674   2.62026
    R4        2.56181  -0.00394   0.00000  -0.00744  -0.00744   2.55437
    R5        1.92716  -0.00140   0.00000  -0.00265  -0.00265   1.92451
    R6        2.72061  -0.00364   0.00000  -0.00916  -0.00916   2.71146
    R7        2.57451  -0.00843   0.00000  -0.01592  -0.01592   2.55858
    R8        2.03999  -0.00054   0.00000  -0.00151  -0.00151   2.03848
    R9        2.56943  -0.00843   0.00000  -0.01588  -0.01588   2.55354
   R10        2.04108  -0.00049   0.00000  -0.00137  -0.00137   2.03972
   R11        2.67927  -0.00266   0.00000  -0.00607  -0.00607   2.67320
   R12        2.04565  -0.00064   0.00000  -0.00179  -0.00179   2.04385
   R13        2.03725  -0.00048   0.00000  -0.00133  -0.00133   2.03592
   R14        1.85494  -0.00261   0.00000  -0.00475  -0.00475   1.85019
   R15        1.81354  -0.00173   0.00000  -0.00311  -0.00311   1.81043
   R16        3.72662  -0.00147   0.00000  -0.02186  -0.02186   3.70476
    A1        1.92766   0.00152   0.00000   0.00127   0.00127   1.92893
    A2        2.17565  -0.00038   0.00000  -0.00196  -0.00196   2.17369
    A3        2.00244   0.00049   0.00000   0.00130   0.00130   2.00374
    A4        2.10509  -0.00011   0.00000   0.00066   0.00066   2.10576
    A5        2.09773   0.00079   0.00000  -0.00072  -0.00072   2.09701
    A6        2.19333  -0.00111   0.00000  -0.00202  -0.00202   2.19131
    A7        1.99213   0.00032   0.00000   0.00273   0.00274   1.99486
    A8        2.11557  -0.00044   0.00000  -0.00216  -0.00216   2.11341
    A9        2.03563   0.00015   0.00000   0.00065   0.00065   2.03628
   A10        2.13199   0.00029   0.00000   0.00151   0.00151   2.13350
   A11        2.10801   0.00055   0.00000   0.00173   0.00173   2.10974
   A12        2.02357  -0.00031   0.00000  -0.00111  -0.00111   2.02246
   A13        2.15160  -0.00023   0.00000  -0.00061  -0.00061   2.15099
   A14        2.11704   0.00029   0.00000   0.00143   0.00143   2.11846
   A15        2.08601  -0.00036   0.00000  -0.00202  -0.00202   2.08399
   A16        2.08014   0.00006   0.00000   0.00060   0.00060   2.08073
   A17        2.05796  -0.00034   0.00000  -0.00176  -0.00176   2.05620
   A18        2.10191   0.00014   0.00000   0.00071   0.00071   2.10262
   A19        2.12331   0.00020   0.00000   0.00106   0.00106   2.12437
   A20        2.65557  -0.00091   0.00000  -0.00152  -0.00153   2.65404
   A21        1.86229   0.00085   0.00000   0.00444   0.00444   1.86673
   A22        1.36782  -0.00131   0.00000   0.00052   0.00051   1.36833
   A23        2.34644   0.00033   0.00000   0.00231   0.00231   2.34875
   A24        2.50984  -0.00058   0.00000  -0.00055  -0.00055   2.50929
    D1        0.03186   0.00007   0.00000   0.00103   0.00103   0.03289
    D2       -3.10924   0.00008   0.00000   0.00159   0.00159  -3.10764
    D3        0.03871  -0.00007   0.00000  -0.00790  -0.00790   0.03081
    D4       -3.13629   0.00000   0.00000   0.00032   0.00032  -3.13597
    D5        0.00485  -0.00001   0.00000  -0.00018  -0.00018   0.00467
    D6        0.00787   0.00001   0.00000  -0.00006  -0.00006   0.00780
    D7       -3.13417  -0.00000   0.00000  -0.00057  -0.00056  -3.13474
    D8       -0.00292   0.00001   0.00000   0.00014   0.00014  -0.00277
    D9        3.13789  -0.00000   0.00000  -0.00023  -0.00023   3.13766
   D10        3.13597   0.00000   0.00000   0.00055   0.00055   3.13651
   D11       -0.00641  -0.00001   0.00000   0.00017   0.00017  -0.00624
   D12       -0.10803  -0.00002   0.00000   0.00076   0.00076  -0.10727
   D13        3.03601  -0.00002   0.00000   0.00040   0.00040   3.03641
   D14        3.13723  -0.00000   0.00000  -0.00028  -0.00028   3.13695
   D15       -0.00200  -0.00000   0.00000  -0.00028  -0.00028  -0.00228
   D16       -0.00389   0.00000   0.00000   0.00025   0.00025  -0.00363
   D17        3.14007   0.00000   0.00000   0.00025   0.00025   3.14032
   D18        0.00117  -0.00001   0.00000  -0.00030  -0.00030   0.00087
   D19       -3.13978  -0.00000   0.00000  -0.00008  -0.00008  -3.13986
   D20        3.14027  -0.00001   0.00000  -0.00030  -0.00030   3.13996
   D21       -0.00068  -0.00000   0.00000  -0.00008  -0.00008  -0.00076
   D22       -0.00027  -0.00001   0.00000  -0.00015  -0.00015  -0.00042
   D23        3.14059  -0.00000   0.00000  -0.00008  -0.00008   3.14051
   D24       -3.14103   0.00000   0.00000   0.00025   0.00025  -3.14077
   D25       -0.00016   0.00001   0.00000   0.00033   0.00033   0.00016
   D26        0.00106   0.00001   0.00000   0.00023   0.00023   0.00129
   D27       -3.13980   0.00000   0.00000   0.00016   0.00016  -3.13964
   D28       -3.14118   0.00000   0.00000   0.00001   0.00001  -3.14117
   D29        0.00115  -0.00000   0.00000  -0.00006  -0.00006   0.00109
   D30       -2.40197   0.00002   0.00000   0.00442   0.00441  -2.39755
   D31       -0.07714   0.00007   0.00000   0.00695   0.00695  -0.07019
   D32        0.12809  -0.00002   0.00000  -0.00325  -0.00326   0.12483
   D33        1.90956  -0.00009   0.00000   0.00346   0.00346   1.91302
         Item               Value     Threshold  Converged?
 Maximum Force            0.009185     0.000450     NO 
 RMS     Force            0.002164     0.000300     NO 
 Maximum Displacement     0.025646     0.001800     NO 
 RMS     Displacement     0.008116     0.001200     NO 
 Predicted change in Energy=-3.312053D-04
 Lowest energy point so far.  Saving SCF results.
 GradGradGradGradGradGradGradGradGradGradGradGradGradGradGradGradGradGrad

 Leave Link  103 at Fri Aug 27 00:47:50 2021, MaxMem= 17179869184 cpu:        41.7
 (Enter /public3/home/sc51754/softwares/g09e01/l202.exe)
                          Input orientation:                          
 ---------------------------------------------------------------------
 Center     Atomic      Atomic             Coordinates (Angstroms)
 Number     Number       Type             X           Y           Z
 ---------------------------------------------------------------------
      1          8           0        1.253914    1.379705    0.005846
      2          7           0        0.248642   -0.655615    0.012089
      3          6           0        0.207942    0.730359    0.006510
      4          6           0       -1.116565    1.282096    0.000654
      5          6           0       -0.841752   -1.454454    0.007008
      6          6           0       -2.207797    0.480621   -0.003430
      7          6           0       -2.086556   -0.928766   -0.001047
      8          1           0        2.688683    0.273127   -0.042951
      9          1           0       -1.192844    2.358110   -0.002575
     10          1           0       -0.647870   -2.516269    0.008675
     11          1           0       -3.193515    0.925700   -0.009440
     12          1           0       -2.951080   -1.571640   -0.006064
     13          8           0        3.093098   -0.617544   -0.084716
     14          1           0        3.820466   -0.623642    0.538771
     15          1           0        1.185188   -1.055521    0.022606
 ---------------------------------------------------------------------
                    Distance matrix (angstroms):
                    1          2          3          4          5
     1  O    0.000000
     2  N    2.270052   0.000000
     3  C    1.231141   1.386583   0.000000
     4  C    2.372494   2.370368   1.434840   0.000000
     5  C    3.524809   1.351713   2.423895   2.750322   0.000000
     6  C    3.576574   2.706541   2.428634   1.353945   2.368692
     7  C    4.060520   2.351156   2.831514   2.414290   1.351277
     8  H    1.812584   2.611397   2.523011   3.936983   3.930777
     9  H    2.635141   3.340753   2.147523   1.078718   3.828707
    10  H    4.335367   2.065377   3.357531   3.827182   1.079372
    11  H    4.470568   3.788069   3.407099   2.107330   3.346072
    12  H    5.137368   3.328311   3.908808   3.392536   2.112621
    13  O    2.716579   2.846357   3.185795   4.619219   4.023913
    14  H    3.299182   3.610588   3.894478   5.319370   4.765428
    15  H    2.436253   1.018408   2.035838   3.280702   2.065884
                    6          7          8          9         10
     6  C    0.000000
     7  C    1.414594   0.000000
     8  H    4.901034   4.924349   0.000000
     9  H    2.134267   3.406211   4.406250   0.000000
    10  H    3.378590   2.142446   4.349251   4.904762   0.000000
    11  H    1.081560   2.159740   5.918381   2.460596   4.281097
    12  H    2.182716   1.077364   5.933925   4.305152   2.489442
    13  O    5.414061   5.189670   0.979076   5.218291   4.196275
    14  H    6.152507   5.939480   1.556769   5.858087   4.881503
    15  H    3.724615   3.274284   2.007512   4.160354   2.343946
                   11         12         13         14         15
    11  H    0.000000
    12  H    2.509082   0.000000
    13  O    6.473699   6.119524   0.000000
    14  H    7.203953   6.859256   0.958039   0.000000
    15  H    4.806174   4.168443   1.960475   2.719860   0.000000
 Stoichiometry    C5H7NO2
 Framework group  C1[X(C5H7NO2)]
 Deg. of freedom    39
 Full point group                 C1      NOp   1
 RotChk:  IX=0 Diff= 5.79D-04
 Largest Abelian subgroup         C1      NOp   1
 Largest concise Abelian subgroup C1      NOp   1
                         Standard orientation:                         
 ---------------------------------------------------------------------
 Center     Atomic      Atomic             Coordinates (Angstroms)
 Number     Number       Type             X           Y           Z
 ---------------------------------------------------------------------
      1          8           0        1.254062    1.380935    0.005499
      2          7           0        0.249622   -0.654796    0.011741
      3          6           0        0.208355    0.731161    0.006163
      4          6           0       -1.116377    1.282357    0.000307
      5          6           0       -0.840445   -1.454081    0.006660
      6          6           0       -2.207281    0.480435   -0.003778
      7          6           0       -2.085463   -0.928903   -0.001395
      8          1           0        2.689284    0.274944   -0.043299
      9          1           0       -1.193096    2.358339   -0.002923
     10          1           0       -0.646128   -2.515817    0.008328
     11          1           0       -3.193181    0.925111   -0.009788
     12          1           0       -2.949725   -1.572130   -0.006412
     13          8           0        3.094063   -0.615561   -0.085064
     14          1           0        3.821434   -0.621362    0.538424
     15          1           0        1.186332   -1.054319    0.022259
 ---------------------------------------------------------------------
 Rotational constants (GHZ):      4.0602513      1.4096373      1.0480974
 Leave Link  202 at Fri Aug 27 00:47:50 2021, MaxMem= 17179869184 cpu:         5.9
 (Enter /public3/home/sc51754/softwares/g09e01/l301.exe)
 Basis read from rwf:  (5D, 7F)
 No pseudopotential information found on rwf file.
 There are   385 symmetry adapted cartesian basis functions of A   symmetry.
 There are   338 symmetry adapted basis functions of A   symmetry.
   338 basis functions,   566 primitive gaussians,   385 cartesian basis functions
    30 alpha electrons       30 beta electrons
       nuclear repulsion energy       358.3605880748 Hartrees.
 IExCor=20419 DFT=T Ex+Corr=CAM-B3LYP ExCW=0 ScaHFX=  1.000000
 ScaDFX=  1.000000  1.000000  1.000000  0.810000 ScalE2=  1.000000  1.000000
 IRadAn=      0 IRanWt=     -1 IRanGd=            0 ICorTp=0 IEmpDi=  4
  HFx wShort=  0.000000 wLong=  0.330000 cFull=  0.190000 cShort=  0.000000 cLong=  0.460000
  DFx wShort=  0.000000 wLong=  0.330000 cFull=  0.190000 cShort=  0.000000 cLong=  0.460000
 NAtoms=   15 NActive=   15 NUniq=   15 SFac= 1.00D+00 NAtFMM=   60 NAOKFM=F Big=F
 Integral buffers will be    131072 words long.
 Raffenetti 2 integral format.
 Two-electron integral symmetry is turned on.
 No density basis found on file   724.
 Leave Link  301 at Fri Aug 27 00:47:50 2021, MaxMem= 17179869184 cpu:         2.3
 (Enter /public3/home/sc51754/softwares/g09e01/l302.exe)
 NPDir=0 NMtPBC=     1 NCelOv=     1 NCel=       1 NClECP=     1 NCelD=      1
         NCelK=      1 NCelE2=     1 NClLst=     1 CellRange=     0.0.
 One-electron integrals computed using PRISM.
 NBasis=   338 RedAO= T EigKep=  1.53D-04  NBF=   338
 NBsUse=   338 1.00D-06 EigRej= -1.00D+00 NBFU=   338
 Precomputing XC quadrature grid using
 IXCGrd= 4 IRadAn=           0 IRanWt=          -1 IRanGd=           0 AccXCQ= 0.00D+00.
 Generated NRdTot=       0 NPtTot=           0 NUsed=           0 NTot=          32
 NSgBfM=   385   385   385   385   385 MxSgAt=    15 MxSgA2=    15.
 Leave Link  302 at Fri Aug 27 00:47:51 2021, MaxMem= 17179869184 cpu:        42.2
 (Enter /public3/home/sc51754/softwares/g09e01/l303.exe)
 DipDrv:  MaxL=1.
 Leave Link  303 at Fri Aug 27 00:47:51 2021, MaxMem= 17179869184 cpu:        12.3
 (Enter /public3/home/sc51754/softwares/g09e01/l401.exe)
 Initial guess from the checkpoint file:  "PY_H2O_CAM-B3LYP_PC2_OPT_FREQ.chk"
 B after Tr=     0.000000    0.000000   -0.000000
         Rot=    1.000000    0.000004    0.000054   -0.000215 Ang=   0.03 deg.
 Guess basis will be translated and rotated to current coordinates.
 JPrj=2 DoOrth=T DoCkMO=T.
 Generating alternative initial guess.
 ExpMin= 7.41D-02 ExpMax= 1.48D+04 ExpMxC= 5.05D+02 IAcc=2 IRadAn=         4 AccDes= 0.00D+00
 Harris functional with IExCor=20419 and IRadAn=       4 diagonalized for initial guess.
 HarFok:  IExCor=20419 AccDes= 0.00D+00 IRadAn=         4 IDoV= 1 UseB2=F ITyADJ=14
 ICtDFT=  3500011 ScaDFX=  1.000000  1.000000  1.000000  1.000000
 FoFCou: FMM=F IPFlag=           0 FMFlag=      100000 FMFlg1=           0
         NFxFlg=           0 DoJE=T BraDBF=F KetDBF=T FulRan=T
         wScrn=  0.000000 ICntrl=     500 IOpCl=  0 I1Cent=   200000004 NGrid=           0
         NMat0=    1 NMatS0=      1 NMatT0=    0 NMatD0=    1 NMtDS0=    0 NMtDT0=    0
 Petite list used in FoFCou.
 Harris En= -385.282007266240    
 Leave Link  401 at Fri Aug 27 00:47:53 2021, MaxMem= 17179869184 cpu:        71.3
 (Enter /public3/home/sc51754/softwares/g09e01/l502.exe)
 Closed shell SCF:
 Using DIIS extrapolation, IDIIS=  1040.
 Integral symmetry usage will be decided dynamically.
 Keep R1 ints in memory in canonical form, NReq=3311562672.
 IVT=      490665 IEndB=      490665 NGot= 17179869184 MDV= 13897062548
 LenX= 13897062548 LenY= 13896913882
 Requested convergence on RMS density matrix=1.00D-08 within 128 cycles.
 Requested convergence on MAX density matrix=1.00D-06.
 Requested convergence on             energy=1.00D-06.
 No special actions if energy rises.
 FoFCou: FMM=F IPFlag=           0 FMFlag=           0 FMFlg1=           0
         NFxFlg=           0 DoJE=F BraDBF=F KetDBF=F FulRan=T
         wScrn=  0.000000 ICntrl=     600 IOpCl=  0 I1Cent=           0 NGrid=           0
         NMat0=    1 NMatS0=  57291 NMatT0=    0 NMatD0=    1 NMtDS0=    0 NMtDT0=    0
 Symmetry not used in FoFCou.
 Integral accuracy reduced to 1.0D-05 until final iterations.

 Cycle   1  Pass 0  IDiag  1:
 E= -399.960555449351    
 DIIS: error= 4.20D-04 at cycle   1 NSaved=   1.
 NSaved= 1 IEnMin= 1 EnMin= -399.960555449351     IErMin= 1 ErrMin= 4.20D-04
 ErrMax= 4.20D-04  0.00D+00 EMaxC= 1.00D-01 BMatC= 1.00D-04 BMatP= 1.00D-04
 IDIUse=3 WtCom= 9.96D-01 WtEn= 4.20D-03
 Coeff-Com:  0.100D+01
 Coeff-En:   0.100D+01
 Coeff:      0.100D+01
 Gap=     0.676 Goal=   None    Shift=    0.000
 RMSDP=2.70D-05 MaxDP=1.06D-03              OVMax= 2.12D-03

 Cycle   2  Pass 0  IDiag  1:
 E= -399.960638125636     Delta-E=       -0.000082676285 Rises=F Damp=F
 DIIS: error= 1.83D-04 at cycle   2 NSaved=   2.
 NSaved= 2 IEnMin= 2 EnMin= -399.960638125636     IErMin= 2 ErrMin= 1.83D-04
 ErrMax= 1.83D-04  0.00D+00 EMaxC= 1.00D-01 BMatC= 1.14D-05 BMatP= 1.00D-04
 IDIUse=3 WtCom= 9.98D-01 WtEn= 1.83D-03
 Coeff-Com:  0.158D+00 0.842D+00
 Coeff-En:   0.000D+00 0.100D+01
 Coeff:      0.157D+00 0.843D+00
 Gap=     0.279 Goal=   None    Shift=    0.000
 RMSDP=1.25D-05 MaxDP=7.64D-04 DE=-8.27D-05 OVMax= 8.97D-04

 Cycle   3  Pass 0  IDiag  1:
 E= -399.960645050360     Delta-E=       -0.000006924724 Rises=F Damp=F
 DIIS: error= 1.24D-04 at cycle   3 NSaved=   3.
 NSaved= 3 IEnMin= 3 EnMin= -399.960645050360     IErMin= 3 ErrMin= 1.24D-04
 ErrMax= 1.24D-04  0.00D+00 EMaxC= 1.00D-01 BMatC= 4.67D-06 BMatP= 1.14D-05
 IDIUse=3 WtCom= 9.99D-01 WtEn= 1.24D-03
 Coeff-Com: -0.154D-01 0.376D+00 0.640D+00
 Coeff-En:   0.000D+00 0.200D+00 0.800D+00
 Coeff:     -0.154D-01 0.375D+00 0.640D+00
 Gap=     0.279 Goal=   None    Shift=    0.000
 RMSDP=5.17D-06 MaxDP=2.58D-04 DE=-6.92D-06 OVMax= 7.70D-04

 Initial convergence to 1.0D-05 achieved.  Increase integral accuracy.
 Cycle   4  Pass 1  IDiag  1:
 E= -399.960675964624     Delta-E=       -0.000030914264 Rises=F Damp=F
 DIIS: error= 5.25D-05 at cycle   1 NSaved=   1.
 NSaved= 1 IEnMin= 1 EnMin= -399.960675964624     IErMin= 1 ErrMin= 5.25D-05
 ErrMax= 5.25D-05  0.00D+00 EMaxC= 1.00D-01 BMatC= 9.03D-07 BMatP= 9.03D-07
 IDIUse=1 WtCom= 1.00D+00 WtEn= 0.00D+00
 Coeff-Com:  0.100D+01
 Coeff:      0.100D+01
 Gap=     0.279 Goal=   None    Shift=    0.000
 RMSDP=5.17D-06 MaxDP=2.58D-04 DE=-3.09D-05 OVMax= 5.15D-04

 Cycle   5  Pass 1  IDiag  1:
 E= -399.960675143207     Delta-E=        0.000000821417 Rises=F Damp=F
 DIIS: error= 8.14D-05 at cycle   2 NSaved=   2.
 NSaved= 2 IEnMin= 1 EnMin= -399.960675964624     IErMin= 1 ErrMin= 5.25D-05
 ErrMax= 8.14D-05  0.00D+00 EMaxC= 1.00D-01 BMatC= 2.18D-06 BMatP= 9.03D-07
 IDIUse=1 WtCom= 1.00D+00 WtEn= 0.00D+00
 Coeff-Com:  0.611D+00 0.389D+00
 Coeff:      0.611D+00 0.389D+00
 Gap=     0.279 Goal=   None    Shift=    0.000
 RMSDP=2.56D-06 MaxDP=1.93D-04 DE= 8.21D-07 OVMax= 3.85D-04

 Cycle   6  Pass 1  IDiag  1:
 E= -399.960676679943     Delta-E=       -0.000001536736 Rises=F Damp=F
 DIIS: error= 4.25D-06 at cycle   3 NSaved=   3.
 NSaved= 3 IEnMin= 3 EnMin= -399.960676679943     IErMin= 3 ErrMin= 4.25D-06
[...]
   A12        2.02121   0.00000   0.00000   0.00005   0.00005   2.02126
   A13        2.15131  -0.00002   0.00000  -0.00014  -0.00014   2.15117
   A14        2.11715   0.00000   0.00000   0.00002   0.00002   2.11717
   A15        2.08612  -0.00001   0.00000  -0.00015  -0.00015   2.08597
   A16        2.07991   0.00001   0.00000   0.00013   0.00013   2.08005
   A17        2.05622  -0.00001   0.00000  -0.00008  -0.00008   2.05614
   A18        2.10414  -0.00000   0.00000  -0.00007  -0.00007   2.10407
   A19        2.12283   0.00001   0.00000   0.00015   0.00015   2.12297
   A20        2.63879   0.00002   0.00000   0.00155   0.00155   2.64034
   A21        1.87708   0.00000   0.00000   0.00001   0.00001   1.87710
   A22        1.39234  -0.00000   0.00000  -0.00065  -0.00065   1.39169
   A23        2.43692   0.00001   0.00000   0.00105   0.00105   2.43796
   A24        2.50588  -0.00004   0.00000  -0.00115  -0.00115   2.50473
    D1        0.03560  -0.00000   0.00000  -0.00041  -0.00041   0.03519
    D2       -3.10518   0.00000   0.00000  -0.00036  -0.00036  -3.10554
    D3        0.02892  -0.00001   0.00000  -0.00229  -0.00229   0.02663
    D4       -3.13647   0.00000   0.00000  -0.00010  -0.00010  -3.13657
    D5        0.00439  -0.00000   0.00000  -0.00014  -0.00014   0.00425
    D6        0.00749   0.00001   0.00000   0.00046   0.00046   0.00795
    D7       -3.13484   0.00000   0.00000   0.00042   0.00042  -3.13442
    D8       -0.00266   0.00000   0.00000   0.00017   0.00017  -0.00249
    D9        3.13800   0.00000   0.00000   0.00008   0.00008   3.13808
   D10        3.13644  -0.00000   0.00000  -0.00043  -0.00043   3.13601
   D11       -0.00609  -0.00000   0.00000  -0.00052  -0.00051  -0.00660
   D12       -0.11349  -0.00000   0.00000   0.00106   0.00106  -0.11243
   D13        3.03037   0.00000   0.00000   0.00160   0.00160   3.03197
   D14        3.13735  -0.00000   0.00000   0.00004   0.00004   3.13739
   D15       -0.00206  -0.00000   0.00000   0.00001   0.00002  -0.00204
   D16       -0.00346   0.00000   0.00000   0.00009   0.00009  -0.00337
   D17        3.14031   0.00000   0.00000   0.00006   0.00006   3.14038
   D18        0.00095  -0.00000   0.00000  -0.00006  -0.00006   0.00089
   D19       -3.13997   0.00000   0.00000   0.00000   0.00000  -3.13997
   D20        3.14023  -0.00000   0.00000  -0.00003  -0.00003   3.14020
   D21       -0.00069   0.00000   0.00000   0.00003   0.00003  -0.00066
   D22       -0.00026  -0.00000   0.00000  -0.00012  -0.00012  -0.00038
   D23        3.14078  -0.00000   0.00000  -0.00010  -0.00010   3.14068
   D24       -3.14085  -0.00000   0.00000  -0.00002  -0.00002  -3.14088
   D25        0.00019   0.00000   0.00000  -0.00000  -0.00000   0.00018
   D26        0.00103   0.00000   0.00000   0.00007   0.00007   0.00110
   D27       -3.14000   0.00000   0.00000   0.00005   0.00005  -3.13996
   D28       -3.14124  -0.00000   0.00000   0.00001   0.00001  -3.14123
   D29        0.00092  -0.00000   0.00000  -0.00001  -0.00001   0.00090
   D30       -2.49829   0.00000   0.00000   0.00169   0.00169  -2.49660
   D31       -0.07206   0.00001   0.00000   0.00261   0.00261  -0.06944
   D32        0.13212  -0.00001   0.00000  -0.00226  -0.00226   0.12986
   D33        1.96681  -0.00000   0.00000  -0.00287  -0.00287   1.96394
         Item               Value     Threshold  Converged?
 Maximum Force            0.000054     0.000450     YES
 RMS     Force            0.000013     0.000300     YES
 Maximum Displacement     0.004146     0.001800     NO 
 RMS     Displacement     0.000815     0.001200     YES
 Predicted change in Energy=-1.413891D-07
 GradGradGradGradGradGradGradGradGradGradGradGradGradGradGradGradGradGrad

 Leave Link  103 at Fri Aug 27 00:54:21 2021, MaxMem= 17179869184 cpu:        56.5
 (Enter /public3/home/sc51754/softwares/g09e01/l9999.exe)
 1\1\GINC-T1413\Freq\RCAM-B3LYP\Gen\C5H7N1O2\SC51754\27-Aug-2021\0\\#P 
 Geom=AllCheck Guess=TCheck SCRF=Check GenChk RCAM-B3LYP/ChkBas Freq\\P
 Y_H2O_CAM-B3LYP_PC2_OPT_FREQ\\0,1\O,1.2572733627,1.3797378518,0.017649
 6171\N,0.2528289392,-0.6562776242,0.020413254\C,0.2123252574,0.7272251
 973,0.0131259227\C,-1.1136712076,1.2816815221,-0.0005539812\C,-0.83947
 12876,-1.4551348012,0.0105587537\C,-2.2054880412,0.4817691345,-0.00951
 49656\C,-2.0839369469,-0.9296992157,-0.0046201417\H,2.6686152975,0.280
 3205979,-0.0260562491\H,-1.1865216386,2.3580404402,-0.0053280463\H,-0.
 6451347814,-2.5170584358,0.0147197285\H,-3.1917912717,0.9260244669,-0.
 0212770171\H,-2.949405345,-1.5713787278,-0.0131628116\O,3.0558309498,-
 0.6199146685,-0.0667736275\H,3.8374549738,-0.6233049122,0.4863674099\H
 ,1.1910447397,-1.0557648254,0.036386154\\Version=EM64L-G09RevE.01\Stat
 e=1-A\HF=-399.9607533\RMSD=3.101e-09\RMSF=2.631e-05\ZeroPoint=0.120022
 1\Thermal=0.1279613\Dipole=-0.9441477,-0.8626693,0.3975781\DipoleDeriv
 =-1.8146321,-0.5932305,-0.010846,-0.4611252,-0.8425331,-0.0051408,-0.0
 096961,-0.0081545,-0.4140864,-0.8174485,0.260718,-0.0068855,-0.6644851
 ,-0.5427236,-0.0034354,-0.0120648,0.0053893,-0.1888409,1.8640208,0.838
 6388,0.012602,0.8257408,0.8896456,0.0037592,0.0070935,0.000488,0.27108
 63,-0.7173067,-0.4944398,-0.004158,0.0830667,-0.024025,-0.0001669,-0.0
 026635,-0.0053618,-0.1871022,0.7185165,-0.3567845,0.0089234,0.2776843,
 0.1007289,0.0037978,0.005192,-0.0022466,0.0018515,0.2738104,0.098249,0
 .0034866,0.1404798,0.6412281,-0.0006764,0.0024749,-0.0014616,-0.067043
 9,-0.2774845,0.3797813,-0.0015516,0.0294873,-0.4985467,0.0020235,0.001
 086,0.0056437,-0.216779,0.7871396,-0.1586781,-0.0248953,-0.4361234,0.3
 566178,-0.0378988,-0.036442,-0.0278156,0.2476473,0.0649876,-0.0073072,
 -0.0009744,0.0093894,-0.0105029,0.0005977,-0.000424,0.0007749,0.152034
 5,0.0657044,0.0193497,-0.0010007,-0.0007069,-0.0142226,0.0007814,-0.00
 11551,0.0000589,0.1415347,-0.0418899,0.0599316,-0.001912,0.0607696,0.0
 589939,0.0007978,-0.002264,0.0007952,0.1260891,0.0144076,-0.0533577,-0
 .001611,-0.0557114,0.0160787,-0.0002677,-0.0018334,-0.0003918,0.165976
 5,-1.057734,0.1319742,0.0950849,0.3250246,-0.605797,0.0811508,0.116653
 ,0.0512995,-0.5531319,0.2617741,-0.0066046,-0.0716963,-0.0624604,0.289
 2711,-0.0453537,-0.0741476,-0.0229457,0.2782551,0.6761346,-0.1182401,0
 .0054341,-0.0710302,0.185787,0.0000315,0.008191,0.0039282,0.2425093\Po
 lar=98.7829949,5.8141259,82.6081291,1.1855225,-0.2538425,43.7900181\PG
 =C01 [X(C5H7N1O2)]\NImag=0\\0.54554326,0.27246602,0.29552346,0.0023042
 2,0.00065422,0.03939391,0.01523883,-0.06787288,0.00036589,0.86412831,-
 0.04620302,-0.07161973,0.00006475,-0.01161867,0.67520321,0.00067586,-0
 .00013143,0.01892924,0.00987593,-0.00310022,0.09214474,-0.46840428,-0.
 21591692,-0.00184234,-0.17974445,0.01300888,-0.00180699,0.86815746,-0.
 20844498,-0.22948596,-0.00085108,0.05811504,-0.21582814,0.00102934,0.1
 2419132,0.63177053,-0.00210413,-0.00105313,-0.07620748,-0.00151349,0.0
 0083469,-0.06697902,0.00499837,-0.00083801,0.21006166,-0.07979266,-0.0
 0498567,-0.00073166,0.03103537,0.04971029,0.00020648,-0.20204259,0.045
 42181,-0.00129788,0.68504681,-0.03056194,0.02159002,-0.00015981,0.0391
 9939,-0.02148227,0.00057765,0.07500097,-0.15718466,0.00081886,0.082472
 63,0.78510059,-0.00065869,0.00023119,0.02130827,0.00008441,0.00073550,
 0.00808869,-0.00132308,0.00038594,-0.08181395,0.00515559,-0.00140295,0
 .12187535,-0.01534571,0.01372960,-0.00030920,-0.27262744,-0.06071068,-
 0.00221950,0.05450288,-0.07836987,0.00087015,-0.05717268,-0.00518796,-
 0.00060211,0.76340154,-0.00243955,-0.00058365,0.00003639,-0.11428824,-
 0.21640782,-0.00052339,-0.01940038,-0.04327660,-0.00010995,-0.00635980
 ,-0.00200977,-0.00007719,-0.08022622,0.77893272,-0.00024081,0.00019748
 ,0.00589638,-0.00219068,-0.00021145,-0.05073202,0.00071445,-0.00060740
 ,-0.00265270,-0.00059237,-0.00003489,-0.00057145,0.00715255,-0.0025034
 0,0.14848572,0.00372592,0.00531025,-0.00001285,-0.01059516,-0.00877560
 ,-0.00003364,-0.04572740,-0.00993564,-0.00044441,-0.33931182,-0.169101
 47,-0.00236774,0.01677823,0.03766479,-0.00000541,0.78788464,0.02552100
 ,-0.00268556,0.00023328,-0.04028377,-0.04302052,-0.00037805,-0.0383019
 2,0.06001342,-0.00053823,-0.11738870,-0.24412424,-0.00056461,0.0827479
 6,-0.01853601,0.00096612,0.01966109,0.67076150,-0.00008551,0.00006303,
 0.00417937,0.00008683,0.00001014,-0.00590452,-0.00033566,-0.00023647,0
 .00051193,-0.00263359,-0.00122539,-0.05861849,-0.00015485,0.00050111,0
 .00849249,0.00664906,-0.00123350,0.14927521,0.00757033,-0.00646870,0.0
 0009591,-0.07975535,-0.03453080,-0.00102846,-0.02436134,0.03948782,-0.
 00028895,0.04005541,-0.02663478,0.00042155,-0.37802863,0.13746308,-0.0
 0383791,-0.12951614,-0.01581077,-0.00067033,0.81007989,-0.01715192,-0.
 00079234,-0.00015767,0.00646174,0.04714592,-0.00001987,0.03215792,-0.0
 2983493,0.00038061,-0.05582189,-0.03538656,-0.00048594,0.08444482,-0.1
 8371281,0.00126156,0.04127736,-0.28741650,0.00098917,0.02733344,0.6664
 7143,0.00015641,-0.00003728,-0.00029293,-0.00105226,-0.00047610,0.0133
 0290,-0.00030043,0.00045687,-0.00792747,0.00054752,-0.00018811,0.00821
 732,-0.00373958,0.00187595,-0.06793422,-0.00084833,0.00030751,-0.06443
 235,0.00774023,-0.00095685,0.12172907,0.01553869,-0.00311930,-0.000917
 05,-0.00148444,0.00642141,-0.00035392,-0.02045684,-0.01178987,0.000081
 69,0.00538784,0.00150401,0.00018497,0.00028230,-0.00034359,-0.00002817
 ,-0.00055356,-0.00274456,0.00001335,-0.00012221,0.00206385,0.00001332,
 0.10451204,-0.01680155,-0.01220698,0.00088948,0.00223861,-0.00466387,0
 .00037943,0.01212859,0.01777040,0.00002379,-0.00632057,-0.00225632,-0.
 00019774,-0.00232029,-0.00198970,-0.00002504,0.00073026,0.00393168,-0.
 00002000,0.00161357,-0.00269038,0.00001196,-0.13147991,0.37962052,0.00
 017684,0.00007248,-0.00941756,-0.00066864,-0.00014716,-0.00099384,-0.0
 0016770,-0.00019881,0.00101641,0.00004778,0.00000637,0.00112722,0.0001
 3166,0.00020340,-0.00020752,-0.00006011,-0.00011648,0.00012068,-0.0001
 5732,0.00007460,0.00009492,0.01442199,0.01784859,0.03487000,0.00200282
 ,-0.00272920,0.00003496,-0.00600486,0.00358690,-0.00012871,0.00386744,
 0.03054228,-0.00011534,-0.06045059,0.02231365,-0.00030101,-0.00213841,
 -0.00095079,-0.00001481,0.00668687,-0.02761969,0.00013846,-0.00352744,
 -0.00251109,-0.00012527,-0.00016911,0.00025200,-0.00000939,0.05769271,
 0.00013192,0.00191760,-0.00001606,0.00243543,-0.00055968,0.00004545,-0
 .00394026,-0.00975496,0.00003266,0.02461454,-0.34839650,0.00138732,0.0
 0079111,0.00099742,0.00000656,0.00292108,-0.01239236,0.00008879,-0.003
 37892,0.00110926,0.00000029,0.00006961,-0.00009103,0.00000869,-0.02336
 550,0.36725004,0.00005565,-0.00005322,-0.00241634,-0.00011575,0.000031
 66,0.00454819,-0.00002384,0.00036655,0.00308570,-0.00029082,0.00143917
 ,-0.03506209,0.00000608,-0.00000602,-0.00064717,0.00000530,-0.00026908
 ,0.00330909,-0.00013919,0.00000308,0.00956675,-0.00001654,0.00000937,-
 0.00002095,0.00041265,-0.00150074,0.02482968,-0.00098972,-0.00215557,0
 .00001274,0.00551845,-0.03553416,0.00012091,-0.00361963,0.00134822,-0.
 00011427,-0.00020589,-0.00054730,0.00000117,-0.07333508,0.05952729,-0.
 00049503,-0.00555812,0.00146815,-0.00016187,0.00312035,0.02817766,-0.0
 0011055,0.00035750,-0.00030386,0.00001057,0.00014859,0.00000523,0.0000
 1359,0.07260936,-0.00061910,-0.00178690,0.00001378,0.00120158,-0.02007
 221,0.00005586,-0.00276725,0.00440111,-0.00006340,0.00028034,0.0006056
 2,0.00000138,0.05290474,-0.33690395,0.00120555,0.00221616,0.00042475,0
 .00003833,-0.00053246,-0.00506777,0.00001088,0.00028357,-0.00019490,-0
 .00000697,0.00003833,-0.00006798,-0.00000208,-0.05303942,0.35786374,-0
 .00001921,-0.00002556,-0.00010551,0.00008459,-0.00023983,0.00289780,-0
 .00006906,-0.00000191,0.00560999,-0.00001600,-0.00000201,-0.00023769,-
 0.00054251,0.00113880,-0.04066503,-0.00017101,0.00006179,0.00830473,-0
 .00001223,0.00034376,0.00762696,-0.00001719,-0.00000133,-0.00001534,0.
 00001079,-0.00000378,-0.00115938,0.00063235,-0.00125011,0.02606831,-0.
 00199411,0.00035383,0.00001459,0.00017397,-0.00047157,0.00001355,-0.00
 059118,-0.00386481,-0.00013398,-0.01966774,0.01253798,-0.00033758,0.00
 152609,0.00031194,-0.00003783,-0.29323472,0.10498042,-0.00292359,0.001
 94885,-0.00085649,-0.00003925,0.00024082,-0.00020648,-0.00000966,0.001
 15070,-0.00023990,0.00007962,0.00000116,-0.00010791,0.00000631,0.31005
 647,-0.00085544,0.00060321,-0.00000928,-0.00113399,0.00031790,-0.00001
 802,-0.00294898,-0.00271373,0.00001513,-0.01869258,0.01254358,-0.00021
 842,-0.00001941,-0.00660573,0.00002997,0.10589867,-0.10933859,0.001299
 12,0.02945697,-0.00686361,0.00034626,0.00005379,-0.00008536,-0.0000024
 8,0.00043349,0.00081895,-0.00001698,0.00146126,-0.00037078,0.00001997,
 -0.11302367,0.11038391,-0.00001185,-0.00003090,-0.00218777,0.00001147,
 -0.00001678,-0.00098743,-0.00011490,0.00002129,0.01236509,-0.00020284,
 0.00015992,0.00760195,-0.00003586,0.00002139,0.00489442,-0.00296446,0.
 00127139,-0.04488179,-0.00011107,0.00002919,0.00494678,-0.00001623,0.0
 0001618,-0.00013513,0.00006928,-0.00003293,-0.00610703,0.00000198,-0.0
 0000145,-0.00048370,0.00331624,-0.00142642,0.02792842,0.00024889,-0.00
 022678,0.00001067,-0.00377707,0.00411329,-0.00015327,-0.00017955,0.001
 03242,-0.00001128,0.00079580,0.00145317,-0.00004175,-0.01796934,-0.020
 45463,-0.00017076,0.00805477,0.00451080,0.00007495,-0.24890564,-0.1389
 9855,-0.00218698,0.00005152,0.00010233,-0.00001846,0.00022867,0.000261
 19,-0.00000483,0.00076127,0.00022528,0.00007063,0.00049972,-0.00061362
 ,0.00003554,0.26061829,-0.00040743,0.00047661,-0.00000496,0.00378989,-
 0.00020305,0.00006755,0.00126401,-0.00135300,0.00001214,0.00224173,-0.
 00500665,0.00004942,0.01196371,0.01200452,0.00010166,-0.02647920,-0.01
 230625,-0.00028169,-0.14125568,-0.16292803,-0.00132495,0.00005666,-0.0
 0013196,0.00000844,-0.00118433,-0.00053336,-0.00000799,-0.00053694,0.0
 0060110,-0.00001744,0.00041464,0.00117860,-0.00000137,0.14970508,0.167
 57974,0.00001126,-0.00001905,-0.00055539,-0.00016128,0.00005545,0.0082
 0332,-0.00000469,0.00002123,-0.00027879,-0.00004204,0.00004272,0.00416
 776,-0.00021870,-0.00026929,-0.00023920,0.00016080,0.00009962,0.000201
 66,-0.00221274,-0.00132554,-0.02998152,0.00000426,-0.00000121,0.000028
 19,-0.00000173,0.00000711,0.00047447,0.00006914,-0.00000514,-0.0051366
 4,0.00003170,-0.00001504,-0.00231221,0.00238485,0.00140245,0.02397452,
 -0.01337175,0.01327102,0.00025586,-0.01416382,-0.00435221,-0.00055937,
 0.00399754,0.00146976,0.00022669,-0.00125462,-0.00012226,0.00001400,0.
 00187331,0.00462469,-0.00003937,-0.00016194,-0.00019246,-0.00002143,-0
 .00211645,-0.00035080,0.00001681,-0.09203303,0.15553842,-0.00320776,-0
 .00011545,0.00009717,0.00001209,-0.00006025,-0.00026755,-0.00000183,-0
 .00019509,-0.00001180,-0.00000301,-0.00034513,0.00011529,0.00000763,0.
 47335163,0.02497156,-0.00309179,0.00052570,-0.00151223,0.00577488,-0.0
 0101619,-0.01164327,-0.01342486,0.00001495,0.00473675,0.00199101,-0.00
 003269,0.00168427,0.00061866,-0.00004288,-0.00049744,-0.00289118,0.000
 00812,-0.00091707,0.00210045,0.00000574,0.11244188,-0.37942235,-0.0441
 0894,-0.00025538,0.00008788,-0.00000377,0.00037799,0.00021092,0.000020
 75,0.00016963,0.00008225,0.00001304,-0.00002013,0.00008355,0.00002654,
 -0.15441394,0.43419019,-0.00088040,0.00122633,0.00608547,-0.00246181,-
 0.00019776,0.00308665,0.00041453,-0.00003711,-0.00060363,-0.00010138,0
 .00004909,-0.00070806,-0.00033208,0.00021363,0.00026356,0.00005585,0.0
 0004952,0.00002117,0.00000971,-0.00018927,-0.00015707,-0.01510094,-0.0
 1586115,-0.02852722,0.00001416,-0.00000440,-0.00001323,-0.00003257,-0.
 00005156,-0.00005344,0.00000587,0.00000176,0.00007517,-0.00002082,0.00
 000639,-0.00007993,0.26081951,0.03607608,0.20748358,0.00070599,0.00113
 323,0.00069893,-0.00053473,-0.00050509,0.00041838,-0.00081472,-0.00056
 348,-0.00016149,0.00023536,0.00009778,-0.00011440,-0.00026853,0.000272
 76,0.00002836,-0.00002368,-0.00012902,0.00000820,-0.00004576,-0.000045
 86,-0.00002235,-0.01383789,-0.00623264,-0.01178555,-0.00000236,0.00001
 532,-0.00000587,-0.00002125,-0.00004104,-0.00001492,0.00001114,-0.0000
 0428,0.00001280,-0.00001980,0.00001787,-0.00001295,-0.35847826,0.02301
 288,-0.24474987,0.37323986,0.00268963,-0.00237858,-0.00114049,-0.00234
 916,0.00045527,0.00047307,-0.00101550,-0.00117024,-0.00005774,0.000229
 42,0.00018730,0.00014170,0.00028410,0.00064257,0.00002169,-0.00000564,
 -0.00016730,0.00000394,-0.00031366,0.00001704,-0.00000491,0.03247748,0
 .00516045,0.02583541,-0.00003879,0.00002339,-0.00000373,-0.00000824,-0
 .00003762,-0.00002799,0.00000085,0.00000399,-0.00001949,-0.00004995,0.
 00002202,-0.00001467,-0.01715219,-0.04218053,-0.02219533,-0.01782435,0
 .03934143,0.00081786,-0.00098760,-0.00004625,0.00247348,0.00021150,0.0
 0017500,-0.00020825,0.00016046,-0.00002291,0.00005390,-0.00004848,-0.0
 0003560,0.00007884,-0.00036973,0.00001041,0.00000641,0.00003949,-0.000
 00155,0.00015512,0.00007991,-0.00002287,0.00140782,-0.00278087,-0.0004
 2289,0.00000451,-0.00000434,0.00001599,0.00000684,0.00004495,0.0000444
 4,0.00000516,-0.00000107,0.00001170,0.00003455,-0.00001221,0.00000666,
 -0.25916207,0.00601925,-0.18157593,0.25678725,-0.00167807,0.18195493,-
 0.01067649,-0.00278895,0.00001934,-0.34740761,0.12586103,-0.00502723,0
 .01541665,0.01135997,0.00000832,-0.00265799,-0.00242386,-0.00011532,-0
 .02147854,0.00459864,-0.00024222,0.00155212,0.00358145,0.00001599,0.00
 360414,-0.00618020,-0.00004930,0.00228638,-0.00893848,0.00129574,0.000
 63042,-0.00041802,0.00001186,0.00127327,0.00022473,0.00005928,0.000073
 93,-0.00000039,0.00001292,-0.00006240,0.00029468,-0.00001549,0.0030733
 1,0.00186452,0.00236023,-0.00014537,0.00307600,-0.00246144,0.35451815,
 -0.00229518,0.00452058,-0.00007825,0.12561724,-0.13503988,0.00255882,0
 .03818278,-0.00992838,0.00052764,-0.00013829,-0.00617116,0.00004709,-0
 .02171589,0.01683015,-0.00036553,-0.00088468,-0.00225284,-0.00000470,-
 0.00551205,-0.00215116,-0.00002726,-0.00589503,-0.00275019,0.00052288,
 0.00148813,-0.00040867,0.00001380,-0.00024031,0.00039489,-0.00001511,0
 .00000153,0.00004542,-0.00000307,-0.00103990,0.00051617,-0.00000521,0.
 00174685,-0.00412908,0.00091377,0.00079593,0.00008081,-0.00067320,-0.1
 3011112,0.14044336,-0.00019750,-0.00010657,-0.00456341,-0.00481870,0.0
 0244562,-0.02577968,0.00006960,0.00032910,0.00383519,-0.00010269,-0.00
 003213,0.00466076,-0.00008489,-0.00013170,-0.00439366,0.00003055,0.000
 07123,-0.00057763,0.00003567,-0.00002673,0.00526374,0.00032263,-0.0002
 9146,0.00248303,0.00001143,-0.00001462,-0.00040368,0.00004502,0.000009
 98,-0.00269550,0.00000884,-0.00000449,-0.00072847,-0.00000304,0.000002
 55,0.00152710,0.00164226,0.00249429,-0.00529710,-0.00108652,-0.0013334
 0,-0.00009112,0.00412732,-0.00341167,0.02676042\\0.00001778,0.00005022
 ,-0.00000664,0.00002253,0.00003065,0.00001659,-0.00003158,-0.00009586,
 -0.00000894,-0.00003042,0.00000902,0.00000275,-0.00006303,-0.00003046,
 -0.00001019,0.00000818,0.00004081,-0.00000693,0.00003684,-0.00002449,0
 .00000551,0.00003036,-0.00000148,0.00002567,0.00001140,0.00000090,0.00
 000199,0.00000906,0.00000376,0.00000222,-0.00000508,-0.00001107,0.0000
 0269,-0.00000712,0.00000597,0.00000282,-0.00002219,-0.00002199,-0.0000
 3159,0.00000424,-0.00000122,0.00000424,0.00001903,0.00004525,-0.000000
 18\\\@


 TERENCE, THIS IS STUPID STUFF:
 YOU EAT YOUR VICTUALS FAST ENOUGH;
 THERE CAN'T BE MUCH AMISS, 'TIS CLEAR
 TO SEE THE RATE YOU DRINK YOUR BEER.
 BUT OH, GOOD LORD, THE VERSE YOU MAKE,
 IT GIVES A CHAP THE BELLY-ACHE.
 THE COW, THE OLD COW, SHE IS DEAD;
 IT SLEEPS WELL, THE HORNED HEAD:
 WE POOR LADS, 'TIS OUR TURN NOW
 TO HEAR SUCH TUNES AS KILLED THE COW.
 PRETTY FRIENDSHIP 'TIS TO RHYME
 YOUR FRIENDS TO DEATH BEFORE THEIR TIME.
 MOPING, MELANCHOLY MAD:
 COME PIPE A TUNE TO DANCE TO, LAD.

     -- A. E. HOUSMAN
 Job cpu time:       0 days  1 hours 21 minutes 44.6 seconds.
 File lengths (MBytes):  RWF=    137 Int=      0 D2E=      0 Chk=      9 Scr=      1
 Normal termination of Gaussian 09 at Fri Aug 27 00:54:21 2021.
