 Entering Gaussian System, Link 0=g09
 AtFile(1): pc-2.gbs
            -H     0
            S    4   1.00
                  0.754230D+02           0.240650D-02
                  0.113500D+02           0.184870D-01
                  0.259930D+01           0.897420D-01
                  0.735130D+00           0.281110D+00
            S    1   1.00
                  0.231670D+00           0.100000D+01
            S    1   1.00
                  0.741470D-01           0.100000D+01
            P    1   1.00
                  0.160000D+01           0.100000D+01
            P    1   1.00
                  0.450000D+00           0.100000D+01
            D    1   1.00
                  0.125000D+01           0.100000D+01
            ****
            -C     0
            S    7   1.00
                  0.785710D+04           0.568250D-03
                  0.117870D+04           0.439150D-02
                  0.268320D+03           0.225040D-01
                  0.759480D+02           0.866530D-01
                  0.245590D+02           0.244050D+00
                  0.862120D+01           0.441480D+00
                  0.312780D+01           0.353320D+00
            S    7   1.00
                  0.117870D+04          -0.594920D-06
                  0.268320D+03          -0.627480D-04
                  0.759480D+02          -0.757730D-03
                  0.245590D+02          -0.733080D-02
                  0.862120D+01          -0.389320D-01
                  0.312780D+01          -0.889080D-01
                  0.822020D+00           0.216890D+00
            S    1   1.00
                  0.330170D+00           0.100000D+01
            S    1   1.00
                  0.114630D+00           0.100000D+01
            P    4   1.00
                  0.337750D+02           0.602940D-02
                  0.767660D+01           0.432280D-01
                  0.223570D+01           0.163010D+00
                  0.764470D+00           0.365040D+00
            P    1   1.00
                  0.262320D+00           0.100000D+01
            P    1   1.00
                  0.846380D-01           0.100000D+01
            D    1   1.00
                  0.140000D+01           0.100000D+01
            D    1   1.00
                  0.450000D+00           0.100000D+01
            F    1   1.00
                  0.950000D+00           0.100000D+01
            ****
            -N     0
            S    7   1.00
                  0.111010D+05           0.545700D-03
                  0.166530D+04           0.421810D-02
                  0.379080D+03           0.216450D-01
                  0.107300D+03           0.837760D-01
                  0.347470D+02           0.238810D+00
                  0.122490D+02           0.439940D+00
                  0.447430D+01           0.363640D+00
            S    7   1.00
                  0.166530D+04          -0.150060D-05
                  0.379080D+03          -0.587530D-04
                  0.107300D+03          -0.774530D-03
                  0.347470D+02          -0.721610D-02
                  0.122490D+02          -0.393380D-01
                  0.447430D+01          -0.906110D-01
                  0.124040D+01           0.198820D+00
            S    1   1.00
                  0.487430D+00           0.100000D+01
            S    1   1.00
                  0.164840D+00           0.100000D+01
            P    4   1.00
                  0.479340D+02           0.617060D-02
                  0.109990D+02           0.442600D-01
                  0.324720D+01           0.168250D+00
                  0.111140D+01           0.368480D+00
            P    1   1.00
                  0.379880D+00           0.100000D+01
            P    1   1.00
                  0.120680D+00           0.100000D+01
            D    1   1.00
                  0.180000D+01           0.100000D+01
            D    1   1.00
                  0.550000D+00           0.100000D+01
            F    1   1.00
                  0.102000D+01           0.100000D+01
            ****
            -O     0
            S    7   1.00
                  0.147820D+05           0.535190D-03
                  0.221730D+04           0.413750D-02
                  0.504740D+03           0.212450D-01
                  0.142870D+03           0.824530D-01
                  0.463000D+02           0.236710D+00
                  0.163370D+02           0.440390D+00
                  0.598280D+01           0.364650D+00
            S    7   1.00
                  0.221730D+04          -0.192750D-05
                  0.504740D+03          -0.579640D-04
                  0.142870D+03          -0.794940D-03
                  0.463000D+02          -0.731250D-02
                  0.163370D+02          -0.405740D-01
                  0.598280D+01          -0.915940D-01
                  0.167180D+01           0.209400D+00
            S    1   1.00
                  0.646620D+00           0.100000D+01
            S    1   1.00
                  0.216690D+00           0.100000D+01
            P    4   1.00
                  0.604240D+02           0.689490D-02
                  0.139350D+02           0.490050D-01
                  0.415310D+01           0.182550D+00
                  0.141580D+01           0.376330D+00
            P    1   1.00
                  0.475490D+00           0.100000D+01
            P    1   1.00
                  0.145290D+00           0.100000D+01
            D    1   1.00
                  0.220000D+01           0.100000D+01
            D    1   1.00
                  0.650000D+00           0.100000D+01
            F    1   1.00
                  0.110000D+01           0.100000D+01
            ****
 Initial command:
 /public3/home/sc51754/softwares/g09e01/l1.exe "./Gau-42942.inp" -scrdir="./"
 Entering Link 1 = /public3/home/sc51754/softwares/g09e01/l1.exe PID=     42945.
  
 Copyright (c) 1988,1990,1992,1993,1995,1998,2003,2009,2015,
            Gaussian, Inc.  All Rights Reserved.
  
 This is part of the Gaussian(R) 09 program.  It is based on
 the Gaussian(R) 03 system (copyright 2003, Gaussian, Inc.),
 the Gaussian(R) 98 system (copyright 1998, Gaussian, Inc.),
 the Gaussian(R) 94 system (copyright 1995, Gaussian, Inc.),
 the Gaussian 92(TM) system (copyright 1992, Gaussian, Inc.),
 the Gaussian 90(TM) system (copyright 1990, Gaussian, Inc.),
 the Gaussian 88(TM) system (copyright 1988, Gaussian, Inc.),
 the Gaussian 86(TM) system (copyright 1986, Carnegie Mellon
 University), and the Gaussian 82(TM) system (copyright 1983,
 Carnegie Mellon University). Gaussian is a federally registered
 trademark of Gaussian, Inc.
  
 This software contains proprietary and confidential information,
 including trade secrets, belonging to Gaussian, Inc.
  
 This software is provided under written license and may be
 used, copied, transmitted, or stored only in accord with that
 written license.
  
 The following legend is applicable only to US Government
 contracts under FAR:
  
                    RESTRICTED RIGHTS LEGEND
  
 Use, reproduction and disclosure by the US Government is
 subject to restrictions as set forth in subparagraphs (a)
 and (c) of the Commercial Computer Software - Restricted
 Rights clause in FAR 52.227-19.
  
 Gaussian, Inc.
 340 Quinnipiac St., Bldg. 40, Wallingford CT 06492
  
  
 ---------------------------------------------------------------
 Warning -- This program may not be used in any manner that
 competes with the business of Gaussian, Inc. or will provide
 assistance to any competitor of Gaussian, Inc.  The licensee
 of this program is prohibited from giving any competitor of
 Gaussian, Inc. access to this program.  By using this program,
 the user acknowledges that Gaussian, Inc. is engaged in the
 business of creating and licensing software in the field of
 computational chemistry and represents and warrants to the
 licensee that it is not a competitor of Gaussian, Inc. and that
 it will not use this program in any manner prohibited above.
 ---------------------------------------------------------------
  

 Cite this work as:
 Gaussian 09, Revision E.01,
 M. J. Frisch, G. W. Trucks, H. B. Schlegel, G. E. Scuseria, 
 M. A. Robb, J. R. Cheeseman, G. Scalmani, V. Barone, B. Mennucci, 
 G. A. Petersson, H. Nakatsuji, M. Caricato, X. Li, H. P. Hratchian, 
 A. F. Izmaylov, J. Bloino, G. Zheng, J. L. Sonnenberg, M. Hada, 
 M. Ehara, K. Toyota, R. Fukuda, J. Hasegawa, M. Ishida, T. Nakajima, 
 Y. Honda, O. Kitao, H. Nakai, T. Vreven, J. A. Montgomery, Jr., 
 J. E. Peralta, F. Ogliaro, M. Bearpark, J. J. Heyd, E. Brothers, 
 K. N. Kudin, V. N. Staroverov, T. Keith, R. Kobayashi, J. Normand, 
 K. Raghavachari, A. Rendell, J. C. Burant, S. S. Iyengar, J. Tomasi, 
 M. Cossi, N. Rega, J. M. Millam, M. Klene, J. E. Knox, J. B. Cross, 
 V. Bakken, C. Adamo, J. Jaramillo, R. Gomperts, R. E. Stratmann, 
 O. Yazyev, A. J. Austin, R. Cammi, C. Pomelli, J. W. Ochterski, 
 R. L. Martin, K. Morokuma, V. G. Zakrzewski, G. A. Voth, 
 P. Salvador, J. J. Dannenberg, S. Dapprich, A. D. Daniels, 
 O. Farkas, J. B. Foresman, J. V. Ortiz, J. Cioslowski, 
 and D. J. Fox, Gaussian, Inc., Wallingford CT, 2013.
 
 ******************************************
 Gaussian 09:  EM64L-G09RevE.01 30-Nov-2015
                28-Aug-2021 
 ******************************************
 %nprocshared=64
 Will use up to   64 processors via shared memory.
 %mem=128GB
 %chk=TST_H2O_CAM-B3LYP.chk
 ----------------------------------------------------------------------
 #p opt=(calcfc,qst3,maxcycle=300,cartesian) freq cam-b3lyp/gen int=acc
 2e=12 scf=(novaracc,noincfock)
 ----------------------------------------------------------------------
 1/5=1,6=300,10=4,14=-1,18=20,26=3,27=203,38=1/1,3;
 2/9=110,12=2,17=6,18=5,40=1/2;
 3/5=7,11=2,16=1,25=1,30=1,71=2,74=-40,140=1/1,2,3;
 4//1;
 5/5=100002,38=1,87=12/2;
 8/6=4,10=90,11=11,87=12/1;
 11/6=1,8=1,9=11,15=111,16=1,87=12/1,2,10;
 10/6=1,13=1,87=12/2;
 6/7=2,8=2,9=2,10=2,28=1/1;
 7/10=1,18=20,25=1,87=12/1,2,3,16;
 1/5=1,6=300,10=4,14=-1,18=20,26=3,27=203/3(2);
 2/9=110/2;
 99//99;
 2/9=110/2;
 3/5=7,6=1,11=2,16=1,25=1,30=1,71=1,74=-40,82=7/1,2,3;
 4/5=5,16=3,69=1/1;
 5/5=100002,38=1,87=12/2;
 7/87=12/1,2,3,16;
 1/5=1,6=300,14=-1,18=20,26=3,27=203/3(-5);
 2/9=110/2;
 6/7=2,8=2,9=2,10=2,19=2,28=1/1;
 99/9=1/99;
 Leave Link    1 at Sat Aug 28 15:07:23 2021, MaxMem= 17179869184 cpu:         5.8
 (Enter /public3/home/sc51754/softwares/g09e01/l101.exe)
 -----------------------------
 HY_H2O_CAM-B3LYP_PC2_OPT_FREQ
 -----------------------------
 Symbolic Z-matrix:
 Charge =  0 Multiplicity = 1
 O                     1.22286   1.42975   0.00066 
 N                     0.30247  -0.66821  -0.00143 
 C                     0.14439   0.64737   0.00198 
 C                    -1.11436   1.25342   0.00681 
 C                    -0.78768  -1.43916  -0.00336 
 C                    -2.22235   0.44515   0.00622 
 C                    -2.06661  -0.9383    0.0006 
 H                     2.03532   0.87982  -0.01145 
 H                    -1.18087   2.33025   0.00911 
 H                    -0.61029  -2.50694  -0.00923 
 H                    -3.21068   0.88363   0.00893 
 H                    -2.91643  -1.60311  -0.00162 
 O                     3.0618   -0.58094  -0.08576 
 H                     3.58685  -0.90324   0.64864 
 H                     2.18122  -1.00436  -0.02699 
 
 Add virtual bond connecting atoms O13        and H8         Dist= 3.38D+00.
 Add virtual bond connecting atoms H15        and N2         Dist= 3.61D+00.
 Add virtual bond connecting atoms H15        and H8         Dist= 3.57D+00.
 Add atom     13 valence  3 ND=      2 dihedral       8     13     14     15
 -----------------------------
 PY_H2O_CAM-B3LYP_PC2_OPT_FREQ
 -----------------------------
 Symbolic Z-matrix:
 Charge =  0 Multiplicity = 1
 O                     1.26149   1.38009   0.00889 
 N                     0.25539  -0.6551    0.01489 
 C                     0.21599   0.72844   0.00787 
 C                    -1.10959   1.28398  -0.00125 
 C                    -0.8376   -1.45306   0.00869 
 C                    -2.20208   0.48497  -0.00656 
 C                    -2.08168  -0.9266   -0.00221 
 H                     2.67177   0.27952  -0.03972 
 H                    -1.18157   2.3604   -0.00568 
 H                    -0.64412  -2.51514   0.01209 
 H                    -3.18806   0.93004  -0.01492 
 H                    -2.9477   -1.56757  -0.00786 
 O                     3.0581   -0.62103  -0.08184 
 H                     3.8416   -0.62511   0.46864 
 H                     1.19332  -1.05536   0.02763 
 
 Add virtual bond connecting atoms H8         and O1         Dist= 3.38D+00.
 Add virtual bond connecting atoms O13        and H15        Dist= 3.62D+00.
 -----------------
 TST_H2O_CAM-B3LYP
 -----------------
 Symbolic Z-matrix:
 Charge =  0 Multiplicity = 1
 O                     1.28841   1.4136    0.00333 
 N                     0.36802  -0.68437   0.00124 
 C                     0.20994   0.63122   0.00465 
 C                    -1.04881   1.23727   0.00948 
 C                    -0.72213  -1.45531  -0.00069 
 C                    -2.1568    0.429     0.00889 
 C                    -2.00106  -0.95445   0.00327 
 H                     2.26504   0.63223  -0.0352 
 H                    -1.11532   2.3141    0.01178 
 H                    -0.54474  -2.5231   -0.00655 
 H                    -3.14512   0.86747   0.0116 
 H                    -2.85088  -1.61926   0.00105 
 O                     2.70895  -0.35147  -0.07625 
 H                     3.234    -0.67376   0.65815 
 H                     1.65641  -0.85757  -0.006 
 
 NAtoms=     15 NQM=       15 NQMF=       0 NMMI=      0 NMMIF=      0
                NMic=       0 NMicF=      0.
                    Isotopes and Nuclear Properties:
 (Nuclear quadrupole moments (NQMom) in fm**2, nuclear magnetic moments (NMagM)
  in nuclear magnetons)

  Atom         1           2           3           4           5           6           7           8           9          10
 IAtWgt=          16          14          12          12          12          12          12           1           1           1
 AtmWgt=  15.9949146  14.0030740  12.0000000  12.0000000  12.0000000  12.0000000  12.0000000   1.0078250   1.0078250   1.0078250
 NucSpn=           0           2           0           0           0           0           0           1           1           1
 AtZEff=   0.0000000   0.0000000   0.0000000   0.0000000   0.0000000   0.0000000   0.0000000   0.0000000   0.0000000   0.0000000
 NQMom=    0.0000000   2.0440000   0.0000000   0.0000000   0.0000000   0.0000000   0.0000000   0.0000000   0.0000000   0.0000000
 NMagM=    0.0000000   0.4037610   0.0000000   0.0000000   0.0000000   0.0000000   0.0000000   2.7928460   2.7928460   2.7928460
 AtZNuc=   8.0000000   7.0000000   6.0000000   6.0000000   6.0000000   6.0000000   6.0000000   1.0000000   1.0000000   1.0000000

  Atom        11          12          13          14          15
 IAtWgt=           1           1          16           1           1
 AtmWgt=   1.0078250   1.0078250  15.9949146   1.0078250   1.0078250
 NucSpn=           1           1           0           1           1
 AtZEff=   0.0000000   0.0000000   0.0000000   0.0000000   0.0000000
 NQMom=    0.0000000   0.0000000   0.0000000   0.0000000   0.0000000
 NMagM=    2.7928460   2.7928460   0.0000000   2.7928460   2.7928460
 AtZNuc=   1.0000000   1.0000000   8.0000000   1.0000000   1.0000000
 Leave Link  101 at Sat Aug 28 15:07:23 2021, MaxMem= 17179869184 cpu:        15.8
 (Enter /public3/home/sc51754/softwares/g09e01/l103.exe)

 GradGradGradGradGradGradGradGradGradGradGradGradGradGradGradGradGradGrad
 Berny optimization.
 Initialization pass.
                           ----------------------------
                           !    Initial Parameters    !
                           ! (Angstroms and Degrees)  !
 --------------------------                            --------------------------
 ! Name  Definition        TS        Reactant  Product Derivative Info.         !
 --------------------------------------------------------------------------------
 ! R1    R(1,3)             1.3324    1.3324    1.232  calculate D2E/DX2 analyti!
 ! R2    R(1,8)             1.2513    0.9812    1.7896 calculate D2E/DX2 analyti!
 ! R3    R(2,3)             1.3251    1.3251    1.3841 calculate D2E/DX2 analyti!
 ! R4    R(2,5)             1.3352    1.3352    1.3533 calculate D2E/DX2 analyti!
 ! R5    R(2,15)            1.3       1.9088    1.0198 calculate D2E/DX2 analyti!
 ! R6    R(3,4)             1.3971    1.3971    1.4373 calculate D2E/DX2 analyti!
 ! R7    R(4,6)             1.3715    1.3715    1.3535 calculate D2E/DX2 analyti!
 ! R8    R(4,9)             1.0789    1.0789    1.0788 calculate D2E/DX2 analyti!
 ! R9    R(5,7)             1.3735    1.3735    1.3509 calculate D2E/DX2 analyti!
 ! R10   R(5,10)            1.0824    1.0824    1.0796 calculate D2E/DX2 analyti!
 ! R11   R(6,7)             1.3922    1.3922    1.4167 calculate D2E/DX2 analyti!
 ! R12   R(6,11)            1.0812    1.0812    1.0818 calculate D2E/DX2 analyti!
 ! R13   R(7,12)            1.079     1.079     1.0774 calculate D2E/DX2 analyti!
 ! R14   R(8,13)            1.08      1.7869    0.9808 calculate D2E/DX2 analyti!
 ! R15   R(8,15)            1.6096    1.8899    1.993  calculate D2E/DX2 analyti!
 ! R16   R(13,14)           0.9586    0.9586    0.9576 calculate D2E/DX2 analyti!
 ! R17   R(13,15)           1.17      0.9789    1.9178 calculate D2E/DX2 analyti!
 ! A1    A(3,1,8)         105.3731  109.947   110.0875 calculate D2E/DX2 analyti!
 ! A2    A(3,2,5)         118.4155  118.4155  124.4988 calculate D2E/DX2 analyti!
 ! A3    A(3,2,15)        104.5093  106.9965  114.7426 calculate D2E/DX2 analyti!
 ! A4    A(5,2,15)        137.0742  134.5819  120.7584 calculate D2E/DX2 analyti!
 ! A5    A(1,3,2)         119.107   119.107   120.3036 calculate D2E/DX2 analyti!
 ! A6    A(1,3,4)         118.3314  118.3314  125.3259 calculate D2E/DX2 analyti!
 ! A7    A(2,3,4)         122.5616  122.5616  114.3705 calculate D2E/DX2 analyti!
 ! A8    A(3,4,6)         118.18    118.18    121.0819 calculate D2E/DX2 analyti!
 ! A9    A(3,4,9)         119.2438  119.2438  116.565  calculate D2E/DX2 analyti!
 ! A10   A(6,4,9)         122.5761  122.5761  122.353  calculate D2E/DX2 analyti!
 ! A11   A(2,5,7)         123.3457  123.3457  120.932  calculate D2E/DX2 analyti!
 ! A12   A(2,5,10)        115.8349  115.8349  115.8067 calculate D2E/DX2 analyti!
 ! A13   A(7,5,10)        120.8194  120.8194  123.2613 calculate D2E/DX2 analyti!
 ! A14   A(4,6,7)         119.6872  119.6872  121.3037 calculate D2E/DX2 analyti!
 ! A15   A(4,6,11)        119.9649  119.9649  119.526  calculate D2E/DX2 analyti!
 ! A16   A(7,6,11)        120.3479  120.3479  119.1703 calculate D2E/DX2 analyti!
 ! A17   A(5,7,6)         117.8099  117.8099  117.8127 calculate D2E/DX2 analyti!
 ! A18   A(5,7,12)        120.5771  120.5771  120.5582 calculate D2E/DX2 analyti!
 ! A19   A(6,7,12)        121.613   121.613   121.629  calculate D2E/DX2 analyti!
 ! A20   A(1,8,13)        152.963   159.1296  151.1917 calculate D2E/DX2 analyti!
 ! A21   A(1,8,15)        106.3964  128.5231   80.0029 calculate D2E/DX2 analyti!
 ! A22   A(8,13,14)       120.1484  123.8924  107.549  calculate D2E/DX2 analyti!
 ! A23   A(8,13,15)        91.2582   80.465    79.7751 calculate D2E/DX2 analyti!
 ! A24   A(14,13,15)      107.536   107.536   139.6249 calculate D2E/DX2 analyti!
 ! A25   A(2,15,8)        104.5681   75.4235  114.7674 calculate D2E/DX2 analyti!
 ! A26   A(2,15,13)       146.5396  144.104   143.5765 calculate D2E/DX2 analyti!
 ! D1    D(8,1,3,2)         1.6141    0.5315    2.0394 calculate D2E/DX2 analyti!
 ! D2    D(8,1,3,4)      -178.38   -179.4626 -177.9136 calculate D2E/DX2 analyti!
 ! D3    D(3,1,8,13)        0.9089    4.6426    1.657  calculate D2E/DX2 analyti!
 ! D4    D(3,1,8,15)       -2.0299   -0.1576   -2.3127 calculate D2E/DX2 analyti!
 ! D5    D(5,2,3,1)      -179.8388 -179.8388 -179.7063 calculate D2E/DX2 analyti!
 ! D6    D(5,2,3,4)         0.155     0.155     0.2516 calculate D2E/DX2 analyti!
 ! D7    D(15,2,3,1)       -0.1446   -0.61      0.4291 calculate D2E/DX2 analyti!
 ! D8    D(15,2,3,4)      179.8493  179.3838 -179.613  calculate D2E/DX2 analyti!
 ! D9    D(3,2,5,7)        -0.1291   -0.1291   -0.1523 calculate D2E/DX2 analyti!
 ! D10   D(3,2,5,10)      179.8182  179.8182  179.7943 calculate D2E/DX2 analyti!
 ! D11   D(15,2,5,7)     -179.6944 -179.0936  179.7045 calculate D2E/DX2 analyti!
 ! D12   D(15,2,5,10)       0.2529    0.8537   -0.3488 calculate D2E/DX2 analyti!
 ! D13   D(3,2,15,8)       -1.0606    0.3674   -2.4733 calculate D2E/DX2 analyti!
 ! D14   D(3,2,15,13)      -5.8361   -4.7337   -6.5024 calculate D2E/DX2 analyti!
 ! D15   D(5,2,15,8)      178.5446  179.4151  177.6566 calculate D2E/DX2 analyti!
 ! D16   D(5,2,15,13)     173.769   174.314   173.6275 calculate D2E/DX2 analyti!
 ! D17   D(1,3,4,6)       179.9084  179.9084  179.7571 calculate D2E/DX2 analyti!
 ! D18   D(1,3,4,9)         0.0133    0.0133   -0.1178 calculate D2E/DX2 analyti!
 ! D19   D(2,3,4,6)        -0.0855   -0.0855   -0.1984 calculate D2E/DX2 analyti!
 ! D20   D(2,3,4,9)      -179.9806 -179.9806  179.9267 calculate D2E/DX2 analyti!
 ! D21   D(3,4,6,7)        -0.0144   -0.0144    0.0543 calculate D2E/DX2 analyti!
 ! D22   D(3,4,6,11)     -179.9424 -179.9424 -179.907  calculate D2E/DX2 analyti!
 ! D23   D(9,4,6,7)       179.877   179.877   179.9219 calculate D2E/DX2 analyti!
 ! D24   D(9,4,6,11)       -0.051    -0.051    -0.0394 calculate D2E/DX2 analyti!
 ! D25   D(2,5,7,6)         0.0331    0.0331   -0.0151 calculate D2E/DX2 analyti!
 ! D26   D(2,5,7,12)      179.9736  179.9736  179.9532 calculate D2E/DX2 analyti!
 ! D27   D(10,5,7,6)     -179.9116 -179.9116 -179.9577 calculate D2E/DX2 analyti!
 ! D28   D(10,5,7,12)       0.0288    0.0288    0.0106 calculate D2E/DX2 analyti!
 ! D29   D(4,6,7,5)         0.039     0.039     0.0591 calculate D2E/DX2 analyti!
 ! D30   D(4,6,7,12)     -179.9008 -179.9008 -179.9089 calculate D2E/DX2 analyti!
 ! D31   D(11,6,7,5)      179.9667  179.9667 -179.9795 calculate D2E/DX2 analyti!
 ! D32   D(11,6,7,12)       0.0269    0.0269    0.0526 calculate D2E/DX2 analyti!
 ! D33   D(1,8,13,14)    -115.0596 -112.1508 -143.1416 calculate D2E/DX2 analyti!
 ! D34   D(1,8,13,15)      -3.8807   -7.3639   -4.1286 calculate D2E/DX2 analyti!
 ! D35   D(1,8,15,2)        2.0859   -0.1409    2.9227 calculate D2E/DX2 analyti!
 ! D36   D(8,13,14,15)    102.1318   90.1714   94.8475 calculate D2E/DX2 analyti!
 ! D37   D(8,13,15,2)       6.8988    5.2951    7.5697 calculate D2E/DX2 analyti!
 ! D38   D(14,13,15,2)    129.1605  127.9739  112.6899 calculate D2E/DX2 analyti!
 --------------------------------------------------------------------------------
 Trust Radius=3.00D-01 FncErr=1.00D-07 GrdErr=1.00D-06
 Number of steps in this run=    100 maximum allowed number of steps=    100.
 Search for a saddle point of order  1.
 GradGradGradGradGradGradGradGradGradGradGradGradGradGradGradGradGradGrad

 Leave Link  103 at Sat Aug 28 15:07:23 2021, MaxMem= 17179869184 cpu:         1.1
 (Enter /public3/home/sc51754/softwares/g09e01/l202.exe)
                          Input orientation:                          
 ---------------------------------------------------------------------
 Center     Atomic      Atomic             Coordinates (Angstroms)
 Number     Number       Type             X           Y           Z
 ---------------------------------------------------------------------
      1          8           0        1.288409    1.413600    0.003335
      2          7           0        0.368024   -0.684366    0.001239
      3          6           0        0.209940    0.631219    0.004651
      4          6           0       -1.048808    1.237267    0.009480
      5          6           0       -0.722133   -1.455308   -0.000689
      6          6           0       -2.156798    0.428999    0.008890
      7          6           0       -2.001057   -0.954451    0.003268
      8          1           0        2.265043    0.632231   -0.035196
      9          1           0       -1.115316    2.314100    0.011781
     10          1           0       -0.544740   -2.523096   -0.006552
     11          1           0       -3.145124    0.867472    0.011605
     12          1           0       -2.850879   -1.619261    0.001054
     13          8           0        2.708946   -0.351469   -0.076253
     14          1           0        3.233999   -0.673763    0.658148
     15          1           0        1.656414   -0.857572   -0.006003
 ---------------------------------------------------------------------
                    Distance matrix (angstroms):
                    1          2          3          4          5
     1  O    0.000000
     2  N    2.290977   0.000000
     3  C    1.332373   1.325053   0.000000
     4  C    2.343867   2.387500   1.397055   0.000000
     5  C    3.503274   1.335214   2.285253   2.712338   0.000000
     6  C    3.583144   2.759414   2.375365   1.371473   2.368326
     7  C    4.053178   2.384428   2.720820   2.389654   1.373506
     8  H    1.251334   2.309423   2.055489   3.368927   3.644479
     9  H    2.566879   3.345326   2.142065   1.078887   3.789879
    10  H    4.342592   2.052834   3.243358   3.794031   1.082439
    11  H    4.467050   3.840640   3.363379   2.128684   3.356537
    12  H    5.131467   3.351920   3.799116   3.377467   2.135051
    13  O    2.267096   2.365743   2.686494   4.080704   3.605062
    14  H    2.927658   2.940315   3.357822   4.734473   4.086056
    15  H    2.300813   1.300000   2.075789   3.421522   2.452509
                    6          7          8          9         10
     6  C    0.000000
     7  C    1.392200   0.000000
     8  H    4.426728   4.551773   0.000000
     9  H    2.153671   3.386449   3.775939   0.000000
    10  H    3.363604   2.140468   4.225137   4.870766   0.000000
    11  H    1.081228   2.151363   5.415480   2.492560   4.272971
    12  H    2.162679   1.078969   5.589560   4.299258   2.476944
    13  O    4.928675   4.749109   1.080000   4.662401   3.912454
    14  H    5.540605   5.283319   1.767829   5.316169   4.259193
    15  H    4.024434   3.658765   1.609594   4.212162   2.760262
                   11         12         13         14         15
    11  H    0.000000
    12  H    2.504103   0.000000
    13  O    5.980273   5.703063   0.000000
    14  H    6.594439   6.192857   0.958592   0.000000
    15  H    5.102044   4.571204   1.170000   1.721528   0.000000
 Stoichiometry    C5H7NO2
 Framework group  C1[X(C5H7NO2)]
 Deg. of freedom    39
 Full point group                 C1      NOp   1
 Largest Abelian subgroup         C1      NOp   1
 Largest concise Abelian subgroup C1      NOp   1
                         Standard orientation:                         
 ---------------------------------------------------------------------
 Center     Atomic      Atomic             Coordinates (Angstroms)
 Number     Number       Type             X           Y           Z
 ---------------------------------------------------------------------
      1          8           0        1.405471    1.280296    0.000022
      2          7           0        0.311764   -0.732753   -0.003526
      3          6           0        0.264977    0.591464    0.001569
      4          6           0       -0.938288    1.301303    0.008418
      5          6           0       -0.839416   -1.409199   -0.005199
      6          6           0       -2.110378    0.589163    0.008059
      7          6           0       -2.071640   -0.802479    0.000679
      8          1           0        2.312833    0.419545   -0.040435
      9          1           0       -0.913920    2.379909    0.012031
     10          1           0       -0.752534   -2.488121   -0.012479
     11          1           0       -3.058287    1.109262    0.012318
     12          1           0       -2.974406   -1.393398   -0.001410
     13          8           0        2.672324   -0.597975   -0.083092
     14          1           0        3.169083   -0.964227    0.650385
     15          1           0        1.580995   -1.013778   -0.012321
 ---------------------------------------------------------------------
 Rotational constants (GHZ):      4.3035582      1.6283623      1.1842612
 Leave Link  202 at Sat Aug 28 15:07:23 2021, MaxMem= 17179869184 cpu:         4.9
 (Enter /public3/home/sc51754/softwares/g09e01/l301.exe)
 General basis read from cards:  (5D, 7F)
 Centers:       8      9     10     11     12     14     15
 S 4 1.00
     Exponent=  7.5423000000D+01 Coefficients=  2.4065000000D-03
     Exponent=  1.1350000000D+01 Coefficients=  1.8487000000D-02
     Exponent=  2.5993000000D+00 Coefficients=  8.9742000000D-02
     Exponent=  7.3513000000D-01 Coefficients=  2.8111000000D-01
 S 1 1.00
     Exponent=  2.3167000000D-01 Coefficients=  1.0000000000D+00
 S 1 1.00
     Exponent=  7.4147000000D-02 Coefficients=  1.0000000000D+00
 P 1 1.00
     Exponent=  1.6000000000D+00 Coefficients=  1.0000000000D+00
 P 1 1.00
     Exponent=  4.5000000000D-01 Coefficients=  1.0000000000D+00
 D 1 1.00
     Exponent=  1.2500000000D+00 Coefficients=  1.0000000000D+00
 ****
 Centers:       3      4      5      6      7
 S 7 1.00
     Exponent=  7.8571000000D+03 Coefficients=  5.6825000000D-04
     Exponent=  1.1787000000D+03 Coefficients=  4.3915000000D-03
     Exponent=  2.6832000000D+02 Coefficients=  2.2504000000D-02
     Exponent=  7.5948000000D+01 Coefficients=  8.6653000000D-02
     Exponent=  2.4559000000D+01 Coefficients=  2.4405000000D-01
     Exponent=  8.6212000000D+00 Coefficients=  4.4148000000D-01
     Exponent=  3.1278000000D+00 Coefficients=  3.5332000000D-01
 S 7 1.00
     Exponent=  1.1787000000D+03 Coefficients= -5.9492000000D-07
     Exponent=  2.6832000000D+02 Coefficients= -6.2748000000D-05
     Exponent=  7.5948000000D+01 Coefficients= -7.5773000000D-04
     Exponent=  2.4559000000D+01 Coefficients= -7.3308000000D-03
     Exponent=  8.6212000000D+00 Coefficients= -3.8932000000D-02
     Exponent=  3.1278000000D+00 Coefficients= -8.8908000000D-02
     Exponent=  8.2202000000D-01 Coefficients=  2.1689000000D-01
 S 1 1.00
     Exponent=  3.3017000000D-01 Coefficients=  1.0000000000D+00
 S 1 1.00
     Exponent=  1.1463000000D-01 Coefficients=  1.0000000000D+00
 P 4 1.00
     Exponent=  3.3775000000D+01 Coefficients=  6.0294000000D-03
     Exponent=  7.6766000000D+00 Coefficients=  4.3228000000D-02
     Exponent=  2.2357000000D+00 Coefficients=  1.6301000000D-01
     Exponent=  7.6447000000D-01 Coefficients=  3.6504000000D-01
 P 1 1.00
     Exponent=  2.6232000000D-01 Coefficients=  1.0000000000D+00
 P 1 1.00
     Exponent=  8.4638000000D-02 Coefficients=  1.0000000000D+00
 D 1 1.00
     Exponent=  1.4000000000D+00 Coefficients=  1.0000000000D+00
 D 1 1.00
     Exponent=  4.5000000000D-01 Coefficients=  1.0000000000D+00
 F 1 1.00
     Exponent=  9.5000000000D-01 Coefficients=  1.0000000000D+00
 ****
 Centers:       2
 S 7 1.00
     Exponent=  1.1101000000D+04 Coefficients=  5.4570000000D-04
     Exponent=  1.6653000000D+03 Coefficients=  4.2181000000D-03
     Exponent=  3.7908000000D+02 Coefficients=  2.1645000000D-02
     Exponent=  1.0730000000D+02 Coefficients=  8.3776000000D-02
     Exponent=  3.4747000000D+01 Coefficients=  2.3881000000D-01
     Exponent=  1.2249000000D+01 Coefficients=  4.3994000000D-01
     Exponent=  4.4743000000D+00 Coefficients=  3.6364000000D-01
 S 7 1.00
     Exponent=  1.6653000000D+03 Coefficients= -1.5006000000D-06
     Exponent=  3.7908000000D+02 Coefficients= -5.8753000000D-05
     Exponent=  1.0730000000D+02 Coefficients= -7.7453000000D-04
     Exponent=  3.4747000000D+01 Coefficients= -7.2161000000D-03
     Exponent=  1.2249000000D+01 Coefficients= -3.9338000000D-02
     Exponent=  4.4743000000D+00 Coefficients= -9.0611000000D-02
     Exponent=  1.2404000000D+00 Coefficients=  1.9882000000D-01
 S 1 1.00
     Exponent=  4.8743000000D-01 Coefficients=  1.0000000000D+00
 S 1 1.00
     Exponent=  1.6484000000D-01 Coefficients=  1.0000000000D+00
 P 4 1.00
     Exponent=  4.7934000000D+01 Coefficients=  6.1706000000D-03
     Exponent=  1.0999000000D+01 Coefficients=  4.4260000000D-02
     Exponent=  3.2472000000D+00 Coefficients=  1.6825000000D-01
     Exponent=  1.1114000000D+00 Coefficients=  3.6848000000D-01
 P 1 1.00
     Exponent=  3.7988000000D-01 Coefficients=  1.0000000000D+00
 P 1 1.00
     Exponent=  1.2068000000D-01 Coefficients=  1.0000000000D+00
 D 1 1.00
     Exponent=  1.8000000000D+00 Coefficients=  1.0000000000D+00
 D 1 1.00
     Exponent=  5.5000000000D-01 Coefficients=  1.0000000000D+00
 F 1 1.00
     Exponent=  1.0200000000D+00 Coefficients=  1.0000000000D+00
 ****
 Centers:       1     13
 S 7 1.00
     Exponent=  1.4782000000D+04 Coefficients=  5.3519000000D-04
     Exponent=  2.2173000000D+03 Coefficients=  4.1375000000D-03
     Exponent=  5.0474000000D+02 Coefficients=  2.1245000000D-02
     Exponent=  1.4287000000D+02 Coefficients=  8.2453000000D-02
     Exponent=  4.6300000000D+01 Coefficients=  2.3671000000D-01
     Exponent=  1.6337000000D+01 Coefficients=  4.4039000000D-01
     Exponent=  5.9828000000D+00 Coefficients=  3.6465000000D-01
 S 7 1.00
     Exponent=  2.2173000000D+03 Coefficients= -1.9275000000D-06
     Exponent=  5.0474000000D+02 Coefficients= -5.7964000000D-05
     Exponent=  1.4287000000D+02 Coefficients= -7.9494000000D-04
     Exponent=  4.6300000000D+01 Coefficients= -7.3125000000D-03
     Exponent=  1.6337000000D+01 Coefficients= -4.0574000000D-02
     Exponent=  5.9828000000D+00 Coefficients= -9.1594000000D-02
     Exponent=  1.6718000000D+00 Coefficients=  2.0940000000D-01
 S 1 1.00
     Exponent=  6.4662000000D-01 Coefficients=  1.0000000000D+00
 S 1 1.00
     Exponent=  2.1669000000D-01 Coefficients=  1.0000000000D+00
 P 4 1.00
     Exponent=  6.0424000000D+01 Coefficients=  6.8949000000D-03
     Exponent=  1.3935000000D+01 Coefficients=  4.9005000000D-02
     Exponent=  4.1531000000D+00 Coefficients=  1.8255000000D-01
     Exponent=  1.4158000000D+00 Coefficients=  3.7633000000D-01
 P 1 1.00
     Exponent=  4.7549000000D-01 Coefficients=  1.0000000000D+00
 P 1 1.00
     Exponent=  1.4529000000D-01 Coefficients=  1.0000000000D+00
 D 1 1.00
     Exponent=  2.2000000000D+00 Coefficients=  1.0000000000D+00
 D 1 1.00
     Exponent=  6.5000000000D-01 Coefficients=  1.0000000000D+00
 F 1 1.00
     Exponent=  1.1000000000D+00 Coefficients=  1.0000000000D+00
 ****
 Ernie: Thresh=  0.10000D-02 Tol=  0.10000D-05 Strict=F.
 Ernie:  8 primitive shells out of 263 were deleted.
 There are   385 symmetry adapted cartesian basis functions of A   symmetry.
 There are   338 symmetry adapted basis functions of A   symmetry.
   338 basis functions,   566 primitive gaussians,   385 cartesian basis functions
    30 alpha electrons       30 beta electrons
       nuclear repulsion energy       370.2509380076 Hartrees.
 IExCor=20419 DFT=T Ex+Corr=CAM-B3LYP ExCW=0 ScaHFX=  1.000000
 ScaDFX=  1.000000  1.000000  1.000000  0.810000 ScalE2=  1.000000  1.000000
 IRadAn=      0 IRanWt=     -1 IRanGd=            0 ICorTp=0 IEmpDi=  4
  HFx wShort=  0.000000 wLong=  0.330000 cFull=  0.190000 cShort=  0.000000 cLong=  0.460000
  DFx wShort=  0.000000 wLong=  0.330000 cFull=  0.190000 cShort=  0.000000 cLong=  0.460000
 NAtoms=   15 NActive=   15 NUniq=   15 SFac= 1.00D+00 NAtFMM=   60 NAOKFM=F Big=F
 Integral buffers will be    131072 words long.
 Raffenetti 2 integral format.
 Two-electron integral symmetry is turned on.
 Leave Link  301 at Sat Aug 28 15:07:24 2021, MaxMem= 17179869184 cpu:         3.1
 (Enter /public3/home/sc51754/softwares/g09e01/l302.exe)
 NPDir=0 NMtPBC=     1 NCelOv=     1 NCel=       1 NClECP=     1 NCelD=      1
         NCelK=      1 NCelE2=     1 NClLst=     1 CellRange=     0.0.
 One-electron integrals computed using PRISM.
 NBasis=   338 RedAO= T EigKep=  1.44D-04  NBF=   338
 NBsUse=   338 1.00D-06 EigRej= -1.00D+00 NBFU=   338
 Precomputing XC quadrature grid using
 IXCGrd= 4 IRadAn=           0 IRanWt=          -1 IRanGd=           0 AccXCQ= 0.00D+00.
 Generated NRdTot=       0 NPtTot=           0 NUsed=           0 NTot=          32
 NSgBfM=   385   385   385   385   385 MxSgAt=    15 MxSgA2=    15.
 Leave Link  302 at Sat Aug 28 15:07:24 2021, MaxMem= 17179869184 cpu:        42.2
 (Enter /public3/home/sc51754/softwares/g09e01/l303.exe)
 DipDrv:  MaxL=1.
 Leave Link  303 at Sat Aug 28 15:07:25 2021, MaxMem= 17179869184 cpu:        13.5
 (Enter /public3/home/sc51754/softwares/g09e01/l401.exe)
 ExpMin= 7.41D-02 ExpMax= 1.48D+04 ExpMxC= 5.05D+02 IAcc=2 IRadAn=         4 AccDes= 0.00D+00
 Harris functional with IExCor=20419 and IRadAn=       4 diagonalized for initial guess.
 HarFok:  IExCor=20419 AccDes= 0.00D+00 IRadAn=         4 IDoV= 1 UseB2=F ITyADJ=14
 ICtDFT=  3500011 ScaDFX=  1.000000  1.000000  1.000000  1.000000
 FoFCou: FMM=F IPFlag=           0 FMFlag=      100000 FMFlg1=           0
         NFxFlg=           0 DoJE=T BraDBF=F KetDBF=T FulRan=T
         wScrn=  0.000000 ICntrl=     500 IOpCl=  0 I1Cent=   200000004 NGrid=           0
         NMat0=    1 NMatS0=      1 NMatT0=    0 NMatD0=    1 NMtDS0=    0 NMtDT0=    0
 Petite list used in FoFCou.
 Harris En= -385.238918988347    
 JPrj=0 DoOrth=F DoCkMO=F.
 Leave Link  401 at Sat Aug 28 15:07:26 2021, MaxMem= 17179869184 cpu:        48.6
 (Enter /public3/home/sc51754/softwares/g09e01/l502.exe)
 Closed shell SCF:
 Using DIIS extrapolation, IDIIS=  1040.
 Integral symmetry usage will be decided dynamically.
 Keep R1 ints in memory in canonical form, NReq=3311562672.
 IVT=      490665 IEndB=      490665 NGot= 17179869184 MDV= 13897062548
 LenX= 13897062548 LenY= 13896913882
 Requested convergence on RMS density matrix=1.00D-08 within 128 cycles.
 Requested convergence on MAX density matrix=1.00D-06.
 Requested convergence on             energy=1.00D-06.
 No special actions if energy rises.
 FoFCou: FMM=F IPFlag=           0 FMFlag=           0 FMFlg1=           0
         NFxFlg=           0 DoJE=F BraDBF=F KetDBF=F FulRan=T
         wScrn=  0.000000 ICntrl=     600 IOpCl=  0 I1Cent=           0 NGrid=           0
         NMat0=    1 NMatS0=  57291 NMatT0=    0 NMatD0=    1 NMtDS0=    0 NMtDT0=    0
 Symmetry not used in FoFCou.

 Cycle   1  Pass 1  IDiag  1:
 E= -399.846111937765    
 DIIS: error= 5.54D-02 at cycle   1 NSaved=   1.
 NSaved= 1 IEnMin= 1 EnMin= -399.846111937765     IErMin= 1 ErrMin= 5.54D-02
 ErrMax= 5.54D-02  0.00D+00 EMaxC= 1.00D-01 BMatC= 2.36D-01 BMatP= 2.36D-01
 IDIUse=3 WtCom= 4.46D-01 WtEn= 5.54D-01
 Coeff-Com:  0.100D+01
 Coeff-En:   0.100D+01
 Coeff:      0.100D+01
 Gap=     0.298 Goal=   None    Shift=    0.000
 GapD=    0.298 DampG=1.000 DampE=0.500 DampFc=0.5000 IDamp=-1.
 Damping current iteration by 5.00D-01
 RMSDP=2.27D-03 MaxDP=1.43D-01              OVMax= 1.75D-01

 Cycle   2  Pass 1  IDiag  1:
 E= -399.879739642206     Delta-E=       -0.033627704441 Rises=F Damp=T
 DIIS: error= 2.75D-02 at cycle   2 NSaved=   2.
 NSaved= 2 IEnMin= 2 EnMin= -399.879739642206     IErMin= 2 ErrMin= 2.75D-02
 ErrMax= 2.75D-02  0.00D+00 EMaxC= 1.00D-01 BMatC= 4.84D-02 BMatP= 2.36D-01
 IDIUse=3 WtCom= 7.25D-01 WtEn= 2.75D-01
 Coeff-Com: -0.324D+00 0.132D+01
 Coeff-En:   0.235D-01 0.976D+00
 Coeff:     -0.229D+00 0.123D+01
 Gap=     0.299 Goal=   None    Shift=    0.000
 RMSDP=1.07D-03 MaxDP=6.36D-02 DE=-3.36D-02 OVMax= 1.37D-01

 Cycle   3  Pass 1  IDiag  1:
 E= -399.905480402959     Delta-E=       -0.025740760753 Rises=F Damp=F
 DIIS: error= 7.89D-03 at cycle   3 NSaved=   3.
 NSaved= 3 IEnMin= 3 EnMin= -399.905480402959     IErMin= 3 ErrMin= 7.89D-03
 ErrMax= 7.89D-03  0.00D+00 EMaxC= 1.00D-01 BMatC= 2.08D-02 BMatP= 4.84D-02
 IDIUse=3 WtCom= 9.21D-01 WtEn= 7.89D-02
 Coeff-Com: -0.307D+00 0.654D+00 0.653D+00
 Coeff-En:   0.000D+00 0.000D+00 0.100D+01
 Coeff:     -0.283D+00 0.602D+00 0.681D+00
 Gap=     0.287 Goal=   None    Shift=    0.000
 RMSDP=3.48D-04 MaxDP=2.25D-02 DE=-2.57D-02 OVMax= 5.31D-02

 Cycle   4  Pass 1  IDiag  1:
 E= -399.924307847909     Delta-E=       -0.018827444950 Rises=F Damp=F
 DIIS: error= 1.56D-03 at cycle   4 NSaved=   4.
 NSaved= 4 IEnMin= 4 EnMin= -399.924307847909     IErMin= 4 ErrMin= 1.56D-03
 ErrMax= 1.56D-03  0.00D+00 EMaxC= 1.00D-01 BMatC= 1.18D-03 BMatP= 2.08D-02
 IDIUse=3 WtCom= 9.84D-01 WtEn= 1.56D-02
 Coeff-Com: -0.138D+00 0.284D+00 0.365D+00 0.489D+00
 Coeff-En:   0.000D+00 0.000D+00 0.000D+00 0.100D+01
 Coeff:     -0.136D+00 0.280D+00 0.359D+00 0.497D+00
 Gap=     0.283 Goal=   None    Shift=    0.000
 RMSDP=6.26D-05 MaxDP=5.35D-03 DE=-1.88D-02 OVMax= 9.80D-03

 Cycle   5  Pass 1  IDiag  1:
 E= -399.925256298796     Delta-E=       -0.000948450887 Rises=F Damp=F
 DIIS: error= 1.80D-04 at cycle   5 NSaved=   5.
 NSaved= 5 IEnMin= 5 EnMin= -399.925256298796     IErMin= 5 ErrMin= 1.80D-04
 ErrMax= 1.80D-04  0.00D+00 EMaxC= 1.00D-01 BMatC= 1.64D-05 BMatP= 1.18D-03
 IDIUse=3 WtCom= 9.98D-01 WtEn= 1.80D-03
 Coeff-Com: -0.741D-02 0.140D-01 0.386D-01 0.118D+00 0.837D+00
 Coeff-En:   0.000D+00 0.000D+00 0.000D+00 0.000D+00 0.100D+01
 Coeff:     -0.740D-02 0.139D-01 0.385D-01 0.118D+00 0.837D+00
 Gap=     0.283 Goal=   None    Shift=    0.000
 RMSDP=1.54D-05 MaxDP=5.93D-04 DE=-9.48D-04 OVMax= 2.77D-03

 Cycle   6  Pass 1  IDiag  1:
 E= -399.925274061195     Delta-E=       -0.000017762399 Rises=F Damp=F
 DIIS: error= 1.18D-04 at cycle   6 NSaved=   6.
 NSaved= 6 IEnMin= 6 EnMin= -399.925274061195     IErMin= 6 ErrMin= 1.18D-04
 ErrMax= 1.18D-04  0.00D+00 EMaxC= 1.00D-01 BMatC= 6.25D-06 BMatP= 1.64D-05
 IDIUse=3 WtCom= 9.99D-01 WtEn= 1.18D-03
 Coeff-Com:  0.103D-01-0.219D-01-0.174D-01 0.141D-04 0.415D+00 0.614D+00
 Coeff-En:   0.000D+00 0.000D+00 0.000D+00 0.000D+00 0.000D+00 0.100D+01
 Coeff:      0.103D-01-0.219D-01-0.174D-01 0.140D-04 0.414D+00 0.615D+00
 Gap=     0.284 Goal=   None    Shift=    0.000
 RMSDP=7.32D-06 MaxDP=2.84D-04 DE=-1.78D-05 OVMax= 9.19D-04

 Cycle   7  Pass 1  IDiag  1:
 E= -399.925280054772     Delta-E=       -0.000005993577 Rises=F Damp=F
 DIIS: error= 2.96D-05 at cycle   7 NSaved=   7.
 NSaved= 7 IEnMin= 7 EnMin= -399.925280054772     IErMin= 7 ErrMin= 2.96D-05
 ErrMax= 2.96D-05  0.00D+00 EMaxC= 1.00D-01 BMatC= 6.08D-07 BMatP= 6.25D-06
 IDIUse=1 WtCom= 1.00D+00 WtEn= 0.00D+00
 Coeff-Com:  0.590D-02-0.122D-01-0.140D-01-0.223D-01 0.481D-01 0.233D+00
 Coeff-Com:  0.762D+00
 Coeff:      0.590D-02-0.122D-01-0.140D-01-0.223D-01 0.481D-01 0.233D+00
 Coeff:      0.762D+00
 Gap=     0.284 Goal=   None    Shift=    0.000
 RMSDP=3.26D-06 MaxDP=1.27D-04 DE=-5.99D-06 OVMax= 8.28D-04

 Cycle   8  Pass 1  IDiag  1:
 E= -399.925281150546     Delta-E=       -0.000001095774 Rises=F Damp=F
 DIIS: error= 2.04D-05 at cycle   8 NSaved=   8.
 NSaved= 8 IEnMin= 8 EnMin= -399.925281150546     IErMin= 8 ErrMin= 2.04D-05
 ErrMax= 2.04D-05  0.00D+00 EMaxC= 1.00D-01 BMatC= 1.53D-07 BMatP= 6.08D-07
 IDIUse=1 WtCom= 1.00D+00 WtEn= 0.00D+00
 Coeff-Com:  0.773D-03-0.151D-02-0.276D-02-0.998D-02-0.434D-01-0.722D-02
 Coeff-Com:  0.349D+00 0.716D+00
 Coeff:      0.773D-03-0.151D-02-0.276D-02-0.998D-02-0.434D-01-0.722D-02
 Coeff:      0.349D+00 0.716D+00
 Gap=     0.284 Goal=   None    Shift=    0.000
 RMSDP=1.61D-06 MaxDP=4.83D-05 DE=-1.10D-06 OVMax= 2.92D-04

 Cycle   9  Pass 1  IDiag  1:
 E= -399.925281412161     Delta-E=       -0.000000261615 Rises=F Damp=F
 DIIS: error= 8.35D-06 at cycle   9 NSaved=   9.
 NSaved= 9 IEnMin= 9 EnMin= -399.925281412161     IErMin= 9 ErrMin= 8.35D-06
 ErrMax= 8.35D-06  0.00D+00 EMaxC= 1.00D-01 BMatC= 2.48D-08 BMatP= 1.53D-07
 IDIUse=1 WtCom= 1.00D+00 WtEn= 0.00D+00
 Coeff-Com: -0.131D-02 0.276D-02 0.279D-02 0.167D-02-0.316D-01-0.752D-01
 Coeff-Com: -0.551D-01 0.319D+00 0.837D+00
 Coeff:     -0.131D-02 0.276D-02 0.279D-02 0.167D-02-0.316D-01-0.752D-01
 Coeff:     -0.551D-01 0.319D+00 0.837D+00
 Gap=     0.284 Goal=   None    Shift=    0.000
 RMSDP=9.24D-07 MaxDP=3.22D-05 DE=-2.62D-07 OVMax= 2.45D-04

 Cycle  10  Pass 1  IDiag  1:
 E= -399.925281474404     Delta-E=       -0.000000062243 Rises=F Damp=F
 DIIS: error= 2.18D-06 at cycle  10 NSaved=  10.
 NSaved=10 IEnMin=10 EnMin= -399.925281474404     IErMin=10 ErrMin= 2.18D-06
 ErrMax= 2.18D-06  0.00D+00 EMaxC= 1.00D-01 BMatC= 1.41D-09 BMatP= 2.48D-08
 IDIUse=1 WtCom= 1.00D+00 WtEn= 0.00D+00
 Coeff-Com: -0.425D-03 0.881D-03 0.102D-02 0.127D-02-0.489D-02-0.202D-01
 Coeff-Com: -0.409D-01 0.133D-01 0.211D+00 0.839D+00
 Coeff:     -0.425D-03 0.881D-03 0.102D-02 0.127D-02-0.489D-02-0.202D-01
 Coeff:     -0.409D-01 0.133D-01 0.211D+00 0.839D+00
 Gap=     0.284 Goal=   None    Shift=    0.000
 RMSDP=2.28D-07 MaxDP=6.61D-06 DE=-6.22D-08 OVMax= 5.44D-05

 Cycle  11  Pass 1  IDiag  1:
 E= -399.925281477740     Delta-E=       -0.000000003337 Rises=F Damp=F
 DIIS: error= 1.18D-06 at cycle  11 NSaved=  11.
 NSaved=11 IEnMin=11 EnMin= -399.925281477740     IErMin=11 ErrMin= 1.18D-06
 ErrMax= 1.18D-06  0.00D+00 EMaxC= 1.00D-01 BMatC= 2.17D-10 BMatP= 1.41D-09
 IDIUse=1 WtCom= 1.00D+00 WtEn= 0.00D+00
 Coeff-Com:  0.398D-04-0.880D-04-0.434D-04 0.195D-03 0.254D-02 0.257D-02
 Coeff-Com: -0.510D-02-0.405D-01-0.368D-01 0.286D+00 0.791D+00
 Coeff:      0.398D-04-0.880D-04-0.434D-04 0.195D-03 0.254D-02 0.257D-02
 Coeff:     -0.510D-02-0.405D-01-0.368D-01 0.286D+00 0.791D+00
 Gap=     0.284 Goal=   None    Shift=    0.000
 RMSDP=6.93D-08 MaxDP=2.68D-06 DE=-3.34D-09 OVMax= 1.13D-05

 Cycle  12  Pass 1  IDiag  1:
 E= -399.925281478081     Delta-E=       -0.000000000341 Rises=F Damp=F
 DIIS: error= 2.76D-07 at cycle  12 NSaved=  12.
 NSaved=12 IEnMin=12 EnMin= -399.925281478081     IErMin=12 ErrMin= 2.76D-07
 ErrMax= 2.76D-07  0.00D+00 EMaxC= 1.00D-01 BMatC= 2.11D-11 BMatP= 2.17D-10
 IDIUse=1 WtCom= 1.00D+00 WtEn= 0.00D+00
 Coeff-Com:  0.495D-04-0.105D-03-0.944D-04 0.269D-05 0.144D-02 0.260D-02
 Coeff-Com:  0.204D-02-0.161D-01-0.299D-01 0.339D-01 0.286D+00 0.720D+00
 Coeff:      0.495D-04-0.105D-03-0.944D-04 0.269D-05 0.144D-02 0.260D-02
 Coeff:      0.204D-02-0.161D-01-0.299D-01 0.339D-01 0.286D+00 0.720D+00
 Gap=     0.284 Goal=   None    Shift=    0.000
 RMSDP=1.61D-08 MaxDP=9.13D-07 DE=-3.41D-10 OVMax= 2.67D-06

 Cycle  13  Pass 1  IDiag  1:
 E= -399.925281478116     Delta-E=       -0.000000000035 Rises=F Damp=F
 DIIS: error= 8.56D-08 at cycle  13 NSaved=  13.
 NSaved=13 IEnMin=13 EnMin= -399.925281478116     IErMin=13 ErrMin= 8.56D-08
 ErrMax= 8.56D-08  0.00D+00 EMaxC= 1.00D-01 BMatC= 2.92D-12 BMatP= 2.11D-11
 IDIUse=1 WtCom= 1.00D+00 WtEn= 0.00D+00
 Coeff-Com:  0.140D-04-0.292D-04-0.304D-04-0.123D-04 0.197D-03 0.548D-03
 Coeff-Com:  0.139D-02-0.147D-02-0.720D-02-0.236D-01 0.123D-01 0.270D+00
 Coeff-Com:  0.748D+00
 Coeff:      0.140D-04-0.292D-04-0.304D-04-0.123D-04 0.197D-03 0.548D-03
 Coeff:      0.139D-02-0.147D-02-0.720D-02-0.236D-01 0.123D-01 0.270D+00
 Coeff:      0.748D+00
 Gap=     0.284 Goal=   None    Shift=    0.000
 RMSDP=6.55D-09 MaxDP=3.61D-07 DE=-3.46D-11 OVMax= 8.22D-07

 SCF Done:  E(RCAM-B3LYP) =  -399.925281478     A.U. after   13 cycles
            NFock= 13  Conv=0.65D-08     -V/T= 2.0027
 KE= 3.988462029519D+02 PE=-1.676800091395D+03 EE= 5.077776689571D+02
 Leave Link  502 at Sat Aug 28 15:07:49 2021, MaxMem= 17179869184 cpu:       506.0
 (Enter /public3/home/sc51754/softwares/g09e01/l801.exe)
 DoSCS=F DFT=T ScalE2(SS,OS)=  1.000000  1.000000
 Range of M.O.s used for correlation:     1   338
 NBasis=   338 NAE=    30 NBE=    30 NFC=     0 NFV=     0
 NROrb=    338 NOA=    30 NOB=    30 NVA=   308 NVB=   308

 **** Warning!!: The largest alpha MO coefficient is  0.16415325D+02

 Leave Link  801 at Sat Aug 28 15:07:49 2021, MaxMem= 17179869184 cpu:         1.2
 (Enter /public3/home/sc51754/softwares/g09e01/l1101.exe)
 Using compressed storage, NAtomX=    15.
 Will process     16 centers per pass.
 Leave Link 1101 at Sat Aug 28 15:07:51 2021, MaxMem= 17179869184 cpu:       116.9
 (Enter /public3/home/sc51754/softwares/g09e01/l1102.exe)
 Symmetrizing basis deriv contribution to polar:
 IMax=3 JMax=2 DiffMx= 0.00D+00
 Leave Link 1102 at Sat Aug 28 15:07:52 2021, MaxMem= 17179869184 cpu:         9.9
 (Enter /public3/home/sc51754/softwares/g09e01/l1110.exe)
 Forming Gx(P) for the SCF density, NAtomX=    15.
 Integral derivatives from FoFJK, PRISM(SPDF).
 Do as many integral derivatives as possible in FoFJK.
 G2DrvN: MDV=   17179868960.
 G2DrvN: will do    16 centers at a time, making    1 passes.
 Calling FoFCou, ICntrl=  3107 FMM=F I1Cent=   0 AccDes= 1.00D-12.
 FoFJK:  IHMeth= 1 ICntrl=    3107 DoSepK=T KAlg= 0 I1Cent=   0 FoldK=F
 IRaf=         1 NMat=   1 IRICut=       1 DoRegI=T DoRafI=F ISym2E= 0.
 FoFCou: FMM=F IPFlag=           0 FMFlag=      100000 FMFlg1=           0
         NFxFlg=           0 DoJE=F BraDBF=F KetDBF=F FulRan=T
         wScrn=  0.000000 ICntrl=    3507 IOpCl=  0 I1Cent=           0 NGrid=           0
         NMat0=    1 NMatS0=      1 NMatT0=    0 NMatD0=    1 NMtDS0=    0 NMtDT0=    0
 Symmetry not used in FoFCou.
 End of G2Drv F.D. properties file   721 does not exist.
 End of G2Drv F.D. properties file   722 does not exist.
 End of G2Drv F.D. properties file   788 does not exist.
 Leave Link 1110 at Sat Aug 28 15:08:06 2021, MaxMem= 17179869184 cpu:       918.8
 (Enter /public3/home/sc51754/softwares/g09e01/l1002.exe)
 Minotr:  Closed shell wavefunction.
          IDoAtm=111111111111111
          Direct CPHF calculation.
          Differentiating once with respect to nuclear coordinates.
          Requested convergence is 1.0D-08 RMS, and 1.0D-07 maximum.
          Secondary convergence is 1.0D-12 RMS, and 1.0D-12 maximum.
          NewPWx=T KeepS1=F KeepF1=F KeepIn=T MapXYZ=F SortEE=F KeepMc=T.
          MDV=   17179868692 using IRadAn=       2.
 Generate precomputed XC quadrature information.
 Keep R1 ints in memory in canonical form, NReq=3311077877.
 FoFCou: FMM=F IPFlag=           0 FMFlag=           0 FMFlg1=           0
         NFxFlg=           0 DoJE=F BraDBF=F KetDBF=F FulRan=T
         wScrn=  0.000000 ICntrl=     600 IOpCl=  0 I1Cent=           0 NGrid=           0
         NMat0=    1 NMatS0=  57291 NMatT0=    0 NMatD0=    1 NMtDS0=    0 NMtDT0=    0
 Symmetry not used in FoFCou.
          Solving linear equations simultaneously, MaxMat=       0.
          There are    48 degrees of freedom in the 1st order CPHF.  IDoFFX=6 NUNeed=     0.
     42 vectors produced by pass  0 Test12= 1.92D-14 2.08D-09 XBig12= 8.78D-02 8.54D-02.
 AX will form    42 AO Fock derivatives at one time.
     42 vectors produced by pass  1 Test12= 1.92D-14 2.08D-09 XBig12= 1.10D-02 2.91D-02.
     42 vectors produced by pass  2 Test12= 1.92D-14 2.08D-09 XBig12= 3.33D-04 3.52D-03.
     42 vectors produced by pass  3 Test12= 1.92D-14 2.08D-09 XBig12= 3.13D-06 3.68D-04.
     42 vectors produced by pass  4 Test12= 1.92D-14 2.08D-09 XBig12= 2.32D-08 4.18D-05.
     42 vectors produced by pass  5 Test12= 1.92D-14 2.08D-09 XBig12= 1.35D-10 1.58D-06.
     36 vectors produced by pass  6 Test12= 1.92D-14 2.08D-09 XBig12= 5.90D-13 8.83D-08.
      8 vectors produced by pass  7 Test12= 1.92D-14 2.08D-09 XBig12= 2.13D-15 6.08D-09.
 InvSVY:  IOpt=1 It=  1 EMax= 1.78D-15
 Solved reduced A of dimension   296 with    42 vectors.
 End of Minotr F.D. properties file   721 does not exist.
 End of Minotr F.D. properties file   722 does not exist.
 End of Minotr F.D. properties file   788 does not exist.
 Leave Link 1002 at Sat Aug 28 15:08:28 2021, MaxMem= 17179869184 cpu:      1388.3
 (Enter /public3/home/sc51754/softwares/g09e01/l601.exe)
 Copying SCF densities to generalized density rwf, IOpCl= 0 IROHF=0.

 **********************************************************************

            Population analysis using the SCF density.

 **********************************************************************

 Orbital symmetries:
       Occupied  (A) (A) (A) (A) (A) (A) (A) (A) (A) (A) (A) (A)
                 (A) (A) (A) (A) (A) (A) (A) (A) (A) (A) (A) (A)
                 (A) (A) (A) (A) (A) (A)
       Virtual   (A) (A) (A) (A) (A) (A) (A) (A) (A) (A) (A) (A)
                 (A) (A) (A) (A) (A) (A) (A) (A) (A) (A) (A) (A)
                 (A) (A) (A) (A) (A) (A) (A) (A) (A) (A) (A) (A)
                 (A) (A) (A) (A) (A) (A) (A) (A) (A) (A) (A) (A)
                 (A) (A) (A) (A) (A) (A) (A) (A) (A) (A) (A) (A)
                 (A) (A) (A) (A) (A) (A) (A) (A) (A) (A) (A) (A)
                 (A) (A) (A) (A) (A) (A) (A) (A) (A) (A) (A) (A)
                 (A) (A) (A) (A) (A) (A) (A) (A) (A) (A) (A) (A)
                 (A) (A) (A) (A) (A) (A) (A) (A) (A) (A) (A) (A)
                 (A) (A) (A) (A) (A) (A) (A) (A) (A) (A) (A) (A)
                 (A) (A) (A) (A) (A) (A) (A) (A) (A) (A) (A) (A)
                 (A) (A) (A) (A) (A) (A) (A) (A) (A) (A) (A) (A)
                 (A) (A) (A) (A) (A) (A) (A) (A) (A) (A) (A) (A)
                 (A) (A) (A) (A) (A) (A) (A) (A) (A) (A) (A) (A)
                 (A) (A) (A) (A) (A) (A) (A) (A) (A) (A) (A) (A)
                 (A) (A) (A) (A) (A) (A) (A) (A) (A) (A) (A) (A)
                 (A) (A) (A) (A) (A) (A) (A) (A) (A) (A) (A) (A)
                 (A) (A) (A) (A) (A) (A) (A) (A) (A) (A) (A) (A)
                 (A) (A) (A) (A) (A) (A) (A) (A) (A) (A) (A) (A)
                 (A) (A) (A) (A) (A) (A) (A) (A) (A) (A) (A) (A)
                 (A) (A) (A) (A) (A) (A) (A) (A) (A) (A) (A) (A)
                 (A) (A) (A) (A) (A) (A) (A) (A) (A) (A) (A) (A)
                 (A) (A) (A) (A) (A) (A) (A) (A) (A) (A) (A) (A)
                 (A) (A) (A) (A) (A) (A) (A) (A) (A) (A) (A) (A)
                 (A) (A) (A) (A) (A) (A) (A) (A) (A) (A) (A) (A)
                 (A) (A) (A) (A) (A) (A) (A) (A)
 The electronic state is 1-A.
 Alpha  occ. eigenvalues --  -19.20826 -19.15462 -14.41372 -10.34168 -10.30401
 Alpha  occ. eigenvalues --  -10.27446 -10.25618 -10.25199  -1.14102  -1.08481
 Alpha  occ. eigenvalues --   -1.02907  -0.90558  -0.84088  -0.73959  -0.70643
 Alpha  occ. eigenvalues --   -0.64679  -0.63314  -0.57714  -0.56113  -0.53773
 Alpha  occ. eigenvalues --   -0.51821  -0.50295  -0.47156  -0.45547  -0.43954
 Alpha  occ. eigenvalues --   -0.40344  -0.37847  -0.36866  -0.33583  -0.28395
 Alpha virt. eigenvalues --   -0.00036   0.03989   0.04354   0.05648   0.07182
 Alpha virt. eigenvalues --    0.08959   0.10995   0.14519   0.15083   0.17714
 Alpha virt. eigenvalues --    0.18413   0.19465   0.20754   0.21539   0.22826
 Alpha virt. eigenvalues --    0.23398   0.24389   0.25366   0.27395   0.29185
 Alpha virt. eigenvalues --    0.30502   0.32629   0.32869   0.33229   0.34672
 Alpha virt. eigenvalues --    0.35806   0.35924   0.36559   0.38100   0.39219
 Alpha virt. eigenvalues --    0.40857   0.42042   0.43580   0.43954   0.45782
 Alpha virt. eigenvalues --    0.46599   0.47826   0.49645   0.50640   0.51924
 Alpha virt. eigenvalues --    0.54849   0.57216   0.57826   0.59380   0.61099
 Alpha virt. eigenvalues --    0.64127   0.67346   0.67936   0.69160   0.69571
 Alpha virt. eigenvalues --    0.70876   0.72761   0.73359   0.78389   0.80040
 Alpha virt. eigenvalues --    0.83087   0.85464   0.87351   0.87832   0.90465
 Alpha virt. eigenvalues --    0.93511   0.96129   0.97278   0.98875   1.00094
 Alpha virt. eigenvalues --    1.02559   1.03381   1.05753   1.08981   1.11648
 Alpha virt. eigenvalues --    1.13352   1.14754   1.16820   1.19037   1.20439
 Alpha virt. eigenvalues --    1.20480   1.21980   1.22471   1.24536   1.26751
 Alpha virt. eigenvalues --    1.27805   1.30028   1.31694   1.31907   1.32879
 Alpha virt. eigenvalues --    1.36154   1.37536   1.39411   1.43416   1.47725
 Alpha virt. eigenvalues --    1.49051   1.52121   1.53085   1.54586   1.56205
 Alpha virt. eigenvalues --    1.57475   1.58884   1.61342   1.62887   1.65347
 Alpha virt. eigenvalues --    1.66370   1.68371   1.70613   1.73823   1.74010
 Alpha virt. eigenvalues --    1.75347   1.77962   1.78765   1.80708   1.86163
 Alpha virt. eigenvalues --    1.87313   1.89005   1.91247   1.93524   1.94242
 Alpha virt. eigenvalues --    1.94969   1.96229   2.01266   2.04590   2.07417
 Alpha virt. eigenvalues --    2.10889   2.11505   2.14602   2.15057   2.16367
 Alpha virt. eigenvalues --    2.18928   2.23282   2.23843   2.28486   2.29122
 Alpha virt. eigenvalues --    2.30797   2.35263   2.35969   2.36695   2.39176
 Alpha virt. eigenvalues --    2.40869   2.54845   2.66384   2.70509   2.83561
 Alpha virt. eigenvalues --    2.88189   2.91936   2.95026   3.01667   3.03363
 Alpha virt. eigenvalues --    3.17559   3.21747   3.23897   3.25456   3.28332
 Alpha virt. eigenvalues --    3.30225   3.32776   3.33854   3.38186   3.41401
 Alpha virt. eigenvalues --    3.42500   3.44053   3.48742   3.49361   3.52140
 Alpha virt. eigenvalues --    3.52854   3.55333   3.58872   3.62622   3.64340
 Alpha virt. eigenvalues --    3.65808   3.67807   3.68826   3.69256   3.71573
 Alpha virt. eigenvalues --    3.72412   3.75775   3.76563   3.82994   3.84200
 Alpha virt. eigenvalues --    3.85914   3.86516   3.91956   3.95804   3.96354
 Alpha virt. eigenvalues --    3.99993   4.02593   4.03472   4.04415   4.09019
 Alpha virt. eigenvalues --    4.11052   4.11424   4.13083   4.14028   4.14961
 Alpha virt. eigenvalues --    4.17621   4.18840   4.20612   4.21275   4.23682
 Alpha virt. eigenvalues --    4.24545   4.25972   4.27320   4.28717   4.30651
 Alpha virt. eigenvalues --    4.31232   4.33189   4.35458   4.36457   4.37292
 Alpha virt. eigenvalues --    4.39320   4.40472   4.41243   4.41448   4.42533
 Alpha virt. eigenvalues --    4.44534   4.47278   4.47811   4.49335   4.50868
 Alpha virt. eigenvalues --    4.52744   4.54374   4.54739   4.55020   4.56257
 Alpha virt. eigenvalues --    4.57493   4.58821   4.63032   4.63948   4.64971
 Alpha virt. eigenvalues --    4.67607   4.70141   4.74025   4.74774   4.79819
 Alpha virt. eigenvalues --    4.83104   4.83583   4.87481   4.91362   4.92859
 Alpha virt. eigenvalues --    4.94068   4.97451   4.99948   5.01354   5.03360
 Alpha virt. eigenvalues --    5.07095   5.09458   5.12351   5.15946   5.18126
 Alpha virt. eigenvalues --    5.20457   5.23764   5.26791   5.29058   5.31570
 Alpha virt. eigenvalues --    5.34035   5.36991   5.39559   5.41851   5.43509
 Alpha virt. eigenvalues --    5.44649   5.46230   5.49509   5.51349   5.54101
 Alpha virt. eigenvalues --    5.55442   5.59253   5.60936   5.62580   5.64159
 Alpha virt. eigenvalues --    5.68793   5.69633   5.71847   5.76737   5.78137
 Alpha virt. eigenvalues --    5.81937   5.88044   5.89989   6.00221   6.03843
 Alpha virt. eigenvalues --    6.08246   6.09662   6.18386   6.20749   6.25568
 Alpha virt. eigenvalues --    6.33683   6.36841   6.40499   6.43249   6.51599
 Alpha virt. eigenvalues --    6.55436   6.58231   6.60194   6.64164   6.65533
 Alpha virt. eigenvalues --    6.76893   6.78602   6.86988   6.90373   7.06667
 Alpha virt. eigenvalues --    7.16830   7.23238   7.34130   7.55113   7.84392
 Alpha virt. eigenvalues --    9.51744  12.19995  13.15505  15.32968  17.05573
 Alpha virt. eigenvalues --   18.18647  18.70636  22.66143
          Condensed to atoms (all electrons):
               1          2          3          4          5          6
     1  O    8.283932  -0.101322   0.418410  -0.083209   0.005701   0.008647
     2  N   -0.101322   6.747914   0.420094  -0.030240   0.440777  -0.023722
     3  C    0.418410   0.420094   4.395185   0.515261  -0.064539  -0.056906
     4  C   -0.083209  -0.030240   0.515261   4.872868  -0.042739   0.524931
     5  C    0.005701   0.440777  -0.064539  -0.042739   4.605004  -0.076586
     6  C    0.008647  -0.023722  -0.056906   0.524931  -0.076586   4.750440
     7  C    0.000534  -0.043572  -0.038376  -0.062132   0.557316   0.465427
     8  H    0.201029   0.002360  -0.011145   0.003458  -0.000264  -0.000822
     9  H    0.003884   0.006018  -0.036276   0.447095  -0.001281  -0.037155
    10  H   -0.000702  -0.046014   0.004087  -0.003238   0.449694   0.008815
    11  H   -0.000464  -0.001648   0.008797  -0.035807   0.008507   0.436593
    12  H    0.000039   0.004925  -0.001663   0.007550  -0.030757  -0.036532
    13  O   -0.156538  -0.154359  -0.008354  -0.002459   0.000331   0.000891
    14  H    0.008425   0.005298   0.001756   0.000457  -0.000571  -0.000087
    15  H    0.002853   0.177544  -0.016628   0.002896  -0.005130  -0.001676
               7          8          9         10         11         12
     1  O    0.000534   0.201029   0.003884  -0.000702  -0.000464   0.000039
     2  N   -0.043572   0.002360   0.006018  -0.046014  -0.001648   0.004925
     3  C   -0.038376  -0.011145  -0.036276   0.004087   0.008797  -0.001663
     4  C   -0.062132   0.003458   0.447095  -0.003238  -0.035807   0.007550
     5  C    0.557316  -0.000264  -0.001281   0.449694   0.008507  -0.030757
     6  C    0.465427  -0.000822  -0.037155   0.008815   0.436593  -0.036532
     7  C    4.916802   0.000298   0.006992  -0.056551  -0.045319   0.440451
     8  H    0.000298   0.314385   0.000480   0.000187  -0.000001  -0.000009
     9  H    0.006992   0.000480   0.553315   0.000207  -0.006885   0.000050
    10  H   -0.056551   0.000187   0.000207   0.596693  -0.000038  -0.004450
    11  H   -0.045319  -0.000001  -0.006885  -0.000038   0.583626  -0.007303
    12  H    0.440451  -0.000009   0.000050  -0.004450  -0.007303   0.576860
    13  O   -0.001716   0.241067   0.000170   0.000306  -0.000013   0.000025
    14  H    0.000161  -0.014505  -0.000023  -0.000152   0.000002  -0.000003
    15  H    0.002620  -0.016238  -0.000249  -0.003641   0.000085  -0.000037
              13         14         15
     1  O   -0.156538   0.008425   0.002853
     2  N   -0.154359   0.005298   0.177544
     3  C   -0.008354   0.001756  -0.016628
     4  C   -0.002459   0.000457   0.002896
     5  C    0.000331  -0.000571  -0.005130
     6  C    0.000891  -0.000087  -0.001676
     7  C   -0.001716   0.000161   0.002620
     8  H    0.241067  -0.014505  -0.016238
     9  H    0.000170  -0.000023  -0.000249
    10  H    0.000306  -0.000152  -0.003641
    11  H   -0.000013   0.000002   0.000085
    12  H    0.000025  -0.000003  -0.000037
    13  O    7.910708   0.350763   0.233336
    14  H    0.350763   0.442670  -0.008771
    15  H    0.233336  -0.008771   0.352028
 Mulliken charges:
               1
     1  O   -0.591220
     2  N   -0.404054
     3  C    0.470296
     4  C   -0.114692
     5  C    0.154537
     6  C    0.037742
     7  C   -0.142935
     8  H    0.279719
     9  H    0.063657
    10  H    0.054797
    11  H    0.059868
    12  H    0.050854
    13  O   -0.414157
    14  H    0.214579
    15  H    0.281009
 Sum of Mulliken charges =  -0.00000
 Mulliken charges with hydrogens summed into heavy atoms:
               1
     1  O   -0.591220
     2  N   -0.404054
     3  C    0.470296
     4  C   -0.051036
     5  C    0.209334
     6  C    0.097610
     7  C   -0.092081
    13  O    0.361150
 APT charges:
               1
     1  O   -0.424581
     2  N   -0.395351
     3  C    0.062639
     4  C   -0.496591
     5  C   -0.358727
     6  C   -0.360352
     7  C   -0.466787
     8  H    0.256956
     9  H    0.453652
    10  H    0.434568
    11  H    0.570527
    12  H    0.587551
    13  O   -0.793798
    14  H    0.707696
    15  H    0.222597
 Sum of APT charges =  -0.00000
 APT charges with hydrogens summed into heavy atoms:
               1
     1  O   -0.424581
     2  N   -0.395351
     3  C    0.062639
     4  C   -0.042939
     5  C    0.075841
     6  C    0.210175
     7  C    0.120764
    13  O    0.393451
 Electronic spatial extent (au):  <R**2>=            962.5606
 Charge=             -0.0000 electrons
 Dipole moment (field-independent basis, Debye):
    X=             -1.8050    Y=             -2.6111    Z=              1.2996  Tot=              3.4300
 Quadrupole moment (field-independent basis, Debye-Ang):
   XX=            -41.7574   YY=            -45.6803   ZZ=            -49.6387
   XY=             -5.4259   XZ=              4.6321   YZ=             -1.5110
 Traceless Quadrupole moment (field-independent basis, Debye-Ang):
   XX=              3.9347   YY=              0.0118   ZZ=             -3.9466
   XY=             -5.4259   XZ=              4.6321   YZ=             -1.5110
 Octapole moment (field-independent basis, Debye-Ang**2):
  XXX=             15.9544  YYY=            -10.6778  ZZZ=              1.0040  XYY=             -2.8542
  XXY=             -8.9137  XXZ=             15.4556  XZZ=             11.9268  YZZ=             -0.7554
  YYZ=              1.5348  XYZ=             -5.0958
 Hexadecapole moment (field-independent basis, Debye-Ang**3):
 XXXX=           -726.8507 YYYY=           -337.7552 ZZZZ=            -55.1409 XXXY=            -29.1881
 XXXZ=             52.0225 YYYX=            -19.4470 YYYZ=             -1.9556 ZZZX=              4.2736
 ZZZY=             -1.5257 XXYY=           -187.1285 XXZZ=           -151.8653 YYZZ=            -74.8544
 XXYZ=            -16.1020 YYXZ=              5.5002 ZZXY=             -4.5753
 N-N= 3.702509380076D+02 E-N=-1.676800106361D+03  KE= 3.988462029519D+02
  Exact polarizability:   0.000   0.000   0.000   0.000   0.000   0.000
 Approx polarizability: 117.553   6.128 105.366   0.981  -0.725  57.029
 No NMR shielding tensors so no spin-rotation constants.
 Leave Link  601 at Sat Aug 28 15:08:29 2021, MaxMem= 17179869184 cpu:        52.9
 (Enter /public3/home/sc51754/softwares/g09e01/l701.exe)
 Compute integral second derivatives.
 ... and contract with generalized density number  0.
 Leave Link  701 at Sat Aug 28 15:08:32 2021, MaxMem= 17179869184 cpu:       148.7
 (Enter /public3/home/sc51754/softwares/g09e01/l702.exe)
 L702 exits ... SP integral derivatives will be done elsewhere.
 Leave Link  702 at Sat Aug 28 15:08:32 2021, MaxMem= 17179869184 cpu:         0.6
 (Enter /public3/home/sc51754/softwares/g09e01/l703.exe)
 Compute integral second derivatives, UseDBF=F ICtDFT=           0.
 Integral derivatives from FoFJK, PRISM(SPDF).
 Calling FoFJK, ICntrl=    100147 FMM=F ISym2X=0 I1Cent= 0 IOpClX= 0 NMat=1 NMatS=1 NMatT=0.
 FoFJK:  IHMeth= 1 ICntrl=  100147 DoSepK=T KAlg= 0 I1Cent=   0 FoldK=F
 IRaf=         1 NMat=   1 IRICut=       1 DoRegI=T DoRafI=F ISym2E= 0.
 FoFCou: FMM=F IPFlag=           0 FMFlag=      100000 FMFlg1=         800
         NFxFlg=           0 DoJE=F BraDBF=F KetDBF=F FulRan=T
         wScrn=  0.000000 ICntrl=  100547 IOpCl=  0 I1Cent=           0 NGrid=           0
         NMat0=    1 NMatS0=      1 NMatT0=    0 NMatD0=    1 NMtDS0=    0 NMtDT0=    0
 Symmetry not used in FoFCou.
 Leave Link  703 at Sat Aug 28 15:09:06 2021, MaxMem= 17179869184 cpu:      2106.5
 (Enter /public3/home/sc51754/softwares/g09e01/l716.exe)
 Dipole        =-7.10152551D-01-1.02728024D+00 5.11315056D-01
 Polarizability= 0.00000000D+00 0.00000000D+00 0.00000000D+00
                 0.00000000D+00 0.00000000D+00 0.00000000D+00
 ***** Axes restored to original set *****
 -------------------------------------------------------------------
 Center     Atomic                   Forces (Hartrees/Bohr)
 Number     Number              X              Y              Z
 -------------------------------------------------------------------
      1        8          -0.035601811   -0.013837531   -0.001395236
      2        7          -0.011680572   -0.012365982    0.000987097
      3        6           0.044863245    0.058960730    0.000203036
      4        6          -0.019486863   -0.007973270    0.000145582
      5        6          -0.009519125   -0.011862698   -0.000005815
      6        6           0.003803496    0.011282059    0.000024545
      7        6           0.007575701   -0.008367380   -0.000053962
      8        1          -0.014910830    0.024869604    0.007843572
      9        1           0.001874866   -0.001072201   -0.000007654
     10        1          -0.000164810    0.000363735   -0.000027191
     11        1          -0.000488217   -0.000236556   -0.000016977
     12        1           0.001061240   -0.000503645   -0.000020073
     13        8           0.031849549   -0.049611784   -0.003929469
     14        1           0.004908680    0.006822948    0.001128677
     15        1          -0.004084547    0.003531971   -0.004876131
 -------------------------------------------------------------------
 Cartesian Forces:  Max     0.058960730 RMS     0.016805463
 FormGI is forming the generalized inverse of G from B-inverse, IUseBI=4.
 Leave Link  716 at Sat Aug 28 15:09:07 2021, MaxMem= 17179869184 cpu:         7.9
 (Enter /public3/home/sc51754/softwares/g09e01/l103.exe)

 GradGradGradGradGradGradGradGradGradGradGradGradGradGradGradGradGradGrad
 Berny optimization.
 Red2BG is reusing G-inverse.
 Internal  Forces:  Max     0.036771724 RMS     0.007891256
 Search for a saddle point.
 Step number   1 out of a maximum of  100
 All quantities printed in internal units (Hartrees-Bohrs-Radians)
 Second derivative matrix not updated -- analytic derivatives used.
 ITU=  0
 LST/QST climbing along tangent vector
     Eigenvalues ---   -0.01736   0.00187   0.00396   0.00623   0.00976
     Eigenvalues ---    0.01222   0.01751   0.01909   0.02150   0.02406
     Eigenvalues ---    0.02847   0.03204   0.03208   0.03519   0.04396
     Eigenvalues ---    0.05291   0.07194   0.10471   0.11045   0.12242
     Eigenvalues ---    0.13228   0.15410   0.20166   0.20235   0.21048
     Eigenvalues ---    0.22141   0.26972   0.29126   0.35204   0.35893
     Eigenvalues ---    0.36385   0.36888   0.37132   0.43412   0.44701
     Eigenvalues ---    0.48025   0.50357   0.54648   0.559491000.00000
     Eigenvalues --- 1000.000001000.000001000.000001000.000001000.00000
     Eigenvalues --- 1000.000001000.000001000.000001000.000001000.00000
     Eigenvalues --- 1000.000001000.000001000.000001000.000001000.00000
     Eigenvalues --- 1000.000001000.000001000.000001000.000001000.00000
     Eigenvalues --- 1000.000001000.000001000.000001000.000001000.00000
     Eigenvalues --- 1000.000001000.000001000.000001000.000001000.00000
     Eigenvalues --- 1000.000001000.000001000.000001000.000001000.00000
     Eigenvalues --- 1000.000001000.000001000.000001000.000001000.00000
     Eigenvalues --- 1000.00000
 Eigenvectors required to have negative eigenvalues:
                          R5        R17       R14       R2        A21
   1                    0.47804  -0.47087   0.45293  -0.41284   0.24111
                          A25       A24       D33       A22       A4
   1                   -0.21722  -0.14263   0.13025   0.09178   0.06404
 QST in optimization variable space.
                        Tangent   TS vect  // Eig F  Eigenval
   1         R1        -0.05788   0.05788   0.00657  -0.01736
   2         R2         0.41284  -0.41284   0.00055   0.00187
   3         R3         0.02514  -0.02514   0.00012   0.00396
   4         R4         0.00940  -0.00940   0.00023   0.00623
   5         R5        -0.47804   0.47804  -0.00124   0.00976
   6         R6         0.01898  -0.01898  -0.00017   0.01222
   7         R7        -0.00934   0.00934   0.00000   0.01751
   8         R8        -0.00003   0.00003  -0.00003   0.01909
   9         R9        -0.01037   0.01037   0.00001   0.02150
  10         R10       -0.00139   0.00139  -0.00005   0.02406
  11         R11        0.01182  -0.01182   0.00000   0.02847
  12         R12        0.00028  -0.00028   0.00068   0.03204
  13         R13       -0.00075   0.00075  -0.00259   0.03208
  14         R14       -0.45293   0.45293   0.00003   0.03519
  15         R15        0.03289  -0.03289   0.00125   0.04396
  16         R16       -0.00050   0.00050   0.00560   0.05291
  17         R17        0.47087  -0.47087   0.00355   0.07194
  18         A1        -0.01544   0.01544  -0.00043   0.10471
  19         A2         0.02426  -0.02426   0.00138   0.11045
  20         A3         0.03980  -0.03980  -0.00069   0.12242
  21         A4        -0.06404   0.06404   0.00074   0.13228
  22         A5        -0.00111   0.00111  -0.01010   0.15410
  23         A6         0.03486  -0.03486  -0.00192   0.20166
  24         A7        -0.03376   0.03376   0.01072   0.20235
  25         A8         0.01188  -0.01188  -0.00427   0.21048
  26         A9        -0.01144   0.01144   0.00642   0.22141
  27         A10       -0.00044   0.00044   0.01606   0.26972
  28         A11       -0.00958   0.00958   0.00079   0.29126
  29         A12       -0.00074   0.00074  -0.01945   0.35204
  30         A13        0.01033  -0.01033  -0.00270   0.35893
  31         A14        0.00661  -0.00661  -0.00452   0.36385
  32         A15       -0.00165   0.00165  -0.00349   0.36888
  33         A16       -0.00496   0.00496   0.00488   0.37132
  34         A17        0.00059  -0.00059  -0.00551   0.43412
  35         A18       -0.00037   0.00037   0.00338   0.44701
  36         A19       -0.00022   0.00022   0.01151   0.48025
  37         A20       -0.02699   0.02699   0.00237   0.50357
  38         A21       -0.24111   0.24111   0.00097   0.54648
  39         A22       -0.09178   0.09178   0.00557   0.55949
  40         A23       -0.00350   0.00350  -0.000001000.00000
  41         A24        0.14263  -0.14263  -0.000001000.00000
  42         A25        0.21722  -0.21722  -0.000001000.00000
  43         A26        0.00685  -0.00685  -0.000001000.00000
  44         D1         0.00779  -0.00779  -0.000001000.00000
  45         D2         0.00727  -0.00727   0.000001000.00000
  46         D3        -0.01175   0.01175   0.000001000.00000
  47         D4        -0.00832   0.00832   0.000001000.00000
  48         D5         0.00004  -0.00004  -0.000001000.00000
  49         D6         0.00059  -0.00059   0.000001000.00000
  50         D7         0.00335  -0.00335  -0.000001000.00000
  51         D8         0.00390  -0.00390  -0.000001000.00000
  52         D9        -0.00018   0.00018  -0.000001000.00000
  53         D10       -0.00025   0.00025   0.000001000.00000
  54         D11       -0.00547   0.00547  -0.000001000.00000
  55         D12       -0.00555   0.00555  -0.000001000.00000
  56         D13       -0.01498   0.01498  -0.000001000.00000
  57         D14       -0.00684   0.00684   0.000001000.00000
  58         D15       -0.01015   0.01015   0.000001000.00000
  59         D16       -0.00200   0.00200   0.000001000.00000
  60         D17       -0.00013   0.00013  -0.000001000.00000
  61         D18       -0.00012   0.00012  -0.000001000.00000
  62         D19       -0.00068   0.00068  -0.000001000.00000
  63         D20       -0.00066   0.00066  -0.000001000.00000
  64         D21        0.00036  -0.00036   0.000001000.00000
  65         D22        0.00016  -0.00016   0.000001000.00000
  66         D23        0.00033  -0.00033  -0.000001000.00000
  67         D24        0.00013  -0.00013   0.000001000.00000
  68         D25       -0.00019   0.00019   0.000001000.00000
  69         D26       -0.00010   0.00010   0.000001000.00000
  70         D27       -0.00010   0.00010  -0.000001000.00000
  71         D28       -0.00001   0.00001  -0.000001000.00000
  72         D29        0.00006  -0.00006   0.000001000.00000
  73         D30       -0.00003   0.00003   0.000001000.00000
  74         D31        0.00027  -0.00027   0.000001000.00000
  75         D32        0.00017  -0.00017   0.000001000.00000
  76         D33       -0.13025   0.13025  -0.000001000.00000
  77         D34        0.01344  -0.01344   0.000001000.00000
  78         D35        0.01549  -0.01549   0.000001000.00000
  79         D36        0.04896  -0.04896   0.000001000.00000
  80         D37        0.00952  -0.00952  -0.000001000.00000
  81         D38       -0.05813   0.05813   0.000001000.00000
 RFO step:  Lambda0=2.208557701D-03 Lambda=-5.19035659D-03.
 Linear search not attempted -- option 19 set.
 Maximum step size (   0.300) exceeded in Quadratic search.
    -- Step size scaled by   0.791
 Iteration  1 RMS(Cart)=  0.02827074 RMS(Int)=  0.00160452
 Iteration  2 RMS(Cart)=  0.00103700 RMS(Int)=  0.00054164
 Iteration  3 RMS(Cart)=  0.00000430 RMS(Int)=  0.00054163
 Iteration  4 RMS(Cart)=  0.00000000 RMS(Int)=  0.00054163
 ITry= 1 IFail=0 DXMaxC= 1.64D-01 DCOld= 1.00D+10 DXMaxT= 3.00D-01 DXLimC= 3.00D+00 Rises=F
 Variable       Old X    -DE/DX   Delta X   Delta X   Delta X     New X
                                 (Linear)    (Quad)   (Total)
    R1        2.51782  -0.03310   0.00000  -0.05897  -0.05901   2.45881
    R2        2.36468   0.01543   0.00000   0.09465   0.09484   2.45951
    R3        2.50399   0.02661   0.00000   0.02763   0.02744   2.53143
    R4        2.52319   0.00682   0.00000   0.00512   0.00509   2.52828
    R5        2.45664   0.00639   0.00000  -0.14610  -0.14623   2.31042
    R6        2.64005   0.00983   0.00000   0.01674   0.01678   2.65683
    R7        2.59171  -0.00328   0.00000  -0.00819  -0.00817   2.58354
    R8        2.03880  -0.00119   0.00000  -0.00007  -0.00007   2.03873
    R9        2.59555  -0.00803   0.00000  -0.00994  -0.00999   2.58557
   R10        2.04551  -0.00039   0.00000  -0.00122  -0.00122   2.04429
   R11        2.63088   0.00954   0.00000   0.01071   0.01069   2.64157
   R12        2.04323   0.00035   0.00000   0.00038   0.00038   2.04361
   R13        2.03896  -0.00053   0.00000  -0.00079  -0.00079   2.03817
   R14        2.04090   0.03677   0.00000  -0.05361  -0.05378   1.98713
   R15        3.04169   0.00558   0.00000   0.00332   0.00437   3.04606
   R16        1.81148   0.00126   0.00000   0.00043   0.00043   1.81191
   R17        2.21098   0.00326   0.00000   0.16500   0.16398   2.37496
    A1        1.83911   0.00331   0.00000  -0.00089  -0.00077   1.83833
    A2        2.06674   0.00770   0.00000   0.02760   0.02772   2.09446
    A3        1.82403   0.00016   0.00000   0.01865   0.01831   1.84234
    A4        2.39240  -0.00786   0.00000  -0.04623  -0.04602   2.34638
    A5        2.07881   0.00237   0.00000  -0.00644  -0.00670   2.07211
    A6        2.06527   0.01239   0.00000   0.04238   0.04251   2.10778
    A7        2.13910  -0.01477   0.00000  -0.03594  -0.03581   2.10330
    A8        2.06263   0.00389   0.00000   0.01109   0.01111   2.07374
    A9        2.08120  -0.00379   0.00000  -0.01076  -0.01077   2.07043
   A10        2.13936  -0.00011   0.00000  -0.00033  -0.00034   2.13902
   A11        2.15279  -0.00355   0.00000  -0.01090  -0.01103   2.14176
   A12        2.02170   0.00188   0.00000   0.00081   0.00087   2.02257
   A13        2.10870   0.00167   0.00000   0.01009   0.01015   2.11885
   A14        2.08894   0.00406   0.00000   0.00831   0.00827   2.09720
   A15        2.09378  -0.00161   0.00000  -0.00254  -0.00251   2.09127
   A16        2.10047  -0.00245   0.00000  -0.00577  -0.00575   2.09471
   A17        2.05617   0.00267   0.00000  -0.00015  -0.00027   2.05590
   A18        2.10447  -0.00240   0.00000   0.00006   0.00012   2.10458
   A19        2.12255  -0.00026   0.00000   0.00010   0.00015   2.12270
   A20        2.66971   0.00193   0.00000   0.02548   0.02608   2.69579
   A21        1.85697   0.00193   0.00000  -0.05354  -0.05383   1.80313
   A22        2.09699  -0.00066   0.00000  -0.07030  -0.06839   2.02860
   A23        1.59276  -0.01490   0.00000  -0.05543  -0.05488   1.53788
   A24        1.87686   0.01327   0.00000   0.06381   0.06251   1.93937
   A25        1.82506  -0.00777   0.00000   0.04211   0.04287   1.86792
   A26        2.55760   0.00715   0.00000   0.01828   0.01761   2.57521
    D1        0.02817  -0.00013   0.00000  -0.00084  -0.00073   0.02744
    D2       -3.11332  -0.00013   0.00000  -0.00066  -0.00052  -3.11384
    D3        0.01586  -0.00110   0.00000   0.00417   0.00336   0.01922
    D4       -0.03543  -0.00010   0.00000  -0.00075  -0.00089  -0.03632
    D5       -3.13878  -0.00010   0.00000   0.00125   0.00119  -3.13759
    D6        0.00271  -0.00010   0.00000   0.00106   0.00099   0.00369
    D7       -0.00252   0.00006   0.00000   0.00342   0.00363   0.00111
[...]
 ! A15   A(4,6,11)             119.5872         -DE/DX =    0.0                 !
 ! A16   A(7,6,11)             119.6418         -DE/DX =    0.0                 !
 ! A17   A(5,7,6)              117.8258         -DE/DX =    0.0                 !
 ! A18   A(5,7,12)             120.5938         -DE/DX =    0.0                 !
 ! A19   A(6,7,12)             121.5802         -DE/DX =    0.0                 !
 ! A20   A(1,8,13)             157.4561         -DE/DX =    0.0                 !
 ! A21   A(1,8,15)             108.2866         -DE/DX =    0.0                 !
 ! A22   A(8,13,14)            114.0692         -DE/DX =    0.0                 !
 ! A23   A(8,13,15)             81.8609         -DE/DX =    0.0                 !
 ! A24   A(14,13,15)           116.3361         -DE/DX =    0.0                 !
 ! A25   A(2,15,8)             101.1756         -DE/DX =    0.0                 !
 ! A26   A(2,15,13)            149.7085         -DE/DX =    0.0                 !
 ! D1    D(8,1,3,2)              0.2828         -DE/DX =    0.0                 !
 ! D2    D(8,1,3,4)           -179.6511         -DE/DX =    0.0                 !
 ! D3    D(3,1,8,13)             5.6768         -DE/DX =    0.0                 !
 ! D4    D(3,1,8,15)            -0.8306         -DE/DX =    0.0                 !
 ! D5    D(5,2,3,1)           -179.7142         -DE/DX =    0.0                 !
 ! D6    D(5,2,3,4)              0.2226         -DE/DX =    0.0                 !
 ! D7    D(15,2,3,1)             0.6114         -DE/DX =    0.0                 !
 ! D8    D(15,2,3,4)          -179.4518         -DE/DX =    0.0                 !
 ! D9    D(3,2,5,7)             -0.1489         -DE/DX =    0.0                 !
 ! D10   D(3,2,5,10)           179.7275         -DE/DX =    0.0                 !
 ! D11   D(15,2,5,7)           179.4336         -DE/DX =    0.0                 !
 ! D12   D(15,2,5,10)           -0.6899         -DE/DX =    0.0                 !
 ! D13   D(3,2,15,8)            -0.9324         -DE/DX =    0.0                 !
 ! D14   D(3,2,15,13)           -7.6518         -DE/DX =    0.0                 !
 ! D15   D(5,2,15,8)           179.438          -DE/DX =    0.0                 !
 ! D16   D(5,2,15,13)          172.7187         -DE/DX =    0.0                 !
 ! D17   D(1,3,4,6)            179.7677         -DE/DX =    0.0                 !
 ! D18   D(1,3,4,9)             -0.0733         -DE/DX =    0.0                 !
 ! D19   D(2,3,4,6)             -0.1657         -DE/DX =    0.0                 !
 ! D20   D(2,3,4,9)            179.9933         -DE/DX =    0.0                 !
 ! D21   D(3,4,6,7)              0.0382         -DE/DX =    0.0                 !
 ! D22   D(3,4,6,11)          -179.8914         -DE/DX =    0.0                 !
 ! D23   D(9,4,6,7)            179.8722         -DE/DX =    0.0                 !
 ! D24   D(9,4,6,11)            -0.0574         -DE/DX =    0.0                 !
 ! D25   D(2,5,7,6)              0.0145         -DE/DX =    0.0                 !
 ! D26   D(2,5,7,12)           179.9176         -DE/DX =    0.0                 !
 ! D27   D(10,5,7,6)          -179.8541         -DE/DX =    0.0                 !
 ! D28   D(10,5,7,12)            0.049          -DE/DX =    0.0                 !
 ! D29   D(4,6,7,5)              0.0377         -DE/DX =    0.0                 !
 ! D30   D(4,6,7,12)          -179.8644         -DE/DX =    0.0                 !
 ! D31   D(11,6,7,5)           179.9672         -DE/DX =    0.0                 !
 ! D32   D(11,6,7,12)            0.0651         -DE/DX =    0.0                 !
 ! D33   D(1,8,13,14)         -123.428          -DE/DX =    0.0                 !
 ! D34   D(1,8,13,15)           -8.1542         -DE/DX =    0.0                 !
 ! D35   D(1,8,15,2)             1.2161         -DE/DX =    0.0                 !
 ! D36   D(8,13,14,15)          92.7567         -DE/DX =    0.0                 !
 ! D37   D(8,13,15,2)            8.7763         -DE/DX =    0.0                 !
 ! D38   D(14,13,15,2)         121.6629         -DE/DX =    0.0                 !
 --------------------------------------------------------------------------------
 GradGradGradGradGradGradGradGradGradGradGradGradGradGradGradGradGradGrad

 Leave Link  103 at Sat Aug 28 15:16:18 2021, MaxMem= 17179869184 cpu:        64.9
 (Enter /public3/home/sc51754/softwares/g09e01/l9999.exe)
 1\1\GINC-S2510\Freq\RCAM-B3LYP\Gen\C5H7N1O2\SC51754\28-Aug-2021\0\\#P 
 Geom=AllCheck Guess=TCheck SCRF=Check GenChk RCAM-B3LYP/ChkBas Freq\\H
 Y_H2O_CAM-B3LYP_PC2_OPT_FREQ\\0,1\O,1.3002864572,1.4090234061,-0.00553
 23829\N,0.3531292119,-0.6443785834,-0.0043433645\C,0.2258350818,0.7012
 895284,-0.0000950078\C,-1.0674716896,1.2616098168,0.0086493636\C,-0.71
 3917618,-1.452906724,-0.0048884878\C,-2.1507419249,0.4306719867,0.0091
 108432\C,-1.9867173714,-0.9616216509,0.0018309277\H,2.1901589825,0.643
 8657393,-0.0190128876\H,-1.1600457101,2.336281344,0.0121018792\H,-0.50
 45652475,-2.5132920894,-0.0130482014\H,-3.1468420217,0.8518922431,0.01
 40090245\H,-2.8328150805,-1.6298086023,-0.0000730773\O,2.7567269783,-0
 .4752193836,-0.0794207803\H,3.3222150349,-0.6679856358,0.6699437603\H,
 1.5606872373,-0.8838182452,-0.000475579\\Version=EM64L-G09RevE.01\Stat
 e=1-A\HF=-399.9373765\RMSD=1.560e-09\RMSF=2.934e-05\ZeroPoint=0.113861
 4\Thermal=0.1203608\Dipole=-1.2031387,-0.7082496,0.5357479\DipoleDeriv
 =-1.9665401,-0.3534609,-0.0077083,-0.186039,-0.8893726,0.0031369,-0.00
 62963,0.0022816,-0.3562987,-1.3592413,0.1890241,-0.0036385,-0.4832106,
 -0.4710063,0.0004712,-0.0334101,0.0007543,-0.1680236,1.7604389,0.80354
 36,0.000573,0.6906383,0.6431926,-0.0014682,-0.0102823,-0.0060945,0.234
 7703,-0.6802402,-0.4997725,-0.0022678,0.0935632,-0.0020272,-0.0005748,
 0.0094887,0.0007155,-0.1792271,0.6078764,-0.3334732,-0.0021433,0.29699
 33,0.2284026,0.0063063,-0.0009105,0.0059569,0.0083783,0.2802496,0.1259
 228,-0.0003273,0.0932138,0.5840968,0.0028054,-0.0017948,0.0018088,-0.0
 651525,-0.2770158,0.3697812,0.0011711,0.0466539,-0.4850728,-0.00132,0.
 0057905,-0.0015634,-0.1972616,1.1527762,-0.4238649,-0.0051698,-0.94688
 66,0.7187685,-0.0254364,-0.018817,-0.015101,0.219305,0.0699156,-0.0033
 069,0.0001224,0.0090165,-0.0090716,-0.0006778,0.0006953,-0.000211,0.15
 41123,0.0679083,0.0243465,-0.0003508,-0.0120889,-0.0382039,-0.0005471,
 -0.002323,-0.0014966,0.1281339,-0.0367677,0.0559787,0.000658,0.0569771
 ,0.0677908,-0.0005085,-0.0003372,-0.0002217,0.1255488,0.0022891,-0.058
 2381,-0.0002323,-0.0574978,0.0167772,-0.0005658,-0.0001982,-0.00069,0.
 1612326,-1.8129415,0.2124908,0.0396686,0.3346204,-0.8207602,-0.0154309
 ,0.1105351,-0.0320274,-0.4368927,0.2863077,0.0032842,-0.0396706,-0.011
 1497,0.2807185,0.0141093,-0.0602003,0.0250363,0.1842962,1.9049848,-0.1
 122556,0.0193157,0.0751961,0.1757677,0.0197003,0.0080598,0.0208522,0.1
 870785\Polar=101.8577729,3.2549323,83.044499,1.1091761,-0.2228444,43.6
 906526\PG=C01 [X(C5H7N1O2)]\NImag=1\\0.45738865,0.14241069,0.36075526,
 -0.00313404,-0.00087624,0.05701553,0.03132476,-0.05990546,0.00034173,0
 .63384598,-0.04147316,-0.06345953,-0.00015914,0.11489777,0.65241382,0.
 00123634,-0.00025685,0.01484424,-0.00040107,0.00177648,0.11130785,-0.3
 2572065,-0.13796930,0.00178794,-0.19188549,0.01518528,-0.00100604,0.81
 321075,-0.13644061,-0.20793706,0.00128742,0.04915491,-0.26652599,-0.00
 124892,0.04173284,0.67033358,0.00084809,0.00042173,-0.06979622,0.00031
 138,-0.00067453,-0.07811576,-0.00250015,0.00114115,0.20880017,-0.07992
 815,0.00376271,0.00041150,0.03640380,0.07247449,0.00059822,-0.23382207
 ,0.04484395,0.00074198,0.68498884,-0.03159509,0.02186905,0.00020574,0.
 03926599,-0.02236522,-0.00022766,0.09608048,-0.16755576,-0.00088708,0.
 04700228,0.79029801,0.00064448,0.00050257,0.01438533,-0.00019465,-0.00
 037050,0.01434394,0.00114236,-0.00103808,-0.08079237,-0.00224240,0.002
 16555,0.12546504,-0.01691363,0.01256902,-0.00002376,-0.27505814,-0.080
 89751,0.00059614,0.06539299,-0.08569556,-0.00058432,-0.07348256,-0.004
 84793,0.00023520,0.72756619,-0.00249470,0.00088363,-0.00009664,-0.1155
 8790,-0.21792851,-0.00004742,-0.02097236,-0.06134892,-0.00008636,-0.01
 325751,-0.00181191,0.00007258,-0.05057393,0.78177541,-0.00000707,0.000
 03912,0.00841909,0.00005327,-0.00053952,-0.05969007,-0.00029270,0.0000
 9785,-0.00162086,0.00015469,0.00008947,-0.00364143,-0.00196431,0.00379
 538,0.15841955,0.00634255,0.00452590,0.00001823,-0.01225672,-0.0183033
 5,-0.00024107,-0.05650321,-0.00244836,0.00026680,-0.30724696,-0.157887
 16,0.00030090,0.02071070,0.04037920,0.00021148,0.77441035,0.02672141,-
 0.00557184,-0.00004167,-0.04241223,-0.06214386,-0.00026844,-0.05190566
 ,0.07260416,0.00058679,-0.09418960,-0.23857959,-0.00029713,0.09555276,
 -0.01022840,-0.00043225,-0.00108435,0.67937752,0.00009399,-0.00006069,
 0.00473578,-0.00010617,-0.00018948,-0.00706066,-0.00002166,0.00036514,
 0.00123829,0.00044356,-0.00018041,-0.06022830,0.00040465,-0.00020690,0
 .00852096,-0.00211820,0.00233832,0.15225747,0.00798941,-0.00685623,0.0
 0001409,-0.08130869,-0.05260105,-0.00006232,-0.03348858,0.04877790,0.0
 0027903,0.05035545,-0.02490940,-0.00026308,-0.34660894,0.12330440,0.00
 146154,-0.13667563,-0.01376811,0.00013191,0.77561816,-0.01987131,0.000
 55771,0.00001476,0.00757509,0.05962802,0.00038170,0.04274625,-0.040494
 27,-0.00038633,-0.06636050,-0.03677991,0.00002709,0.05463688,-0.177085
 85,-0.00081106,0.05401132,-0.30763844,-0.00132940,0.04374196,0.6869042
 0,-0.00013997,0.00011513,-0.00083685,0.00019222,0.00035506,0.01751706,
 0.00032673,-0.00039577,-0.00843578,-0.00043040,-0.00017654,0.00826808,
 0.00104034,-0.00091102,-0.07021037,0.00045325,-0.00122506,-0.06604160,
 -0.00153028,0.00294470,0.12573253,-0.00847185,-0.00507780,-0.00136007,
 -0.01719424,0.01456553,-0.00112716,-0.06699664,-0.02179954,0.00058455,
 0.01275364,0.00210297,0.00008702,0.00274639,0.00292240,-0.00001692,-0.
 00246257,-0.00626267,-0.00000275,-0.00188592,0.00509959,0.00013683,0.0
 7278980,-0.03163194,-0.05652183,0.00067108,0.01889977,-0.01358519,0.00
 126743,0.02378398,0.05110271,-0.00003388,-0.01884927,-0.00687274,-0.00
 002236,-0.00540206,-0.00526420,-0.00006776,0.00235943,0.00984747,0.000
 00528,0.00418952,-0.00699633,-0.00013465,0.05824050,0.04307044,0.00129
 997,-0.00153256,-0.03652161,-0.00095972,-0.00004854,-0.00164530,-0.000
 28100,-0.00016589,0.00168367,0.00011325,-0.00002690,0.00359031,0.00001
 274,0.00010129,-0.00074950,-0.00005810,-0.00008702,0.00087852,-0.00010
 797,0.00004398,0.00031223,0.00508635,0.00511378,0.06707141,0.00253155,
 -0.00207662,-0.00003466,-0.00646111,0.00423016,0.00002365,0.00383081,0
 .03014534,0.00007369,-0.06248720,0.02714521,0.00023979,-0.00203167,-0.
 00108776,-0.00000109,0.00768203,-0.02687359,-0.00010014,-0.00352823,-0
 .00271350,0.00003740,-0.00077376,0.00092046,-0.00001731,0.05847546,-0.
 00043936,0.00145988,0.00001640,0.00264482,-0.00031485,-0.00001563,-0.0
 0296336,-0.00940435,0.00000273,0.02941742,-0.34762779,-0.00106765,0.00
 053790,0.00094548,0.00000768,0.00331001,-0.01250356,-0.00004851,-0.003
 33562,0.00086495,-0.00000561,0.00048355,-0.00040803,0.00000503,-0.0290
 4352,0.36657945,-0.00002124,-0.00000728,-0.00250105,0.00006527,-0.0000
 5805,0.00530242,-0.00004177,-0.00013393,0.00291167,0.00024827,-0.00093
 986,-0.03501237,0.00003137,0.00001796,-0.00049068,-0.00002705,-0.00000
 431,0.00260899,0.00001474,-0.00002782,0.00903011,-0.00001681,0.0000111
 3,-0.00035853,-0.00022792,0.00112437,0.02482819,-0.00090722,-0.0014594
 6,0.00000356,0.00567503,-0.03413439,-0.00021945,-0.00311948,-0.0015700
 5,0.00003130,-0.00054423,-0.00065463,0.00000107,-0.07512252,0.06389120
 ,0.00049305,-0.00561963,0.00162890,0.00004497,0.00195845,0.02835828,0.
 00020823,0.00083588,-0.00078910,0.00000476,0.00014637,0.00000228,-0.00
 000710,0.07542435,-0.00042584,-0.00136864,0.00000991,-0.00258582,-0.02
 121678,-0.00015937,-0.00285735,0.00277944,-0.00008416,0.00025844,0.000
 48828,0.00000634,0.05972561,-0.32898184,-0.00211643,0.00200490,0.00051
 666,-0.00006374,-0.00048517,-0.00492789,-0.00009806,0.00040841,-0.0003
 1455,-0.00000195,0.00007182,-0.00007129,0.00000933,-0.05667897,0.35273
 641,0.00002151,-0.00002988,0.00002248,0.00009775,0.00013764,0.00048147
 ,0.00002678,-0.00002228,0.00813089,0.00001009,0.00001444,-0.00043605,0
 .00041611,-0.00239636,-0.04298253,0.00002285,-0.00002738,0.00795613,0.
 00004841,-0.00012848,0.00776186,-0.00005567,0.00004452,-0.00011375,-0.
 00000896,0.00000337,-0.00136474,-0.00049500,0.00242892,0.02724438,-0.0
 0173007,0.00069907,0.00001100,0.00019660,-0.00072977,-0.00000581,-0.00
 140856,-0.00362382,0.00001499,-0.01852774,0.01185396,0.00011197,0.0017
 0487,0.00052074,0.00001111,-0.29935172,0.10048402,0.00124302,0.0011579
 9,-0.00046977,-0.00000263,0.00035658,-0.00062863,-0.00000763,0.0011113
 8,-0.00018815,-0.00001769,-0.00005522,-0.00012542,-0.00000115,0.316115
 24,-0.00080103,0.00071740,0.00001398,-0.00106585,-0.00029367,0.0000036
 9,-0.00368577,-0.00224376,-0.00003860,-0.01885437,0.01234479,0.0000803
 2,0.00045757,-0.00650270,-0.00006318,0.10124566,-0.10493954,-0.0005756
 0,0.02984912,-0.00583243,-0.00013641,0.00003264,-0.00027332,-0.0000002
 0,0.00056274,0.00080397,0.00002125,0.00146031,-0.00034991,0.00000043,-
 0.10850843,0.10521738,-0.00002375,-0.00004966,-0.00117787,0.00001598,0
 .00000248,-0.00190608,0.00003483,-0.00000092,0.01109276,0.00003668,0.0
 0003478,0.00677642,0.00002987,-0.00008391,0.00643629,0.00116995,-0.000
 58059,-0.04521748,0.00015014,-0.00004300,0.00553696,-0.00002544,0.0000
 1842,-0.00040421,-0.00002474,0.00000887,-0.00533495,0.00000341,0.00000
 186,-0.00056358,-0.00136422,0.00066836,0.02822608,0.00055743,-0.000228
 57,0.00000273,-0.00542573,0.00330299,0.00004755,-0.00041644,0.00128210
 ,-0.00000749,0.00100963,0.00165168,0.00001472,-0.01682620,-0.02154920,
 -0.00011628,0.00857612,0.00501536,0.00000012,-0.23956722,-0.14038563,-
 0.00028504,-0.00020545,0.00045470,-0.00001663,0.00026298,0.00030384,-0
 .00000038,0.00074387,0.00028147,-0.00000587,0.00056751,-0.00061186,-0.
 00000623,0.25016094,-0.00042569,0.00046241,0.00000561,0.00387561,0.000
 31387,-0.00005696,0.00132773,-0.00129117,-0.00000990,0.00227943,-0.004
 84860,-0.00005802,0.01083881,0.01181010,0.00004433,-0.02609783,-0.0133
 8434,-0.00002854,-0.14191420,-0.17094104,-0.00046064,0.00019839,-0.000
 32189,0.00000569,-0.00117642,-0.00052283,0.00000100,-0.00059525,0.0005
 3560,0.00003110,0.00036821,0.00117284,0.00002494,0.15145806,0.17646352
 ,-0.00001140,-0.00003276,-0.00086752,0.00004614,-0.00007128,0.00846583
 ,0.00000613,0.00001969,-0.00018603,0.00001852,-0.00005074,0.00553338,0
 .00011986,0.00011832,-0.00023465,-0.00014342,-0.00004358,0.00082241,-0
 .00035223,-0.00053332,-0.03190378,0.00001212,-0.00001224,0.00000065,-0
 .00000832,-0.00000324,0.00047891,-0.00001879,0.00004112,-0.00434170,-0
 .00000516,0.00002347,-0.00312977,0.00033929,0.00051192,0.02469717,-0.0
 2469892,0.04411354,0.00144456,-0.09303913,-0.00961197,-0.00184369,-0.0
 0239541,-0.00539547,0.00045287,0.00031615,0.00132026,0.00013129,-0.000
 85280,0.01496578,-0.00006122,-0.00077413,-0.00202346,-0.00006292,-0.00
 583747,-0.00096308,0.00024466,-0.02665862,0.00154345,-0.00265225,-0.00
 056512,0.00028645,0.00000734,-0.00032254,-0.00101114,-0.00010114,-0.00
 026670,0.00002596,-0.00001253,-0.00126315,0.00039105,0.00003540,0.3415
 8885,0.09486491,-0.04662636,0.00285448,-0.02901118,0.02093872,-0.00388
 573,-0.03235656,-0.03311496,0.00024457,0.01204944,0.00566703,-0.000289
 05,0.00512985,0.00478972,-0.00010077,-0.00175262,-0.00687553,-0.000057
 19,-0.00350233,0.00484560,0.00028215,-0.04526274,-0.00307476,-0.021604
 71,-0.00110692,0.00050509,-0.00001637,0.00069449,0.00000274,-0.0001015
 4,0.00033668,0.00017720,0.00004187,-0.00039524,0.00027533,0.00005490,-
 0.08753585,0.13316996,-0.00294923,0.00483635,0.01597239,-0.00586468,-0
 .00095479,0.01631827,0.00081832,-0.00056761,-0.00062528,-0.00005037,0.
 00005045,-0.00175010,-0.00057198,0.00028128,0.00082784,0.00007056,-0.0
 0004475,0.00010762,-0.00005325,-0.00017309,-0.00114395,-0.00331264,-0.
 00898526,-0.03865989,0.00003589,-0.00001056,0.00012139,0.00000289,-0.0
 0006006,0.00045292,0.00001202,0.00000963,0.00020464,-0.00005575,0.0000
 0110,-0.00020745,0.23997647,-0.08201025,0.37914891,0.00145926,0.001869
 63,0.00135566,-0.00762195,-0.00200713,0.00354721,-0.00081973,-0.001277
 71,-0.00060849,0.00027519,0.00017147,-0.00038549,-0.00087904,0.0009991
 1,0.00009143,-0.00000139,-0.00020472,0.00004364,-0.00026865,-0.0002406
 1,-0.00027092,-0.00462942,-0.00101695,-0.00461924,0.00000721,0.0000336
 1,0.00000074,-0.00006805,-0.00012225,0.00009934,0.00001578,-0.00000012
 ,0.00004730,-0.00009377,0.00003895,-0.00003389,-0.19522934,0.05707278,
 -0.23395088,0.20426115,0.00735338,-0.00727487,-0.00386299,-0.00663010,
 0.00092062,0.00214459,-0.00171150,-0.00204227,-0.00007143,0.00050556,0
 .00025433,0.00028683,0.00010811,0.00108268,0.00000731,-0.00005573,-0.0
 0026140,0.00002316,-0.00041684,-0.00000577,-0.00010056,0.00220638,0.01
 034114,0.01707297,-0.00007146,0.00004766,0.00000375,-0.00006405,-0.000
 13146,0.00001106,0.00001526,0.00000249,-0.00004624,-0.00009276,0.00002
 995,-0.00002030,0.05522378,-0.04757076,0.07895968,-0.06319708,0.042497
 31,0.00331603,-0.00358664,-0.00016151,0.00520381,0.00036925,-0.0002201
 7,-0.00041616,-0.00002036,0.00004257,0.00007222,-0.00000746,0.00000369
 ,0.00034610,-0.00039922,0.00001947,0.00002552,0.00003122,-0.00001277,0
 .00019359,0.00010764,0.00000917,-0.00111273,0.00384166,0.00048301,0.00
 000902,0.00000428,0.00000980,-0.00001444,0.00005135,0.00001891,0.00000
 744,-0.00000517,0.00000700,0.00006343,-0.00000565,0.00000703,-0.251314
 92,0.08728960,-0.33316184,0.24846627,-0.08529918,0.33179747,-0.0492231
 1,0.00362288,-0.00083848,-0.01719498,0.01510211,-0.00114251,0.03414171
 ,0.04231407,0.00009579,-0.01006377,-0.00670009,0.00017681,-0.01034565,
 -0.02145948,-0.00001699,0.00317021,0.00932194,0.00000596,0.01208987,-0
 .00516497,0.00001959,0.03979617,-0.05207386,0.00220279,0.00179931,-0.0
 0104987,-0.00000777,0.00097492,0.00154131,-0.00007504,0.00011406,-0.00
 010657,-0.00003125,0.00191948,-0.00056685,-0.00000425,0.00999834,0.030
 77528,0.00589263,0.00359274,0.00682705,-0.00484517,-0.02076932,-0.0057
 5165,0.00205479,-0.00004272,0.02088459,-0.06638145,0.00059310,0.033565
 32,-0.00486138,-0.00012471,-0.00108248,-0.00447998,0.00000151,-0.01213
 951,0.00786529,0.00004984,-0.00020704,-0.00021931,0.00000858,-0.002073
 97,-0.00209853,-0.00005271,-0.00785762,-0.02072893,0.00112504,0.001074
 06,-0.00035378,-0.00000115,-0.00008956,0.00030323,0.00003446,-0.000003
 96,-0.00000074,0.00000274,-0.00048693,0.00024625,-0.00000196,-0.011329
 30,-0.03310902,0.00866789,0.00788103,0.00211036,-0.00237133,-0.0223829
 7,0.11965321,-0.00117372,0.00051768,-0.00353220,0.00119874,0.00042493,
 -0.03994305,0.00041639,0.00068252,0.00567228,-0.00012581,-0.00006378,0
 .00349444,-0.00008802,-0.00015898,-0.00302310,0.00004833,0.00009585,-0
 .00056535,0.00007568,-0.00008737,0.00440434,0.00112331,-0.00171717,0.0
 0443298,0.00000368,-0.00002152,-0.00022913,-0.00003845,0.00003496,-0.0
 0226667,-0.00000725,-0.00000196,-0.00054620,0.00002582,-0.00000599,0.0
 0086552,0.01375607,0.01729805,-0.03760547,-0.01378268,-0.00910863,0.00
 115818,-0.00143210,-0.00788859,0.06768343\\0.00004839,-0.00001580,-0.0
 0001565,0.00004240,-0.00002155,-0.00001568,-0.00000256,0.00001375,0.00
 000234,-0.00000281,0.00000101,0.00000036,0.00000096,-0.00000474,-0.000
 00032,0.00000152,0.00000141,0.00000060,-0.00000063,0.00000121,-0.00000
 017,0.00000924,-0.00010834,0.00002546,0.00000104,0.00000032,0.00000023
 ,-0.00000178,-0.00000018,-0.00000049,0.00000084,0.00000140,0.00000030,
 -0.00000060,0.00000135,-0.00000011,-0.00006633,0.00011770,-0.00002164,
 -0.00000035,-0.00000196,-0.00000439,-0.00002932,0.00001441,0.00002915\
 \\@


 THE HURRIEDER I GO, THE BEHINDER I GET.
 Job cpu time:       0 days  1 hours 38 minutes 28.4 seconds.
 File lengths (MBytes):  RWF=    137 Int=      0 D2E=      0 Chk=      9 Scr=      1
 Normal termination of Gaussian 09 at Sat Aug 28 15:16:18 2021.
