 Entering Gaussian System, Link 0=g09
 AtFile(1): pc-2.gbs
            -H     0
            S    4   1.00
                  0.754230D+02           0.240650D-02
                  0.113500D+02           0.184870D-01
                  0.259930D+01           0.897420D-01
                  0.735130D+00           0.281110D+00
            S    1   1.00
                  0.231670D+00           0.100000D+01
            S    1   1.00
                  0.741470D-01           0.100000D+01
            P    1   1.00
                  0.160000D+01           0.100000D+01
            P    1   1.00
                  0.450000D+00           0.100000D+01
            D    1   1.00
                  0.125000D+01           0.100000D+01
            ****
            -C     0
            S    7   1.00
                  0.785710D+04           0.568250D-03
                  0.117870D+04           0.439150D-02
                  0.268320D+03           0.225040D-01
                  0.759480D+02           0.866530D-01
                  0.245590D+02           0.244050D+00
                  0.862120D+01           0.441480D+00
                  0.312780D+01           0.353320D+00
            S    7   1.00
                  0.117870D+04          -0.594920D-06
                  0.268320D+03          -0.627480D-04
                  0.759480D+02          -0.757730D-03
                  0.245590D+02          -0.733080D-02
                  0.862120D+01          -0.389320D-01
                  0.312780D+01          -0.889080D-01
                  0.822020D+00           0.216890D+00
            S    1   1.00
                  0.330170D+00           0.100000D+01
            S    1   1.00
                  0.114630D+00           0.100000D+01
            P    4   1.00
                  0.337750D+02           0.602940D-02
                  0.767660D+01           0.432280D-01
                  0.223570D+01           0.163010D+00
                  0.764470D+00           0.365040D+00
            P    1   1.00
                  0.262320D+00           0.100000D+01
            P    1   1.00
                  0.846380D-01           0.100000D+01
            D    1   1.00
                  0.140000D+01           0.100000D+01
            D    1   1.00
                  0.450000D+00           0.100000D+01
            F    1   1.00
                  0.950000D+00           0.100000D+01
            ****
            -N     0
            S    7   1.00
                  0.111010D+05           0.545700D-03
                  0.166530D+04           0.421810D-02
                  0.379080D+03           0.216450D-01
                  0.107300D+03           0.837760D-01
                  0.347470D+02           0.238810D+00
                  0.122490D+02           0.439940D+00
                  0.447430D+01           0.363640D+00
            S    7   1.00
                  0.166530D+04          -0.150060D-05
                  0.379080D+03          -0.587530D-04
                  0.107300D+03          -0.774530D-03
                  0.347470D+02          -0.721610D-02
                  0.122490D+02          -0.393380D-01
                  0.447430D+01          -0.906110D-01
                  0.124040D+01           0.198820D+00
            S    1   1.00
                  0.487430D+00           0.100000D+01
            S    1   1.00
                  0.164840D+00           0.100000D+01
            P    4   1.00
                  0.479340D+02           0.617060D-02
                  0.109990D+02           0.442600D-01
                  0.324720D+01           0.168250D+00
                  0.111140D+01           0.368480D+00
            P    1   1.00
                  0.379880D+00           0.100000D+01
            P    1   1.00
                  0.120680D+00           0.100000D+01
            D    1   1.00
                  0.180000D+01           0.100000D+01
            D    1   1.00
                  0.550000D+00           0.100000D+01
            F    1   1.00
                  0.102000D+01           0.100000D+01
            ****
            -O     0
            S    7   1.00
                  0.147820D+05           0.535190D-03
                  0.221730D+04           0.413750D-02
                  0.504740D+03           0.212450D-01
                  0.142870D+03           0.824530D-01
                  0.463000D+02           0.236710D+00
                  0.163370D+02           0.440390D+00
                  0.598280D+01           0.364650D+00
            S    7   1.00
                  0.221730D+04          -0.192750D-05
                  0.504740D+03          -0.579640D-04
                  0.142870D+03          -0.794940D-03
                  0.463000D+02          -0.731250D-02
                  0.163370D+02          -0.405740D-01
                  0.598280D+01          -0.915940D-01
                  0.167180D+01           0.209400D+00
            S    1   1.00
                  0.646620D+00           0.100000D+01
            S    1   1.00
                  0.216690D+00           0.100000D+01
            P    4   1.00
                  0.604240D+02           0.689490D-02
                  0.139350D+02           0.490050D-01
                  0.415310D+01           0.182550D+00
                  0.141580D+01           0.376330D+00
            P    1   1.00
                  0.475490D+00           0.100000D+01
            P    1   1.00
                  0.145290D+00           0.100000D+01
            D    1   1.00
                  0.220000D+01           0.100000D+01
            D    1   1.00
                  0.650000D+00           0.100000D+01
            F    1   1.00
                  0.110000D+01           0.100000D+01
            ****
 Initial command:
 /public3/home/sc51754/softwares/g09e01/l1.exe "./Gau-60410.inp" -scrdir="./"
 Entering Link 1 = /public3/home/sc51754/softwares/g09e01/l1.exe PID=     60411.
  
 Copyright (c) 1988,1990,1992,1993,1995,1998,2003,2009,2015,
            Gaussian, Inc.  All Rights Reserved.
  
 This is part of the Gaussian(R) 09 program.  It is based on
 the Gaussian(R) 03 system (copyright 2003, Gaussian, Inc.),
 the Gaussian(R) 98 system (copyright 1998, Gaussian, Inc.),
 the Gaussian(R) 94 system (copyright 1995, Gaussian, Inc.),
 the Gaussian 92(TM) system (copyright 1992, Gaussian, Inc.),
 the Gaussian 90(TM) system (copyright 1990, Gaussian, Inc.),
 the Gaussian 88(TM) system (copyright 1988, Gaussian, Inc.),
 the Gaussian 86(TM) system (copyright 1986, Carnegie Mellon
 University), and the Gaussian 82(TM) system (copyright 1983,
 Carnegie Mellon University). Gaussian is a federally registered
 trademark of Gaussian, Inc.
  
 This software contains proprietary and confidential information,
 including trade secrets, belonging to Gaussian, Inc.
  
 This software is provided under written license and may be
 used, copied, transmitted, or stored only in accord with that
 written license.
  
 The following legend is applicable only to US Government
 contracts under FAR:
  
                    RESTRICTED RIGHTS LEGEND
  
 Use, reproduction and disclosure by the US Government is
 subject to restrictions as set forth in subparagraphs (a)
 and (c) of the Commercial Computer Software - Restricted
 Rights clause in FAR 52.227-19.
  
 Gaussian, Inc.
 340 Quinnipiac St., Bldg. 40, Wallingford CT 06492
  
  
 ---------------------------------------------------------------
 Warning -- This program may not be used in any manner that
 competes with the business of Gaussian, Inc. or will provide
 assistance to any competitor of Gaussian, Inc.  The licensee
 of this program is prohibited from giving any competitor of
 Gaussian, Inc. access to this program.  By using this program,
 the user acknowledges that Gaussian, Inc. is engaged in the
 business of creating and licensing software in the field of
 computational chemistry and represents and warrants to the
 licensee that it is not a competitor of Gaussian, Inc. and that
 it will not use this program in any manner prohibited above.
 ---------------------------------------------------------------
  

 Cite this work as:
 Gaussian 09, Revision E.01,
 M. J. Frisch, G. W. Trucks, H. B. Schlegel, G. E. Scuseria, 
 M. A. Robb, J. R. Cheeseman, G. Scalmani, V. Barone, B. Mennucci, 
 G. A. Petersson, H. Nakatsuji, M. Caricato, X. Li, H. P. Hratchian, 
 A. F. Izmaylov, J. Bloino, G. Zheng, J. L. Sonnenberg, M. Hada, 
 M. Ehara, K. Toyota, R. Fukuda, J. Hasegawa, M. Ishida, T. Nakajima, 
 Y. Honda, O. Kitao, H. Nakai, T. Vreven, J. A. Montgomery, Jr., 
 J. E. Peralta, F. Ogliaro, M. Bearpark, J. J. Heyd, E. Brothers, 
 K. N. Kudin, V. N. Staroverov, T. Keith, R. Kobayashi, J. Normand, 
 K. Raghavachari, A. Rendell, J. C. Burant, S. S. Iyengar, J. Tomasi, 
 M. Cossi, N. Rega, J. M. Millam, M. Klene, J. E. Knox, J. B. Cross, 
 V. Bakken, C. Adamo, J. Jaramillo, R. Gomperts, R. E. Stratmann, 
 O. Yazyev, A. J. Austin, R. Cammi, C. Pomelli, J. W. Ochterski, 
 R. L. Martin, K. Morokuma, V. G. Zakrzewski, G. A. Voth, 
 P. Salvador, J. J. Dannenberg, S. Dapprich, A. D. Daniels, 
 O. Farkas, J. B. Foresman, J. V. Ortiz, J. Cioslowski, 
 and D. J. Fox, Gaussian, Inc., Wallingford CT, 2013.
 
 ******************************************
 Gaussian 09:  EM64L-G09RevE.01 30-Nov-2015
                27-Aug-2021 
 ******************************************
 %nprocshared=64
 Will use up to   64 processors via shared memory.
 %mem=128GB
 %chk=HY_BLYP_PC2_OPT_FREQ.chk
 --------------------
 #p opt freq BLYP/gen
 --------------------
 1/14=-1,18=20,19=15,26=3,38=1/1,3;
 2/9=110,12=2,17=6,18=5,40=1/2;
 3/5=7,11=2,16=1,25=1,30=1,71=1,74=402/1,2,3;
 4//1;
 5/5=2,38=5/2;
 6/7=2,8=2,9=2,10=2,28=1/1;
 7//1,2,3,16;
 1/14=-1,18=20,19=15,26=3/3(2);
 2/9=110/2;
 99//99;
 2/9=110/2;
 3/5=7,6=1,11=2,16=1,25=1,30=1,71=1,74=402,82=7/1,2,3;
 4/5=5,16=3,69=1/1;
 5/5=2,38=5/2;
 7//1,2,3,16;
 1/14=-1,18=20,19=15,26=3/3(-5);
 2/9=110/2;
 6/7=2,8=2,9=2,10=2,19=2,28=1/1;
 99/9=1/99;
 Leave Link    1 at Fri Aug 27 00:01:41 2021, MaxMem= 17179869184 cpu:         3.9
 (Enter /public3/home/sc51754/softwares/g09e01/l101.exe)
 --------------------
 HY_BLYP_PC2_OPT_FREQ
 --------------------
 Symbolic Z-matrix:
 Charge =  0 Multiplicity = 1
 O                     0.00837   2.23974   0. 
 N                    -1.17143   0.29602   0. 
 C                     0.        0.89831   0. 
 C                     1.21926   0.22535   0. 
 C                    -1.18415  -1.03535   0. 
 C                     1.18363  -1.14867   0. 
 C                    -0.04131  -1.80488   0. 
 H                    -0.91394   2.51588   0. 
 H                     2.14363   0.78426   0. 
 H                    -2.16362  -1.50192   0. 
 H                     2.10659  -1.71377   0. 
 H                    -0.10426  -2.88308   0. 
 
 NAtoms=     12 NQM=       12 NQMF=       0 NMMI=      0 NMMIF=      0
                NMic=       0 NMicF=      0.
                    Isotopes and Nuclear Properties:
 (Nuclear quadrupole moments (NQMom) in fm**2, nuclear magnetic moments (NMagM)
  in nuclear magnetons)

  Atom         1           2           3           4           5           6           7           8           9          10
 IAtWgt=          16          14          12          12          12          12          12           1           1           1
 AtmWgt=  15.9949146  14.0030740  12.0000000  12.0000000  12.0000000  12.0000000  12.0000000   1.0078250   1.0078250   1.0078250
 NucSpn=           0           2           0           0           0           0           0           1           1           1
 AtZEff=   0.0000000   0.0000000   0.0000000   0.0000000   0.0000000   0.0000000   0.0000000   0.0000000   0.0000000   0.0000000
 NQMom=    0.0000000   2.0440000   0.0000000   0.0000000   0.0000000   0.0000000   0.0000000   0.0000000   0.0000000   0.0000000
 NMagM=    0.0000000   0.4037610   0.0000000   0.0000000   0.0000000   0.0000000   0.0000000   2.7928460   2.7928460   2.7928460
 AtZNuc=   8.0000000   7.0000000   6.0000000   6.0000000   6.0000000   6.0000000   6.0000000   1.0000000   1.0000000   1.0000000

  Atom        11          12
 IAtWgt=           1           1
 AtmWgt=   1.0078250   1.0078250
 NucSpn=           1           1
 AtZEff=   0.0000000   0.0000000
 NQMom=    0.0000000   0.0000000
 NMagM=    2.7928460   2.7928460
 AtZNuc=   1.0000000   1.0000000
 Leave Link  101 at Fri Aug 27 00:01:41 2021, MaxMem= 17179869184 cpu:         7.1
 (Enter /public3/home/sc51754/softwares/g09e01/l103.exe)

 GradGradGradGradGradGradGradGradGradGradGradGradGradGradGradGradGradGrad
 Berny optimization.
 Initialization pass.
                           ----------------------------
                           !    Initial Parameters    !
                           ! (Angstroms and Degrees)  !
 --------------------------                            --------------------------
 ! Name  Definition              Value          Derivative Info.                !
 --------------------------------------------------------------------------------
 ! R1    R(1,3)                  1.3415         estimate D2E/DX2                !
 ! R2    R(1,8)                  0.9628         estimate D2E/DX2                !
 ! R3    R(2,3)                  1.3172         estimate D2E/DX2                !
 ! R4    R(2,5)                  1.3314         estimate D2E/DX2                !
 ! R5    R(3,4)                  1.3927         estimate D2E/DX2                !
 ! R6    R(4,6)                  1.3745         estimate D2E/DX2                !
 ! R7    R(4,9)                  1.0802         estimate D2E/DX2                !
 ! R8    R(5,7)                  1.3778         estimate D2E/DX2                !
 ! R9    R(5,10)                 1.0849         estimate D2E/DX2                !
 ! R10   R(6,7)                  1.3896         estimate D2E/DX2                !
 ! R11   R(6,11)                 1.0822         estimate D2E/DX2                !
 ! R12   R(7,12)                 1.08           estimate D2E/DX2                !
 ! A1    A(3,1,8)              106.3104         estimate D2E/DX2                !
 ! A2    A(3,2,5)              117.7571         estimate D2E/DX2                !
 ! A3    A(1,3,2)              117.5674         estimate D2E/DX2                !
 ! A4    A(1,3,4)              118.5383         estimate D2E/DX2                !
 ! A5    A(2,3,4)              123.8942         estimate D2E/DX2                !
 ! A6    A(3,4,6)              117.4104         estimate D2E/DX2                !
 ! A7    A(3,4,9)              119.945          estimate D2E/DX2                !
 ! A8    A(6,4,9)              122.6446         estimate D2E/DX2                !
 ! A9    A(2,5,7)              123.4071         estimate D2E/DX2                !
 ! A10   A(2,5,10)             116.018          estimate D2E/DX2                !
 ! A11   A(7,5,10)             120.5749         estimate D2E/DX2                !
 ! A12   A(4,6,7)              119.6636         estimate D2E/DX2                !
 ! A13   A(4,6,11)             119.9925         estimate D2E/DX2                !
 ! A14   A(7,6,11)             120.3439         estimate D2E/DX2                !
 ! A15   A(5,7,6)              117.8675         estimate D2E/DX2                !
 ! A16   A(5,7,12)             120.6134         estimate D2E/DX2                !
 ! A17   A(6,7,12)             121.519          estimate D2E/DX2                !
 ! D1    D(8,1,3,2)              0.0            estimate D2E/DX2                !
 ! D2    D(8,1,3,4)            180.0            estimate D2E/DX2                !
 ! D3    D(5,2,3,1)            180.0            estimate D2E/DX2                !
 ! D4    D(5,2,3,4)              0.0            estimate D2E/DX2                !
 ! D5    D(3,2,5,7)              0.0            estimate D2E/DX2                !
 ! D6    D(3,2,5,10)           180.0            estimate D2E/DX2                !
 ! D7    D(1,3,4,6)            180.0            estimate D2E/DX2                !
 ! D8    D(1,3,4,9)              0.0            estimate D2E/DX2                !
 ! D9    D(2,3,4,6)              0.0            estimate D2E/DX2                !
 ! D10   D(2,3,4,9)            180.0            estimate D2E/DX2                !
 ! D11   D(3,4,6,7)              0.0            estimate D2E/DX2                !
 ! D12   D(3,4,6,11)           180.0            estimate D2E/DX2                !
 ! D13   D(9,4,6,7)            180.0            estimate D2E/DX2                !
 ! D14   D(9,4,6,11)             0.0            estimate D2E/DX2                !
 ! D15   D(2,5,7,6)              0.0            estimate D2E/DX2                !
 ! D16   D(2,5,7,12)           180.0            estimate D2E/DX2                !
 ! D17   D(10,5,7,6)           180.0            estimate D2E/DX2                !
 ! D18   D(10,5,7,12)            0.0            estimate D2E/DX2                !
 ! D19   D(4,6,7,5)              0.0            estimate D2E/DX2                !
 ! D20   D(4,6,7,12)           180.0            estimate D2E/DX2                !
 ! D21   D(11,6,7,5)           180.0            estimate D2E/DX2                !
 ! D22   D(11,6,7,12)            0.0            estimate D2E/DX2                !
 --------------------------------------------------------------------------------
 Trust Radius=3.00D-01 FncErr=1.00D-07 GrdErr=1.00D-06
 Number of steps in this run=     61 maximum allowed number of steps=    100.
 GradGradGradGradGradGradGradGradGradGradGradGradGradGradGradGradGradGrad

 Leave Link  103 at Fri Aug 27 00:01:42 2021, MaxMem= 17179869184 cpu:         0.1
 (Enter /public3/home/sc51754/softwares/g09e01/l202.exe)
                          Input orientation:                          
 ---------------------------------------------------------------------
 Center     Atomic      Atomic             Coordinates (Angstroms)
 Number     Number       Type             X           Y           Z
 ---------------------------------------------------------------------
      1          8           0        0.008372    2.239736    0.000000
      2          7           0       -1.171427    0.296023    0.000000
      3          6           0        0.000000    0.898309    0.000000
      4          6           0        1.219264    0.225352    0.000000
      5          6           0       -1.184145   -1.035351    0.000000
      6          6           0        1.183632   -1.148671    0.000000
      7          6           0       -0.041314   -1.804878    0.000000
      8          1           0       -0.913944    2.515883    0.000000
      9          1           0        2.143627    0.784264    0.000000
     10          1           0       -2.163617   -1.501920    0.000000
     11          1           0        2.106589   -1.713772    0.000000
     12          1           0       -0.104256   -2.883075    0.000000
 ---------------------------------------------------------------------
                    Distance matrix (angstroms):
                    1          2          3          4          5
     1  O    0.000000
     2  N    2.273752   0.000000
     3  C    1.341453   1.317190   0.000000
     4  C    2.350320   2.391735   1.392651   0.000000
     5  C    3.485440   1.331435   2.267430   2.713991   0.000000
     6  C    3.586438   2.762869   2.364553   1.374485   2.370487
     7  C    4.044919   2.385569   2.703503   2.389747   1.377764
     8  H    0.962769   2.234743   1.857913   3.130033   3.561498
     9  H    2.584127   3.350815   2.146659   1.080199   3.792765
    10  H    4.326376   2.053543   3.231461   3.798335   1.084920
    11  H    4.475795   3.845083   3.355694   2.132498   3.359938
    12  H    5.124049   3.353434   3.782821   3.378465   2.140151
                    6          7          8          9         10
     6  C    0.000000
     7  C    1.389640   0.000000
     8  H    4.222414   4.407999   0.000000
     9  H    2.158200   3.387864   3.513865   0.000000
    10  H    3.365837   2.143818   4.207662   4.876370   0.000000
    11  H    1.082215   2.149834   5.197461   2.498311   4.275458
    12  H    2.160281   1.080033   5.459335   4.301436   2.479628
                   11         12
    11  H    0.000000
    12  H    2.501021   0.000000
 Stoichiometry    C5H5NO
 Framework group  CS[SG(C5H5NO)]
 Deg. of freedom    21
 Full point group                 CS      NOp   2
 Largest Abelian subgroup         CS      NOp   2
 Largest concise Abelian subgroup C1      NOp   1
                         Standard orientation:                         
 ---------------------------------------------------------------------
 Center     Atomic      Atomic             Coordinates (Angstroms)
 Number     Number       Type             X           Y           Z
 ---------------------------------------------------------------------
      1          8           0        0.008372    2.239736    0.000000
      2          7           0       -1.171427    0.296023    0.000000
      3          6           0       -0.000000    0.898309    0.000000
      4          6           0        1.219264    0.225352    0.000000
      5          6           0       -1.184145   -1.035351    0.000000
      6          6           0        1.183632   -1.148671    0.000000
      7          6           0       -0.041314   -1.804878    0.000000
      8          1           0       -0.913944    2.515883    0.000000
      9          1           0        2.143627    0.784264    0.000000
     10          1           0       -2.163617   -1.501920    0.000000
     11          1           0        2.106589   -1.713772    0.000000
     12          1           0       -0.104257   -2.883075    0.000000
 ---------------------------------------------------------------------
 Rotational constants (GHZ):      5.9244098      2.8053779      1.9038502
 Leave Link  202 at Fri Aug 27 00:01:42 2021, MaxMem= 17179869184 cpu:         5.2
 (Enter /public3/home/sc51754/softwares/g09e01/l301.exe)
 General basis read from cards:  (5D, 7F)
 Centers:       8      9     10     11     12
 S 4 1.00
     Exponent=  7.5423000000D+01 Coefficients=  2.4065000000D-03
     Exponent=  1.1350000000D+01 Coefficients=  1.8487000000D-02
     Exponent=  2.5993000000D+00 Coefficients=  8.9742000000D-02
     Exponent=  7.3513000000D-01 Coefficients=  2.8111000000D-01
 S 1 1.00
     Exponent=  2.3167000000D-01 Coefficients=  1.0000000000D+00
 S 1 1.00
     Exponent=  7.4147000000D-02 Coefficients=  1.0000000000D+00
 P 1 1.00
     Exponent=  1.6000000000D+00 Coefficients=  1.0000000000D+00
 P 1 1.00
     Exponent=  4.5000000000D-01 Coefficients=  1.0000000000D+00
 D 1 1.00
     Exponent=  1.2500000000D+00 Coefficients=  1.0000000000D+00
 ****
 Centers:       3      4      5      6      7
 S 7 1.00
     Exponent=  7.8571000000D+03 Coefficients=  5.6825000000D-04
     Exponent=  1.1787000000D+03 Coefficients=  4.3915000000D-03
     Exponent=  2.6832000000D+02 Coefficients=  2.2504000000D-02
     Exponent=  7.5948000000D+01 Coefficients=  8.6653000000D-02
     Exponent=  2.4559000000D+01 Coefficients=  2.4405000000D-01
     Exponent=  8.6212000000D+00 Coefficients=  4.4148000000D-01
     Exponent=  3.1278000000D+00 Coefficients=  3.5332000000D-01
 S 7 1.00
     Exponent=  1.1787000000D+03 Coefficients= -5.9492000000D-07
     Exponent=  2.6832000000D+02 Coefficients= -6.2748000000D-05
     Exponent=  7.5948000000D+01 Coefficients= -7.5773000000D-04
     Exponent=  2.4559000000D+01 Coefficients= -7.3308000000D-03
     Exponent=  8.6212000000D+00 Coefficients= -3.8932000000D-02
     Exponent=  3.1278000000D+00 Coefficients= -8.8908000000D-02
     Exponent=  8.2202000000D-01 Coefficients=  2.1689000000D-01
 S 1 1.00
     Exponent=  3.3017000000D-01 Coefficients=  1.0000000000D+00
 S 1 1.00
     Exponent=  1.1463000000D-01 Coefficients=  1.0000000000D+00
 P 4 1.00
     Exponent=  3.3775000000D+01 Coefficients=  6.0294000000D-03
     Exponent=  7.6766000000D+00 Coefficients=  4.3228000000D-02
     Exponent=  2.2357000000D+00 Coefficients=  1.6301000000D-01
     Exponent=  7.6447000000D-01 Coefficients=  3.6504000000D-01
 P 1 1.00
     Exponent=  2.6232000000D-01 Coefficients=  1.0000000000D+00
 P 1 1.00
     Exponent=  8.4638000000D-02 Coefficients=  1.0000000000D+00
 D 1 1.00
     Exponent=  1.4000000000D+00 Coefficients=  1.0000000000D+00
 D 1 1.00
     Exponent=  4.5000000000D-01 Coefficients=  1.0000000000D+00
 F 1 1.00
     Exponent=  9.5000000000D-01 Coefficients=  1.0000000000D+00
 ****
 Centers:       2
 S 7 1.00
     Exponent=  1.1101000000D+04 Coefficients=  5.4570000000D-04
     Exponent=  1.6653000000D+03 Coefficients=  4.2181000000D-03
     Exponent=  3.7908000000D+02 Coefficients=  2.1645000000D-02
     Exponent=  1.0730000000D+02 Coefficients=  8.3776000000D-02
     Exponent=  3.4747000000D+01 Coefficients=  2.3881000000D-01
     Exponent=  1.2249000000D+01 Coefficients=  4.3994000000D-01
     Exponent=  4.4743000000D+00 Coefficients=  3.6364000000D-01
 S 7 1.00
     Exponent=  1.6653000000D+03 Coefficients= -1.5006000000D-06
     Exponent=  3.7908000000D+02 Coefficients= -5.8753000000D-05
     Exponent=  1.0730000000D+02 Coefficients= -7.7453000000D-04
     Exponent=  3.4747000000D+01 Coefficients= -7.2161000000D-03
     Exponent=  1.2249000000D+01 Coefficients= -3.9338000000D-02
     Exponent=  4.4743000000D+00 Coefficients= -9.0611000000D-02
     Exponent=  1.2404000000D+00 Coefficients=  1.9882000000D-01
 S 1 1.00
     Exponent=  4.8743000000D-01 Coefficients=  1.0000000000D+00
 S 1 1.00
     Exponent=  1.6484000000D-01 Coefficients=  1.0000000000D+00
 P 4 1.00
     Exponent=  4.7934000000D+01 Coefficients=  6.1706000000D-03
     Exponent=  1.0999000000D+01 Coefficients=  4.4260000000D-02
     Exponent=  3.2472000000D+00 Coefficients=  1.6825000000D-01
     Exponent=  1.1114000000D+00 Coefficients=  3.6848000000D-01
 P 1 1.00
     Exponent=  3.7988000000D-01 Coefficients=  1.0000000000D+00
 P 1 1.00
     Exponent=  1.2068000000D-01 Coefficients=  1.0000000000D+00
 D 1 1.00
     Exponent=  1.8000000000D+00 Coefficients=  1.0000000000D+00
 D 1 1.00
     Exponent=  5.5000000000D-01 Coefficients=  1.0000000000D+00
 F 1 1.00
     Exponent=  1.0200000000D+00 Coefficients=  1.0000000000D+00
 ****
 Centers:       1
 S 7 1.00
     Exponent=  1.4782000000D+04 Coefficients=  5.3519000000D-04
     Exponent=  2.2173000000D+03 Coefficients=  4.1375000000D-03
     Exponent=  5.0474000000D+02 Coefficients=  2.1245000000D-02
     Exponent=  1.4287000000D+02 Coefficients=  8.2453000000D-02
     Exponent=  4.6300000000D+01 Coefficients=  2.3671000000D-01
     Exponent=  1.6337000000D+01 Coefficients=  4.4039000000D-01
     Exponent=  5.9828000000D+00 Coefficients=  3.6465000000D-01
 S 7 1.00
     Exponent=  2.2173000000D+03 Coefficients= -1.9275000000D-06
     Exponent=  5.0474000000D+02 Coefficients= -5.7964000000D-05
     Exponent=  1.4287000000D+02 Coefficients= -7.9494000000D-04
     Exponent=  4.6300000000D+01 Coefficients= -7.3125000000D-03
     Exponent=  1.6337000000D+01 Coefficients= -4.0574000000D-02
     Exponent=  5.9828000000D+00 Coefficients= -9.1594000000D-02
     Exponent=  1.6718000000D+00 Coefficients=  2.0940000000D-01
 S 1 1.00
     Exponent=  6.4662000000D-01 Coefficients=  1.0000000000D+00
 S 1 1.00
     Exponent=  2.1669000000D-01 Coefficients=  1.0000000000D+00
 P 4 1.00
     Exponent=  6.0424000000D+01 Coefficients=  6.8949000000D-03
     Exponent=  1.3935000000D+01 Coefficients=  4.9005000000D-02
     Exponent=  4.1531000000D+00 Coefficients=  1.8255000000D-01
     Exponent=  1.4158000000D+00 Coefficients=  3.7633000000D-01
 P 1 1.00
     Exponent=  4.7549000000D-01 Coefficients=  1.0000000000D+00
 P 1 1.00
     Exponent=  1.4529000000D-01 Coefficients=  1.0000000000D+00
 D 1 1.00
     Exponent=  2.2000000000D+00 Coefficients=  1.0000000000D+00
 D 1 1.00
     Exponent=  6.5000000000D-01 Coefficients=  1.0000000000D+00
 F 1 1.00
     Exponent=  1.1000000000D+00 Coefficients=  1.0000000000D+00
 ****
 Ernie: Thresh=  0.10000D-02 Tol=  0.10000D-05 Strict=F.
 Ernie:  7 primitive shells out of 220 were deleted.
 There are   223 symmetry adapted cartesian basis functions of A'  symmetry.
 There are    97 symmetry adapted cartesian basis functions of A"  symmetry.
 There are   190 symmetry adapted basis functions of A'  symmetry.
 There are    90 symmetry adapted basis functions of A"  symmetry.
   280 basis functions,   475 primitive gaussians,   320 cartesian basis functions
    25 alpha electrons       25 beta electrons
       nuclear repulsion energy       277.5236709615 Hartrees.
 IExCor=  402 DFT=T Ex=B Corr=LYP ExCW=0 ScaHFX=  0.000000
 ScaDFX=  1.000000  1.000000  1.000000  1.000000 ScalE2=  1.000000  1.000000
 IRadAn=      0 IRanWt=     -1 IRanGd=            0 ICorTp=0 IEmpDi=  4
 NAtoms=   12 NActive=   12 NUniq=   12 SFac= 1.00D+00 NAtFMM=   60 NAOKFM=F Big=F
 Integral buffers will be    131072 words long.
 Raffenetti 2 integral format.
 Two-electron integral symmetry is turned on.
 Leave Link  301 at Fri Aug 27 00:01:42 2021, MaxMem= 17179869184 cpu:         1.6
 (Enter /public3/home/sc51754/softwares/g09e01/l302.exe)
 NPDir=0 NMtPBC=     1 NCelOv=     1 NCel=       1 NClECP=     1 NCelD=      1
         NCelK=      1 NCelE2=     1 NClLst=     1 CellRange=     0.0.
 One-electron integrals computed using PRISM.
 NBasis=   280 RedAO= T EigKep=  2.16D-04  NBF=   190    90
 NBsUse=   280 1.00D-06 EigRej= -1.00D+00 NBFU=   190    90
 Precomputing XC quadrature grid using
 IXCGrd= 4 IRadAn=           0 IRanWt=          -1 IRanGd=           0 AccXCQ= 0.00D+00.
 Generated NRdTot=       0 NPtTot=           0 NUsed=           0 NTot=          32
 NSgBfM=   320   320   320   320   320 MxSgAt=    12 MxSgA2=    12.
 Leave Link  302 at Fri Aug 27 00:01:43 2021, MaxMem= 17179869184 cpu:        42.3
 (Enter /public3/home/sc51754/softwares/g09e01/l303.exe)
 DipDrv:  MaxL=1.
 Leave Link  303 at Fri Aug 27 00:01:43 2021, MaxMem= 17179869184 cpu:        14.5
 (Enter /public3/home/sc51754/softwares/g09e01/l401.exe)
 ExpMin= 7.41D-02 ExpMax= 1.48D+04 ExpMxC= 5.05D+02 IAcc=2 IRadAn=         4 AccDes= 0.00D+00
 Harris functional with IExCor=  402 and IRadAn=       4 diagonalized for initial guess.
 HarFok:  IExCor=  402 AccDes= 0.00D+00 IRadAn=         4 IDoV= 1 UseB2=F ITyADJ=14
 ICtDFT=  3500011 ScaDFX=  1.000000  1.000000  1.000000  1.000000
 FoFCou: FMM=F IPFlag=           0 FMFlag=      100000 FMFlg1=           0
         NFxFlg=           0 DoJE=T BraDBF=F KetDBF=T FulRan=T
         wScrn=  0.000000 ICntrl=     500 IOpCl=  0 I1Cent=   200000004 NGrid=           0
         NMat0=    1 NMatS0=      1 NMatT0=    0 NMatD0=    1 NMtDS0=    0 NMtDT0=    0
 Petite list used in FoFCou.
 Harris En= -323.683677238981    
 JPrj=0 DoOrth=F DoCkMO=F.
 Initial guess orbital symmetries:
       Occupied  (A') (A') (A') (A') (A') (A') (A') (A') (A') (A')
                 (A') (A') (A') (A') (A') (A') (A') (A') (A") (A')
                 (A') (A") (A") (A') (A")
       Virtual   (A") (A") (A') (A') (A') (A") (A') (A') (A') (A')
                 (A') (A') (A") (A') (A") (A") (A') (A') (A') (A')
                 (A') (A') (A") (A") (A') (A') (A') (A') (A') (A')
                 (A') (A") (A') (A") (A') (A') (A') (A') (A') (A')
                 (A') (A') (A') (A") (A') (A') (A') (A") (A") (A')
                 (A") (A") (A') (A') (A") (A') (A') (A") (A') (A')
                 (A') (A") (A') (A') (A") (A') (A") (A') (A') (A")
                 (A') (A") (A") (A') (A") (A') (A') (A") (A') (A')
                 (A") (A') (A') (A') (A") (A') (A") (A') (A") (A')
                 (A") (A') (A') (A') (A') (A") (A') (A') (A') (A")
                 (A') (A') (A") (A') (A') (A') (A') (A") (A') (A')
                 (A') (A") (A') (A') (A') (A') (A") (A') (A') (A')
                 (A") (A') (A") (A') (A") (A') (A") (A") (A') (A")
                 (A") (A') (A') (A') (A") (A') (A') (A') (A") (A')
                 (A') (A') (A') (A") (A") (A') (A") (A') (A') (A')
                 (A") (A') (A') (A") (A") (A') (A") (A') (A") (A')
                 (A") (A') (A') (A') (A") (A") (A') (A") (A') (A')
                 (A") (A') (A') (A") (A') (A') (A") (A") (A') (A")
                 (A") (A") (A') (A') (A") (A') (A") (A") (A') (A")
                 (A") (A') (A') (A") (A') (A') (A") (A') (A") (A")
                 (A') (A') (A") (A') (A') (A') (A") (A') (A') (A')
                 (A") (A') (A') (A") (A') (A") (A') (A') (A") (A")
                 (A') (A') (A") (A') (A') (A") (A') (A') (A') (A')
                 (A") (A') (A') (A') (A') (A") (A") (A') (A') (A')
                 (A') (A") (A') (A') (A') (A') (A') (A') (A') (A')
                 (A') (A') (A') (A') (A')
 The electronic state of the initial guess is 1-A'.
 Leave Link  401 at Fri Aug 27 00:01:44 2021, MaxMem= 17179869184 cpu:        45.1
 (Enter /public3/home/sc51754/softwares/g09e01/l502.exe)
 Closed shell SCF:
 Using DIIS extrapolation, IDIIS=  1040.
 Integral symmetry usage will be decided dynamically.
 Keep J ints in memory in symmetry-blocked form, NReq=1167802198.
 IVT=      348658 IEndB=      348658 NGot= 17179869184 MDV= 16785904737
 LenX= 16785904737 LenY= 16785801896
 Requested convergence on RMS density matrix=1.00D-08 within 128 cycles.
 Requested convergence on MAX density matrix=1.00D-06.
 Requested convergence on             energy=1.00D-06.
 No special actions if energy rises.
 FoFCou: FMM=F IPFlag=           0 FMFlag=           0 FMFlg1=           0
         NFxFlg=           0 DoJE=F BraDBF=F KetDBF=F FulRan=T
         wScrn=  0.000000 ICntrl=     600 IOpCl=  0 I1Cent=           0 NGrid=           0
         NMat0=    1 NMatS0=  39340 NMatT0=    0 NMatD0=    1 NMtDS0=    0 NMtDT0=    0
 Petite list used in FoFCou.
 Integral accuracy reduced to 1.0D-05 until final iterations.

 Cycle   1  Pass 0  IDiag  1:
 E= -323.385423415621    
 DIIS: error= 2.85D-02 at cycle   1 NSaved=   1.
 NSaved= 1 IEnMin= 1 EnMin= -323.385423415621     IErMin= 1 ErrMin= 2.85D-02
 ErrMax= 2.85D-02  0.00D+00 EMaxC= 1.00D-01 BMatC= 1.82D-01 BMatP= 1.82D-01
 IDIUse=3 WtCom= 7.15D-01 WtEn= 2.85D-01
 Coeff-Com:  0.100D+01
 Coeff-En:   0.100D+01
 Coeff:      0.100D+01
 Gap=     0.141 Goal=   None    Shift=    0.000
 GapD=    0.141 DampG=1.000 DampE=0.500 DampFc=0.5000 IDamp=-1.
 Damping current iteration by 5.00D-01
 RMSDP=3.40D-03 MaxDP=1.26D-01              OVMax= 2.44D-01

 Cycle   2  Pass 0  IDiag  1:
 E= -323.428299094203     Delta-E=       -0.042875678582 Rises=F Damp=T
 DIIS: error= 6.13D-03 at cycle   2 NSaved=   2.
 NSaved= 2 IEnMin= 2 EnMin= -323.428299094203     IErMin= 2 ErrMin= 6.13D-03
 ErrMax= 6.13D-03  0.00D+00 EMaxC= 1.00D-01 BMatC= 2.13D-02 BMatP= 1.82D-01
 IDIUse=3 WtCom= 9.39D-01 WtEn= 6.13D-02
 Coeff-Com:  0.219D+00 0.781D+00
 Coeff-En:   0.370D+00 0.630D+00
 Coeff:      0.228D+00 0.772D+00
 Gap=     0.153 Goal=   None    Shift=    0.000
 RMSDP=8.17D-04 MaxDP=3.76D-02 DE=-4.29D-02 OVMax= 2.02D-01

 Cycle   3  Pass 0  IDiag  1:
 E= -323.548744179071     Delta-E=       -0.120445084868 Rises=F Damp=F
 DIIS: error= 5.37D-03 at cycle   3 NSaved=   3.
 NSaved= 3 IEnMin= 3 EnMin= -323.548744179071     IErMin= 3 ErrMin= 5.37D-03
 ErrMax= 5.37D-03  0.00D+00 EMaxC= 1.00D-01 BMatC= 6.64D-03 BMatP= 2.13D-02
 IDIUse=3 WtCom= 9.46D-01 WtEn= 5.37D-02
 Coeff-Com:  0.692D-01 0.387D+00 0.544D+00
 Coeff-En:   0.000D+00 0.000D+00 0.100D+01
 Coeff:      0.655D-01 0.367D+00 0.568D+00
 Gap=     0.156 Goal=   None    Shift=    0.000
 RMSDP=4.12D-04 MaxDP=2.18D-02 DE=-1.20D-01 OVMax= 7.12D-02

 Cycle   4  Pass 0  IDiag  1:
 E= -323.551314211243     Delta-E=       -0.002570032172 Rises=F Damp=F
 DIIS: error= 5.78D-03 at cycle   4 NSaved=   4.
 NSaved= 4 IEnMin= 4 EnMin= -323.551314211243     IErMin= 3 ErrMin= 5.37D-03
 ErrMax= 5.78D-03  0.00D+00 EMaxC= 1.00D-01 BMatC= 4.05D-03 BMatP= 6.64D-03
 IDIUse=3 WtCom= 9.42D-01 WtEn= 5.78D-02
 Coeff-Com:  0.174D-01 0.171D+00 0.429D+00 0.383D+00
 Coeff-En:   0.000D+00 0.000D+00 0.413D+00 0.587D+00
 Coeff:      0.163D-01 0.161D+00 0.428D+00 0.395D+00
 Gap=     0.154 Goal=   None    Shift=    0.000
 RMSDP=2.10D-04 MaxDP=6.62D-03 DE=-2.57D-03 OVMax= 3.33D-02

 Cycle   5  Pass 0  IDiag  1:
 E= -323.555669337296     Delta-E=       -0.004355126054 Rises=F Damp=F
 DIIS: error= 1.10D-03 at cycle   5 NSaved=   5.
 NSaved= 5 IEnMin= 5 EnMin= -323.555669337296     IErMin= 5 ErrMin= 1.10D-03
 ErrMax= 1.10D-03  0.00D+00 EMaxC= 1.00D-01 BMatC= 2.12D-04 BMatP= 4.05D-03
 IDIUse=3 WtCom= 9.89D-01 WtEn= 1.10D-02
 Coeff-Com:  0.217D-02 0.560D-01 0.200D+00 0.241D+00 0.501D+00
 Coeff-En:   0.000D+00 0.000D+00 0.000D+00 0.000D+00 0.100D+01
 Coeff:      0.214D-02 0.554D-01 0.198D+00 0.238D+00 0.506D+00
 Gap=     0.154 Goal=   None    Shift=    0.000
 RMSDP=5.00D-05 MaxDP=2.16D-03 DE=-4.36D-03 OVMax= 8.07D-03

 Cycle   6  Pass 0  IDiag  1:
 E= -323.555839188408     Delta-E=       -0.000169851111 Rises=F Damp=F
 DIIS: error= 3.77D-04 at cycle   6 NSaved=   6.
 NSaved= 6 IEnMin= 6 EnMin= -323.555839188408     IErMin= 6 ErrMin= 3.77D-04
 ErrMax= 3.77D-04  0.00D+00 EMaxC= 1.00D-01 BMatC= 4.41D-05 BMatP= 2.12D-04
 IDIUse=3 WtCom= 9.96D-01 WtEn= 3.77D-03
 Coeff-Com: -0.151D-02 0.115D-01 0.658D-01 0.972D-01 0.347D+00 0.480D+00
 Coeff-En:   0.000D+00 0.000D+00 0.000D+00 0.000D+00 0.177D+00 0.823D+00
 Coeff:     -0.151D-02 0.115D-01 0.655D-01 0.969D-01 0.346D+00 0.481D+00
 Gap=     0.154 Goal=   None    Shift=    0.000
 RMSDP=1.79D-05 MaxDP=8.92D-04 DE=-1.70D-04 OVMax= 2.09D-03

 Cycle   7  Pass 0  IDiag  1:
 E= -323.555875690593     Delta-E=       -0.000036502185 Rises=F Damp=F
 DIIS: error= 7.59D-05 at cycle   7 NSaved=   7.
 NSaved= 7 IEnMin= 7 EnMin= -323.555875690593     IErMin= 7 ErrMin= 7.59D-05
 ErrMax= 7.59D-05  0.00D+00 EMaxC= 1.00D-01 BMatC= 1.57D-06 BMatP= 4.41D-05
 IDIUse=1 WtCom= 1.00D+00 WtEn= 0.00D+00
 Coeff-Com: -0.769D-03 0.514D-02 0.319D-01 0.477D-01 0.183D+00 0.277D+00
 Coeff-Com:  0.455D+00
 Coeff:     -0.769D-03 0.514D-02 0.319D-01 0.477D-01 0.183D+00 0.277D+00
 Coeff:      0.455D+00
 Gap=     0.154 Goal=   None    Shift=    0.000
 RMSDP=5.53D-06 MaxDP=2.10D-04 DE=-3.65D-05 OVMax= 8.16D-04

 Initial convergence to 1.0D-05 achieved.  Increase integral accuracy.
 Cycle   8  Pass 1  IDiag  1:
 E= -323.555809584093     Delta-E=        0.000066106499 Rises=F Damp=F
 DIIS: error= 4.82D-05 at cycle   1 NSaved=   1.
 NSaved= 1 IEnMin= 1 EnMin= -323.555809584093     IErMin= 1 ErrMin= 4.82D-05
 ErrMax= 4.82D-05  0.00D+00 EMaxC= 1.00D-01 BMatC= 8.16D-07 BMatP= 8.16D-07
 IDIUse=1 WtCom= 1.00D+00 WtEn= 0.00D+00
 Coeff-Com:  0.100D+01
 Coeff:      0.100D+01
 Gap=     0.154 Goal=   None    Shift=    0.000
 RMSDP=5.53D-06 MaxDP=2.10D-04 DE= 6.61D-05 OVMax= 1.25D-03

 Cycle   9  Pass 1  IDiag  1:
 E= -323.555806239967     Delta-E=        0.000003344126 Rises=F Damp=F
 DIIS: error= 1.39D-04 at cycle   2 NSaved=   2.
 NSaved= 2 IEnMin= 1 EnMin= -323.555809584093     IErMin= 1 ErrMin= 4.82D-05
 ErrMax= 1.39D-04  0.00D+00 EMaxC= 1.00D-01 BMatC= 4.39D-06 BMatP= 8.16D-07
 IDIUse=3 WtCom= 4.59D-01 WtEn= 5.41D-01
 Coeff-Com:  0.713D+00 0.287D+00
 Coeff-En:   0.795D+00 0.205D+00
 Coeff:      0.758D+00 0.242D+00
 Gap=     0.154 Goal=   None    Shift=    0.000
 RMSDP=5.33D-06 MaxDP=2.08D-04 DE= 3.34D-06 OVMax= 8.77D-04

 Cycle  10  Pass 1  IDiag  1:
 E= -323.555810389406     Delta-E=       -0.000004149438 Rises=F Damp=F
 DIIS: error= 1.07D-05 at cycle   3 NSaved=   3.
 NSaved= 3 IEnMin= 3 EnMin= -323.555810389406     IErMin= 3 ErrMin= 1.07D-05
 ErrMax= 1.07D-05  0.00D+00 EMaxC= 1.00D-01 BMatC= 3.86D-08 BMatP= 8.16D-07
 IDIUse=1 WtCom= 1.00D+00 WtEn= 0.00D+00
 Coeff-Com:  0.131D+00-0.107D-01 0.880D+00
 Coeff:      0.131D+00-0.107D-01 0.880D+00
 Gap=     0.154 Goal=   None    Shift=    0.000
 RMSDP=7.27D-07 MaxDP=3.20D-05 DE=-4.15D-06 OVMax= 6.38D-05

 Cycle  11  Pass 1  IDiag  1:
 E= -323.555810391668     Delta-E=       -0.000000002263 Rises=F Damp=F
 DIIS: error= 1.02D-05 at cycle   4 NSaved=   4.
 NSaved= 4 IEnMin= 4 EnMin= -323.555810391668     IErMin= 4 ErrMin= 1.02D-05
 ErrMax= 1.02D-05  0.00D+00 EMaxC= 1.00D-01 BMatC= 3.51D-08 BMatP= 3.86D-08
 IDIUse=1 WtCom= 1.00D+00 WtEn= 0.00D+00
 Coeff-Com:  0.657D-02-0.412D-01 0.612D+00 0.422D+00
 Coeff:      0.657D-02-0.412D-01 0.612D+00 0.422D+00
 Gap=     0.154 Goal=   None    Shift=    0.000
 RMSDP=4.79D-07 MaxDP=2.32D-05 DE=-2.26D-09 OVMax= 5.96D-05

 Cycle  12  Pass 1  IDiag  1:
 E= -323.555810420187     Delta-E=       -0.000000028519 Rises=F Damp=F
 DIIS: error= 2.88D-06 at cycle   5 NSaved=   5.
 NSaved= 5 IEnMin= 5 EnMin= -323.555810420187     IErMin= 5 ErrMin= 2.88D-06
 ErrMax= 2.88D-06  0.00D+00 EMaxC= 1.00D-01 BMatC= 1.45D-09 BMatP= 3.51D-08
 IDIUse=1 WtCom= 1.00D+00 WtEn= 0.00D+00
 Coeff-Com: -0.217D-02-0.235D-01 0.315D+00 0.257D+00 0.453D+00
 Coeff:     -0.217D-02-0.235D-01 0.315D+00 0.257D+00 0.453D+00
 Gap=     0.154 Goal=   None    Shift=    0.000
 RMSDP=1.33D-07 MaxDP=5.15D-06 DE=-2.85D-08 OVMax= 2.38D-05

 Cycle  13  Pass 1  IDiag  1:
 E= -323.555810421323     Delta-E=       -0.000000001136 Rises=F Damp=F
 DIIS: error= 9.62D-07 at cycle   6 NSaved=   6.
 NSaved= 6 IEnMin= 6 EnMin= -323.555810421323     IErMin= 6 ErrMin= 9.62D-07
 ErrMax= 9.62D-07  0.00D+00 EMaxC= 1.00D-01 BMatC= 2.17D-10 BMatP= 1.45D-09
 IDIUse=1 WtCom= 1.00D+00 WtEn= 0.00D+00
 Coeff-Com: -0.226D-02-0.130D-01 0.166D+00 0.142D+00 0.310D+00 0.397D+00
 Coeff:     -0.226D-02-0.130D-01 0.166D+00 0.142D+00 0.310D+00 0.397D+00
 Gap=     0.154 Goal=   None    Shift=    0.000
 RMSDP=5.02D-08 MaxDP=2.86D-06 DE=-1.14D-09 OVMax= 9.30D-06

 Cycle  14  Pass 1  IDiag  1:
 E= -323.555810421539     Delta-E=       -0.000000000216 Rises=F Damp=F
 DIIS: error= 2.59D-07 at cycle   7 NSaved=   7.
 NSaved= 7 IEnMin= 7 EnMin= -323.555810421539     IErMin= 7 ErrMin= 2.59D-07
 ErrMax= 2.59D-07  0.00D+00 EMaxC= 1.00D-01 BMatC= 1.08D-11 BMatP= 2.17D-10
 IDIUse=1 WtCom= 1.00D+00 WtEn= 0.00D+00
 Coeff-Com: -0.108D-02-0.606D-02 0.766D-01 0.666D-01 0.149D+00 0.246D+00
 Coeff-Com:  0.469D+00
 Coeff:     -0.108D-02-0.606D-02 0.766D-01 0.666D-01 0.149D+00 0.246D+00
 Coeff:      0.469D+00
 Gap=     0.154 Goal=   None    Shift=    0.000
 RMSDP=1.17D-08 MaxDP=5.61D-07 DE=-2.16D-10 OVMax= 1.88D-06

 Cycle  15  Pass 1  IDiag  1:
 E= -323.555810421553     Delta-E=       -0.000000000014 Rises=F Damp=F
 DIIS: error= 1.20D-07 at cycle   8 NSaved=   8.
 NSaved= 8 IEnMin= 8 EnMin= -323.555810421553     IErMin= 8 ErrMin= 1.20D-07
 ErrMax= 1.20D-07  0.00D+00 EMaxC= 1.00D-01 BMatC= 1.63D-12 BMatP= 1.08D-11
 IDIUse=1 WtCom= 1.00D+00 WtEn= 0.00D+00
 Coeff-Com: -0.319D-03-0.163D-02 0.203D-01 0.180D-01 0.405D-01 0.923D-01
 Coeff-Com:  0.314D+00 0.517D+00
 Coeff:     -0.319D-03-0.163D-02 0.203D-01 0.180D-01 0.405D-01 0.923D-01
 Coeff:      0.314D+00 0.517D+00
 Gap=     0.154 Goal=   None    Shift=    0.000
 RMSDP=4.14D-09 MaxDP=2.15D-07 DE=-1.36D-11 OVMax= 6.82D-07

 SCF Done:  E(RB-LYP) =  -323.555810422     A.U. after   15 cycles
            NFock= 15  Conv=0.41D-08     -V/T= 2.0019
 KE= 3.229329408946D+02 PE=-1.310714681094D+03 EE= 3.867022588168D+02
 Leave Link  502 at Fri Aug 27 00:01:51 2021, MaxMem= 17179869184 cpu:       240.2
 (Enter /public3/home/sc51754/softwares/g09e01/l601.exe)
 Copying SCF densities to generalized density rwf, IOpCl= 0 IROHF=0.

 **********************************************************************

            Population analysis using the SCF density.

 **********************************************************************

 Orbital symmetries:
       Occupied  (A') (A') (A') (A') (A') (A') (A') (A') (A') (A')
                 (A') (A') (A') (A') (A') (A') (A') (A") (A') (A')
                 (A') (A") (A") (A') (A")
       Virtual   (A") (A") (A') (A') (A') (A') (A') (A") (A') (A')
                 (A") (A') (A') (A') (A") (A") (A') (A') (A') (A")
                 (A') (A") (A') (A') (A') (A') (A') (A') (A') (A')
                 (A') (A") (A') (A") (A') (A') (A') (A') (A') (A')
                 (A') (A') (A') (A") (A') (A') (A') (A") (A") (A")
                 (A') (A") (A') (A') (A") (A') (A') (A") (A') (A')
                 (A') (A') (A") (A') (A') (A") (A') (A") (A') (A')
                 (A") (A") (A") (A') (A") (A') (A') (A") (A') (A')
                 (A") (A') (A') (A') (A') (A") (A") (A') (A") (A')
                 (A") (A') (A') (A') (A') (A") (A') (A') (A") (A')
                 (A') (A") (A') (A') (A') (A') (A') (A") (A') (A')
                 (A') (A") (A') (A') (A') (A') (A") (A') (A') (A')
                 (A") (A') (A") (A') (A") (A') (A") (A") (A') (A")
                 (A") (A') (A') (A') (A") (A') (A') (A") (A') (A')
                 (A') (A') (A") (A') (A") (A') (A") (A') (A') (A')
                 (A") (A') (A') (A") (A') (A") (A") (A') (A") (A')
                 (A") (A') (A') (A') (A") (A") (A') (A") (A') (A')
                 (A') (A") (A') (A") (A') (A') (A") (A') (A") (A")
                 (A") (A") (A') (A') (A") (A') (A") (A") (A') (A")
                 (A') (A") (A') (A") (A') (A') (A") (A') (A") (A")
                 (A') (A') (A") (A') (A') (A') (A") (A') (A') (A')
                 (A") (A') (A") (A') (A') (A") (A') (A') (A") (A")
                 (A') (A') (A") (A') (A') (A") (A') (A') (A') (A')
                 (A") (A') (A') (A') (A') (A") (A") (A') (A') (A')
                 (A') (A") (A') (A') (A') (A') (A') (A') (A') (A')
                 (A') (A') (A') (A') (A')
 The electronic state is 1-A'.
 Alpha  occ. eigenvalues --  -18.80723 -14.00199  -9.99976  -9.94546  -9.92840
 Alpha  occ. eigenvalues --   -9.91730  -9.91265  -0.99055  -0.85849  -0.73251
 Alpha  occ. eigenvalues --   -0.68508  -0.58654  -0.56866  -0.50205  -0.46426
 Alpha  occ. eigenvalues --   -0.43246  -0.39793  -0.39269  -0.36568  -0.35199
 Alpha  occ. eigenvalues --   -0.32550  -0.31390  -0.26170  -0.23079  -0.21257
 Alpha virt. eigenvalues --   -0.05866  -0.03308   0.00312   0.01034   0.02831
 Alpha virt. eigenvalues --    0.04882   0.06638   0.09690   0.11407   0.13532
 Alpha virt. eigenvalues --    0.13612   0.14673   0.16230   0.17342   0.17776
 Alpha virt. eigenvalues --    0.18350   0.19908   0.23105   0.23284   0.24680
 Alpha virt. eigenvalues --    0.25012   0.26685   0.26972   0.27489   0.29181
 Alpha virt. eigenvalues --    0.31070   0.31857   0.33382   0.34039   0.34849
 Alpha virt. eigenvalues --    0.36445   0.38476   0.40923   0.42227   0.42547
 Alpha virt. eigenvalues --    0.46127   0.49340   0.49606   0.51604   0.54833
 Alpha virt. eigenvalues --    0.56860   0.58740   0.60115   0.61218   0.61954
 Alpha virt. eigenvalues --    0.64301   0.68780   0.72609   0.73844   0.77523
 Alpha virt. eigenvalues --    0.78312   0.82676   0.84191   0.87033   0.88672
 Alpha virt. eigenvalues --    0.90763   0.92505   0.92875   0.94408   0.96285
 Alpha virt. eigenvalues --    0.98780   1.04922   1.04985   1.06663   1.09912
 Alpha virt. eigenvalues --    1.09944   1.11080   1.12118   1.14321   1.15191
 Alpha virt. eigenvalues --    1.17049   1.20229   1.21621   1.24563   1.24811
 Alpha virt. eigenvalues --    1.26818   1.31271   1.36157   1.37539   1.39727
 Alpha virt. eigenvalues --    1.44075   1.45615   1.46677   1.49418   1.49898
 Alpha virt. eigenvalues --    1.50641   1.53068   1.56177   1.57347   1.60975
 Alpha virt. eigenvalues --    1.61453   1.62355   1.65567   1.68091   1.69477
 Alpha virt. eigenvalues --    1.72938   1.74837   1.77358   1.80506   1.80806
 Alpha virt. eigenvalues --    1.83458   1.89172   1.89357   1.90881   1.94893
 Alpha virt. eigenvalues --    1.98701   2.03763   2.05783   2.07837   2.11940
 Alpha virt. eigenvalues --    2.15488   2.16071   2.19512   2.20979   2.23435
 Alpha virt. eigenvalues --    2.27484   2.30372   2.51719   2.60787   2.66151
 Alpha virt. eigenvalues --    2.79801   2.86320   2.88754   2.92359   3.08062
 Alpha virt. eigenvalues --    3.09529   3.13738   3.16529   3.18819   3.20001
 Alpha virt. eigenvalues --    3.24136   3.24767   3.28036   3.31655   3.32762
 Alpha virt. eigenvalues --    3.35514   3.40266   3.40774   3.42658   3.50301
 Alpha virt. eigenvalues --    3.50960   3.53070   3.54187   3.54923   3.60950
 Alpha virt. eigenvalues --    3.63475   3.65240   3.70997   3.73384   3.74789
 Alpha virt. eigenvalues --    3.77234   3.79993   3.82713   3.85246   3.89412
 Alpha virt. eigenvalues --    3.89627   3.93869   3.97073   3.98596   3.98964
 Alpha virt. eigenvalues --    4.00162   4.02554   4.04830   4.08938   4.10445
 Alpha virt. eigenvalues --    4.10605   4.12385   4.14504   4.14845   4.16701
 Alpha virt. eigenvalues --    4.19540   4.20262   4.22269   4.24082   4.24551
 Alpha virt. eigenvalues --    4.25390   4.26584   4.30094   4.32045   4.33339
 Alpha virt. eigenvalues --    4.36331   4.37140   4.37943   4.38635   4.39945
 Alpha virt. eigenvalues --    4.42159   4.43224   4.44315   4.47697   4.50303
 Alpha virt. eigenvalues --    4.52016   4.52321   4.57100   4.58371   4.60226
 Alpha virt. eigenvalues --    4.66949   4.69411   4.72352   4.76918   4.80102
 Alpha virt. eigenvalues --    4.81804   4.82376   4.90469   4.91024   4.96972
 Alpha virt. eigenvalues --    5.01321   5.01371   5.03934   5.10579   5.11928
 Alpha virt. eigenvalues --    5.15113   5.16279   5.20834   5.23130   5.26307
 Alpha virt. eigenvalues --    5.27651   5.28699   5.30045   5.32427   5.33440
 Alpha virt. eigenvalues --    5.36124   5.38393   5.46516   5.48653   5.54105
 Alpha virt. eigenvalues --    5.55691   5.57263   5.59712   5.69033   5.71137
 Alpha virt. eigenvalues --    5.75029   5.90618   5.95047   5.98886   5.99227
 Alpha virt. eigenvalues --    6.01064   6.13248   6.15815   6.17891   6.19343
 Alpha virt. eigenvalues --    6.36246   6.36491   6.38096   6.53290   6.58269
 Alpha virt. eigenvalues --    6.81483   7.05380   7.20129   9.11606  11.88322
 Alpha virt. eigenvalues --   12.50941  15.27754  17.15007  18.36674  21.89386
          Condensed to atoms (all electrons):
               1          2          3          4          5          6
     1  O    7.825888  -0.109007   0.349338  -0.077616   0.003856   0.008950
     2  N   -0.109007   6.609037   0.462848  -0.026592   0.529004  -0.032926
     3  C    0.349338   0.462848   4.536839   0.463910  -0.077185  -0.060272
     4  C   -0.077616  -0.026592   0.463910   4.955624  -0.043818   0.504059
     5  C    0.003856   0.529004  -0.077185  -0.043818   4.682777  -0.069157
     6  C    0.008950  -0.032926  -0.060272   0.504059  -0.069157   4.794962
     7  C   -0.000981  -0.057607  -0.055204  -0.045583   0.469494   0.469681
     8  H    0.334457   0.019809  -0.042189   0.016975   0.001728  -0.002687
     9  H    0.005112   0.008445  -0.037619   0.425643  -0.002609  -0.043117
    10  H   -0.000602  -0.042707   0.007013  -0.004629   0.449989   0.010831
    11  H   -0.000205  -0.002282   0.010529  -0.047884   0.010023   0.439779
    12  H    0.000064   0.009373  -0.001054   0.009352  -0.032785  -0.047471
               7          8          9         10         11         12
     1  O   -0.000981   0.334457   0.005112  -0.000602  -0.000205   0.000064
     2  N   -0.057607   0.019809   0.008445  -0.042707  -0.002282   0.009373
     3  C   -0.055204  -0.042189  -0.037619   0.007013   0.010529  -0.001054
     4  C   -0.045583   0.016975   0.425643  -0.004629  -0.047884   0.009352
     5  C    0.469494   0.001728  -0.002609   0.449989   0.010023  -0.032785
     6  C    0.469681  -0.002687  -0.043117   0.010831   0.439779  -0.047471
     7  C    5.036241   0.002124   0.010776  -0.089672  -0.049422   0.420951
     8  H    0.002124   0.483183  -0.001769  -0.000994   0.000154  -0.000090
     9  H    0.010776  -0.001769   0.595013   0.000283  -0.010269   0.000050
    10  H   -0.089672  -0.000994   0.000283   0.616310  -0.000269  -0.004217
    11  H   -0.049422   0.000154  -0.010269  -0.000269   0.604989  -0.009478
    12  H    0.420951  -0.000090   0.000050  -0.004217  -0.009478   0.609870
 Mulliken charges:
               1
     1  O   -0.339255
     2  N   -0.367395
     3  C    0.443046
     4  C   -0.129440
     5  C    0.078683
     6  C    0.027367
     7  C   -0.110798
     8  H    0.189299
     9  H    0.050059
    10  H    0.058663
    11  H    0.054335
    12  H    0.045435
 Sum of Mulliken charges =  -0.00000
 Mulliken charges with hydrogens summed into heavy atoms:
               1
     1  O   -0.149956
     2  N   -0.367395
     3  C    0.443046
     4  C   -0.079381
     5  C    0.137346
     6  C    0.081702
     7  C   -0.065362
 Electronic spatial extent (au):  <R**2>=            624.9200
 Charge=             -0.0000 electrons
 Dipole moment (field-independent basis, Debye):
    X=              0.4919    Y=             -1.0857    Z=             -0.0000  Tot=              1.1919
 Quadrupole moment (field-independent basis, Debye-Ang):
   XX=            -38.7617   YY=            -37.4509   ZZ=            -43.1241
   XY=             -1.9557   XZ=              0.0000   YZ=              0.0000
 Traceless Quadrupole moment (field-independent basis, Debye-Ang):
   XX=              1.0172   YY=              2.3280   ZZ=             -3.3452
   XY=             -1.9557   XZ=              0.0000   YZ=              0.0000
 Octapole moment (field-independent basis, Debye-Ang**2):
  XXX=              6.1194  YYY=              5.4202  ZZZ=              0.0000  XYY=            -10.4896
  XXY=              0.8128  XXZ=              0.0000  XZZ=             -1.3602  YZZ=              5.4230
  YYZ=             -0.0000  XYZ=              0.0000
 Hexadecapole moment (field-independent basis, Debye-Ang**3):
 XXXX=           -274.9352 YYYY=           -467.1571 ZZZZ=            -48.1297 XXXY=              8.7497
 XXXZ=              0.0000 YYYX=            -28.5630 YYYZ=              0.0000 ZZZX=              0.0000
 ZZZY=              0.0000 XXYY=           -113.4762 XXZZ=            -60.4485 YYZZ=            -97.9561
 XXYZ=              0.0000 YYXZ=              0.0000 ZZXY=              0.7801
 N-N= 2.775236709615D+02 E-N=-1.310714677774D+03  KE= 3.229329408946D+02
 Symmetry A'   KE= 3.110503667890D+02
 Symmetry A"   KE= 1.188257410559D+01
 No NMR shielding tensors so no spin-rotation constants.
 Leave Link  601 at Fri Aug 27 00:01:52 2021, MaxMem= 17179869184 cpu:        76.5
 (Enter /public3/home/sc51754/softwares/g09e01/l701.exe)
 Compute integral first derivatives.
 ... and contract with generalized density number  0.
 Leave Link  701 at Fri Aug 27 00:01:53 2021, MaxMem= 17179869184 cpu:        60.1
 (Enter /public3/home/sc51754/softwares/g09e01/l702.exe)
 L702 exits ... SP integral derivatives will be done elsewhere.
 Leave Link  702 at Fri Aug 27 00:01:54 2021, MaxMem= 17179869184 cpu:         0.2
 (Enter /public3/home/sc51754/softwares/g09e01/l703.exe)
 Compute integral first derivatives, UseDBF=F ICtDFT=           0.
 Integral derivatives from FoFJK, PRISM(SPDF).
 Calling FoFJK, ICntrl=      2527 FMM=F ISym2X=1 I1Cent= 0 IOpClX= 0 NMat=1 NMatS=1 NMatT=0.
 FoFJK:  IHMeth= 1 ICntrl=    2527 DoSepK=F KAlg= 0 I1Cent=   0 FoldK=F
 IRaf=         0 NMat=   1 IRICut=       1 DoRegI=T DoRafI=F ISym2E= 1.
 FoFCou: FMM=F IPFlag=           0 FMFlag=      100000 FMFlg1=         800
         NFxFlg=           0 DoJE=F BraDBF=F KetDBF=F FulRan=T
         wScrn=  0.000000 ICntrl=    2527 IOpCl=  0 I1Cent=           0 NGrid=           0
         NMat0=    1 NMatS0=      1 NMatT0=    0 NMatD0=    1 NMtDS0=    0 NMtDT0=    0
 Petite list used in FoFCou.
 Leave Link  703 at Fri Aug 27 00:01:56 2021, MaxMem= 17179869184 cpu:       136.0
 (Enter /public3/home/sc51754/softwares/g09e01/l716.exe)
 Dipole        = 1.93528969D-01-4.27141615D-01-1.66130952D-32
 ***** Axes restored to original set *****
 -------------------------------------------------------------------
 Center     Atomic                   Forces (Hartrees/Bohr)
 Number     Number              X              Y              Z
 -------------------------------------------------------------------
      1        8           0.011770596    0.017894502   -0.000000000
      2        7          -0.016248411    0.006443768   -0.000000000
      3        6           0.006111238   -0.002319201    0.000000000
      4        6           0.008695612    0.005589047    0.000000000
      5        6          -0.011703245   -0.008543117   -0.000000000
      6        6           0.009225266   -0.007752290    0.000000000
      7        6           0.001157965   -0.009901104    0.000000000
      8        1          -0.012671145    0.005110763   -0.000000000
      9        1           0.003928290    0.001890391    0.000000000
     10        1          -0.003817193   -0.001603230   -0.000000000
     11        1           0.003788214   -0.002200077    0.000000000
     12        1          -0.000237187   -0.004609454    0.000000000
 -------------------------------------------------------------------
 Cartesian Forces:  Max     0.017894502 RMS     0.006732417
 Leave Link  716 at Fri Aug 27 00:01:56 2021, MaxMem= 17179869184 cpu:         0.4
 (Enter /public3/home/sc51754/softwares/g09e01/l103.exe)

 GradGradGradGradGradGradGradGradGradGradGradGradGradGradGradGradGradGrad
 Berny optimization.
 FormGI is forming the generalized inverse of G from B-inverse, IUseBI=4.
 Internal  Forces:  Max     0.022997068 RMS     0.007094796
 Search for a local minimum.
 Step number   1 out of a maximum of   61
 All quantities printed in internal units (Hartrees-Bohrs-Radians)
 RMS Force = .70948D-02 SwitMx=.10000D-02 MixMth= 1
 Mixed Optimization -- RFO/linear search
 Second derivative matrix not updated -- first step.
 ITU=  0
     Eigenvalues ---    0.02265   0.02291   0.02312   0.02345   0.02366
     Eigenvalues ---    0.02409   0.02454   0.02466   0.02614   0.16000
     Eigenvalues ---    0.16000   0.16000   0.16000   0.16000   0.22000
     Eigenvalues ---    0.22422   0.24442   0.25000   0.35406   0.35728
     Eigenvalues ---    0.35970   0.35990   0.43621   0.45785   0.48169
     Eigenvalues ---    0.49389   0.54882   0.56881   0.57480   0.60970
 RFO step:  Lambda=-4.82730341D-03 EMin= 2.26525640D-02
 Linear search not attempted -- first point.
 Iteration  1 RMS(Cart)=  0.02478686 RMS(Int)=  0.00004394
 Iteration  2 RMS(Cart)=  0.00005422 RMS(Int)=  0.00000404
 Iteration  3 RMS(Cart)=  0.00000000 RMS(Int)=  0.00000404
 ITry= 1 IFail=0 DXMaxC= 9.75D-02 DCOld= 1.00D+10 DXMaxT= 3.00D-01 DXLimC= 3.00D+00 Rises=F
 ClnCor:  largest displacement from symmetrization is 1.16D-12 for atom    11.
 Variable       Old X    -DE/DX   Delta X   Delta X   Delta X     New X
                                 (Linear)    (Quad)   (Total)
    R1        2.53498   0.02300   0.00000   0.04009   0.04009   2.57507
    R2        1.81937   0.01361   0.00000   0.02458   0.02458   1.84395
    R3        2.48913   0.02095   0.00000   0.03382   0.03383   2.52295
    R4        2.51605   0.01783   0.00000   0.03046   0.03046   2.54651
    R5        2.63173   0.01545   0.00000   0.03279   0.03279   2.66452
    R6        2.59740   0.01679   0.00000   0.03250   0.03249   2.62989
    R7        2.04128   0.00434   0.00000   0.01191   0.01191   2.05319
    R8        2.60360   0.01594   0.00000   0.03181   0.03181   2.63541
    R9        2.05020   0.00414   0.00000   0.01152   0.01152   2.06172
   R10        2.62604   0.01481   0.00000   0.03010   0.03009   2.65613
   R11        2.04509   0.00438   0.00000   0.01210   0.01210   2.05719
   R12        2.04097   0.00462   0.00000   0.01265   0.01265   2.05362
    A1        1.85547   0.00229   0.00000   0.01389   0.01389   1.86936
    A2        2.05525   0.00120   0.00000   0.00877   0.00878   2.06403
    A3        2.05194   0.00115   0.00000   0.00373   0.00373   2.05567
    A4        2.06888   0.00153   0.00000   0.00523   0.00523   2.07411
    A5        2.16236  -0.00268   0.00000  -0.00897  -0.00896   2.15341
    A6        2.04920   0.00116   0.00000   0.00359   0.00360   2.05280
    A7        2.09344  -0.00016   0.00000   0.00074   0.00074   2.09418
    A8        2.14055  -0.00100   0.00000  -0.00434  -0.00434   2.13621
    A9        2.15386  -0.00149   0.00000  -0.00556  -0.00557   2.14829
   A10        2.02490   0.00055   0.00000   0.00160   0.00161   2.02650
   A11        2.10443   0.00094   0.00000   0.00396   0.00396   2.10839
   A12        2.08852   0.00081   0.00000  -0.00000  -0.00001   2.08851
   A13        2.09426  -0.00051   0.00000  -0.00066  -0.00066   2.09361
   A14        2.10040  -0.00029   0.00000   0.00066   0.00067   2.10106
   A15        2.05718   0.00100   0.00000   0.00217   0.00216   2.05934
   A16        2.10510  -0.00046   0.00000  -0.00086  -0.00085   2.10425
   A17        2.12091  -0.00054   0.00000  -0.00131  -0.00131   2.11960
    D1        0.00000   0.00000   0.00000   0.00000  -0.00000   0.00000
    D2        3.14159   0.00000   0.00000   0.00000   0.00000   3.14159
    D3        3.14159  -0.00000   0.00000  -0.00000   0.00000   3.14159
    D4        0.00000   0.00000   0.00000   0.00000   0.00000   0.00000
    D5       -0.00000  -0.00000   0.00000  -0.00000   0.00000   0.00000
    D6        3.14159  -0.00000   0.00000  -0.00000   0.00000   3.14159
    D7        3.14159   0.00000   0.00000   0.00000   0.00000   3.14159
    D8        0.00000   0.00000   0.00000   0.00000  -0.00000   0.00000
    D9       -0.00000   0.00000   0.00000  -0.00000   0.00000   0.00000
   D10        3.14159  -0.00000   0.00000  -0.00000   0.00000   3.14159
   D11        0.00000   0.00000   0.00000   0.00000   0.00000   0.00000
   D12        3.14159  -0.00000   0.00000  -0.00000   0.00000   3.14159
   D13        3.14159   0.00000   0.00000   0.00000   0.00000   3.14159
   D14       -0.00000   0.00000   0.00000  -0.00000   0.00000   0.00000
   D15       -0.00000  -0.00000   0.00000  -0.00000   0.00000   0.00000
   D16        3.14159  -0.00000   0.00000  -0.00000   0.00000   3.14159
   D17        3.14159   0.00000   0.00000   0.00000   0.00000   3.14159
   D18       -0.00000   0.00000   0.00000   0.00000   0.00000   0.00000
   D19        0.00000   0.00000   0.00000   0.00000  -0.00000   0.00000
   D20        3.14159   0.00000   0.00000   0.00000   0.00000   3.14159
   D21        3.14159   0.00000   0.00000   0.00000   0.00000   3.14159
   D22       -0.00000   0.00000   0.00000   0.00000   0.00000   0.00000
         Item               Value     Threshold  Converged?
 Maximum Force            0.022997     0.000450     NO 
 RMS     Force            0.007095     0.000300     NO 
 Maximum Displacement     0.097476     0.001800     NO 
 RMS     Displacement     0.024813     0.001200     NO 
 Predicted change in Energy=-2.436284D-03
 Lowest energy point so far.  Saving SCF results.
 GradGradGradGradGradGradGradGradGradGradGradGradGradGradGradGradGradGrad

 Leave Link  103 at Fri Aug 27 00:01:57 2021, MaxMem= 17179869184 cpu:        50.1
 (Enter /public3/home/sc51754/softwares/g09e01/l202.exe)
                          Input orientation:                          
 ---------------------------------------------------------------------
 Center     Atomic      Atomic             Coordinates (Angstroms)
 Number     Number       Type             X           Y           Z
 ---------------------------------------------------------------------
      1          8           0        0.005154    2.276739   -0.000000
      2          7           0       -1.183935    0.296511   -0.000000
      3          6           0       -0.000267    0.914082   -0.000000
      4          6           0        1.232164    0.229080    0.000000
      5          6           0       -1.200561   -1.050943   -0.000000
      6          6           0        1.196965   -1.162155    0.000000
      7          6           0       -0.041606   -1.826651    0.000000
      8          1           0       -0.926306    2.567465   -0.000000
      9          1           0        2.163998    0.787799    0.000000
     10          1           0       -2.186091   -1.518972   -0.000000
     11          1           0        2.126112   -1.729402    0.000000
     12          1           0       -0.102845   -2.911654    0.000000
 ---------------------------------------------------------------------
                    Distance matrix (angstroms):
                    1          2          3          4          5
     1  O    0.000000
     2  N    2.309813   0.000000
     3  C    1.362668   1.335090   0.000000
     4  C    2.387145   2.417040   1.410005   0.000000
     5  C    3.539381   1.347556   2.302613   2.748929   0.000000
     6  C    3.639561   2.792202   2.396690   1.391680   2.400104
     7  C    4.103657   2.410961   2.741045   2.418372   1.394597
     8  H    0.975777   2.285521   1.895053   3.182301   3.628787
     9  H    2.622508   3.383787   2.167946   1.086499   3.834218
    10  H    4.382804   2.073715   3.270715   3.839291   1.091018
    11  H    4.532950   3.880816   3.392565   2.152858   3.395153
    12  H    5.189517   3.385421   3.827110   3.412691   2.160376
                    6          7          8          9         10
     6  C    0.000000
     7  C    1.405566   0.000000
     8  H    4.291660   4.482294   0.000000
     9  H    2.176574   3.420532   3.566117   0.000000
    10  H    3.401821   2.166445   4.276216   4.923867   0.000000
    11  H    1.088615   2.169898   5.270705   2.517487   4.317334
    12  H    2.179508   1.086729   5.540653   4.338724   2.505888
                   11         12
    11  H    0.000000
    12  H    2.523087   0.000000
 Stoichiometry    C5H5NO
 Framework group  CS[SG(C5H5NO)]
 Deg. of freedom    21
 Full point group                 CS      NOp   2
 RotChk:  IX=0 Diff= 1.18D-03
 Largest Abelian subgroup         CS      NOp   2
 Largest concise Abelian subgroup C1      NOp   1
                         Standard orientation:                         
 ---------------------------------------------------------------------
 Center     Atomic      Atomic             Coordinates (Angstroms)
 Number     Number       Type             X           Y           Z
 ---------------------------------------------------------------------
      1          8           0        0.004287    2.274639   -0.000000
      2          7           0       -1.183154    0.293422   -0.000000
      3          6           0        0.000000    0.911978   -0.000000
      4          6           0        1.233001    0.228002    0.000000
      5          6           0       -1.198659   -1.054044   -0.000000
      6          6           0        1.198959   -1.163262    0.000000
      7          6           0       -0.039059   -1.828789    0.000000
      8          1           0       -0.927415    2.564591   -0.000000
      9          1           0        2.164369    0.787496    0.000000
     10          1           0       -2.183799   -1.522893   -0.000000
     11          1           0        2.128577   -1.729737    0.000000
     12          1           0       -0.099396   -2.913841    0.000000
 ---------------------------------------------------------------------
 Rotational constants (GHZ):      5.7932271      2.7254302      1.8534653
 Leave Link  202 at Fri Aug 27 00:01:57 2021, MaxMem= 17179869184 cpu:         7.3
 (Enter /public3/home/sc51754/softwares/g09e01/l301.exe)
 Basis read from rwf:  (5D, 7F)
 No pseudopotential information found on rwf file.
 There are   223 symmetry adapted cartesian basis functions of A'  symmetry.
 There are    97 symmetry adapted cartesian basis functions of A"  symmetry.
 There are   190 symmetry adapted basis functions of A'  symmetry.
 There are    90 symmetry adapted basis functions of A"  symmetry.
   280 basis functions,   475 primitive gaussians,   320 cartesian basis functions
    25 alpha electrons       25 beta electrons
       nuclear repulsion energy       274.0085444016 Hartrees.
 IExCor=  402 DFT=T Ex=B Corr=LYP ExCW=0 ScaHFX=  0.000000
 ScaDFX=  1.000000  1.000000  1.000000  1.000000 ScalE2=  1.000000  1.000000
 IRadAn=      0 IRanWt=     -1 IRanGd=            0 ICorTp=0 IEmpDi=  4
 NAtoms=   12 NActive=   12 NUniq=   12 SFac= 1.00D+00 NAtFMM=   60 NAOKFM=F Big=F
 Integral buffers will be    131072 words long.
 Raffenetti 2 integral format.
 Two-electron integral symmetry is turned on.
 No density basis found on file   724.
 Leave Link  301 at Fri Aug 27 00:01:57 2021, MaxMem= 17179869184 cpu:         2.2
 (Enter /public3/home/sc51754/softwares/g09e01/l302.exe)
 NPDir=0 NMtPBC=     1 NCelOv=     1 NCel=       1 NClECP=     1 NCelD=      1
         NCelK=      1 NCelE2=     1 NClLst=     1 CellRange=     0.0.
 One-electron integrals computed using PRISM.
 NBasis=   280 RedAO= T EigKep=  2.33D-04  NBF=   190    90
 NBsUse=   280 1.00D-06 EigRej= -1.00D+00 NBFU=   190    90
 Precomputing XC quadrature grid using
 IXCGrd= 4 IRadAn=           0 IRanWt=          -1 IRanGd=           0 AccXCQ= 0.00D+00.
 Generated NRdTot=       0 NPtTot=           0 NUsed=           0 NTot=          32
 NSgBfM=   320   320   320   320   320 MxSgAt=    12 MxSgA2=    12.
 Leave Link  302 at Fri Aug 27 00:01:58 2021, MaxMem= 17179869184 cpu:        45.2
 (Enter /public3/home/sc51754/softwares/g09e01/l303.exe)
 DipDrv:  MaxL=1.
 Leave Link  303 at Fri Aug 27 00:01:59 2021, MaxMem= 17179869184 cpu:        14.9
 (Enter /public3/home/sc51754/softwares/g09e01/l401.exe)
 Initial guess from the checkpoint file:  "HY_BLYP_PC2_OPT_FREQ.chk"
 B after Tr=    -0.000000    0.000000    0.000000
         Rot=    1.000000   -0.000000   -0.000000   -0.000701 Ang=  -0.08 deg.
 Guess basis will be translated and rotated to current coordinates.
 JPrj=2 DoOrth=T DoCkMO=T.
 Initial guess orbital symmetries:
       Occupied  (A') (A') (A') (A') (A') (A') (A') (A') (A') (A')
                 (A') (A') (A') (A') (A') (A') (A') (A") (A') (A')
                 (A') (A") (A") (A') (A")
       Virtual   (A') (A') (A') (A') (A') (A') (A') (A') (A') (A')
                 (A') (A') (A') (A') (A') (A') (A') (A') (A') (A')
                 (A') (A') (A') (A') (A') (A') (A') (A') (A') (A')
                 (A') (A') (A') (A') (A') (A') (A') (A') (A') (A')
                 (A') (A') (A') (A') (A') (A') (A') (A') (A') (A')
                 (A') (A') (A') (A') (A') (A') (A') (A') (A') (A')
                 (A') (A') (A') (A') (A') (A') (A') (A') (A') (A')
                 (A') (A') (A') (A') (A') (A') (A') (A') (A') (A')
                 (A') (A') (A') (A') (A') (A') (A') (A') (A') (A')
                 (A') (A') (A') (A') (A') (A') (A') (A') (A') (A')
                 (A') (A') (A') (A') (A') (A') (A') (A') (A') (A')
                 (A') (A') (A') (A') (A') (A') (A') (A') (A') (A')
                 (A') (A') (A') (A') (A') (A') (A') (A') (A') (A')
                 (A') (A') (A') (A') (A') (A') (A') (A') (A') (A')
                 (A') (A') (A') (A') (A') (A') (A') (A') (A') (A')
                 (A') (A') (A') (A') (A') (A') (A') (A') (A') (A')
                 (A') (A') (A') (A') (A') (A') (A') (A') (A') (A")
                 (A") (A") (A") (A") (A") (A") (A") (A") (A") (A")
                 (A") (A") (A") (A") (A") (A") (A") (A") (A") (A")
                 (A") (A") (A") (A") (A") (A") (A") (A") (A") (A")
                 (A") (A") (A") (A") (A") (A") (A") (A") (A") (A")
                 (A") (A") (A") (A") (A") (A") (A") (A") (A") (A")
                 (A") (A") (A") (A") (A") (A") (A") (A") (A") (A")
                 (A") (A") (A") (A") (A") (A") (A") (A") (A") (A")
                 (A") (A") (A") (A") (A") (A") (A") (A") (A") (A")
                 (A") (A") (A") (A") (A")
 The electronic state of the initial guess is 1-A'.
 Generating alternative initial guess.
 ExpMin= 7.41D-02 ExpMax= 1.48D+04 ExpMxC= 5.05D+02 IAcc=2 IRadAn=         4 AccDes= 0.00D+00
 Harris functional with IExCor=  402 and IRadAn=       4 diagonalized for initial guess.
 HarFok:  IExCor=  402 AccDes= 0.00D+00 IRadAn=         4 IDoV= 1 UseB2=F ITyADJ=14
 ICtDFT=  3500011 ScaDFX=  1.000000  1.000000  1.000000  1.000000
 FoFCou: FMM=F IPFlag=           0 FMFlag=      100000 FMFlg1=           0
         NFxFlg=           0 DoJE=T BraDBF=F KetDBF=T FulRan=T
         wScrn=  0.000000 ICntrl=     500 IOpCl=  0 I1Cent=   200000004 NGrid=           0
         NMat0=    1 NMatS0=      1 NMatT0=    0 NMatD0=    1 NMtDS0=    0 NMtDT0=    0
 Petite list used in FoFCou.
 Harris En= -323.673888477022    
 Leave Link  401 at Fri Aug 27 00:02:00 2021, MaxMem= 17179869184 cpu:        68.3
 (Enter /public3/home/sc51754/softwares/g09e01/l502.exe)
 Closed shell SCF:
 Using DIIS extrapolation, IDIIS=  1040.
 Integral symmetry usage will be decided dynamically.
 Keep J ints in memory in symmetry-blocked form, NReq=1167802198.
 IVT=      348658 IEndB=      348658 NGot= 17179869184 MDV= 16785904737
 LenX= 16785904737 LenY= 16785801896
 Requested convergence on RMS density matrix=1.00D-08 within 128 cycles.
 Requested convergence on MAX density matrix=1.00D-06.
 Requested convergence on             energy=1.00D-06.
 No special actions if energy rises.
 FoFCou: FMM=F IPFlag=           0 FMFlag=           0 FMFlg1=           0
         NFxFlg=           0 DoJE=F BraDBF=F KetDBF=F FulRan=T
         wScrn=  0.000000 ICntrl=     600 IOpCl=  0 I1Cent=           0 NGrid=           0
         NMat0=    1 NMatS0=  39340 NMatT0=    0 NMatD0=    1 NMtDS0=    0 NMtDT0=    0
 Petite list used in FoFCou.
 Integral accuracy reduced to 1.0D-05 until final iterations.

 Cycle   1  Pass 0  IDiag  1:
 E= -323.557604645456    
 DIIS: error= 1.27D-03 at cycle   1 NSaved=   1.
 NSaved= 1 IEnMin= 1 EnMin= -323.557604645456     IErMin= 1 ErrMin= 1.27D-03
 ErrMax= 1.27D-03  0.00D+00 EMaxC= 1.00D-01 BMatC= 6.86D-04 BMatP= 6.86D-04
 IDIUse=3 WtCom= 9.87D-01 WtEn= 1.27D-02
 Coeff-Com:  0.100D+01
 Coeff-En:   0.100D+01
 Coeff:      0.100D+01
 Gap=     0.523 Goal=   None    Shift=    0.000
 GapD=    0.523 DampG=2.000 DampE=1.000 DampFc=2.0000 IDamp=-1.
 RMSDP=1.13D-04 MaxDP=2.85D-03              OVMax= 7.07D-03

 Cycle   2  Pass 0  IDiag  1:
 E= -323.558036580720     Delta-E=       -0.000431935264 Rises=F Damp=F
 DIIS: error= 8.68D-04 at cycle   2 NSaved=   2.
 NSaved= 2 IEnMin= 2 EnMin= -323.558036580720     IErMin= 2 ErrMin= 8.68D-04
 ErrMax= 8.68D-04  0.00D+00 EMaxC= 1.00D-01 BMatC= 1.88D-04 BMatP= 6.86D-04
 IDIUse=3 WtCom= 9.91D-01 WtEn= 8.68D-03
 Coeff-Com:  0.296D+00 0.704D+00
 Coeff-En:   0.000D+00 0.100D+01
 Coeff:      0.293D+00 0.707D+00
 Gap=     0.150 Goal=   None    Shift=    0.000
 RMSDP=7.99D-05 MaxDP=3.80D-03 DE=-4.32D-04 OVMax= 6.77D-03

 Cycle   3  Pass 0  IDiag  1:
 E= -323.558051564470     Delta-E=       -0.000014983749 Rises=F Damp=F
 DIIS: error= 8.40D-04 at cycle   3 NSaved=   3.
 NSaved= 3 IEnMin= 3 EnMin= -323.558051564470     IErMin= 3 ErrMin= 8.40D-04
 ErrMax= 8.40D-04  0.00D+00 EMaxC= 1.00D-01 BMatC= 1.64D-04 BMatP= 1.88D-04
 IDIUse=3 WtCom= 9.92D-01 WtEn= 8.40D-03
 Coeff-Com:  0.653D-01 0.478D+00 0.457D+00
 Coeff-En:   0.000D+00 0.481D+00 0.519D+00
 Coeff:      0.648D-01 0.478D+00 0.457D+00
 Gap=     0.151 Goal=   None    Shift=    0.000
 RMSDP=4.83D-05 MaxDP=2.44D-03 DE=-1.50D-05 OVMax= 6.20D-03

 Cycle   4  Pass 0  IDiag  1:
 E= -323.558180975808     Delta-E=       -0.000129411339 Rises=F Damp=F
 DIIS: error= 3.64D-04 at cycle   4 NSaved=   4.
 NSaved= 4 IEnMin= 4 EnMin= -323.558180975808     IErMin= 4 ErrMin= 3.64D-04
 ErrMax= 3.64D-04  0.00D+00 EMaxC= 1.00D-01 BMatC= 3.27D-05 BMatP= 1.64D-04
 IDIUse=3 WtCom= 9.96D-01 WtEn= 3.64D-03
 Coeff-Com:  0.198D-01 0.289D+00 0.348D+00 0.343D+00
 Coeff-En:   0.000D+00 0.000D+00 0.152D+00 0.848D+00
 Coeff:      0.197D-01 0.288D+00 0.347D+00 0.345D+00
 Gap=     0.151 Goal=   None    Shift=    0.000
 RMSDP=1.59D-05 MaxDP=7.57D-04 DE=-1.29D-04 OVMax= 2.41D-03

 Cycle   5  Pass 0  IDiag  1:
 E= -323.558210647270     Delta-E=       -0.000029671462 Rises=F Damp=F
 DIIS: error= 6.79D-05 at cycle   5 NSaved=   5.
 NSaved= 5 IEnMin= 5 EnMin= -323.558210647270     IErMin= 5 ErrMin= 6.79D-05
 ErrMax= 6.79D-05  0.00D+00 EMaxC= 1.00D-01 BMatC= 7.89D-07 BMatP= 3.27D-05
 IDIUse=1 WtCom= 1.00D+00 WtEn= 0.00D+00
 Coeff-Com:  0.249D-02 0.918D-01 0.134D+00 0.181D+00 0.590D+00
 Coeff:      0.249D-02 0.918D-01 0.134D+00 0.181D+00 0.590D+00
 Gap=     0.151 Goal=   None    Shift=    0.000
 RMSDP=3.36D-06 MaxDP=1.72D-04 DE=-2.97D-05 OVMax= 5.87D-04

 Initial convergence to 1.0D-05 achieved.  Increase integral accuracy.
 Cycle   6  Pass 1  IDiag  1:
 E= -323.558135042733     Delta-E=        0.000075604537 Rises=F Damp=F
 DIIS: error= 4.31D-05 at cycle   1 NSaved=   1.
 NSaved= 1 IEnMin= 1 EnMin= -323.558135042733     IErMin= 1 ErrMin= 4.31D-05
 ErrMax= 4.31D-05  0.00D+00 EMaxC= 1.00D-01 BMatC= 4.59D-07 BMatP= 4.59D-07
 IDIUse=1 WtCom= 1.00D+00 WtEn= 0.00D+00
 Coeff-Com:  0.100D+01
 Coeff:      0.100D+01
 Gap=     0.151 Goal=   None    Shift=    0.000
 RMSDP=3.36D-06 MaxDP=1.72D-04 DE= 7.56D-05 OVMax= 9.30D-04

 Cycle   7  Pass 1  IDiag  1:
 E= -323.558133898932     Delta-E=        0.000001143801 Rises=F Damp=F
 DIIS: error= 8.60D-05 at cycle   2 NSaved=   2.
 NSaved= 2 IEnMin= 1 EnMin= -323.558135042733     IErMin= 1 ErrMin= 4.31D-05
 ErrMax= 8.60D-05  0.00D+00 EMaxC= 1.00D-01 BMatC= 1.49D-06 BMatP= 4.59D-07
 IDIUse=1 WtCom= 1.00D+00 WtEn= 0.00D+00
 Coeff-Com:  0.665D+00 0.335D+00
 Coeff:      0.665D+00 0.335D+00
 Gap=     0.151 Goal=   None    Shift=    0.000
 RMSDP=4.22D-06 MaxDP=2.24D-04 DE= 1.14D-06 OVMax= 8.20D-04

 Cycle   8  Pass 1  IDiag  1:
 E= -323.558135503671     Delta-E=       -0.000001604739 Rises=F Damp=F
 DIIS: error= 2.12D-05 at cycle   3 NSaved=   3.
 NSaved= 3 IEnMin= 3 EnMin= -323.558135503671     IErMin= 3 ErrMin= 2.12D-05
 ErrMax= 2.12D-05  0.00D+00 EMaxC= 1.00D-01 BMatC= 8.94D-08 BMatP= 4.59D-07
 IDIUse=1 WtCom= 1.00D+00 WtEn= 0.00D+00
 Coeff-Com:  0.150D+00 0.196D+00 0.654D+00
 Coeff:      0.150D+00 0.196D+00 0.654D+00
 Gap=     0.151 Goal=   None    Shift=    0.000
 RMSDP=1.38D-06 MaxDP=6.04D-05 DE=-1.60D-06 OVMax= 2.36D-04

 Cycle   9  Pass 1  IDiag  1:
 E= -323.558135545338     Delta-E=       -0.000000041667 Rises=F Damp=F
 DIIS: error= 1.50D-05 at cycle   4 NSaved=   4.
 NSaved= 4 IEnMin= 4 EnMin= -323.558135545338     IErMin= 4 ErrMin= 1.50D-05
 ErrMax= 1.50D-05  0.00D+00 EMaxC= 1.00D-01 BMatC= 6.85D-08 BMatP= 8.94D-08
 IDIUse=1 WtCom= 1.00D+00 WtEn= 0.00D+00
 Coeff-Com:  0.708D-03 0.996D-01 0.529D+00 0.371D+00
 Coeff:      0.708D-03 0.996D-01 0.529D+00 0.371D+00
 Gap=     0.151 Goal=   None    Shift=    0.000
 RMSDP=6.78D-07 MaxDP=3.89D-05 DE=-4.17D-08 OVMax= 8.21D-05

 Cycle  10  Pass 1  IDiag  1:
 E= -323.558135604471     Delta-E=       -0.000000059133 Rises=F Damp=F
 DIIS: error= 2.10D-06 at cycle   5 NSaved=   5.
 NSaved= 5 IEnMin= 5 EnMin= -323.558135604471     IErMin= 5 ErrMin= 2.10D-06
 ErrMax= 2.10D-06  0.00D+00 EMaxC= 1.00D-01 BMatC= 1.25D-09 BMatP= 6.85D-08
 IDIUse=1 WtCom= 1.00D+00 WtEn= 0.00D+00
 Coeff-Com: -0.405D-02 0.546D-01 0.308D+00 0.232D+00 0.410D+00
 Coeff:     -0.405D-02 0.546D-01 0.308D+00 0.232D+00 0.410D+00
 Gap=     0.151 Goal=   None    Shift=    0.000
 RMSDP=1.21D-07 MaxDP=5.47D-06 DE=-5.91D-08 OVMax= 1.13D-05

 Cycle  11  Pass 1  IDiag  1:
 E= -323.558135605641     Delta-E=       -0.000000001170 Rises=F Damp=F
 DIIS: error= 6.19D-07 at cycle   6 NSaved=   6.
 NSaved= 6 IEnMin= 6 EnMin= -323.558135605641     IErMin= 6 ErrMin= 6.19D-07
 ErrMax= 6.19D-07  0.00D+00 EMaxC= 1.00D-01 BMatC= 9.50D-11 BMatP= 1.25D-09
 IDIUse=1 WtCom= 1.00D+00 WtEn= 0.00D+00
 Coeff-Com: -0.228D-02 0.247D-01 0.143D+00 0.111D+00 0.256D+00 0.467D+00
 Coeff:     -0.228D-02 0.247D-01 0.143D+00 0.111D+00 0.256D+00 0.467D+00
 Gap=     0.151 Goal=   None    Shift=    0.000
 RMSDP=2.55D-08 MaxDP=1.16D-06 DE=-1.17D-09 OVMax= 3.41D-06

 Cycle  12  Pass 1  IDiag  1:
 E= -323.558135605704     Delta-E=       -0.000000000063 Rises=F Damp=F
 DIIS: error= 1.98D-07 at cycle   7 NSaved=   7.
 NSaved= 7 IEnMin= 7 EnMin= -323.558135605704     IErMin= 7 ErrMin= 1.98D-07
 ErrMax= 1.98D-07  0.00D+00 EMaxC= 1.00D-01 BMatC= 9.63D-12 BMatP= 9.50D-11
 IDIUse=1 WtCom= 1.00D+00 WtEn= 0.00D+00
 Coeff-Com: -0.937D-03 0.954D-02 0.564D-01 0.450D-01 0.120D+00 0.291D+00
 Coeff-Com:  0.480D+00
 Coeff:     -0.937D-03 0.954D-02 0.564D-01 0.450D-01 0.120D+00 0.291D+00
 Coeff:      0.480D+00
 Gap=     0.151 Goal=   None    Shift=    0.000
[...]
     30  0.603905D-02  0.000000D+00  0.000000D+00 -0.270052D-03  0.000000D+00
     31  0.000000D+00  0.629532D-04 -0.910860D-04  0.000000D+00  0.773565D-03
     32  0.000000D+00  0.653769D-04 -0.488713D-03  0.000000D+00 -0.402289D-03
     33  0.415604D-02  0.000000D+00  0.000000D+00 -0.399271D-03  0.000000D+00
     34  0.000000D+00 -0.136429D-03 -0.262071D-03  0.000000D+00  0.128103D-03
     35  0.000000D+00  0.161877D-03  0.200393D-03  0.000000D+00  0.301944D-03
     36 -0.298905D-01  0.000000D+00  0.000000D+00 -0.205902D-04  0.000000D+00
               26            27            28            29            30 
     26  0.128240D+00
     27  0.000000D+00  0.220336D-01
     28 -0.572773D-04  0.000000D+00  0.286469D+00
     29  0.141366D-03  0.000000D+00  0.104869D+00  0.110724D+00
     30  0.000000D+00 -0.169910D-02  0.000000D+00  0.000000D+00  0.243916D-01
     31  0.331543D-03  0.000000D+00 -0.965660D-03  0.896298D-03  0.000000D+00
     32  0.116244D-02  0.000000D+00 -0.746160D-03  0.420774D-03  0.000000D+00
     33  0.000000D+00 -0.424911D-02  0.000000D+00  0.000000D+00 -0.348635D-03
     34 -0.133523D-02  0.000000D+00  0.602432D-03 -0.628875D-03  0.000000D+00
     35 -0.401071D-03  0.000000D+00  0.376901D-03  0.495160D-03  0.000000D+00
     36  0.000000D+00  0.564946D-03  0.000000D+00  0.000000D+00 -0.301833D-02
               31            32            33            34            35 
     31  0.262855D+00
     32 -0.126806D+00  0.132975D+00
     33  0.000000D+00  0.000000D+00  0.247301D-01
     34  0.104019D-02  0.619317D-03  0.000000D+00  0.545413D-01
     35 -0.286579D-03  0.709186D-03  0.000000D+00  0.162647D-01  0.342465D+00
     36  0.000000D+00  0.000000D+00 -0.331555D-02  0.000000D+00  0.000000D+00
               36 
     36  0.228550D-01
 FormGI is forming the generalized inverse of G from B-inverse, IUseBI=4.
 Leave Link  716 at Fri Aug 27 00:03:15 2021, MaxMem= 17179869184 cpu:        18.4
 (Enter /public3/home/sc51754/softwares/g09e01/l103.exe)

 GradGradGradGradGradGradGradGradGradGradGradGradGradGradGradGradGradGrad
 Berny optimization.
 Red2BG is reusing G-inverse.
 Internal  Forces:  Max     0.000407796 RMS     0.000076491
 Search for a local minimum.
 Step number   1 out of a maximum of    2
 All quantities printed in internal units (Hartrees-Bohrs-Radians)
 Second derivative matrix not updated -- analytic derivatives used.
 ITU=  0
     Eigenvalues ---    0.01268   0.01574   0.01637   0.02054   0.02195
     Eigenvalues ---    0.02603   0.02871   0.03387   0.04084   0.10059
     Eigenvalues ---    0.10682   0.11641   0.12514   0.15094   0.18344
     Eigenvalues ---    0.18881   0.20687   0.22465   0.29592   0.33178
     Eigenvalues ---    0.33822   0.34185   0.34508   0.35068   0.40264
     Eigenvalues ---    0.41580   0.44015   0.47398   0.47546   0.52761
 Angle between quadratic step and forces=  16.73 degrees.
 Linear search not attempted -- first point.
 Iteration  1 RMS(Cart)=  0.00023984 RMS(Int)=  0.00000001
 Iteration  2 RMS(Cart)=  0.00000002 RMS(Int)=  0.00000000
 ITry= 1 IFail=0 DXMaxC= 7.96D-04 DCOld= 1.00D+10 DXMaxT= 3.00D-01 DXLimC= 3.00D+00 Rises=F
 ClnCor:  largest displacement from symmetrization is 1.41D-11 for atom     1.
 Variable       Old X    -DE/DX   Delta X   Delta X   Delta X     New X
                                 (Linear)    (Quad)   (Total)
    R1        2.58374   0.00041   0.00000   0.00124   0.00124   2.58498
    R2        1.84699  -0.00018   0.00000  -0.00042  -0.00042   1.84657
    R3        2.52453  -0.00006   0.00000  -0.00028  -0.00028   2.52425
    R4        2.54973   0.00005   0.00000   0.00013   0.00013   2.54987
    R5        2.65937  -0.00022   0.00000  -0.00065  -0.00065   2.65872
    R6        2.62973   0.00008   0.00000   0.00024   0.00024   2.62997
    R7        2.05290  -0.00003   0.00000  -0.00007  -0.00007   2.05283
    R8        2.63531  -0.00011   0.00000  -0.00021  -0.00021   2.63509
    R9        2.05985   0.00002   0.00000   0.00003   0.00003   2.05988
   R10        2.65364  -0.00006   0.00000  -0.00019  -0.00019   2.65345
   R11        2.05642   0.00000   0.00000  -0.00001  -0.00001   2.05641
   R12        2.05366  -0.00001   0.00000  -0.00000  -0.00000   2.05366
    A1        1.85016   0.00002   0.00000  -0.00008  -0.00008   1.85009
    A2        2.05222   0.00007   0.00000   0.00017   0.00017   2.05239
    A3        2.04776   0.00004   0.00000   0.00008   0.00008   2.04784
    A4        2.07099  -0.00001   0.00000  -0.00016  -0.00016   2.07082
    A5        2.16444  -0.00003   0.00000   0.00008   0.00008   2.16452
    A6        2.04942   0.00002   0.00000   0.00002   0.00002   2.04944
    A7        2.09793  -0.00002   0.00000   0.00000   0.00000   2.09793
    A8        2.13584  -0.00000   0.00000  -0.00003  -0.00003   2.13581
    A9        2.15203  -0.00007   0.00000  -0.00035  -0.00035   2.15169
   A10        2.02058   0.00004   0.00000   0.00010   0.00010   2.02068
   A11        2.11057   0.00004   0.00000   0.00024   0.00024   2.11082
   A12        2.08751  -0.00002   0.00000  -0.00017  -0.00017   2.08734
   A13        2.09301   0.00001   0.00000   0.00010   0.00010   2.09312
   A14        2.10266   0.00000   0.00000   0.00007   0.00007   2.10273
   A15        2.06075   0.00003   0.00000   0.00024   0.00024   2.06099
   A16        2.10383  -0.00004   0.00000  -0.00029  -0.00029   2.10354
   A17        2.11861   0.00001   0.00000   0.00004   0.00004   2.11865
    D1       -0.00000   0.00000   0.00000   0.00000   0.00000   0.00000
    D2        3.14159   0.00000   0.00000   0.00000   0.00000   3.14159
    D3        3.14159   0.00000   0.00000   0.00000   0.00000   3.14159
    D4        0.00000   0.00000   0.00000   0.00000   0.00000   0.00000
    D5        0.00000   0.00000   0.00000   0.00000   0.00000   0.00000
    D6        3.14159  -0.00000   0.00000   0.00000   0.00000   3.14159
    D7        3.14159  -0.00000   0.00000  -0.00000   0.00000   3.14159
    D8       -0.00000  -0.00000   0.00000  -0.00000   0.00000   0.00000
    D9       -0.00000  -0.00000   0.00000  -0.00000   0.00000   0.00000
   D10        3.14159  -0.00000   0.00000  -0.00000   0.00000   3.14159
   D11       -0.00000   0.00000   0.00000   0.00000   0.00000   0.00000
   D12        3.14159   0.00000   0.00000  -0.00000   0.00000   3.14159
   D13        3.14159   0.00000   0.00000   0.00000   0.00000   3.14159
   D14        0.00000   0.00000   0.00000  -0.00000  -0.00000   0.00000
   D15       -0.00000  -0.00000   0.00000  -0.00000   0.00000   0.00000
   D16        3.14159  -0.00000   0.00000  -0.00000   0.00000   3.14159
   D17        3.14159  -0.00000   0.00000  -0.00000   0.00000   3.14159
   D18        0.00000  -0.00000   0.00000  -0.00000   0.00000   0.00000
   D19        0.00000   0.00000   0.00000   0.00000   0.00000   0.00000
   D20        3.14159   0.00000   0.00000   0.00000   0.00000   3.14159
   D21        3.14159   0.00000   0.00000   0.00000   0.00000   3.14159
   D22        0.00000   0.00000   0.00000   0.00000   0.00000   0.00000
         Item               Value     Threshold  Converged?
 Maximum Force            0.000408     0.000450     YES
 RMS     Force            0.000076     0.000300     YES
 Maximum Displacement     0.000796     0.001800     YES
 RMS     Displacement     0.000240     0.001200     YES
 Predicted change in Energy=-4.410765D-07
 Optimization completed.
    -- Stationary point found.
                           ----------------------------
                           !   Optimized Parameters   !
                           ! (Angstroms and Degrees)  !
 --------------------------                            --------------------------
 ! Name  Definition              Value          Derivative Info.                !
 --------------------------------------------------------------------------------
 ! R1    R(1,3)                  1.3673         -DE/DX =    0.0004              !
 ! R2    R(1,8)                  0.9774         -DE/DX =   -0.0002              !
 ! R3    R(2,3)                  1.3359         -DE/DX =   -0.0001              !
 ! R4    R(2,5)                  1.3493         -DE/DX =    0.0001              !
 ! R5    R(3,4)                  1.4073         -DE/DX =   -0.0002              !
 ! R6    R(4,6)                  1.3916         -DE/DX =    0.0001              !
 ! R7    R(4,9)                  1.0863         -DE/DX =    0.0                 !
 ! R8    R(5,7)                  1.3945         -DE/DX =   -0.0001              !
 ! R9    R(5,10)                 1.09           -DE/DX =    0.0                 !
 ! R10   R(6,7)                  1.4042         -DE/DX =   -0.0001              !
 ! R11   R(6,11)                 1.0882         -DE/DX =    0.0                 !
 ! R12   R(7,12)                 1.0867         -DE/DX =    0.0                 !
 ! A1    A(3,1,8)              106.0066         -DE/DX =    0.0                 !
 ! A2    A(3,2,5)              117.5836         -DE/DX =    0.0001              !
 ! A3    A(1,3,2)              117.328          -DE/DX =    0.0                 !
 ! A4    A(1,3,4)              118.6588         -DE/DX =    0.0                 !
 ! A5    A(2,3,4)              124.0132         -DE/DX =    0.0                 !
 ! A6    A(3,4,6)              117.423          -DE/DX =    0.0                 !
 ! A7    A(3,4,9)              120.2026         -DE/DX =    0.0                 !
 ! A8    A(6,4,9)              122.3744         -DE/DX =    0.0                 !
 ! A9    A(2,5,7)              123.3025         -DE/DX =   -0.0001              !
 ! A10   A(2,5,10)             115.7706         -DE/DX =    0.0                 !
 ! A11   A(7,5,10)             120.9269         -DE/DX =    0.0                 !
 ! A12   A(4,6,7)              119.6055         -DE/DX =    0.0                 !
 ! A13   A(4,6,11)             119.9209         -DE/DX =    0.0                 !
 ! A14   A(7,6,11)             120.4737         -DE/DX =    0.0                 !
 ! A15   A(5,7,6)              118.0722         -DE/DX =    0.0                 !
 ! A16   A(5,7,12)             120.5406         -DE/DX =    0.0                 !
 ! A17   A(6,7,12)             121.3871         -DE/DX =    0.0                 !
 ! D1    D(8,1,3,2)              0.0            -DE/DX =    0.0                 !
 ! D2    D(8,1,3,4)            180.0            -DE/DX =    0.0                 !
 ! D3    D(5,2,3,1)            180.0            -DE/DX =    0.0                 !
 ! D4    D(5,2,3,4)              0.0            -DE/DX =    0.0                 !
 ! D5    D(3,2,5,7)              0.0            -DE/DX =    0.0                 !
 ! D6    D(3,2,5,10)           180.0            -DE/DX =    0.0                 !
 ! D7    D(1,3,4,6)            180.0            -DE/DX =    0.0                 !
 ! D8    D(1,3,4,9)              0.0            -DE/DX =    0.0                 !
 ! D9    D(2,3,4,6)              0.0            -DE/DX =    0.0                 !
 ! D10   D(2,3,4,9)            180.0            -DE/DX =    0.0                 !
 ! D11   D(3,4,6,7)              0.0            -DE/DX =    0.0                 !
 ! D12   D(3,4,6,11)           180.0            -DE/DX =    0.0                 !
 ! D13   D(9,4,6,7)            180.0            -DE/DX =    0.0                 !
 ! D14   D(9,4,6,11)             0.0            -DE/DX =    0.0                 !
 ! D15   D(2,5,7,6)              0.0            -DE/DX =    0.0                 !
 ! D16   D(2,5,7,12)           180.0            -DE/DX =    0.0                 !
 ! D17   D(10,5,7,6)           180.0            -DE/DX =    0.0                 !
 ! D18   D(10,5,7,12)            0.0            -DE/DX =    0.0                 !
 ! D19   D(4,6,7,5)              0.0            -DE/DX =    0.0                 !
 ! D20   D(4,6,7,12)           180.0            -DE/DX =    0.0                 !
 ! D21   D(11,6,7,5)           180.0            -DE/DX =    0.0                 !
 ! D22   D(11,6,7,12)            0.0            -DE/DX =    0.0                 !
 --------------------------------------------------------------------------------
 GradGradGradGradGradGradGradGradGradGradGradGradGradGradGradGradGradGrad

 Leave Link  103 at Fri Aug 27 00:03:15 2021, MaxMem= 17179869184 cpu:        25.6
 (Enter /public3/home/sc51754/softwares/g09e01/l9999.exe)
 1\1\GINC-R2613\Freq\RBLYP\Gen\C5H5N1O1\SC51754\27-Aug-2021\0\\#P Geom=
 AllCheck Guess=TCheck SCRF=Check GenChk RBLYP/ChkBas Freq\\HY_BLYP_PC2
 _OPT_FREQ\\0,1\O,0.0073941212,2.2769198906,0.\N,-1.1880119137,0.301530
 4797,0.\C,0.0014636211,0.9096777436,0.\C,1.2333991126,0.2294065985,0.\
 C,-1.1998842555,-1.047678045,0.\C,1.1973516247,-1.1617183484,0.\C,-0.0
 411290601,-1.8235920341,0.\H,-0.9309195291,2.5505045585,0.\H,2.1656504
 133,0.7871286528,0.\H,-2.1856310851,-1.5129327906,0.\H,2.1261414587,-1
 .728770574,0.\H,-0.1030435081,-2.9085761315,0.\\Version=EM64L-G09RevE.
 01\State=1-A'\HF=-323.5582237\RMSD=8.549e-09\RMSF=1.345e-04\ZeroPoint=
 0.0903614\Thermal=0.0957173\Dipole=0.1975089,-0.4746178,0.\DipoleDeriv
 =-0.1755105,0.0863194,0.,0.0841053,-1.5107684,0.,0.,0.,-0.3474781,-0.4
 520796,-0.2871272,0.,0.1688404,-0.7577238,0.,0.,0.,-0.2615289,0.262368
 1,-0.169623,0.,-0.0479054,1.6866118,0.,0.,0.,0.1788317,-0.012554,0.379
 5268,0.,-0.0419346,-0.4097177,0.,0.,0.,-0.1311667,0.419145,0.1385658,0
 .,-0.1957448,0.377748,0.,0.,0.,-0.0177655,0.2477392,0.0596376,0.,0.096
 9757,0.3177278,0.,0.,0.,-0.0968166,-0.387443,-0.1121128,0.,0.0736769,-
 0.054542,0.,0.,0.,-0.1422811,0.1727505,-0.0057064,0.,-0.0725814,0.3725
 186,0.,0.,0.,0.3030735,-0.0284277,-0.0582177,0.,-0.0572449,0.0381698,0
 .,0.,0.,0.1438213,-0.0663455,-0.0961858,0.,-0.0656355,0.0050651,0.,0.,
 0.,0.1037091,-0.0437385,0.0746839,0.,0.0724171,0.033093,0.,0.,0.,0.121
 9653,0.064096,-0.0097606,0.,-0.0149688,-0.0981823,0.,0.,0.,0.1456361\P
 olar=77.2578984,-0.0675345,90.5151149,0.,0.,39.078554\PG=CS [SG(C5H5N1
 O1)]\NImag=0\\0.53592067,-0.09151074,0.41369588,0.,0.,0.03243248,-0.00
 737915,-0.03237208,0.,0.42804505,-0.06096523,-0.05089843,0.,0.11005777
 ,0.57047671,0.,0.,0.00646505,0.,0.,0.08255307,-0.10115101,-0.01166239,
 0.,-0.26869669,-0.04819027,0.,0.64688995,0.03016865,-0.25517520,0.,-0.
 06979224,-0.15474910,0.,-0.02823158,0.64599966,0.,0.,-0.04552964,0.,0.
 ,-0.06500018,0.,0.,0.16716694,0.00023090,0.01337650,0.,-0.05970499,-0.
 02823198,0.,-0.24268354,0.09021528,0.,0.66571026,0.04715526,-0.0402470
 7,0.,0.01406770,0.05373912,0.,0.02926314,-0.14048759,0.,0.05411827,0.6
 7110319,0.,0.,0.00747065,0.,0.,0.01723468,0.,0.,-0.06899033,0.,0.,0.11
 370799,-0.00419673,0.00133948,0.,-0.10953103,-0.00816569,0.,0.01237742
 ,-0.04624095,0.,-0.01431461,0.02189651,0.,0.70417300,0.00777175,0.0009
 7191,0.,0.00539250,-0.30556246,0.,-0.08957990,-0.04536186,0.,0.0296895
 6,-0.04355571,0.,0.03750644,0.61271003,0.,0.,0.00959575,0.,0.,-0.05811
 896,0.,0.,-0.00364420,0.,0.,-0.00428247,0.,0.,0.14444472,-0.00999663,0
 .00352363,0.,-0.01604115,-0.03273326,0.,0.03911998,0.02960049,0.,-0.12
 222391,0.01980406,0.,-0.05862286,0.02699895,0.,0.67268015,-0.00562282,
 0.00636102,0.,-0.02829918,-0.04456012,0.,0.07423570,-0.03079965,0.,-0.
 03067006,-0.33309059,0.,-0.01574991,0.05920846,0.,-0.04249266,0.650962
 23,0.,0.,0.00410300,0.,0.,-0.00685870,0.,0.,0.00221980,0.,0.,-0.053480
 63,0.,0.,0.00735568,0.,0.,0.13197754,0.00724639,-0.00401673,0.,0.03655
 798,0.07172239,0.,-0.06761151,-0.00010250,0.,0.02644726,-0.06480306,0.
 ,-0.25828264,0.05216777,0.,-0.26033764,-0.04675546,0.,0.60563246,-0.00
 201456,-0.00547801,0.,0.02140701,-0.04920836,0.,0.01217219,0.00364002,
 0.,-0.03276673,-0.02518131,0.,0.10965280,-0.17101577,0.,-0.10097627,-0
 .15941423,0.,0.00341657,0.71077987,0.,0.,-0.00168098,0.,0.,0.02069505,
 0.,0.,-0.00790454,0.,0.,0.00646350,0.,0.,-0.06259957,0.,0.,-0.05834176
 ,0.,0.,0.11431574,-0.42278121,0.12167585,0.,-0.00030699,-0.00417929,0.
 ,-0.00333884,0.01178472,0.,0.00278470,-0.00210229,0.,-0.00139398,-0.00
 139322,0.,0.00001067,0.00093948,0.,-0.00059655,-0.00042399,0.,0.425566
 57,0.07501140,-0.06838876,0.,0.00169462,0.00707581,0.,0.05162163,-0.02
 618558,0.,-0.00232452,-0.00678455,0.,-0.00090489,-0.00164609,0.,0.0023
 5210,0.00051561,0.,-0.00099592,0.00103654,0.,-0.12621757,0.09421680,0.
 ,0.,-0.01044038,0.,0.,-0.00339999,0.,0.,0.00082679,0.,0.,0.00330193,0.
 ,0.,-0.00066479,0.,0.,0.00145685,0.,0.,0.00052418,0.,0.,0.00972863,0.0
 0146500,-0.00038452,0.,-0.00493942,0.00317785,0.,-0.01707879,-0.017796
 64,0.,-0.25619209,-0.11680131,0.,0.00042533,0.00217203,0.,0.00427628,0
 .00119579,0.,0.00228424,0.00067101,0.,0.00002582,-0.00004800,0.,0.2689
 0124,-0.00022961,0.00091038,0.,0.00482783,-0.00024312,0.,0.01194257,0.
 01071787,0.,-0.11810326,-0.12421727,0.,0.00027243,-0.00138132,0.,-0.02
 708159,-0.01030243,0.,0.00162106,-0.00477096,0.,-0.00030970,0.00014404
 ,0.,0.12812124,0.12824007,0.,0.,-0.00152883,0.,0.,0.00551254,0.,0.,0.0
 0163031,0.,0.,-0.03114816,0.,0.,-0.00029974,0.,0.,0.00160311,0.,0.,0.0
 0822375,0.,0.,-0.00064329,0.,0.,0.02203358,-0.00014095,-0.00014129,0.,
 0.00509547,-0.00591131,0.,0.00294708,0.00176151,0.,0.00041343,0.000624
 10,0.,-0.27413758,-0.09247528,0.,-0.00286394,0.00410089,0.,-0.01745348
 ,-0.01256571,0.,0.00010328,0.00016431,0.,-0.00006928,-0.00005728,0.,0.
 28646921,-0.00115141,-0.00097821,0.,-0.02971449,-0.02482581,0.,-0.0005
 2005,-0.00393726,0.,0.00001943,-0.00063992,0.,-0.09161301,-0.09100185,
 0.,0.00289931,-0.00154372,0.,0.01515183,0.01084064,0.,-0.00000123,0.00
 030449,0.,-0.00020711,0.00014137,0.,0.10486931,0.11072434,0.,0.,0.0006
 2173,0.,0.,-0.00370250,0.,0.,0.00967763,0.,0.,-0.00072559,0.,0.,-0.038
 00160,0.,0.,0.00703579,0.,0.,0.00603905,0.,0.,-0.00027005,0.,0.,-0.001
 69910,0.,0.,0.02439161,-0.00000505,0.00007883,0.,0.00047635,-0.0005560
 3,0.,0.00190285,-0.00112763,0.,0.00391444,-0.00158940,0.,-0.00364642,-
 0.00415593,0.,-0.24868392,0.11721246,0.,-0.01772419,0.01609309,0.,0.00
 006295,-0.00009109,0.,0.00077357,0.00033154,0.,-0.00096566,0.00089630,
 0.,0.26285488,0.00168060,-0.00073463,0.,-0.00040767,-0.00049363,0.,-0.
 00172186,-0.00468124,0.,0.02714967,-0.01159339,0.,-0.00309222,-0.00076
 518,0.,0.11664208,-0.12796921,0.,-0.01298130,0.01145821,0.,0.00006538,
 -0.00048871,0.,-0.00040229,0.00116244,0.,-0.00074616,0.00042077,0.,-0.
 12680555,0.13297537,0.,0.,-0.00014630,0.,0.,-0.00297903,0.,0.,0.009028
 17,0.,0.,0.00432089,0.,0.,0.00700026,0.,0.,-0.03779754,0.,0.,0.0041560
 4,0.,0.,-0.00039927,0.,0.,-0.00424911,0.,0.,-0.00034863,0.,0.,0.024730
 08,0.00078779,0.00009345,0.,-0.00357542,0.00397506,0.,-0.00267688,-0.0
 0023911,0.,-0.00438186,-0.00163296,0.,0.00715010,0.02590533,0.,0.00268
 297,-0.02809423,0.,-0.05616231,-0.01466539,0.,-0.00013643,-0.00026207,
 0.,0.00012810,-0.00133523,0.,0.00060243,-0.00062888,0.,0.00104019,0.00
 061932,0.,0.05454130,-0.00029329,-0.00003888,0.,0.00313823,-0.00075062
 ,0.,0.00067083,0.00101994,0.,-0.00247218,0.00095509,0.,-0.00490098,-0.
 01260016,0.,0.00146318,-0.00936739,0.,-0.01442464,-0.32268663,0.,0.000
 16188,0.00020039,0.,0.00030194,-0.00040107,0.,0.00037690,0.00049516,0.
 ,-0.00028658,0.00070919,0.,0.01626471,0.34246498,0.,0.,-0.00136253,0.,
 0.,0.00759898,0.,0.,0.00051924,0.,0.,0.00612754,0.,0.,-0.00078508,0.,0
 .,0.00072686,0.,0.,-0.02989046,0.,0.,-0.00002059,0.,0.,0.00056495,0.,0
 .,-0.00301833,0.,0.,-0.00331555,0.,0.,0.02285497\\0.00015962,-0.000449
 00,0.,-0.00014561,-0.00003236,0.,-0.00011550,0.00046961,0.,0.00019574,
 -0.00016893,0.,-0.00000521,0.00016175,0.,0.00003007,0.00011912,0.,-0.0
 0000675,-0.00015025,0.,-0.00018498,0.00003921,0.,0.00002477,0.00000864
 ,0.,0.00002034,0.00000359,0.,0.00000181,0.00001013,0.,0.00002568,-0.00
 001151,0.\\\@


 A great many people think they are thinking when they
 are merely rearranging their prejudices.
                               -- William James
 Job cpu time:       0 days  0 hours 35 minutes 55.4 seconds.
 File lengths (MBytes):  RWF=     80 Int=      0 D2E=      0 Chk=      7 Scr=      1
 Normal termination of Gaussian 09 at Fri Aug 27 00:03:15 2021.
