 Entering Gaussian System, Link 0=g09
 AtFile(1): pc-2.gbs
            -H     0
            S    4   1.00
                  0.754230D+02           0.240650D-02
                  0.113500D+02           0.184870D-01
                  0.259930D+01           0.897420D-01
                  0.735130D+00           0.281110D+00
            S    1   1.00
                  0.231670D+00           0.100000D+01
            S    1   1.00
                  0.741470D-01           0.100000D+01
            P    1   1.00
                  0.160000D+01           0.100000D+01
            P    1   1.00
                  0.450000D+00           0.100000D+01
            D    1   1.00
                  0.125000D+01           0.100000D+01
            ****
            -C     0
            S    7   1.00
                  0.785710D+04           0.568250D-03
                  0.117870D+04           0.439150D-02
                  0.268320D+03           0.225040D-01
                  0.759480D+02           0.866530D-01
                  0.245590D+02           0.244050D+00
                  0.862120D+01           0.441480D+00
                  0.312780D+01           0.353320D+00
            S    7   1.00
                  0.117870D+04          -0.594920D-06
                  0.268320D+03          -0.627480D-04
                  0.759480D+02          -0.757730D-03
                  0.245590D+02          -0.733080D-02
                  0.862120D+01          -0.389320D-01
                  0.312780D+01          -0.889080D-01
                  0.822020D+00           0.216890D+00
            S    1   1.00
                  0.330170D+00           0.100000D+01
            S    1   1.00
                  0.114630D+00           0.100000D+01
            P    4   1.00
                  0.337750D+02           0.602940D-02
                  0.767660D+01           0.432280D-01
                  0.223570D+01           0.163010D+00
                  0.764470D+00           0.365040D+00
            P    1   1.00
                  0.262320D+00           0.100000D+01
            P    1   1.00
                  0.846380D-01           0.100000D+01
            D    1   1.00
                  0.140000D+01           0.100000D+01
            D    1   1.00
                  0.450000D+00           0.100000D+01
            F    1   1.00
                  0.950000D+00           0.100000D+01
            ****
            -N     0
            S    7   1.00
                  0.111010D+05           0.545700D-03
                  0.166530D+04           0.421810D-02
                  0.379080D+03           0.216450D-01
                  0.107300D+03           0.837760D-01
                  0.347470D+02           0.238810D+00
                  0.122490D+02           0.439940D+00
                  0.447430D+01           0.363640D+00
            S    7   1.00
                  0.166530D+04          -0.150060D-05
                  0.379080D+03          -0.587530D-04
                  0.107300D+03          -0.774530D-03
                  0.347470D+02          -0.721610D-02
                  0.122490D+02          -0.393380D-01
                  0.447430D+01          -0.906110D-01
                  0.124040D+01           0.198820D+00
            S    1   1.00
                  0.487430D+00           0.100000D+01
            S    1   1.00
                  0.164840D+00           0.100000D+01
            P    4   1.00
                  0.479340D+02           0.617060D-02
                  0.109990D+02           0.442600D-01
                  0.324720D+01           0.168250D+00
                  0.111140D+01           0.368480D+00
            P    1   1.00
                  0.379880D+00           0.100000D+01
            P    1   1.00
                  0.120680D+00           0.100000D+01
            D    1   1.00
                  0.180000D+01           0.100000D+01
            D    1   1.00
                  0.550000D+00           0.100000D+01
            F    1   1.00
                  0.102000D+01           0.100000D+01
            ****
            -O     0
            S    7   1.00
                  0.147820D+05           0.535190D-03
                  0.221730D+04           0.413750D-02
                  0.504740D+03           0.212450D-01
                  0.142870D+03           0.824530D-01
                  0.463000D+02           0.236710D+00
                  0.163370D+02           0.440390D+00
                  0.598280D+01           0.364650D+00
            S    7   1.00
                  0.221730D+04          -0.192750D-05
                  0.504740D+03          -0.579640D-04
                  0.142870D+03          -0.794940D-03
                  0.463000D+02          -0.731250D-02
                  0.163370D+02          -0.405740D-01
                  0.598280D+01          -0.915940D-01
                  0.167180D+01           0.209400D+00
            S    1   1.00
                  0.646620D+00           0.100000D+01
            S    1   1.00
                  0.216690D+00           0.100000D+01
            P    4   1.00
                  0.604240D+02           0.689490D-02
                  0.139350D+02           0.490050D-01
                  0.415310D+01           0.182550D+00
                  0.141580D+01           0.376330D+00
            P    1   1.00
                  0.475490D+00           0.100000D+01
            P    1   1.00
                  0.145290D+00           0.100000D+01
            D    1   1.00
                  0.220000D+01           0.100000D+01
            D    1   1.00
                  0.650000D+00           0.100000D+01
            F    1   1.00
                  0.110000D+01           0.100000D+01
            ****
 Initial command:
 /public3/home/sc51754/softwares/g09e01/l1.exe "./Gau-47211.inp" -scrdir="./"
 Entering Link 1 = /public3/home/sc51754/softwares/g09e01/l1.exe PID=     47214.
  
 Copyright (c) 1988,1990,1992,1993,1995,1998,2003,2009,2015,
            Gaussian, Inc.  All Rights Reserved.
  
 This is part of the Gaussian(R) 09 program.  It is based on
 the Gaussian(R) 03 system (copyright 2003, Gaussian, Inc.),
 the Gaussian(R) 98 system (copyright 1998, Gaussian, Inc.),
 the Gaussian(R) 94 system (copyright 1995, Gaussian, Inc.),
 the Gaussian 92(TM) system (copyright 1992, Gaussian, Inc.),
 the Gaussian 90(TM) system (copyright 1990, Gaussian, Inc.),
 the Gaussian 88(TM) system (copyright 1988, Gaussian, Inc.),
 the Gaussian 86(TM) system (copyright 1986, Carnegie Mellon
 University), and the Gaussian 82(TM) system (copyright 1983,
 Carnegie Mellon University). Gaussian is a federally registered
 trademark of Gaussian, Inc.
  
 This software contains proprietary and confidential information,
 including trade secrets, belonging to Gaussian, Inc.
  
 This software is provided under written license and may be
 used, copied, transmitted, or stored only in accord with that
 written license.
  
 The following legend is applicable only to US Government
 contracts under FAR:
  
                    RESTRICTED RIGHTS LEGEND
  
 Use, reproduction and disclosure by the US Government is
 subject to restrictions as set forth in subparagraphs (a)
 and (c) of the Commercial Computer Software - Restricted
 Rights clause in FAR 52.227-19.
  
 Gaussian, Inc.
 340 Quinnipiac St., Bldg. 40, Wallingford CT 06492
  
  
 ---------------------------------------------------------------
 Warning -- This program may not be used in any manner that
 competes with the business of Gaussian, Inc. or will provide
 assistance to any competitor of Gaussian, Inc.  The licensee
 of this program is prohibited from giving any competitor of
 Gaussian, Inc. access to this program.  By using this program,
 the user acknowledges that Gaussian, Inc. is engaged in the
 business of creating and licensing software in the field of
 computational chemistry and represents and warrants to the
 licensee that it is not a competitor of Gaussian, Inc. and that
 it will not use this program in any manner prohibited above.
 ---------------------------------------------------------------
  

 Cite this work as:
 Gaussian 09, Revision E.01,
 M. J. Frisch, G. W. Trucks, H. B. Schlegel, G. E. Scuseria, 
 M. A. Robb, J. R. Cheeseman, G. Scalmani, V. Barone, B. Mennucci, 
 G. A. Petersson, H. Nakatsuji, M. Caricato, X. Li, H. P. Hratchian, 
 A. F. Izmaylov, J. Bloino, G. Zheng, J. L. Sonnenberg, M. Hada, 
 M. Ehara, K. Toyota, R. Fukuda, J. Hasegawa, M. Ishida, T. Nakajima, 
 Y. Honda, O. Kitao, H. Nakai, T. Vreven, J. A. Montgomery, Jr., 
 J. E. Peralta, F. Ogliaro, M. Bearpark, J. J. Heyd, E. Brothers, 
 K. N. Kudin, V. N. Staroverov, T. Keith, R. Kobayashi, J. Normand, 
 K. Raghavachari, A. Rendell, J. C. Burant, S. S. Iyengar, J. Tomasi, 
 M. Cossi, N. Rega, J. M. Millam, M. Klene, J. E. Knox, J. B. Cross, 
 V. Bakken, C. Adamo, J. Jaramillo, R. Gomperts, R. E. Stratmann, 
 O. Yazyev, A. J. Austin, R. Cammi, C. Pomelli, J. W. Ochterski, 
 R. L. Martin, K. Morokuma, V. G. Zakrzewski, G. A. Voth, 
 P. Salvador, J. J. Dannenberg, S. Dapprich, A. D. Daniels, 
 O. Farkas, J. B. Foresman, J. V. Ortiz, J. Cioslowski, 
 and D. J. Fox, Gaussian, Inc., Wallingford CT, 2013.
 
 ******************************************
 Gaussian 09:  EM64L-G09RevE.01 30-Nov-2015
                28-Aug-2021 
 ******************************************
 %nprocshared=64
 Will use up to   64 processors via shared memory.
 %mem=128GB
 %chk=TST_GAS_BLYP.chk
 -----------------------------------------------
 #p opt=(calcfc,qst3,MaxCycle=200) freq BLYP/gen
 -----------------------------------------------
 1/5=1,6=200,10=4,14=-1,18=20,26=3,27=203,38=1/1,3;
 2/9=110,12=2,17=6,18=5,40=1/2;
 3/5=7,11=2,16=1,25=1,30=1,71=2,74=402,140=1/1,2,3;
 4//1;
 5/5=2,38=5/2;
 8/6=4,10=90,11=11/1;
 11/6=1,8=1,9=11,15=111,16=1/1,2,10;
 10/6=1,13=1/2;
 6/7=2,8=2,9=2,10=2,28=1/1;
 7/10=1,18=20,25=1/1,2,3,16;
 1/5=1,6=200,10=4,14=-1,18=20,26=3,27=203/3(2);
 2/9=110/2;
 99//99;
 2/9=110/2;
 3/5=7,6=1,11=2,16=1,25=1,30=1,71=1,74=402,82=7/1,2,3;
 4/5=5,16=3,69=1/1;
 5/5=2,38=5/2;
 7//1,2,3,16;
 1/5=1,6=200,14=-1,18=20,26=3,27=203/3(-5);
 2/9=110/2;
 6/7=2,8=2,9=2,10=2,19=2,28=1/1;
 99/9=1/99;
 Leave Link    1 at Sat Aug 28 00:50:25 2021, MaxMem= 17179869184 cpu:         8.5
 (Enter /public3/home/sc51754/softwares/g09e01/l101.exe)
 --------------------
 HY_BLYP_PC2_OPT_FREQ
 --------------------
 Symbolic Z-matrix:
 Charge =  0 Multiplicity = 1
 O                     0.00259   2.27393   0. 
 N                    -1.18799   0.29563   0. 
 C                     0.        0.90668   0. 
 C                     1.23359   0.22942   0. 
 C                    -1.19656  -1.0536    0. 
 C                     1.20094  -1.16179   0. 
 C                    -0.03592  -1.82669   0. 
 H                    -0.93639   2.54523   0. 
 H                     2.16448   0.78942   0. 
 H                    -2.18117  -1.52126   0. 
 H                     2.13111  -1.72657   0. 
 H                    -0.09518  -2.91182   0. 
 
 --------------------
 PY_BLYP_PC2_OPT_FREQ
 --------------------
 Symbolic Z-matrix:
 Charge =  0 Multiplicity = 1
 O                    -0.14146   2.30114   0. 
 N                    -1.14913   0.22666   0. 
 C                     0.        1.07469   0. 
 C                     1.24963   0.32993   0. 
 C                    -1.12462  -1.14241   0. 
 C                     1.27418  -1.04193   0. 
 C                     0.0708   -1.81073   0. 
 H                    -2.03703   0.72313   0. 
 H                     2.16072   0.9214    0. 
 H                    -2.09021  -1.64102   0. 
 H                     2.23161  -1.56134   0. 
 H                     0.09063  -2.89523   0. 
 
 ------------
 TST_GAS_BLYP
 ------------
 Symbolic Z-matrix:
 Charge =  0 Multiplicity = 1
 O                     0.18479   2.63603   0. 
 N                    -1.00578   0.65773   0. 
 C                     0.1822    1.26878   0. 
 C                     1.4158    0.59152   0. 
 C                    -1.01436  -0.69151   0. 
 C                     1.38315  -0.79969   0. 
 C                     0.14628  -1.46459   0. 
 H                    -1.11859   2.18313   0. 
 H                     2.34668   1.15151   0. 
 H                    -1.99897  -1.15917   0. 
 H                     2.31332  -1.36447   0. 
 H                     0.08702  -2.54972   0. 
 
 NAtoms=     12 NQM=       12 NQMF=       0 NMMI=      0 NMMIF=      0
                NMic=       0 NMicF=      0.
                    Isotopes and Nuclear Properties:
 (Nuclear quadrupole moments (NQMom) in fm**2, nuclear magnetic moments (NMagM)
  in nuclear magnetons)

  Atom         1           2           3           4           5           6           7           8           9          10
 IAtWgt=          16          14          12          12          12          12          12           1           1           1
 AtmWgt=  15.9949146  14.0030740  12.0000000  12.0000000  12.0000000  12.0000000  12.0000000   1.0078250   1.0078250   1.0078250
 NucSpn=           0           2           0           0           0           0           0           1           1           1
 AtZEff=   0.0000000   0.0000000   0.0000000   0.0000000   0.0000000   0.0000000   0.0000000   0.0000000   0.0000000   0.0000000
 NQMom=    0.0000000   2.0440000   0.0000000   0.0000000   0.0000000   0.0000000   0.0000000   0.0000000   0.0000000   0.0000000
 NMagM=    0.0000000   0.4037610   0.0000000   0.0000000   0.0000000   0.0000000   0.0000000   2.7928460   2.7928460   2.7928460
 AtZNuc=   8.0000000   7.0000000   6.0000000   6.0000000   6.0000000   6.0000000   6.0000000   1.0000000   1.0000000   1.0000000

  Atom        11          12
 IAtWgt=           1           1
 AtmWgt=   1.0078250   1.0078250
 NucSpn=           1           1
 AtZEff=   0.0000000   0.0000000
 NQMom=    0.0000000   0.0000000
 NMagM=    2.7928460   2.7928460
 AtZNuc=   1.0000000   1.0000000
 Leave Link  101 at Sat Aug 28 00:50:29 2021, MaxMem= 17179869184 cpu:        24.9
 (Enter /public3/home/sc51754/softwares/g09e01/l103.exe)

 GradGradGradGradGradGradGradGradGradGradGradGradGradGradGradGradGradGrad
 Berny optimization.
 Initialization pass.
                           ----------------------------
                           !    Initial Parameters    !
                           ! (Angstroms and Degrees)  !
 --------------------------                            --------------------------
 ! Name  Definition        TS        Reactant  Product Derivative Info.         !
 --------------------------------------------------------------------------------
 ! R1    R(1,3)             1.3673    1.3673    1.2346 calculate D2E/DX2 analyti!
 ! R2    R(1,8)             1.3798    0.9774    2.4664 calculate D2E/DX2 analyti!
 ! R3    R(2,3)             1.3359    1.3359    1.4282 calculate D2E/DX2 analyti!
 ! R4    R(2,5)             1.3493    1.3493    1.3693 calculate D2E/DX2 analyti!
 ! R5    R(2,8)             1.5296    2.2636    1.0173 calculate D2E/DX2 analyti!
 ! R6    R(3,4)             1.4073    1.4073    1.4547 calculate D2E/DX2 analyti!
 ! R7    R(4,6)             1.3916    1.3916    1.3721 calculate D2E/DX2 analyti!
 ! R8    R(4,9)             1.0863    1.0863    1.0862 calculate D2E/DX2 analyti!
 ! R9    R(5,7)             1.3945    1.3945    1.3696 calculate D2E/DX2 analyti!
 ! R10   R(5,10)            1.09      1.09      1.0867 calculate D2E/DX2 analyti!
 ! R11   R(6,7)             1.4042    1.4042    1.428  calculate D2E/DX2 analyti!
 ! R12   R(6,11)            1.0882    1.0882    1.0892 calculate D2E/DX2 analyti!
 ! R13   R(7,12)            1.0867    1.0867    1.0847 calculate D2E/DX2 analyti!
 ! A1    A(3,1,8)          70.73    106.0066   56.8031 calculate D2E/DX2 analyti!
 ! A2    A(3,2,5)         117.5836  117.5836  125.4009 calculate D2E/DX2 analyti!
 ! A3    A(3,2,8)          67.01     56.3991  114.3613 calculate D2E/DX2 analyti!
 ! A4    A(5,2,8)         175.4064  173.9826  120.2377 calculate D2E/DX2 analyti!
 ! A5    A(1,3,2)         117.328   117.328   119.8469 calculate D2E/DX2 analyti!
 ! A6    A(1,3,4)         118.6588  118.6588  127.3739 calculate D2E/DX2 analyti!
 ! A7    A(2,3,4)         124.0132  124.0132  112.7792 calculate D2E/DX2 analyti!
 ! A8    A(3,4,6)         117.423   117.423   121.8193 calculate D2E/DX2 analyti!
 ! A9    A(3,4,9)         120.2026  120.2026  116.2147 calculate D2E/DX2 analyti!
 ! A10   A(6,4,9)         122.3744  122.3744  121.966  calculate D2E/DX2 analyti!
 ! A11   A(2,5,7)         123.3025  123.3025  120.2339 calculate D2E/DX2 analyti!
 ! A12   A(2,5,10)        115.7706  115.7706  116.2854 calculate D2E/DX2 analyti!
 ! A13   A(7,5,10)        120.9268  120.9268  123.4807 calculate D2E/DX2 analyti!
 ! A14   A(4,6,7)         119.6054  119.6054  121.548  calculate D2E/DX2 analyti!
 ! A15   A(4,6,11)        119.9209  119.9209  119.5051 calculate D2E/DX2 analyti!
 ! A16   A(7,6,11)        120.4737  120.4737  118.947  calculate D2E/DX2 analyti!
 ! A17   A(5,7,6)         118.0722  118.0722  118.2187 calculate D2E/DX2 analyti!
 ! A18   A(5,7,12)        120.5407  120.5407  120.2559 calculate D2E/DX2 analyti!
 ! A19   A(6,7,12)        121.3871  121.3871  121.5255 calculate D2E/DX2 analyti!
 ! D1    D(8,1,3,2)         0.0       0.0       0.0    calculate D2E/DX2 analyti!
 ! D2    D(8,1,3,4)       180.0     180.0     180.0    calculate D2E/DX2 analyti!
 ! D3    D(5,2,3,1)       180.0     180.0     180.0    calculate D2E/DX2 analyti!
 ! D4    D(5,2,3,4)         0.0       0.0       0.0    calculate D2E/DX2 analyti!
 ! D5    D(8,2,3,1)         0.0       0.0       0.0    calculate D2E/DX2 analyti!
 ! D6    D(8,2,3,4)       180.0     180.0     180.0    calculate D2E/DX2 analyti!
 ! D7    D(3,2,5,7)         0.0       0.0       0.0    calculate D2E/DX2 analyti!
 ! D8    D(3,2,5,10)      180.0     180.0     180.0    calculate D2E/DX2 analyti!
 ! D9    D(8,2,5,7)       180.0       0.0     180.0    calculate D2E/DX2 analyti!
 ! D10   D(8,2,5,10)        0.0     180.0       0.0    calculate D2E/DX2 analyti!
 ! D11   D(1,3,4,6)       180.0     180.0     180.0    calculate D2E/DX2 analyti!
 ! D12   D(1,3,4,9)         0.0       0.0       0.0    calculate D2E/DX2 analyti!
 ! D13   D(2,3,4,6)         0.0       0.0       0.0    calculate D2E/DX2 analyti!
 ! D14   D(2,3,4,9)       180.0     180.0     180.0    calculate D2E/DX2 analyti!
 ! D15   D(3,4,6,7)         0.0       0.0       0.0    calculate D2E/DX2 analyti!
 ! D16   D(3,4,6,11)      180.0     180.0     180.0    calculate D2E/DX2 analyti!
 ! D17   D(9,4,6,7)       180.0     180.0     180.0    calculate D2E/DX2 analyti!
 ! D18   D(9,4,6,11)        0.0       0.0       0.0    calculate D2E/DX2 analyti!
 ! D19   D(2,5,7,6)         0.0       0.0       0.0    calculate D2E/DX2 analyti!
 ! D20   D(2,5,7,12)      180.0     180.0     180.0    calculate D2E/DX2 analyti!
 ! D21   D(10,5,7,6)      180.0     180.0     180.0    calculate D2E/DX2 analyti!
 ! D22   D(10,5,7,12)       0.0       0.0       0.0    calculate D2E/DX2 analyti!
 ! D23   D(4,6,7,5)         0.0       0.0       0.0    calculate D2E/DX2 analyti!
 ! D24   D(4,6,7,12)      180.0     180.0     180.0    calculate D2E/DX2 analyti!
 ! D25   D(11,6,7,5)      180.0     180.0     180.0    calculate D2E/DX2 analyti!
 ! D26   D(11,6,7,12)       0.0       0.0       0.0    calculate D2E/DX2 analyti!
 --------------------------------------------------------------------------------
 Trust Radius=3.00D-01 FncErr=1.00D-07 GrdErr=1.00D-06
 Number of steps in this run=    100 maximum allowed number of steps=    100.
 Search for a saddle point of order  1.
 GradGradGradGradGradGradGradGradGradGradGradGradGradGradGradGradGradGrad

 Leave Link  103 at Sat Aug 28 00:50:29 2021, MaxMem= 17179869184 cpu:         2.0
 (Enter /public3/home/sc51754/softwares/g09e01/l202.exe)
                          Input orientation:                          
 ---------------------------------------------------------------------
 Center     Atomic      Atomic             Coordinates (Angstroms)
 Number     Number       Type             X           Y           Z
 ---------------------------------------------------------------------
      1          8           0        0.184795    2.636030    0.000000
      2          7           0       -1.005784    0.657727    0.000000
      3          6           0        0.182203    1.268777    0.000000
      4          6           0        1.415796    0.591517    0.000000
      5          6           0       -1.014361   -0.691506    0.000000
      6          6           0        1.383146   -0.799692    0.000000
      7          6           0        0.146285   -1.464588    0.000000
      8          1           0       -1.118590    2.183128    0.000000
      9          1           0        2.346683    1.151514    0.000000
     10          1           0       -1.998969   -1.159167    0.000000
     11          1           0        2.313318   -1.364474    0.000000
     12          1           0        0.087021   -2.549720    0.000000
 ---------------------------------------------------------------------
                    Distance matrix (angstroms):
                    1          2          3          4          5
     1  O    0.000000
     2  N    2.308931   0.000000
     3  C    1.367255   1.335925   0.000000
     4  C    2.386503   2.422485   1.407279   0.000000
     5  C    3.537014   1.349260   2.296622   2.748056   0.000000
     6  C    3.638713   2.798403   2.391825   1.391592   2.399947
     7  C    4.100799   2.414847   2.733601   2.416449   1.394545
     8  H    1.379830   1.529567   1.590000   2.992714   2.876524
     9  H    2.622508   3.388637   2.167654   1.086346   3.833189
    10  H    4.378624   2.070633   3.263805   3.837384   1.090027
    11  H    4.531517   3.886610   3.387575   2.152080   3.395045
    12  H    5.186672   3.388501   3.819683   3.410720   2.160093
                    6          7          8          9         10
     6  C    0.000000
     7  C    1.404248   0.000000
     8  H    3.893058   3.860796   0.000000
     9  H    2.176145   3.418441   3.615569   0.000000
    10  H    3.401165   2.166886   3.456300   4.921782   0.000000
    11  H    1.088209   2.169344   4.935937   2.516209   4.317172
    12  H    2.177737   1.086749   4.883989   4.336497   2.506989
                   11         12
    11  H    0.000000
    12  H    2.522143   0.000000
 Stoichiometry    C5H5NO
 Framework group  CS[SG(C5H5NO)]
 Deg. of freedom    21
 Full point group                 CS      NOp   2
 Largest Abelian subgroup         CS      NOp   2
 Largest concise Abelian subgroup C1      NOp   1
                         Standard orientation:                         
 ---------------------------------------------------------------------
 Center     Atomic      Atomic             Coordinates (Angstroms)
 Number     Number       Type             X           Y           Z
 ---------------------------------------------------------------------
      1          8           0       -0.008225    2.288423   -0.000000
      2          7           0       -1.183116    0.300763   -0.000000
      3          6           0       -0.000000    0.921193   -0.000000
      4          6           0        1.238913    0.253713    0.000000
      5          6           0       -1.181018   -1.048496    0.000000
      6          6           0        1.217270   -1.137710    0.000000
      7          6           0       -0.014292   -1.812371    0.000000
      8          1           0       -1.307986    1.825225   -0.000000
      9          1           0        2.165340    0.821058    0.000000
     10          1           0       -2.161895   -1.523932    0.000000
     11          1           0        2.151881   -1.695116    0.000000
     12          1           0       -0.064969   -2.897938    0.000000
 ---------------------------------------------------------------------
 Rotational constants (GHZ):      5.7286728      2.7785286      1.8710362
 Leave Link  202 at Sat Aug 28 00:50:30 2021, MaxMem= 17179869184 cpu:        13.3
 (Enter /public3/home/sc51754/softwares/g09e01/l301.exe)
 General basis read from cards:  (5D, 7F)
 Centers:       8      9     10     11     12
 S 4 1.00
     Exponent=  7.5423000000D+01 Coefficients=  2.4065000000D-03
     Exponent=  1.1350000000D+01 Coefficients=  1.8487000000D-02
     Exponent=  2.5993000000D+00 Coefficients=  8.9742000000D-02
     Exponent=  7.3513000000D-01 Coefficients=  2.8111000000D-01
 S 1 1.00
     Exponent=  2.3167000000D-01 Coefficients=  1.0000000000D+00
 S 1 1.00
     Exponent=  7.4147000000D-02 Coefficients=  1.0000000000D+00
 P 1 1.00
     Exponent=  1.6000000000D+00 Coefficients=  1.0000000000D+00
 P 1 1.00
     Exponent=  4.5000000000D-01 Coefficients=  1.0000000000D+00
 D 1 1.00
     Exponent=  1.2500000000D+00 Coefficients=  1.0000000000D+00
 ****
 Centers:       3      4      5      6      7
 S 7 1.00
     Exponent=  7.8571000000D+03 Coefficients=  5.6825000000D-04
     Exponent=  1.1787000000D+03 Coefficients=  4.3915000000D-03
     Exponent=  2.6832000000D+02 Coefficients=  2.2504000000D-02
     Exponent=  7.5948000000D+01 Coefficients=  8.6653000000D-02
     Exponent=  2.4559000000D+01 Coefficients=  2.4405000000D-01
     Exponent=  8.6212000000D+00 Coefficients=  4.4148000000D-01
     Exponent=  3.1278000000D+00 Coefficients=  3.5332000000D-01
 S 7 1.00
     Exponent=  1.1787000000D+03 Coefficients= -5.9492000000D-07
     Exponent=  2.6832000000D+02 Coefficients= -6.2748000000D-05
     Exponent=  7.5948000000D+01 Coefficients= -7.5773000000D-04
     Exponent=  2.4559000000D+01 Coefficients= -7.3308000000D-03
     Exponent=  8.6212000000D+00 Coefficients= -3.8932000000D-02
     Exponent=  3.1278000000D+00 Coefficients= -8.8908000000D-02
     Exponent=  8.2202000000D-01 Coefficients=  2.1689000000D-01
 S 1 1.00
     Exponent=  3.3017000000D-01 Coefficients=  1.0000000000D+00
 S 1 1.00
     Exponent=  1.1463000000D-01 Coefficients=  1.0000000000D+00
 P 4 1.00
     Exponent=  3.3775000000D+01 Coefficients=  6.0294000000D-03
     Exponent=  7.6766000000D+00 Coefficients=  4.3228000000D-02
     Exponent=  2.2357000000D+00 Coefficients=  1.6301000000D-01
     Exponent=  7.6447000000D-01 Coefficients=  3.6504000000D-01
 P 1 1.00
     Exponent=  2.6232000000D-01 Coefficients=  1.0000000000D+00
 P 1 1.00
     Exponent=  8.4638000000D-02 Coefficients=  1.0000000000D+00
 D 1 1.00
     Exponent=  1.4000000000D+00 Coefficients=  1.0000000000D+00
 D 1 1.00
     Exponent=  4.5000000000D-01 Coefficients=  1.0000000000D+00
 F 1 1.00
     Exponent=  9.5000000000D-01 Coefficients=  1.0000000000D+00
 ****
 Centers:       2
 S 7 1.00
     Exponent=  1.1101000000D+04 Coefficients=  5.4570000000D-04
     Exponent=  1.6653000000D+03 Coefficients=  4.2181000000D-03
     Exponent=  3.7908000000D+02 Coefficients=  2.1645000000D-02
     Exponent=  1.0730000000D+02 Coefficients=  8.3776000000D-02
     Exponent=  3.4747000000D+01 Coefficients=  2.3881000000D-01
     Exponent=  1.2249000000D+01 Coefficients=  4.3994000000D-01
     Exponent=  4.4743000000D+00 Coefficients=  3.6364000000D-01
 S 7 1.00
     Exponent=  1.6653000000D+03 Coefficients= -1.5006000000D-06
     Exponent=  3.7908000000D+02 Coefficients= -5.8753000000D-05
     Exponent=  1.0730000000D+02 Coefficients= -7.7453000000D-04
     Exponent=  3.4747000000D+01 Coefficients= -7.2161000000D-03
     Exponent=  1.2249000000D+01 Coefficients= -3.9338000000D-02
     Exponent=  4.4743000000D+00 Coefficients= -9.0611000000D-02
     Exponent=  1.2404000000D+00 Coefficients=  1.9882000000D-01
 S 1 1.00
     Exponent=  4.8743000000D-01 Coefficients=  1.0000000000D+00
 S 1 1.00
     Exponent=  1.6484000000D-01 Coefficients=  1.0000000000D+00
 P 4 1.00
     Exponent=  4.7934000000D+01 Coefficients=  6.1706000000D-03
     Exponent=  1.0999000000D+01 Coefficients=  4.4260000000D-02
     Exponent=  3.2472000000D+00 Coefficients=  1.6825000000D-01
     Exponent=  1.1114000000D+00 Coefficients=  3.6848000000D-01
 P 1 1.00
     Exponent=  3.7988000000D-01 Coefficients=  1.0000000000D+00
 P 1 1.00
     Exponent=  1.2068000000D-01 Coefficients=  1.0000000000D+00
 D 1 1.00
     Exponent=  1.8000000000D+00 Coefficients=  1.0000000000D+00
 D 1 1.00
     Exponent=  5.5000000000D-01 Coefficients=  1.0000000000D+00
 F 1 1.00
     Exponent=  1.0200000000D+00 Coefficients=  1.0000000000D+00
 ****
 Centers:       1
 S 7 1.00
     Exponent=  1.4782000000D+04 Coefficients=  5.3519000000D-04
     Exponent=  2.2173000000D+03 Coefficients=  4.1375000000D-03
     Exponent=  5.0474000000D+02 Coefficients=  2.1245000000D-02
     Exponent=  1.4287000000D+02 Coefficients=  8.2453000000D-02
     Exponent=  4.6300000000D+01 Coefficients=  2.3671000000D-01
     Exponent=  1.6337000000D+01 Coefficients=  4.4039000000D-01
     Exponent=  5.9828000000D+00 Coefficients=  3.6465000000D-01
 S 7 1.00
     Exponent=  2.2173000000D+03 Coefficients= -1.9275000000D-06
     Exponent=  5.0474000000D+02 Coefficients= -5.7964000000D-05
     Exponent=  1.4287000000D+02 Coefficients= -7.9494000000D-04
     Exponent=  4.6300000000D+01 Coefficients= -7.3125000000D-03
     Exponent=  1.6337000000D+01 Coefficients= -4.0574000000D-02
     Exponent=  5.9828000000D+00 Coefficients= -9.1594000000D-02
     Exponent=  1.6718000000D+00 Coefficients=  2.0940000000D-01
 S 1 1.00
     Exponent=  6.4662000000D-01 Coefficients=  1.0000000000D+00
 S 1 1.00
     Exponent=  2.1669000000D-01 Coefficients=  1.0000000000D+00
 P 4 1.00
     Exponent=  6.0424000000D+01 Coefficients=  6.8949000000D-03
     Exponent=  1.3935000000D+01 Coefficients=  4.9005000000D-02
     Exponent=  4.1531000000D+00 Coefficients=  1.8255000000D-01
     Exponent=  1.4158000000D+00 Coefficients=  3.7633000000D-01
 P 1 1.00
     Exponent=  4.7549000000D-01 Coefficients=  1.0000000000D+00
 P 1 1.00
     Exponent=  1.4529000000D-01 Coefficients=  1.0000000000D+00
 D 1 1.00
     Exponent=  2.2000000000D+00 Coefficients=  1.0000000000D+00
 D 1 1.00
     Exponent=  6.5000000000D-01 Coefficients=  1.0000000000D+00
 F 1 1.00
     Exponent=  1.1000000000D+00 Coefficients=  1.0000000000D+00
 ****
 Ernie: Thresh=  0.10000D-02 Tol=  0.10000D-05 Strict=F.
 Ernie:  7 primitive shells out of 220 were deleted.
 There are   223 symmetry adapted cartesian basis functions of A'  symmetry.
 There are    97 symmetry adapted cartesian basis functions of A"  symmetry.
 There are   190 symmetry adapted basis functions of A'  symmetry.
 There are    90 symmetry adapted basis functions of A"  symmetry.
   280 basis functions,   475 primitive gaussians,   320 cartesian basis functions
    25 alpha electrons       25 beta electrons
       nuclear repulsion energy       274.3809734529 Hartrees.
 IExCor=  402 DFT=T Ex=B Corr=LYP ExCW=0 ScaHFX=  0.000000
 ScaDFX=  1.000000  1.000000  1.000000  1.000000 ScalE2=  1.000000  1.000000
 IRadAn=      0 IRanWt=     -1 IRanGd=            0 ICorTp=0 IEmpDi=  4
 NAtoms=   12 NActive=   12 NUniq=   12 SFac= 1.00D+00 NAtFMM=   60 NAOKFM=F Big=F
 Integral buffers will be    131072 words long.
 Raffenetti 2 integral format.
 Two-electron integral symmetry is turned on.
 Leave Link  301 at Sat Aug 28 00:50:31 2021, MaxMem= 17179869184 cpu:        13.8
 (Enter /public3/home/sc51754/softwares/g09e01/l302.exe)
 NPDir=0 NMtPBC=     1 NCelOv=     1 NCel=       1 NClECP=     1 NCelD=      1
         NCelK=      1 NCelE2=     1 NClLst=     1 CellRange=     0.0.
 One-electron integrals computed using PRISM.
 NBasis=   280 RedAO= T EigKep=  2.33D-04  NBF=   190    90
 NBsUse=   280 1.00D-06 EigRej= -1.00D+00 NBFU=   190    90
 Precomputing XC quadrature grid using
 IXCGrd= 4 IRadAn=           0 IRanWt=          -1 IRanGd=           0 AccXCQ= 0.00D+00.
 Generated NRdTot=       0 NPtTot=           0 NUsed=           0 NTot=          32
 NSgBfM=   320   320   320   320   320 MxSgAt=    12 MxSgA2=    12.
 Leave Link  302 at Sat Aug 28 00:50:34 2021, MaxMem= 17179869184 cpu:        92.9
 (Enter /public3/home/sc51754/softwares/g09e01/l303.exe)
 DipDrv:  MaxL=1.
 Leave Link  303 at Sat Aug 28 00:50:35 2021, MaxMem= 17179869184 cpu:        39.8
 (Enter /public3/home/sc51754/softwares/g09e01/l401.exe)
 ExpMin= 7.41D-02 ExpMax= 1.48D+04 ExpMxC= 5.05D+02 IAcc=2 IRadAn=         4 AccDes= 0.00D+00
 Harris functional with IExCor=  402 and IRadAn=       4 diagonalized for initial guess.
 HarFok:  IExCor=  402 AccDes= 0.00D+00 IRadAn=         4 IDoV= 1 UseB2=F ITyADJ=14
 ICtDFT=  3500011 ScaDFX=  1.000000  1.000000  1.000000  1.000000
 FoFCou: FMM=F IPFlag=           0 FMFlag=      100000 FMFlg1=           0
         NFxFlg=           0 DoJE=T BraDBF=F KetDBF=T FulRan=T
         wScrn=  0.000000 ICntrl=     500 IOpCl=  0 I1Cent=   200000004 NGrid=           0
         NMat0=    1 NMatS0=      1 NMatT0=    0 NMatD0=    1 NMtDS0=    0 NMtDT0=    0
 Petite list used in FoFCou.
 Harris En= -323.599098269825    
 JPrj=0 DoOrth=F DoCkMO=F.
 Initial guess orbital symmetries:
       Occupied  (A') (A') (A') (A') (A') (A') (A') (A') (A') (A')
                 (A') (A') (A') (A') (A') (A') (A') (A') (A") (A')
                 (A") (A') (A') (A") (A")
       Virtual   (A") (A") (A') (A') (A") (A') (A') (A') (A') (A')
                 (A') (A') (A") (A') (A') (A") (A") (A') (A') (A')
                 (A') (A') (A") (A') (A") (A') (A') (A') (A') (A')
                 (A') (A') (A") (A") (A') (A') (A') (A') (A') (A')
                 (A') (A') (A') (A") (A') (A') (A") (A') (A") (A')
                 (A") (A') (A') (A") (A') (A") (A") (A') (A') (A')
                 (A') (A") (A') (A') (A") (A') (A') (A") (A') (A")
                 (A') (A") (A") (A') (A") (A') (A') (A") (A') (A")
                 (A') (A") (A') (A') (A") (A') (A") (A') (A') (A")
                 (A') (A") (A') (A') (A') (A') (A') (A") (A') (A')
                 (A') (A') (A") (A') (A') (A') (A") (A') (A') (A')
                 (A') (A") (A') (A') (A') (A') (A") (A') (A') (A')
                 (A') (A") (A') (A") (A') (A") (A') (A") (A") (A')
                 (A") (A") (A') (A') (A") (A') (A') (A') (A") (A')
                 (A') (A') (A') (A") (A') (A") (A") (A') (A') (A')
                 (A') (A') (A') (A") (A") (A") (A") (A') (A') (A")
                 (A') (A") (A") (A') (A') (A") (A') (A') (A') (A")
                 (A') (A") (A") (A') (A') (A') (A") (A") (A") (A")
                 (A') (A") (A') (A') (A") (A") (A') (A") (A') (A")
                 (A") (A') (A") (A') (A') (A') (A") (A") (A') (A")
                 (A') (A') (A") (A") (A') (A') (A') (A") (A') (A')
                 (A') (A") (A') (A") (A') (A') (A") (A') (A') (A")
                 (A") (A') (A') (A') (A") (A') (A') (A') (A") (A')
                 (A') (A") (A') (A') (A') (A') (A') (A') (A") (A')
                 (A') (A') (A") (A') (A') (A') (A') (A') (A') (A')
                 (A') (A') (A') (A') (A')
 The electronic state of the initial guess is 1-A'.
 Leave Link  401 at Sat Aug 28 00:50:37 2021, MaxMem= 17179869184 cpu:        58.1
 (Enter /public3/home/sc51754/softwares/g09e01/l502.exe)
 Closed shell SCF:
 Using DIIS extrapolation, IDIIS=  1040.
 Integral symmetry usage will be decided dynamically.
 Keep J ints in memory in symmetry-blocked form, NReq=1167802198.
 IVT=      348658 IEndB=      348658 NGot= 17179869184 MDV= 16785904737
 LenX= 16785904737 LenY= 16785801896
 Requested convergence on RMS density matrix=1.00D-08 within 128 cycles.
 Requested convergence on MAX density matrix=1.00D-06.
 Requested convergence on             energy=1.00D-06.
 No special actions if energy rises.
 FoFCou: FMM=F IPFlag=           0 FMFlag=           0 FMFlg1=           0
         NFxFlg=           0 DoJE=F BraDBF=F KetDBF=F FulRan=T
         wScrn=  0.000000 ICntrl=     600 IOpCl=  0 I1Cent=           0 NGrid=           0
         NMat0=    1 NMatS0=  39340 NMatT0=    0 NMatD0=    1 NMtDS0=    0 NMtDT0=    0
 Petite list used in FoFCou.
 Integral accuracy reduced to 1.0D-05 until final iterations.

 Cycle   1  Pass 0  IDiag  1:
 E= -323.325659357468    
 DIIS: error= 2.47D-02 at cycle   1 NSaved=   1.
 NSaved= 1 IEnMin= 1 EnMin= -323.325659357468     IErMin= 1 ErrMin= 2.47D-02
 ErrMax= 2.47D-02  0.00D+00 EMaxC= 1.00D-01 BMatC= 1.72D-01 BMatP= 1.72D-01
 IDIUse=3 WtCom= 7.53D-01 WtEn= 2.47D-01
 Coeff-Com:  0.100D+01
 Coeff-En:   0.100D+01
 Coeff:      0.100D+01
 Gap=     0.074 Goal=   None    Shift=    0.000
 GapD=    0.074 DampG=0.500 DampE=0.500 DampFc=0.2500 IDamp=-1.
 Damping current iteration by 2.50D-01
 RMSDP=3.62D-03 MaxDP=1.43D-01              OVMax= 2.78D-01

 Cycle   2  Pass 0  IDiag  1:
 E= -323.377681187766     Delta-E=       -0.052021830298 Rises=F Damp=T
 DIIS: error= 1.29D-02 at cycle   2 NSaved=   2.
 NSaved= 2 IEnMin= 2 EnMin= -323.377681187766     IErMin= 2 ErrMin= 1.29D-02
 ErrMax= 1.29D-02  0.00D+00 EMaxC= 1.00D-01 BMatC= 2.60D-02 BMatP= 1.72D-01
 IDIUse=3 WtCom= 8.71D-01 WtEn= 1.29D-01
 Coeff-Com: -0.239D+00 0.124D+01
 Coeff-En:   0.853D-01 0.915D+00
 Coeff:     -0.197D+00 0.120D+01
 Gap=     0.153 Goal=   None    Shift=    0.000
 RMSDP=1.27D-03 MaxDP=4.75D-02 DE=-5.20D-02 OVMax= 2.78D-01

 Cycle   3  Pass 0  IDiag  1:
 E= -323.387208128355     Delta-E=       -0.009526940589 Rises=F Damp=F
 DIIS: error= 1.99D-02 at cycle   3 NSaved=   3.
 NSaved= 3 IEnMin= 3 EnMin= -323.387208128355     IErMin= 2 ErrMin= 1.29D-02
 ErrMax= 1.99D-02  0.00D+00 EMaxC= 1.00D-01 BMatC= 1.15D-01 BMatP= 2.60D-02
 IDIUse=2 WtCom= 0.00D+00 WtEn= 1.00D+00
 Coeff-En:   0.000D+00 0.464D+00 0.536D+00
 Coeff:      0.000D+00 0.464D+00 0.536D+00
 Gap=     0.108 Goal=   None    Shift=    0.000
 RMSDP=2.23D-03 MaxDP=9.60D-02 DE=-9.53D-03 OVMax= 3.62D-01

 Cycle   4  Pass 0  IDiag  1:
 E= -323.136959597676     Delta-E=        0.250248530679 Rises=F Damp=F
 DIIS: error= 3.84D-02 at cycle   4 NSaved=   4.
 NSaved= 4 IEnMin= 3 EnMin= -323.387208128355     IErMin= 2 ErrMin= 1.29D-02
 ErrMax= 3.84D-02  0.00D+00 EMaxC= 1.00D-01 BMatC= 4.14D-01 BMatP= 2.60D-02
 IDIUse=2 WtCom= 0.00D+00 WtEn= 1.00D+00
 EnCoef did     2 forward-backward iterations
 Coeff-En:   0.428D-01 0.000D+00 0.660D+00 0.297D+00
 Coeff:      0.428D-01 0.000D+00 0.660D+00 0.297D+00
 Gap=     0.124 Goal=   None    Shift=    0.000
 RMSDP=1.30D-03 MaxDP=6.58D-02 DE= 2.50D-01 OVMax= 2.27D-01

 Cycle   5  Pass 0  IDiag  1:
 E= -323.471377821791     Delta-E=       -0.334418224115 Rises=F Damp=F
 DIIS: error= 9.81D-03 at cycle   5 NSaved=   5.
 NSaved= 5 IEnMin= 5 EnMin= -323.471377821791     IErMin= 5 ErrMin= 9.81D-03
 ErrMax= 9.81D-03  0.00D+00 EMaxC= 1.00D-01 BMatC= 2.11D-02 BMatP= 2.60D-02
 IDIUse=3 WtCom= 9.02D-01 WtEn= 9.81D-02
 Coeff-Com: -0.173D+00 0.388D+00 0.299D+00 0.817D-02 0.477D+00
 Coeff-En:   0.000D+00 0.000D+00 0.224D+00 0.000D+00 0.776D+00
 Coeff:     -0.156D+00 0.350D+00 0.292D+00 0.736D-02 0.506D+00
 Gap=     0.128 Goal=   None    Shift=    0.000
 RMSDP=4.61D-04 MaxDP=2.47D-02 DE=-3.34D-01 OVMax= 5.88D-02

 Cycle   6  Pass 0  IDiag  1:
 E= -323.488168330461     Delta-E=       -0.016790508670 Rises=F Damp=F
 DIIS: error= 4.29D-03 at cycle   6 NSaved=   6.
 NSaved= 6 IEnMin= 6 EnMin= -323.488168330461     IErMin= 6 ErrMin= 4.29D-03
 ErrMax= 4.29D-03  0.00D+00 EMaxC= 1.00D-01 BMatC= 3.17D-03 BMatP= 2.11D-02
 IDIUse=3 WtCom= 9.57D-01 WtEn= 4.29D-02
 Coeff-Com: -0.151D+00 0.237D+00 0.147D+00-0.452D-01 0.442D+00 0.369D+00
 Coeff-En:   0.000D+00 0.000D+00 0.000D+00 0.000D+00 0.890D-01 0.911D+00
 Coeff:     -0.144D+00 0.227D+00 0.141D+00-0.433D-01 0.426D+00 0.393D+00
 Gap=     0.132 Goal=   None    Shift=    0.000
 RMSDP=1.74D-04 MaxDP=6.47D-03 DE=-1.68D-02 OVMax= 2.89D-02

 Cycle   7  Pass 0  IDiag  1:
 E= -323.491423897989     Delta-E=       -0.003255567528 Rises=F Damp=F
 DIIS: error= 5.73D-04 at cycle   7 NSaved=   7.
 NSaved= 7 IEnMin= 7 EnMin= -323.491423897989     IErMin= 7 ErrMin= 5.73D-04
 ErrMax= 5.73D-04  0.00D+00 EMaxC= 1.00D-01 BMatC= 9.18D-05 BMatP= 3.17D-03
 IDIUse=3 WtCom= 9.94D-01 WtEn= 5.73D-03
 Coeff-Com: -0.587D-01 0.852D-01 0.565D-01-0.189D-01 0.186D+00 0.223D+00
 Coeff-Com:  0.527D+00
 Coeff-En:   0.000D+00 0.000D+00 0.000D+00 0.000D+00 0.000D+00 0.000D+00
 Coeff-En:   0.100D+01
 Coeff:     -0.584D-01 0.847D-01 0.562D-01-0.188D-01 0.185D+00 0.222D+00
 Coeff:      0.530D+00
 Gap=     0.131 Goal=   None    Shift=    0.000
 RMSDP=3.60D-05 MaxDP=1.56D-03 DE=-3.26D-03 OVMax= 6.91D-03

 Cycle   8  Pass 0  IDiag  1:
 E= -323.491506162536     Delta-E=       -0.000082264547 Rises=F Damp=F
 DIIS: error= 2.56D-04 at cycle   8 NSaved=   8.
 NSaved= 8 IEnMin= 8 EnMin= -323.491506162536     IErMin= 8 ErrMin= 2.56D-04
 ErrMax= 2.56D-04  0.00D+00 EMaxC= 1.00D-01 BMatC= 1.52D-05 BMatP= 9.18D-05
 IDIUse=3 WtCom= 9.97D-01 WtEn= 2.56D-03
 Coeff-Com: -0.311D-02 0.108D-02 0.425D-02-0.141D-02 0.181D-01 0.594D-01
 Coeff-Com:  0.374D+00 0.547D+00
 Coeff-En:   0.000D+00 0.000D+00 0.000D+00 0.000D+00 0.000D+00 0.000D+00
 Coeff-En:   0.152D+00 0.848D+00
 Coeff:     -0.311D-02 0.108D-02 0.424D-02-0.141D-02 0.180D-01 0.592D-01
 Coeff:      0.374D+00 0.548D+00
 Gap=     0.131 Goal=   None    Shift=    0.000
 RMSDP=1.07D-05 MaxDP=5.38D-04 DE=-8.23D-05 OVMax= 1.82D-03

 Cycle   9  Pass 0  IDiag  1:
 E= -323.491520993747     Delta-E=       -0.000014831211 Rises=F Damp=F
 DIIS: error= 4.10D-05 at cycle   9 NSaved=   9.
 NSaved= 9 IEnMin= 9 EnMin= -323.491520993747     IErMin= 9 ErrMin= 4.10D-05
 ErrMax= 4.10D-05  0.00D+00 EMaxC= 1.00D-01 BMatC= 3.19D-07 BMatP= 1.52D-05
 IDIUse=1 WtCom= 1.00D+00 WtEn= 0.00D+00
 Coeff-Com: -0.110D-02 0.751D-03 0.128D-02-0.610D-03 0.585D-02 0.258D-01
 Coeff-Com:  0.171D+00 0.272D+00 0.525D+00
 Coeff:     -0.110D-02 0.751D-03 0.128D-02-0.610D-03 0.585D-02 0.258D-01
 Coeff:      0.171D+00 0.272D+00 0.525D+00
 Gap=     0.131 Goal=   None    Shift=    0.000
 RMSDP=2.43D-06 MaxDP=1.03D-04 DE=-1.48D-05 OVMax= 3.39D-04

 Initial convergence to 1.0D-05 achieved.  Increase integral accuracy.
 Cycle  10  Pass 1  IDiag  1:
 E= -323.491483165697     Delta-E=        0.000037828050 Rises=F Damp=F
 DIIS: error= 5.00D-05 at cycle   1 NSaved=   1.
 NSaved= 1 IEnMin= 1 EnMin= -323.491483165697     IErMin= 1 ErrMin= 5.00D-05
 ErrMax= 5.00D-05  0.00D+00 EMaxC= 1.00D-01 BMatC= 3.80D-07 BMatP= 3.80D-07
 IDIUse=1 WtCom= 1.00D+00 WtEn= 0.00D+00
 Coeff-Com:  0.100D+01
 Coeff:      0.100D+01
 Gap=     0.131 Goal=   None    Shift=    0.000
 RMSDP=2.43D-06 MaxDP=1.03D-04 DE= 3.78D-05 OVMax= 7.02D-04

 Cycle  11  Pass 1  IDiag  1:
 E= -323.491482683136     Delta-E=        0.000000482561 Rises=F Damp=F
 DIIS: error= 1.03D-04 at cycle   2 NSaved=   2.
 NSaved= 2 IEnMin= 1 EnMin= -323.491483165697     IErMin= 1 ErrMin= 5.00D-05
 ErrMax= 1.03D-04  0.00D+00 EMaxC= 1.00D-01 BMatC= 8.64D-07 BMatP= 3.80D-07
 IDIUse=3 WtCom= 4.96D-01 WtEn= 5.04D-01
 Coeff-Com:  0.630D+00 0.370D+00
 Coeff-En:   0.684D+00 0.316D+00
 Coeff:      0.657D+00 0.343D+00
 Gap=     0.131 Goal=   None    Shift=    0.000
 RMSDP=3.38D-06 MaxDP=1.44D-04 DE= 4.83D-07 OVMax= 6.57D-04

 Cycle  12  Pass 1  IDiag  1:
 E= -323.491483523396     Delta-E=       -0.000000840260 Rises=F Damp=F
 DIIS: error= 3.40D-05 at cycle   3 NSaved=   3.
 NSaved= 3 IEnMin= 3 EnMin= -323.491483523396     IErMin= 3 ErrMin= 3.40D-05
 ErrMax= 3.40D-05  0.00D+00 EMaxC= 1.00D-01 BMatC= 1.05D-07 BMatP= 3.80D-07
 IDIUse=1 WtCom= 1.00D+00 WtEn= 0.00D+00
 Coeff-Com:  0.104D+00 0.244D+00 0.651D+00
 Coeff:      0.104D+00 0.244D+00 0.651D+00
 Gap=     0.131 Goal=   None    Shift=    0.000
 RMSDP=1.53D-06 MaxDP=5.32D-05 DE=-8.40D-07 OVMax= 2.76D-04

 Cycle  13  Pass 1  IDiag  1:
 E= -323.491483535445     Delta-E=       -0.000000012049 Rises=F Damp=F
 DIIS: error= 2.26D-05 at cycle   4 NSaved=   4.
 NSaved= 4 IEnMin= 4 EnMin= -323.491483535445     IErMin= 4 ErrMin= 2.26D-05
 ErrMax= 2.26D-05  0.00D+00 EMaxC= 1.00D-01 BMatC= 1.28D-07 BMatP= 1.05D-07
 IDIUse=1 WtCom= 1.00D+00 WtEn= 0.00D+00
 Coeff-Com:  0.591D-02 0.162D+00 0.558D+00 0.274D+00
 Coeff:      0.591D-02 0.162D+00 0.558D+00 0.274D+00
 Gap=     0.131 Goal=   None    Shift=    0.000
 RMSDP=8.35D-07 MaxDP=4.17D-05 DE=-1.20D-08 OVMax= 1.04D-04

 Cycle  14  Pass 1  IDiag  1:
 E= -323.491483638173     Delta-E=       -0.000000102727 Rises=F Damp=F
 DIIS: error= 3.07D-06 at cycle   5 NSaved=   5.
 NSaved= 5 IEnMin= 5 EnMin= -323.491483638173     IErMin= 5 ErrMin= 3.07D-06
 ErrMax= 3.07D-06  0.00D+00 EMaxC= 1.00D-01 BMatC= 3.63D-09 BMatP= 1.05D-07
 IDIUse=1 WtCom= 1.00D+00 WtEn= 0.00D+00
 Coeff-Com: -0.371D-02 0.920D-01 0.337D+00 0.188D+00 0.386D+00
 Coeff:     -0.371D-02 0.920D-01 0.337D+00 0.188D+00 0.386D+00
 Gap=     0.131 Goal=   None    Shift=    0.000
 RMSDP=1.66D-07 MaxDP=6.32D-06 DE=-1.03D-07 OVMax= 1.78D-05

 Cycle  15  Pass 1  IDiag  1:
 E= -323.491483641399     Delta-E=       -0.000000003226 Rises=F Damp=F
 DIIS: error= 4.23D-07 at cycle   6 NSaved=   6.
 NSaved= 6 IEnMin= 6 EnMin= -323.491483641399     IErMin= 6 ErrMin= 4.23D-07
 ErrMax= 4.23D-07  0.00D+00 EMaxC= 1.00D-01 BMatC= 8.42D-11 BMatP= 3.63D-09
 IDIUse=1 WtCom= 1.00D+00 WtEn= 0.00D+00
 Coeff-Com: -0.189D-02 0.381D-01 0.141D+00 0.818D-01 0.195D+00 0.545D+00
 Coeff:     -0.189D-02 0.381D-01 0.141D+00 0.818D-01 0.195D+00 0.545D+00
 Gap=     0.131 Goal=   None    Shift=    0.000
 RMSDP=2.92D-08 MaxDP=1.95D-06 DE=-3.23D-09 OVMax= 3.37D-06

 Cycle  16  Pass 1  IDiag  1:
 E= -323.491483641461     Delta-E=       -0.000000000062 Rises=F Damp=F
 DIIS: error= 2.38D-07 at cycle   7 NSaved=   7.
 NSaved= 7 IEnMin= 7 EnMin= -323.491483641461     IErMin= 7 ErrMin= 2.38D-07
 ErrMax= 2.38D-07  0.00D+00 EMaxC= 1.00D-01 BMatC= 2.01D-11 BMatP= 8.42D-11
 IDIUse=1 WtCom= 1.00D+00 WtEn= 0.00D+00
 Coeff-Com: -0.976D-03 0.159D-01 0.593D-01 0.349D-01 0.855D-01 0.355D+00
 Coeff-Com:  0.450D+00
 Coeff:     -0.976D-03 0.159D-01 0.593D-01 0.349D-01 0.855D-01 0.355D+00
 Coeff:      0.450D+00
 Gap=     0.131 Goal=   None    Shift=    0.000
 RMSDP=1.26D-08 MaxDP=7.74D-07 DE=-6.22D-11 OVMax= 1.55D-06

 Cycle  17  Pass 1  IDiag  1:
 E= -323.491483641477     Delta-E=       -0.000000000016 Rises=F Damp=F
 DIIS: error= 5.88D-08 at cycle   8 NSaved=   8.
 NSaved= 8 IEnMin= 8 EnMin= -323.491483641477     IErMin= 8 ErrMin= 5.88D-08
 ErrMax= 5.88D-08  0.00D+00 EMaxC= 1.00D-01 BMatC= 1.03D-12 BMatP= 2.01D-11
 IDIUse=1 WtCom= 1.00D+00 WtEn= 0.00D+00
 Coeff-Com: -0.217D-03 0.329D-02 0.120D-01 0.721D-02 0.172D-01 0.113D+00
 Coeff-Com:  0.241D+00 0.606D+00
 Coeff:     -0.217D-03 0.329D-02 0.120D-01 0.721D-02 0.172D-01 0.113D+00
 Coeff:      0.241D+00 0.606D+00
 Gap=     0.131 Goal=   None    Shift=    0.000
 RMSDP=4.14D-09 MaxDP=1.66D-07 DE=-1.58D-11 OVMax= 5.29D-07

 SCF Done:  E(RB-LYP) =  -323.491483641     A.U. after   17 cycles
            NFock= 17  Conv=0.41D-08     -V/T= 2.0034
 KE= 3.223841699417D+02 PE=-1.303785809192D+03 EE= 3.835291821559D+02
 Leave Link  502 at Sat Aug 28 00:50:49 2021, MaxMem= 17179869184 cpu:       378.9
 (Enter /public3/home/sc51754/softwares/g09e01/l801.exe)
 Range of M.O.s used for correlation:     1   280
 NBasis=   280 NAE=    25 NBE=    25 NFC=     0 NFV=     0
 NROrb=    280 NOA=    25 NOB=    25 NVA=   255 NVB=   255

 **** Warning!!: The largest alpha MO coefficient is  0.20014340D+02

 Leave Link  801 at Sat Aug 28 00:50:49 2021, MaxMem= 17179869184 cpu:         0.8
 (Enter /public3/home/sc51754/softwares/g09e01/l1101.exe)
 Using compressed storage, NAtomX=    12.
 Will process     13 centers per pass.
 Leave Link 1101 at Sat Aug 28 00:50:50 2021, MaxMem= 17179869184 cpu:        54.8
 (Enter /public3/home/sc51754/softwares/g09e01/l1102.exe)
 Symmetrizing basis deriv contribution to polar:
 IMax=3 JMax=2 DiffMx= 0.00D+00
 Leave Link 1102 at Sat Aug 28 00:50:52 2021, MaxMem= 17179869184 cpu:        13.3
 (Enter /public3/home/sc51754/softwares/g09e01/l1110.exe)
 Forming Gx(P) for the SCF density, NAtomX=    12.
 Integral derivatives from FoFJK, PRISM(SPDF).
 Do as many integral derivatives as possible in FoFJK.
 G2DrvN: MDV=   17179868984.
 G2DrvN: will do    13 centers at a time, making    1 passes.
 Calling FoFCou, ICntrl=  3507 FMM=F I1Cent=   0 AccDes= 0.00D+00.
 FoFJK:  IHMeth= 1 ICntrl=    3507 DoSepK=F KAlg= 0 I1Cent=   0 FoldK=F
 IRaf=         0 NMat=   1 IRICut=       1 DoRegI=T DoRafI=F ISym2E= 1.
 FoFCou: FMM=F IPFlag=           0 FMFlag=      100000 FMFlg1=           0
         NFxFlg=           0 DoJE=F BraDBF=F KetDBF=F FulRan=T
         wScrn=  0.000000 ICntrl=    3507 IOpCl=  0 I1Cent=           0 NGrid=           0
         NMat0=    1 NMatS0=      1 NMatT0=    0 NMatD0=    1 NMtDS0=    0 NMtDT0=    0
 Petite list used in FoFCou.
 End of G2Drv F.D. properties file   721 does not exist.
 End of G2Drv F.D. properties file   722 does not exist.
 End of G2Drv F.D. properties file   788 does not exist.
 Leave Link 1110 at Sat Aug 28 00:50:58 2021, MaxMem= 17179869184 cpu:       303.0
 (Enter /public3/home/sc51754/softwares/g09e01/l1002.exe)
 Minotr:  Closed shell wavefunction.
          IDoAtm=111111111111
          Direct CPHF calculation.
          Differentiating once with respect to nuclear coordinates.
          Using symmetry in CPHF.
          Requested convergence is 1.0D-08 RMS, and 1.0D-07 maximum.
          Secondary convergence is 1.0D-12 RMS, and 1.0D-12 maximum.
          NewPWx=T KeepS1=F KeepF1=F KeepIn=T MapXYZ=F SortEE=F KeepMc=T.
          MDV=   17179868780 using IRadAn=       2.
 Generate precomputed XC quadrature information.
 Keep J ints in memory in symmetry-blocked form, NReq=1167458725.
 FoFCou: FMM=F IPFlag=           0 FMFlag=           0 FMFlg1=           0
         NFxFlg=           0 DoJE=F BraDBF=F KetDBF=F FulRan=T
         wScrn=  0.000000 ICntrl=     600 IOpCl=  0 I1Cent=           0 NGrid=           0
         NMat0=    1 NMatS0=  39340 NMatT0=    0 NMatD0=    1 NMtDS0=    0 NMtDT0=    0
 Petite list used in FoFCou.
          Solving linear equations simultaneously, MaxMat=       0.
          There are    39 degrees of freedom in the 1st order CPHF.  IDoFFX=6 NUNeed=     0.
     33 vectors produced by pass  0 Test12= 1.63D-14 2.56D-09 XBig12= 1.87D-01 1.66D-01.
 AX will form    33 AO Fock derivatives at one time.
     33 vectors produced by pass  1 Test12= 1.63D-14 2.56D-09 XBig12= 8.22D-02 9.73D-02.
     33 vectors produced by pass  2 Test12= 1.63D-14 2.56D-09 XBig12= 6.00D-04 4.43D-03.
     33 vectors produced by pass  3 Test12= 1.63D-14 2.56D-09 XBig12= 3.17D-06 2.13D-04.
     32 vectors produced by pass  4 Test12= 1.63D-14 2.56D-09 XBig12= 4.47D-09 7.52D-06.
     21 vectors produced by pass  5 Test12= 1.63D-14 2.56D-09 XBig12= 3.03D-12 1.67D-07.
      2 vectors produced by pass  6 Test12= 1.63D-14 2.56D-09 XBig12= 1.76D-15 5.36D-09.
 InvSVY:  IOpt=1 It=  1 EMax= 1.67D-15
 Solved reduced A of dimension   187 with    33 vectors.
 End of Minotr F.D. properties file   721 does not exist.
 End of Minotr F.D. properties file   722 does not exist.
 End of Minotr F.D. properties file   788 does not exist.
 Leave Link 1002 at Sat Aug 28 00:51:10 2021, MaxMem= 17179869184 cpu:       732.7
 (Enter /public3/home/sc51754/softwares/g09e01/l601.exe)
 Copying SCF densities to generalized density rwf, IOpCl= 0 IROHF=0.

 **********************************************************************

            Population analysis using the SCF density.

 **********************************************************************

 Orbital symmetries:
       Occupied  (A') (A') (A') (A') (A') (A') (A') (A') (A') (A')
                 (A') (A') (A') (A') (A') (A') (A") (A') (A') (A')
                 (A") (A') (A') (A") (A")
       Virtual   (A") (A") (A') (A') (A') (A') (A') (A") (A') (A')
                 (A") (A') (A') (A') (A") (A') (A") (A') (A') (A")
                 (A') (A') (A") (A') (A') (A') (A') (A') (A') (A')
                 (A') (A") (A') (A") (A') (A') (A') (A') (A') (A')
                 (A') (A') (A') (A") (A') (A') (A") (A') (A") (A")
                 (A') (A') (A') (A") (A") (A') (A") (A') (A') (A')
                 (A') (A") (A') (A') (A") (A') (A') (A') (A") (A')
                 (A") (A") (A") (A') (A") (A') (A') (A") (A') (A')
                 (A") (A') (A") (A') (A") (A') (A") (A') (A') (A")
                 (A') (A") (A') (A') (A') (A') (A') (A") (A') (A')
                 (A') (A') (A") (A') (A') (A') (A") (A') (A') (A')
                 (A") (A') (A') (A') (A') (A') (A") (A') (A') (A')
                 (A') (A") (A') (A") (A') (A") (A') (A") (A") (A")
                 (A') (A") (A') (A") (A') (A') (A') (A') (A") (A')
                 (A') (A') (A') (A") (A') (A") (A') (A") (A') (A')
                 (A') (A') (A') (A") (A") (A") (A") (A') (A') (A")
                 (A') (A") (A") (A') (A') (A') (A") (A') (A") (A')
                 (A') (A") (A') (A") (A") (A') (A') (A") (A") (A")
                 (A') (A') (A") (A') (A") (A") (A') (A") (A') (A")
                 (A") (A") (A') (A') (A') (A') (A") (A') (A") (A")
                 (A') (A') (A") (A") (A') (A') (A') (A") (A') (A')
                 (A') (A") (A') (A") (A') (A') (A") (A') (A') (A")
                 (A") (A') (A') (A') (A") (A') (A') (A") (A') (A')
                 (A') (A") (A') (A') (A') (A') (A') (A') (A") (A')
                 (A') (A') (A") (A') (A') (A') (A') (A') (A') (A')
                 (A') (A') (A') (A') (A')
 The electronic state is 1-A'.
 Alpha  occ. eigenvalues --  -18.78677 -14.04096 -10.00893  -9.97063  -9.94226
 Alpha  occ. eigenvalues --   -9.92994  -9.92727  -0.94582  -0.85818  -0.74122
 Alpha  occ. eigenvalues --   -0.68374  -0.59959  -0.56064  -0.48424  -0.45912
 Alpha  occ. eigenvalues --   -0.42210  -0.39318  -0.38817  -0.38290  -0.34241
 Alpha  occ. eigenvalues --   -0.30210  -0.30044  -0.27509  -0.27401  -0.20836
 Alpha virt. eigenvalues --   -0.07700  -0.04389  -0.02846   0.00131   0.02169
 Alpha virt. eigenvalues --    0.03828   0.05940   0.07792   0.09482   0.12132
 Alpha virt. eigenvalues --    0.13063   0.13142   0.14556   0.15236   0.17041
 Alpha virt. eigenvalues --    0.17420   0.18067   0.21021   0.21992   0.24120
 Alpha virt. eigenvalues --    0.24432   0.25520   0.25901   0.26497   0.27538
 Alpha virt. eigenvalues --    0.29129   0.29886   0.32223   0.32836   0.35440
 Alpha virt. eigenvalues --    0.38710   0.39175   0.39464   0.40671   0.41431
 Alpha virt. eigenvalues --    0.45063   0.48003   0.48619   0.51473   0.53898
 Alpha virt. eigenvalues --    0.55328   0.57499   0.59433   0.60515   0.61049
 Alpha virt. eigenvalues --    0.63742   0.66173   0.69539   0.72264   0.75418
 Alpha virt. eigenvalues --    0.76378   0.84602   0.85395   0.86046   0.89070
 Alpha virt. eigenvalues --    0.90307   0.90388   0.91849   0.93239   0.95189
 Alpha virt. eigenvalues --    0.96873   1.03200   1.03703   1.05486   1.08355
 Alpha virt. eigenvalues --    1.09558   1.10164   1.12464   1.14131   1.16665
 Alpha virt. eigenvalues --    1.16687   1.18777   1.20300   1.21154   1.23512
 Alpha virt. eigenvalues --    1.28827   1.34487   1.34743   1.35359   1.42637
 Alpha virt. eigenvalues --    1.42786   1.45826   1.45928   1.48568   1.50178
 Alpha virt. eigenvalues --    1.51353   1.54009   1.55918   1.58648   1.60056
 Alpha virt. eigenvalues --    1.60121   1.62847   1.63874   1.68481   1.69502
 Alpha virt. eigenvalues --    1.70721   1.74241   1.77711   1.79016   1.79490
 Alpha virt. eigenvalues --    1.82410   1.84952   1.89181   1.91021   1.92661
 Alpha virt. eigenvalues --    2.00476   2.01958   2.04852   2.08206   2.10218
 Alpha virt. eigenvalues --    2.12385   2.13373   2.16236   2.17952   2.20240
 Alpha virt. eigenvalues --    2.24010   2.29365   2.33876   2.52475   2.56816
 Alpha virt. eigenvalues --    2.74139   2.77184   2.82859   2.86004   2.92596
 Alpha virt. eigenvalues --    3.04069   3.05712   3.09868   3.14473   3.17659
 Alpha virt. eigenvalues --    3.17690   3.20803   3.26054   3.27282   3.29073
 Alpha virt. eigenvalues --    3.30484   3.32703   3.37948   3.38068   3.46424
 Alpha virt. eigenvalues --    3.48129   3.49721   3.50929   3.52319   3.54344
 Alpha virt. eigenvalues --    3.58200   3.63502   3.64025   3.67575   3.74877
 Alpha virt. eigenvalues --    3.78113   3.79769   3.81603   3.82958   3.85197
 Alpha virt. eigenvalues --    3.87330   3.93583   3.94882   3.96446   3.97404
 Alpha virt. eigenvalues --    4.00790   4.01086   4.04096   4.05035   4.07062
 Alpha virt. eigenvalues --    4.08884   4.09019   4.10792   4.11403   4.12406
 Alpha virt. eigenvalues --    4.16866   4.18138   4.19417   4.19900   4.20525
 Alpha virt. eigenvalues --    4.22007   4.23125   4.25056   4.28526   4.30907
 Alpha virt. eigenvalues --    4.31366   4.32654   4.33576   4.34860   4.36682
 Alpha virt. eigenvalues --    4.39174   4.39446   4.41329   4.45181   4.46667
 Alpha virt. eigenvalues --    4.49302   4.53048   4.53259   4.59409   4.59889
 Alpha virt. eigenvalues --    4.60776   4.66753   4.70852   4.70887   4.74989
 Alpha virt. eigenvalues --    4.77357   4.81661   4.82658   4.86372   4.91750
 Alpha virt. eigenvalues --    4.92874   4.97652   4.99211   5.05469   5.08301
 Alpha virt. eigenvalues --    5.11310   5.12330   5.15563   5.17000   5.20196
 Alpha virt. eigenvalues --    5.23080   5.23498   5.26230   5.29926   5.30085
 Alpha virt. eigenvalues --    5.30240   5.32443   5.37957   5.41292   5.42655
 Alpha virt. eigenvalues --    5.45731   5.51825   5.53265   5.55116   5.62329
 Alpha virt. eigenvalues --    5.65606   5.69561   5.73739   5.76701   5.86471
 Alpha virt. eigenvalues --    5.94112   5.98479   6.00423   6.12003   6.17028
 Alpha virt. eigenvalues --    6.27080   6.30510   6.38729   6.40233   6.48714
 Alpha virt. eigenvalues --    6.69269   6.90156   7.05824   9.15385  11.71668
 Alpha virt. eigenvalues --   12.36012  14.50581  17.27562  18.20568  21.89677
          Condensed to atoms (all electrons):
               1          2          3          4          5          6
     1  O    8.089745  -0.130240   0.366919  -0.072212   0.002635   0.008127
     2  N   -0.130240   6.696038   0.351512  -0.013412   0.485876  -0.028597
     3  C    0.366919   0.351512   4.622348   0.465027  -0.078888  -0.054957
     4  C   -0.072212  -0.013412   0.465027   4.908774  -0.041254   0.498214
     5  C    0.002635   0.485876  -0.078888  -0.041254   4.698308  -0.067272
     6  C    0.008127  -0.028597  -0.054957   0.498214  -0.067272   4.815467
     7  C   -0.000425  -0.043744  -0.046994  -0.059427   0.500462   0.457354
     8  H    0.198301   0.090387  -0.069324   0.025301   0.000724  -0.007566
     9  H    0.003836   0.007224  -0.046459   0.440145  -0.002188  -0.041438
    10  H   -0.000751  -0.038481   0.007052  -0.002260   0.436481   0.009122
    11  H   -0.000365  -0.001386   0.010706  -0.040899   0.009732   0.430535
    12  H    0.000064   0.006558  -0.000802   0.008922  -0.036205  -0.044164
               7          8          9         10         11         12
     1  O   -0.000425   0.198301   0.003836  -0.000751  -0.000365   0.000064
     2  N   -0.043744   0.090387   0.007224  -0.038481  -0.001386   0.006558
     3  C   -0.046994  -0.069324  -0.046459   0.007052   0.010706  -0.000802
     4  C   -0.059427   0.025301   0.440145  -0.002260  -0.040899   0.008922
     5  C    0.500462   0.000724  -0.002188   0.436481   0.009732  -0.036205
     6  C    0.457354  -0.007566  -0.041438   0.009122   0.430535  -0.044164
     7  C    4.980759   0.005579   0.009971  -0.067808  -0.051453   0.430460
     8  H    0.005579   0.524303  -0.001567  -0.004287   0.000305  -0.000182
     9  H    0.009971  -0.001567   0.576880   0.000288  -0.008289  -0.000004
    10  H   -0.067808  -0.004287   0.000288   0.595745  -0.000177  -0.004925
    11  H   -0.051453   0.000305  -0.008289  -0.000177   0.599045  -0.008190
    12  H    0.430460  -0.000182  -0.000004  -0.004925  -0.008190   0.590137
 Mulliken charges:
               1
     1  O   -0.465633
     2  N   -0.381734
     3  C    0.473860
     4  C   -0.116920
     5  C    0.091589
     6  C    0.025175
     7  C   -0.114735
     8  H    0.238026
     9  H    0.061602
    10  H    0.070002
    11  H    0.060435
    12  H    0.058331
 Sum of Mulliken charges =  -0.00000
 Mulliken charges with hydrogens summed into heavy atoms:
               1
     1  O   -0.227607
     2  N   -0.381734
     3  C    0.473860
     4  C   -0.055318
     5  C    0.161592
     6  C    0.085610
     7  C   -0.056404
 APT charges:
               1
     1  O   -0.236745
     2  N   -0.378176
     3  C    0.176387
     4  C   -0.513822
     5  C   -0.417385
     6  C   -0.373216
     7  C   -0.465337
     8  H    0.255378
     9  H    0.432149
    10  H    0.489317
    11  H    0.494501
    12  H    0.536948
 Sum of APT charges =  -0.00000
 APT charges with hydrogens summed into heavy atoms:
               1
     1  O    0.018634
     2  N   -0.378176
     3  C    0.176387
     4  C   -0.081672
     5  C    0.071932
     6  C    0.121285
     7  C    0.071611
 Electronic spatial extent (au):  <R**2>=            633.8475
 Charge=             -0.0000 electrons
 Dipole moment (field-independent basis, Debye):
    X=              0.2267    Y=             -3.1227    Z=              0.0000  Tot=              3.1309
 Quadrupole moment (field-independent basis, Debye-Ang):
   XX=            -36.7093   YY=            -43.9218   ZZ=            -43.4956
   XY=             -0.4901   XZ=              0.0000   YZ=              0.0000
 Traceless Quadrupole moment (field-independent basis, Debye-Ang):
   XX=              4.6663   YY=             -2.5462   ZZ=             -2.1200
   XY=             -0.4901   XZ=              0.0000   YZ=              0.0000
 Octapole moment (field-independent basis, Debye-Ang**2):
  XXX=              3.4297  YYY=            -20.1175  ZZZ=              0.0000  XYY=             -3.7702
  XXY=              0.1675  XXZ=              0.0000  XZZ=             -1.2949  YZZ=              4.5177
  YYZ=              0.0000  XYZ=              0.0000
 Hexadecapole moment (field-independent basis, Debye-Ang**3):
 XXXX=           -273.5227 YYYY=           -534.2017 ZZZZ=            -48.5612 XXXY=             10.4304
 XXXZ=             -0.0000 YYYX=             -2.7009 YYYZ=              0.0000 ZZZX=             -0.0000
 ZZZY=              0.0000 XXYY=           -117.4870 XXZZ=            -62.0181 YYZZ=           -100.3635
 XXYZ=              0.0000 YYXZ=              0.0000 ZZXY=              1.8666
 N-N= 2.743809734529D+02 E-N=-1.303785793487D+03  KE= 3.223841699417D+02
 Symmetry A'   KE= 3.105682798709D+02
 Symmetry A"   KE= 1.181589007078D+01
  Exact polarizability:   0.000   0.000   0.000   0.000   0.000   0.000
 Approx polarizability: 167.312   9.745 208.762   0.000  -0.000  65.955
 No NMR shielding tensors so no spin-rotation constants.
 Leave Link  601 at Sat Aug 28 00:51:12 2021, MaxMem= 17179869184 cpu:       100.2
 (Enter /public3/home/sc51754/softwares/g09e01/l701.exe)
 Compute integral second derivatives.
 ... and contract with generalized density number  0.
 Leave Link  701 at Sat Aug 28 00:51:14 2021, MaxMem= 17179869184 cpu:       121.0
 (Enter /public3/home/sc51754/softwares/g09e01/l702.exe)
 L702 exits ... SP integral derivatives will be done elsewhere.
 Leave Link  702 at Sat Aug 28 00:51:14 2021, MaxMem= 17179869184 cpu:         0.6
 (Enter /public3/home/sc51754/softwares/g09e01/l703.exe)
 Compute integral second derivatives, UseDBF=F ICtDFT=           0.
 Integral derivatives from FoFJK, PRISM(SPDF).
 Calling FoFJK, ICntrl=    100547 FMM=F ISym2X=1 I1Cent= 0 IOpClX= 0 NMat=1 NMatS=1 NMatT=0.
 FoFJK:  IHMeth= 1 ICntrl=  100547 DoSepK=F KAlg= 0 I1Cent=   0 FoldK=F
 IRaf=         0 NMat=   1 IRICut=       1 DoRegI=T DoRafI=F ISym2E= 1.
 FoFCou: FMM=F IPFlag=           0 FMFlag=      100000 FMFlg1=         800
         NFxFlg=           0 DoJE=F BraDBF=F KetDBF=F FulRan=T
         wScrn=  0.000000 ICntrl=  100547 IOpCl=  0 I1Cent=           0 NGrid=           0
         NMat0=    1 NMatS0=      1 NMatT0=    0 NMatD0=    1 NMtDS0=    0 NMtDT0=    0
 Petite list used in FoFCou.
 Leave Link  703 at Sat Aug 28 00:51:23 2021, MaxMem= 17179869184 cpu:       551.3
 (Enter /public3/home/sc51754/softwares/g09e01/l716.exe)
 Dipole        = 8.91727454D-02-1.22854654D+00 8.01677882D-32
 Polarizability= 0.00000000D+00 0.00000000D+00 0.00000000D+00
                 0.00000000D+00 0.00000000D+00 0.00000000D+00
 ***** Axes restored to original set *****
 -------------------------------------------------------------------
 Center     Atomic                   Forces (Hartrees/Bohr)
 Number     Number              X              Y              Z
 -------------------------------------------------------------------
      1        8          -0.079938160   -0.055450876   -0.000000000
      2        7           0.008833191    0.013216196   -0.000000000
      3        6           0.057923766    0.026366123    0.000000000
      4        6           0.003190779   -0.016050687    0.000000000
      5        6          -0.012909193   -0.013492907    0.000000000
      6        6           0.005312506    0.005565402   -0.000000000
      7        6          -0.005573913    0.003703080   -0.000000000
      8        1           0.025159131    0.035436022   -0.000000000
      9        1          -0.001250172    0.000257118   -0.000000000
     10        1           0.000731296    0.000178830    0.000000000
     11        1          -0.000035427   -0.000687826    0.000000000
     12        1          -0.001443804    0.000959524   -0.000000000
 -------------------------------------------------------------------
 Cartesian Forces:  Max     0.079938160 RMS     0.021332549
 Force constants in Cartesian coordinates: 
                1             2             3             4             5 
      1  0.630749D-01
      2  0.167733D-02  0.359870D+00
      3  0.000000D+00  0.000000D+00  0.721397D-01
      4 -0.163786D-01 -0.229468D-01  0.000000D+00  0.459693D+00
      5 -0.903120D-01 -0.430720D-01  0.000000D+00  0.114582D+00  0.568326D+00
      6  0.000000D+00  0.000000D+00  0.147690D-01  0.000000D+00  0.000000D+00
      7 -0.802793D-01  0.120960D-01  0.000000D+00 -0.294045D+00 -0.633398D-01
      8 -0.171413D-01 -0.242659D+00  0.000000D+00 -0.916903D-01 -0.179998D+00
      9  0.000000D+00  0.000000D+00 -0.651052D-01  0.000000D+00  0.000000D+00
     10 -0.261312D-02  0.164380D-01  0.000000D+00 -0.545679D-01 -0.248026D-01
     11  0.503608D-01 -0.450943D-01  0.000000D+00  0.952629D-02  0.560967D-01
     12  0.000000D+00  0.000000D+00  0.125685D-01  0.000000D+00  0.000000D+00
     13  0.645072D-02 -0.143806D-02  0.000000D+00 -0.110822D+00 -0.208260D-02
     14  0.194345D-01 -0.126331D-02  0.000000D+00  0.336645D-02 -0.301980D+00
     15  0.000000D+00  0.000000D+00  0.681642D-02  0.000000D+00  0.000000D+00
     16 -0.132291D-01  0.545939D-02  0.000000D+00 -0.137290D-01 -0.361497D-01
     17 -0.889524D-02  0.867389D-02  0.000000D+00 -0.227014D-01 -0.450357D-01
     18  0.000000D+00  0.000000D+00  0.504305D-02  0.000000D+00  0.000000D+00
     19  0.110236D-01 -0.586063D-02  0.000000D+00  0.303915D-01  0.715229D-01
     20 -0.607439D-02 -0.490206D-02  0.000000D+00  0.224889D-01 -0.520421D-01
     21  0.000000D+00  0.000000D+00 -0.217272D-02  0.000000D+00  0.000000D+00
     22  0.284132D-01 -0.509248D-02  0.000000D+00  0.222561D-02  0.273645D-01
     23  0.510986D-01 -0.306345D-01  0.000000D+00  0.119183D-01  0.216511D-01
     24  0.000000D+00  0.000000D+00 -0.412695D-01  0.000000D+00  0.000000D+00
     25  0.231538D-02 -0.148917D-03  0.000000D+00 -0.382209D-02  0.385724D-02
     26 -0.502899D-03  0.806822D-03  0.000000D+00  0.509374D-02 -0.720396D-03
     27  0.000000D+00  0.000000D+00 -0.184751D-02  0.000000D+00  0.000000D+00
     28 -0.560506D-03  0.333138D-04  0.000000D+00  0.422520D-02 -0.463334D-02
     29 -0.714351D-03 -0.122667D-02  0.000000D+00 -0.320536D-01 -0.225142D-01
     30  0.000000D+00  0.000000D+00  0.782449D-03  0.000000D+00  0.000000D+00
     31 -0.277947D-04  0.376112D-04  0.000000D+00  0.582768D-03 -0.574800D-03
     32  0.171554D-02 -0.748055D-03  0.000000D+00 -0.306235D-03 -0.317928D-03
     33  0.000000D+00  0.000000D+00 -0.860263D-03  0.000000D+00  0.000000D+00
     34  0.181059D-02 -0.254766D-03  0.000000D+00 -0.375326D-02  0.456835D-02
     35 -0.646623D-03  0.249325D-03  0.000000D+00  0.272275D-02 -0.393931D-03
     36  0.000000D+00  0.000000D+00 -0.863821D-03  0.000000D+00  0.000000D+00
                6             7             8             9            10 
      6  0.816093D-01
      7  0.000000D+00  0.688222D+00
      8  0.000000D+00 -0.409243D-01  0.585504D+00
      9 -0.662054D-01  0.000000D+00  0.000000D+00  0.164911D+00
     10  0.000000D+00 -0.250045D+00  0.814064D-01  0.000000D+00  0.675067D+00
     11  0.000000D+00  0.398454D-01 -0.130245D+00  0.000000D+00  0.501589D-01
     12  0.117390D-01  0.000000D+00  0.000000D+00 -0.712321D-01  0.000000D+00
     13  0.000000D+00  0.170882D-01 -0.346176D-01  0.000000D+00 -0.124867D-01
     14  0.000000D+00 -0.905191D-01 -0.349853D-01  0.000000D+00  0.278694D-01
     15 -0.487511D-01  0.000000D+00  0.000000D+00  0.146975D-02  0.000000D+00
     16  0.000000D+00  0.391513D-01  0.279627D-01  0.000000D+00 -0.125711D+00
     17  0.000000D+00  0.655748D-01 -0.357712D-01  0.000000D+00 -0.274057D-01
     18 -0.521648D-02  0.000000D+00  0.000000D+00  0.199831D-02  0.000000D+00
     19  0.000000D+00 -0.614517D-01  0.362037D-02  0.000000D+00  0.244774D-01
     20  0.000000D+00  0.131416D-01  0.204276D-03  0.000000D+00 -0.336582D-01
     21  0.166203D-01  0.000000D+00  0.000000D+00 -0.798084D-02  0.000000D+00
     22  0.000000D+00 -0.446849D-01  0.869485D-01  0.000000D+00  0.243692D-02
     23  0.000000D+00  0.521500D-01  0.356062D-01  0.000000D+00  0.504834D-02
     24 -0.128927D-01  0.000000D+00  0.000000D+00  0.215860D-01  0.000000D+00
     25  0.000000D+00 -0.166689D-01 -0.166564D-01  0.000000D+00 -0.256603D+00
     26  0.000000D+00  0.126330D-01  0.102453D-01  0.000000D+00 -0.120210D+00
     27  0.492164D-02  0.000000D+00  0.000000D+00  0.164197D-02  0.000000D+00
     28  0.000000D+00  0.300569D-02  0.120731D-02  0.000000D+00  0.313552D-03
     29  0.000000D+00  0.121712D-02 -0.344892D-02  0.000000D+00 -0.331394D-04
     30 -0.177457D-02  0.000000D+00  0.000000D+00  0.884771D-02  0.000000D+00
     31  0.000000D+00  0.177898D-02 -0.104254D-02  0.000000D+00  0.411704D-02
     32  0.000000D+00 -0.187531D-02 -0.473676D-02  0.000000D+00  0.276057D-01
     33 -0.204874D-02  0.000000D+00  0.000000D+00  0.102039D-01  0.000000D+00
     34  0.000000D+00 -0.207119D-02  0.927119D-03  0.000000D+00 -0.438471D-02
     35  0.000000D+00  0.000000D+00  0.283548D-03  0.000000D+00 -0.241696D-02
     36  0.722966D-02  0.000000D+00  0.000000D+00 -0.135182D-03  0.000000D+00
               11            12            13            14            15 
     11  0.669943D+00
     12  0.000000D+00  0.112282D+00
     13  0.190540D-01  0.000000D+00  0.700180D+00
     14 -0.411427D-01  0.000000D+00  0.385079D-01  0.618013D+00
     15  0.000000D+00 -0.180264D-02  0.000000D+00  0.000000D+00  0.133557D+00
     16  0.194256D-01  0.000000D+00 -0.590751D-01  0.269161D-01  0.000000D+00
     17 -0.332988D+00  0.000000D+00 -0.144721D-01  0.567399D-01  0.000000D+00
     18  0.000000D+00 -0.546242D-01  0.000000D+00  0.000000D+00  0.653096D-02
     19 -0.620535D-01  0.000000D+00 -0.257723D+00  0.541836D-01  0.000000D+00
     20 -0.247410D-01  0.000000D+00  0.109082D+00 -0.168117D+00  0.000000D+00
     21  0.000000D+00  0.714300D-02  0.000000D+00  0.000000D+00 -0.605205D-01
     22 -0.527595D-02  0.000000D+00 -0.120293D-01 -0.789442D-02  0.000000D+00
     23 -0.157906D-01  0.000000D+00 -0.141929D-01 -0.177592D-01  0.000000D+00
     24  0.000000D+00  0.555175D-02  0.000000D+00  0.000000D+00 -0.408909D-02
     25 -0.118719D+00  0.000000D+00  0.157145D-03  0.197692D-02  0.000000D+00
     26 -0.125067D+00  0.000000D+00  0.234922D-03 -0.126777D-02  0.000000D+00
     27  0.000000D+00 -0.310512D-01  0.000000D+00  0.000000D+00 -0.321241D-03
     28  0.751222D-03  0.000000D+00 -0.273469D+00 -0.957607D-01  0.000000D+00
     29 -0.471757D-03  0.000000D+00 -0.930218D-01 -0.953275D-01  0.000000D+00
     30  0.000000D+00 -0.753335D-03  0.000000D+00  0.000000D+00 -0.378780D-01
     31 -0.133011D-02  0.000000D+00 -0.374438D-02 -0.381582D-02  0.000000D+00
     32 -0.112844D-01  0.000000D+00 -0.319158D-02 -0.828333D-03  0.000000D+00
     33  0.000000D+00  0.505682D-02  0.000000D+00  0.000000D+00  0.630254D-02
     34 -0.174349D-02  0.000000D+00  0.547324D-02  0.257351D-01  0.000000D+00
     35  0.785171D-03  0.000000D+00 -0.386231D-02 -0.120822D-01  0.000000D+00
     36  0.000000D+00  0.512225D-02  0.000000D+00  0.000000D+00 -0.131400D-02
               16            17            18            19            20 
     16  0.676425D+00
     17 -0.417427D-01  0.648115D+00
     18  0.000000D+00  0.000000D+00  0.132613D+00
     19 -0.260704D+00 -0.484280D-01  0.000000D+00  0.603919D+00
     20 -0.102106D+00 -0.158645D+00  0.000000D+00  0.628857D-02  0.710414D+00
     21  0.000000D+00  0.000000D+00 -0.565735D-01  0.000000D+00  0.000000D+00
     22  0.198533D-02  0.410127D-02  0.000000D+00 -0.258029D-02  0.163835D-02
     23  0.662736D-02  0.787086D-02  0.000000D+00 -0.848876D-02  0.475054D-02
     24  0.000000D+00  0.000000D+00 -0.370218D-03  0.000000D+00  0.000000D+00
     25  0.455641D-02  0.162939D-02  0.000000D+00  0.208830D-02  0.703062D-03
     26 -0.268411D-01 -0.105638D-01  0.000000D+00  0.170673D-02 -0.485717D-02
     27  0.000000D+00  0.000000D+00  0.179299D-02  0.000000D+00  0.000000D+00
     28 -0.289467D-02  0.397162D-02  0.000000D+00 -0.168641D-01 -0.126067D-01
     29  0.287265D-02 -0.164644D-02  0.000000D+00  0.150547D-01  0.110769D-01
     30  0.000000D+00  0.000000D+00  0.730198D-02  0.000000D+00  0.000000D+00
     31 -0.249572D+00  0.116440D+00  0.000000D+00 -0.173322D-01  0.158618D-01
     32  0.116274D+00 -0.127403D+00  0.000000D+00 -0.131694D-01  0.113546D-01
     33  0.000000D+00  0.000000D+00 -0.391400D-01  0.000000D+00  0.000000D+00
     34  0.279705D-02 -0.280713D-01  0.000000D+00 -0.552453D-01 -0.147595D-01
     35  0.130087D-02 -0.934589D-02  0.000000D+00 -0.143767D-01 -0.324496D+00
     36  0.000000D+00  0.000000D+00  0.643657D-03  0.000000D+00  0.000000D+00
               21            22            23            24            25 
     21  0.110562D+00
     22  0.000000D+00  0.260870D-01
     23  0.000000D+00 -0.101931D+00 -0.673287D-02
     24  0.258361D-02  0.000000D+00  0.000000D+00  0.309239D-01
     25  0.000000D+00 -0.119673D-02 -0.139553D-02  0.000000D+00  0.268385D+00
     26  0.000000D+00 -0.981565D-04  0.753588D-03  0.000000D+00  0.129069D+00
     27  0.827680D-02  0.000000D+00  0.000000D+00 -0.345923D-03  0.000000D+00
     28  0.000000D+00  0.526397D-03  0.723773D-03  0.000000D+00 -0.387915D-04
     29  0.000000D+00 -0.315680D-03 -0.153270D-04  0.000000D+00 -0.163854D-03
     30  0.572227D-02  0.000000D+00  0.000000D+00 -0.141067D-02  0.000000D+00
     31  0.000000D+00 -0.553763D-04  0.106549D-04  0.000000D+00  0.710540D-03
     32  0.000000D+00  0.128597D-04 -0.616203D-03  0.000000D+00 -0.422685D-03
     33  0.406070D-02  0.000000D+00  0.000000D+00 -0.868573D-03  0.000000D+00
     34  0.000000D+00 -0.112789D-02 -0.156840D-02  0.000000D+00  0.116972D-03
     35  0.000000D+00  0.542568D-03  0.916495D-03  0.000000D+00  0.271002D-03
     36 -0.277214D-01  0.000000D+00  0.000000D+00  0.601423D-03  0.000000D+00
               26            27            28            29            30 
     26  0.129855D+00
     27  0.000000D+00  0.221944D-01
     28 -0.604794D-04  0.000000D+00  0.285986D+00
     29  0.116248D-03  0.000000D+00  0.106800D+00  0.112486D+00
     30  0.000000D+00 -0.147584D-02  0.000000D+00  0.000000D+00  0.245395D-01
     31  0.296093D-03  0.000000D+00 -0.928788D-03  0.866497D-03  0.000000D+00
     32  0.114126D-02  0.000000D+00 -0.745008D-03  0.436541D-03  0.000000D+00
     33  0.000000D+00 -0.430529D-02  0.000000D+00  0.000000D+00 -0.365350D-03
     34 -0.132079D-02  0.000000D+00  0.699156D-03 -0.508484D-03  0.000000D+00
     35 -0.441964D-03  0.000000D+00  0.319045D-03  0.535246D-03  0.000000D+00
     36  0.000000D+00  0.519197D-03  0.000000D+00  0.000000D+00 -0.353608D-02
               31            32            33            34            35 
     31  0.263477D+00
     32 -0.126534D+00  0.132317D+00
     33  0.000000D+00  0.000000D+00  0.248955D-01
     34  0.993501D-03  0.636154D-03  0.000000D+00  0.546919D-01
     35 -0.214444D-03  0.684991D-03  0.000000D+00  0.163600D-01  0.343305D+00
     36  0.000000D+00  0.000000D+00 -0.293121D-02  0.000000D+00  0.000000D+00
               36 
     36  0.223855D-01
 FormGI is forming the generalized inverse of G from B-inverse, IUseBI=4.
 Leave Link  716 at Sat Aug 28 00:51:23 2021, MaxMem= 17179869184 cpu:         2.0
 (Enter /public3/home/sc51754/softwares/g09e01/l103.exe)

 GradGradGradGradGradGradGradGradGradGradGradGradGradGradGradGradGradGrad
 Berny optimization.
 Red2BG is reusing G-inverse.
 Internal  Forces:  Max     0.044886869 RMS     0.011518525
 Search for a saddle point.
 Step number   1 out of a maximum of  100
 All quantities printed in internal units (Hartrees-Bohrs-Radians)
 Second derivative matrix not updated -- analytic derivatives used.
 ITU=  0
 LST/QST climbing along tangent vector
     Eigenvalues ---   -0.04982   0.00084   0.00491   0.01477   0.01629
     Eigenvalues ---    0.01946   0.02199   0.02588   0.02868   0.04117
     Eigenvalues ---    0.06333   0.10031   0.10410   0.11625   0.12485
     Eigenvalues ---    0.13918   0.18954   0.19284   0.22738   0.27207
     Eigenvalues ---    0.28926   0.33420   0.34062   0.34508   0.34664
     Eigenvalues ---    0.38083   0.39423   0.42996   0.44918   0.49939
     Eigenvalues --- 1000.000001000.000001000.000001000.000001000.00000
     Eigenvalues --- 1000.000001000.000001000.000001000.000001000.00000
     Eigenvalues --- 1000.000001000.000001000.000001000.000001000.00000
     Eigenvalues --- 1000.000001000.000001000.000001000.000001000.00000
     Eigenvalues --- 1000.000001000.000001000.000001000.000001000.00000
     Eigenvalues --- 1000.000001000.000001000.00000
 Eigenvectors required to have negative eigenvalues:
                          R2        R5        A4        D22       A3
   1                    0.64215  -0.53565  -0.20425   0.18467   0.17094
                          D8        D21       D10       D9        A1
   1                   -0.16966   0.16839  -0.15077   0.14115  -0.13980
 QST in optimization variable space.
                        Tangent   TS vect  // Eig F  Eigenval
   1         R1        -0.04329  -0.04329  -0.02895  -0.04982
   2         R2         0.64215   0.64215  -0.00058   0.00084
   3         R3         0.02509   0.02509   0.00650   0.00491
   4         R4         0.00831   0.00831  -0.00070   0.01477
   5         R5        -0.53565  -0.53565   0.00097   0.01629
   6         R6         0.01975   0.01975  -0.00009   0.01946
   7         R7        -0.00808  -0.00808   0.00066   0.02199
   8         R8        -0.00005  -0.00005   0.00016   0.02588
   9         R9        -0.01030  -0.01030   0.00049   0.02868
  10         R10       -0.00139  -0.00139   0.00055   0.04117
  11         R11        0.01043   0.01043  -0.01400   0.06333
  12         R12        0.00044   0.00044  -0.00320   0.10031
  13         R13       -0.00087  -0.00087   0.00658   0.10410
  14         A1        -0.13980  -0.13980  -0.00084   0.11625
  15         A2         0.03331   0.03331   0.00043   0.12485
  16         A3         0.17094   0.17094  -0.02469   0.13918
  17         A4        -0.20425  -0.20425   0.00644   0.18954
  18         A5         0.00663   0.00663  -0.00542   0.19284
  19         A6         0.03688   0.03688  -0.01624   0.22738
  20         A7        -0.04351  -0.04351  -0.02123   0.27207
  21         A8         0.01594   0.01594  -0.00260   0.28926
  22         A9        -0.01495  -0.01495  -0.00074   0.33420
  23         A10       -0.00100  -0.00100   0.00014   0.34062
  24         A11       -0.01296  -0.01296  -0.00097   0.34508
  25         A12        0.00251   0.00251  -0.00027   0.34664
  26         A13        0.01045   0.01045  -0.00134   0.38083
[...]
   R13        2.05118  -0.00000   0.00000  -0.00000  -0.00000   2.05118
    A1        1.30985  -0.00001   0.00000   0.00000   0.00000   1.30985
    A2        2.14876   0.00000   0.00000  -0.00000  -0.00000   2.14876
    A3        1.31136  -0.00000   0.00000  -0.00001  -0.00001   1.31136
    A4        2.82306   0.00000   0.00000   0.00001   0.00001   2.82308
    A5        1.84396  -0.00000   0.00000  -0.00002  -0.00002   1.84394
    A6        2.34281   0.00000   0.00000   0.00001   0.00001   2.34282
    A7        2.09642   0.00000   0.00000   0.00001   0.00001   2.09643
    A8        2.03858  -0.00000   0.00000  -0.00002  -0.00002   2.03857
    A9        2.10705   0.00000   0.00000   0.00001   0.00001   2.10706
   A10        2.13756   0.00000   0.00000   0.00000   0.00000   2.13756
   A11        2.08160  -0.00000   0.00000  -0.00001  -0.00001   2.08159
   A12        2.05171   0.00000   0.00000   0.00001   0.00001   2.05173
   A13        2.14987   0.00000   0.00000   0.00000   0.00000   2.14987
   A14        2.12803   0.00000   0.00000   0.00001   0.00001   2.12804
   A15        2.07841  -0.00000   0.00000  -0.00000  -0.00000   2.07841
   A16        2.07674  -0.00000   0.00000  -0.00001  -0.00001   2.07674
   A17        2.07298   0.00000   0.00000   0.00001   0.00001   2.07299
   A18        2.09766  -0.00000   0.00000  -0.00000  -0.00000   2.09765
   A19        2.11255  -0.00000   0.00000  -0.00001  -0.00001   2.11254
    D1        0.00004  -0.00000   0.00000  -0.00004  -0.00004  -0.00000
    D2       -3.14158   0.00000   0.00000  -0.00001  -0.00001   3.14159
    D3       -3.14154   0.00000   0.00000  -0.00006  -0.00006   3.14159
    D4        0.00008  -0.00000   0.00000  -0.00008  -0.00008   0.00000
    D5       -0.00004   0.00000   0.00000   0.00004   0.00004   0.00000
    D6        3.14157  -0.00000   0.00000   0.00002   0.00002  -3.14159
    D7       -0.00005   0.00000   0.00000   0.00005   0.00005   0.00000
    D8        3.14155   0.00000   0.00000   0.00004   0.00004  -3.14159
    D9       -3.14134  -0.00000   0.00000  -0.00025  -0.00025   3.14159
   D10        0.00026  -0.00000   0.00000  -0.00026  -0.00026  -0.00000
   D11        3.14156  -0.00000   0.00000   0.00003   0.00003   3.14159
   D12       -0.00003  -0.00000   0.00000   0.00003   0.00003   0.00000
   D13       -0.00006   0.00000   0.00000   0.00006   0.00006   0.00000
   D14        3.14153   0.00000   0.00000   0.00006   0.00006  -3.14159
   D15        0.00001  -0.00000   0.00000  -0.00001  -0.00001  -0.00000
   D16       -3.14159   0.00000   0.00000  -0.00000  -0.00000  -3.14159
   D17       -3.14158  -0.00000   0.00000  -0.00002  -0.00002   3.14159
   D18        0.00001  -0.00000   0.00000  -0.00001  -0.00001   0.00000
   D19        0.00000   0.00000   0.00000  -0.00000  -0.00000  -0.00000
   D20       -3.14159   0.00000   0.00000  -0.00000  -0.00000   3.14159
   D21        3.14158  -0.00000   0.00000   0.00001   0.00001   3.14159
   D22       -0.00001  -0.00000   0.00000   0.00001   0.00001   0.00000
   D23        0.00002   0.00000   0.00000  -0.00002  -0.00002   0.00000
   D24       -3.14158  -0.00000   0.00000  -0.00002  -0.00002  -3.14159
   D25       -3.14157  -0.00000   0.00000  -0.00002  -0.00002   3.14159
   D26        0.00003  -0.00000   0.00000  -0.00003  -0.00003  -0.00000
         Item               Value     Threshold  Converged?
 Maximum Force            0.000023     0.000450     YES
 RMS     Force            0.000004     0.000300     YES
 Maximum Displacement     0.000082     0.001800     YES
 RMS     Displacement     0.000022     0.001200     YES
 Predicted change in Energy=-1.329000D-09
 Optimization completed.
    -- Stationary point found.
                           ----------------------------
                           !   Optimized Parameters   !
                           ! (Angstroms and Degrees)  !
 --------------------------                            --------------------------
 ! Name  Definition              Value          Derivative Info.                !
 --------------------------------------------------------------------------------
 ! R1    R(1,3)                  1.3011         -DE/DX =    0.0                 !
 ! R2    R(1,8)                  1.3875         -DE/DX =    0.0                 !
 ! R3    R(2,3)                  1.3735         -DE/DX =    0.0                 !
 ! R4    R(2,5)                  1.346          -DE/DX =    0.0                 !
 ! R5    R(2,8)                  1.3138         -DE/DX =    0.0                 !
 ! R6    R(3,4)                  1.4144         -DE/DX =    0.0                 !
 ! R7    R(4,6)                  1.392          -DE/DX =    0.0                 !
 ! R8    R(4,9)                  1.0853         -DE/DX =    0.0                 !
 ! R9    R(5,7)                  1.3926         -DE/DX =    0.0                 !
 ! R10   R(5,10)                 1.0874         -DE/DX =    0.0                 !
 ! R11   R(6,7)                  1.4134         -DE/DX =    0.0                 !
 ! R12   R(6,11)                 1.0888         -DE/DX =    0.0                 !
 ! R13   R(7,12)                 1.0854         -DE/DX =    0.0                 !
 ! A1    A(3,1,8)               75.0491         -DE/DX =    0.0                 !
 ! A2    A(3,2,5)              123.1148         -DE/DX =    0.0                 !
 ! A3    A(3,2,8)               75.1355         -DE/DX =    0.0                 !
 ! A4    A(5,2,8)              161.7497         -DE/DX =    0.0                 !
 ! A5    A(1,3,2)              105.6509         -DE/DX =    0.0                 !
 ! A6    A(1,3,4)              134.2331         -DE/DX =    0.0                 !
 ! A7    A(2,3,4)              120.116          -DE/DX =    0.0                 !
 ! A8    A(3,4,6)              116.8021         -DE/DX =    0.0                 !
 ! A9    A(3,4,9)              120.725          -DE/DX =    0.0                 !
 ! A10   A(6,4,9)              122.4729         -DE/DX =    0.0                 !
 ! A11   A(2,5,7)              119.267          -DE/DX =    0.0                 !
 ! A12   A(2,5,10)             117.5546         -DE/DX =    0.0                 !
 ! A13   A(7,5,10)             123.1784         -DE/DX =    0.0                 !
 ! A14   A(4,6,7)              121.927          -DE/DX =    0.0                 !
 ! A15   A(4,6,11)             119.0843         -DE/DX =    0.0                 !
 ! A16   A(7,6,11)             118.9886         -DE/DX =    0.0                 !
 ! A17   A(5,7,6)              118.773          -DE/DX =    0.0                 !
 ! A18   A(5,7,12)             120.187          -DE/DX =    0.0                 !
 ! A19   A(6,7,12)             121.0399         -DE/DX =    0.0                 !
 ! D1    D(8,1,3,2)              0.0021         -DE/DX =    0.0                 !
 ! D2    D(8,1,3,4)            180.0007         -DE/DX =    0.0                 !
 ! D3    D(5,2,3,1)            180.0032         -DE/DX =    0.0                 !
 ! D4    D(5,2,3,4)              0.0044         -DE/DX =    0.0                 !
 ! D5    D(8,2,3,1)             -0.0023         -DE/DX =    0.0                 !
 ! D6    D(8,2,3,4)           -180.0011         -DE/DX =    0.0                 !
 ! D7    D(3,2,5,7)             -0.0027         -DE/DX =    0.0                 !
 ! D8    D(3,2,5,10)          -180.0022         -DE/DX =    0.0                 !
 ! D9    D(8,2,5,7)            180.0142         -DE/DX =    0.0                 !
 ! D10   D(8,2,5,10)             0.0147         -DE/DX =    0.0                 !
 ! D11   D(1,3,4,6)            179.9983         -DE/DX =    0.0                 !
 ! D12   D(1,3,4,9)             -0.0019         -DE/DX =    0.0                 !
 ! D13   D(2,3,4,6)             -0.0032         -DE/DX =    0.0                 !
 ! D14   D(2,3,4,9)           -180.0035         -DE/DX =    0.0                 !
 ! D15   D(3,4,6,7)              0.0007         -DE/DX =    0.0                 !
 ! D16   D(3,4,6,11)          -179.9998         -DE/DX =    0.0                 !
 ! D17   D(9,4,6,7)            180.0009         -DE/DX =    0.0                 !
 ! D18   D(9,4,6,11)             0.0004         -DE/DX =    0.0                 !
 ! D19   D(2,5,7,6)              0.0            -DE/DX =    0.0                 !
 ! D20   D(2,5,7,12)           180.0            -DE/DX =    0.0                 !
 ! D21   D(10,5,7,6)           179.9995         -DE/DX =    0.0                 !
 ! D22   D(10,5,7,12)           -0.0005         -DE/DX =    0.0                 !
 ! D23   D(4,6,7,5)              0.0009         -DE/DX =    0.0                 !
 ! D24   D(4,6,7,12)          -179.9991         -DE/DX =    0.0                 !
 ! D25   D(11,6,7,5)           180.0014         -DE/DX =    0.0                 !
 ! D26   D(11,6,7,12)            0.0014         -DE/DX =    0.0                 !
 --------------------------------------------------------------------------------
 GradGradGradGradGradGradGradGradGradGradGradGradGradGradGradGradGradGrad

 Leave Link  103 at Sat Aug 28 00:56:22 2021, MaxMem= 17179869184 cpu:        59.6
 (Enter /public3/home/sc51754/softwares/g09e01/l9999.exe)
 1\1\GINC-Q1301\Freq\RBLYP\Gen\C5H5N1O1\SC51754\28-Aug-2021\0\\#P Geom=
 AllCheck Guess=TCheck SCRF=Check GenChk RBLYP/ChkBas Freq\\HY_BLYP_PC2
 _OPT_FREQ\\0,1\O,0.007871362,2.6099949115,0.0020666812\N,-0.9150699158
 ,0.688659822,0.0008124878\C,0.2937368788,1.3407103321,0.0009850585\C,1
 .4991944888,0.6008235669,0.0000360584\C,-1.0270400448,-0.6527201143,-0
 .0001499097\C,1.3842010422,-0.786393651,-0.0009790809\C,0.1269345561,-
 1.4322177547,-0.0010785981\H,-1.221284404,1.9662270052,0.0019563868\H,
 2.4598118364,1.1058910486,0.0001061456\H,-2.0295555451,-1.0737883235,-
 0.0001668443\H,2.2887165306,-1.3924399036,-0.001727056\H,0.0540234147,
 -2.5152044392,-0.0018613292\\Version=EM64L-G09RevE.01\State=1-A\HF=-32
 3.5060122\RMSD=3.719e-09\RMSF=7.014e-06\ZeroPoint=0.0854628\Thermal=0.
 0906181\Dipole=-0.0136815,-1.33616,-0.0010119\DipoleDeriv=-0.4499986,-
 0.0201612,0.0000135,0.1744243,-1.5215035,-0.0009683,0.0001628,-0.00088
 82,-0.3550753,-0.3078849,-0.3795359,-0.0002687,0.1309816,-0.8873132,-0
 .0005769,0.0000902,-0.0004643,-0.1900014,0.1647713,-0.3533805,-0.00026
 39,-0.2316506,1.5211143,0.0011306,-0.0001664,0.0011766,0.1821057,-0.00
 13645,0.4600537,0.0003048,-0.0709,-0.52757,-0.0002728,-0.0001065,-0.00
 04391,-0.1544406,0.4447694,0.1281287,-0.0000239,-0.4418528,0.3932884,0
 .0004083,-0.0004482,0.0002482,0.0161116,0.3325448,0.1221594,-0.0000302
 ,0.1818338,0.4318717,0.0003378,0.0000095,0.0003595,-0.07505,-0.5169362
 ,-0.1431369,-0.0000132,0.0673007,-0.1481831,-0.0000014,0.0001557,0.000
 0672,-0.1831493,0.3485199,0.2129854,0.0001281,0.2160012,0.6922308,0.00
 03143,0.0001459,0.0003153,0.2104309,-0.0157323,-0.0386532,0.0000229,-0
 .0435701,0.0407965,-0.000069,0.0000228,-0.0000756,0.1492561,-0.0311662
 ,-0.062636,-0.0000013,-0.0407922,0.0474098,-0.0000455,0.0000137,-0.000
 0376,0.1241187,-0.0325912,0.078749,0.0001077,0.0788959,0.0288838,-0.00
 00942,0.0001089,-0.0000975,0.1209143,0.0650684,-0.0045725,0.0000242,-0
 .0206718,-0.0710254,-0.0001627,0.0000116,-0.0001645,0.1547792\Polar=78
 .0670003,-0.0953815,93.6942903,-0.0120896,0.0422449,38.6865198\PG=C01 
 [X(C5H5N1O1)]\NImag=1\\0.07515401,-0.01139803,0.54265291,-0.00001526,0
 .00039416,0.04828027,-0.01229765,-0.04898219,-0.00002554,0.43653716,-0
 .13524993,-0.11649368,-0.00007868,0.10786904,0.63645190,-0.00009207,-0
 .00010397,0.03304994,-0.00002132,0.00039148,0.08292468,-0.09456758,0.0
 5119220,0.00004921,-0.22397273,-0.01829423,0.00002713,0.63733463,0.025
 59314,-0.37188472,-0.00024799,-0.05949230,-0.16544448,-0.00005612,-0.1
 1446732,0.65888945,0.00002917,-0.00025671,-0.06433134,-0.00000510,-0.0
 0006910,-0.07139942,-0.00023067,0.00041637,0.17037613,-0.00406386,0.01
 732815,0.00001789,-0.04754801,-0.01704339,0.00000363,-0.24029599,0.071
 59658,0.00010996,0.67276077,0.05322032,-0.02371668,-0.00004353,0.01064
 368,0.05621015,0.00003588,0.04005193,-0.13658106,-0.00006721,0.0603333
 1,0.64296166,0.00004592,-0.00003291,0.01064838,0.00002335,0.00004396,0
 .00546336,0.00008753,-0.00007589,-0.06610270,-0.00013512,0.00038738,0.
 10843978,0.01001140,-0.00324530,-0.00000391,-0.13328515,-0.01746645,0.
 00001501,0.02356385,-0.02313290,-0.00002345,-0.00864055,0.01748562,0.0
 0001550,0.72183548,0.02069946,0.00014829,-0.00001121,-0.01507198,-0.30
 926929,-0.00019238,-0.08199683,-0.02247859,0.00000899,0.02209557,-0.04
 115736,-0.00003817,0.03708466,0.61363682,0.00001265,-0.00000384,0.0062
 0298,0.00001694,-0.00019135,-0.04597695,-0.00006949,-0.00001165,-0.000
 58581,0.00001891,-0.00003598,-0.00013228,-0.00014802,0.00034895,0.1321
 0278,-0.01714901,0.00076054,0.00000757,-0.01518772,-0.03614246,-0.0000
 2420,0.03965939,0.02841222,0.00000981,-0.12258665,0.00515851,0.0000261
 9,-0.05627170,0.02979147,0.00004093,0.65003682,-0.01523659,0.00579865,
 0.00000541,-0.01736201,-0.04289104,-0.00002371,0.06260478,-0.03849018,
 -0.00004849,-0.04126437,-0.33149943,-0.00019965,-0.01006546,0.05323532
 ,0.00003880,-0.04319012,0.65047202,-0.00000502,0.00000043,0.00503560,-
 0.00001004,-0.00001776,-0.00499707,0.00003604,-0.00003930,0.00056980,-
 0.00000941,-0.00021336,-0.05134387,0.00001111,0.00002741,0.00545384,-0
 .00019506,0.00040504,0.13387438,0.01676967,-0.00212525,-0.00000772,0.0
 2866841,0.07075297,0.00004876,-0.06044686,0.00536705,0.00002018,0.0193
 8019,-0.06248495,-0.00005107,-0.26258326,0.06061434,0.00010634,-0.2457
 9353,-0.03785903,0.00003042,0.59223520,-0.00650416,-0.00637377,-0.0000
 0122,0.02753374,-0.05895284,-0.00006465,0.01021601,-0.00004228,0.00000
 249,-0.03260756,-0.02095174,-0.00001080,0.11313650,-0.16980840,-0.0001
 1680,-0.09169471,-0.15156533,-0.00004257,-0.00804759,0.71035257,-0.000
 01040,-0.00000231,-0.00254498,0.00001616,-0.00007710,0.01593383,0.0000
 2395,0.00000451,-0.00727379,-0.00002805,-0.00000222,0.00710931,0.00014
 529,-0.00010106,-0.05877910,-0.00001092,-0.00005896,-0.05742679,-0.000
 15277,0.00045168,0.10712288,0.02228892,-0.00390061,-0.00002027,-0.0279
 7332,0.04372953,0.00003630,-0.06677895,0.08014585,0.00009025,0.0015094
 6,-0.01017219,-0.00000684,-0.00827622,-0.00700448,-0.00000425,0.002967
 67,0.00476427,0.00000261,-0.00307464,0.00087458,0.00000272,0.08139764,
 0.06993847,-0.02863260,-0.00001843,0.02189493,0.01868462,0.00002799,0.
 03530768,0.07136251,0.00002919,0.00746264,-0.02047329,-0.00002341,-0.0
 1924924,-0.01847063,-0.00000159,0.00910875,0.01202376,0.00000695,-0.01
 277206,0.00571505,0.00000424,-0.10929383,-0.04104643,0.00003785,0.0000
 0367,-0.03310497,0.00002046,0.00002137,-0.02644460,0.00005517,0.000016
 74,0.01941320,0.00000722,-0.00001827,0.00644146,-0.00001612,-0.0000070
 7,-0.00581294,0.00000608,0.00000821,-0.00054312,-0.00000720,0.00000140
 ,0.00431862,-0.00010122,-0.00002854,0.03840709,0.00209657,0.00051887,-
 0.00000093,-0.00283434,0.00349397,0.00000558,-0.01736904,-0.01518651,-
 0.00000580,-0.27140056,-0.11111027,-0.00000567,-0.00023475,0.00203438,
 0.00000151,0.00290485,0.00054781,-0.00000019,0.00249973,0.00046796,0.0
 0000224,-0.00161740,-0.00117768,-0.00000060,0.28519617,-0.00174011,0.0
 0057752,0.00000253,0.00454909,-0.00110253,-0.00000651,0.01428783,0.011
 44761,0.00000310,-0.11173024,-0.11196243,-0.00002644,0.00038242,-0.001
 37351,-0.00000092,-0.02756893,-0.00929938,0.00000082,0.00145404,-0.004
 52600,-0.00001001,0.00068799,0.00070071,0.00000061,0.12075316,0.114621
 30,-0.00000240,0.00000165,-0.00195065,0.00000618,-0.00000605,0.0056961
 2,0.00001605,0.00001277,0.00134143,-0.00000560,-0.00002670,-0.02960162
 ,0.00000027,-0.00000169,-0.00033058,-0.00002148,-0.00000790,0.00104483
 ,0.00000270,-0.00000976,0.00813287,0.00000093,0.00000111,-0.00030564,0
 .00000614,0.00003163,0.02143849,-0.00067592,-0.00032501,0.00000006,0.0
 0210100,-0.00500823,-0.00000470,0.00308867,0.00132862,0.00000277,0.000
 16468,0.00054390,0.00000021,-0.28781606,-0.09134172,0.00000630,-0.0023
 4632,0.00381229,0.00000575,-0.01476373,-0.01167259,-0.00000287,0.00049
 696,0.00075256,-0.00000020,-0.00005154,-0.00005414,-0.00000051,0.29997
 833,-0.00003742,-0.00194722,-0.00000191,-0.03495581,-0.01655215,-0.000
 00180,0.00303421,-0.00137129,-0.00000816,-0.00021216,-0.00061779,-0.00
 000002,-0.08796849,-0.09072755,-0.00001399,0.00291328,-0.00189830,-0.0
 0000773,0.01497675,0.01154298,0.00000021,-0.00021443,-0.00065958,0.000
 00126,-0.00019678,0.00017319,0.00000144,0.10236482,0.10108706,0.000000
 07,-0.00000142,0.00040090,-0.00002655,-0.00001070,-0.00060063,0.000003
 85,-0.00000860,0.00881147,-0.00000048,-0.00000009,-0.00052765,0.000008
 54,-0.00001305,-0.03666140,0.00000501,-0.00000800,0.00726143,0.0000174
 2,0.00000804,0.00529505,-0.00000081,0.00000151,-0.00232002,-0.00000068
 ,0.00000142,-0.00167102,-0.00000545,0.00002722,0.02384191,0.00011665,0
 .00009675,-0.00000026,0.00051800,-0.00112034,-0.00000121,0.00159512,-0
 .00152938,0.00000137,0.00506162,-0.00219682,-0.00000173,-0.00411888,-0
 .00312471,0.00000078,-0.23812906,0.12141040,0.00015549,-0.01759673,0.0
 1649193,0.00001928,-0.00000033,0.00000327,-0.00000033,0.00076138,0.000
 27045,-0.00000143,-0.00088459,0.00087645,0.00000076,0.25168529,0.00179
 822,-0.00023570,-0.00000007,-0.00029020,-0.00009019,0.00000069,-0.0017
 1778,-0.00527363,-0.00001073,0.02608100,-0.01307844,-0.00002184,-0.003
 07543,-0.00072117,-0.00000403,0.12122594,-0.13723326,-0.00011317,-0.01
 248376,0.01094038,0.00000919,-0.00010625,-0.00065653,0.00000025,-0.000
 34043,0.00114995,0.00000436,-0.00068989,0.00045709,0.00000081,-0.13094
 822,0.14407621,0.00000099,0.00000066,-0.00094612,-0.00000047,0.0000011
 1,-0.00079097,0.00000083,-0.00001086,0.00962105,0.00001972,-0.00001347
 ,0.00483128,0.00000092,-0.00000410,0.00581802,0.00015595,-0.00011282,-
 0.03877270,-0.00000325,-0.00000003,0.00396192,-0.00000031,0.00000031,-
 0.00099905,-0.00000195,0.00000413,-0.00442074,-0.00000035,0.00000036,-
 0.00038886,-0.00017127,0.00013194,0.02506914,0.00231680,0.00007987,-0.
 00000084,-0.00472566,0.00447953,0.00000708,-0.00181052,0.00136494,0.00
 000150,-0.00434110,-0.00147304,0.00000173,0.00581581,0.02621984,0.0000
 1739,0.00189527,-0.02816198,-0.00002170,-0.05529445,-0.01819409,-0.000
 00463,-0.00093977,-0.00197549,-0.00000110,0.00004893,-0.00129156,-0.00
 000084,0.00070853,-0.00058042,-0.00000167,0.00099153,0.00054679,-0.000
 00081,0.05533464,-0.00108338,0.00010702,0.00000095,0.00366400,-0.00055
 047,-0.00000690,-0.00021850,-0.00013333,0.00000026,-0.00203952,0.00086
 639,-0.00000222,-0.00388594,-0.01301394,-0.00000760,0.00122551,-0.0086
 5283,-0.00000676,-0.01739251,-0.32633062,-0.00021818,0.00048956,0.0014
 5241,0.00000037,0.00019554,-0.00040643,-0.00000085,0.00028939,0.000513
 54,0.00000285,-0.00022978,0.00066527,0.00000278,0.01898561,0.34548299,
 -0.00000148,0.00000059,-0.00074001,0.00000593,-0.00000718,0.00714171,0
 .00000041,0.00000002,-0.00044001,0.00000132,-0.00000244,0.00477455,-0.
 00000515,-0.00001662,-0.00129855,0.00000013,0.00000205,-0.00015633,-0.
 00000381,-0.00021776,-0.02584982,0.00000088,0.00000067,0.00094998,0.00
 000034,-0.00000038,0.00062650,-0.00000101,0.00000314,-0.00344116,-0.00
 000145,0.00000261,-0.00298297,0.00000390,0.00023529,0.02141610\\0.0000
 0269,-0.00002645,-0.00000288,0.00001245,0.00000899,-0.00000549,-0.0000
 1853,0.00001756,0.00000528,-0.00000241,-0.00000142,0.00000011,0.000003
 66,0.00000289,0.00000037,0.00000119,-0.00000277,0.00000079,-0.00000091
 ,-0.00000274,-0.00000039,0.00000459,0.00000463,0.00000306,0.00000040,-
 0.00000103,-0.00000098,-0.00000099,0.00000184,0.00000018,-0.00000082,-
 0.00000128,-0.00000040,-0.00000132,-0.00000020,0.00000035\\\@


 DO NOT LET SELFISH MEN OR GREEDY INTERESTS SKIN YOUR COUNTRY OF ITS
 BEAUTY, ITS RICHES, OR ITS ROMANCE. -- THEODORE ROOSEVELT
 Job cpu time:       0 days  0 hours 42 minutes 18.1 seconds.
 File lengths (MBytes):  RWF=     81 Int=      0 D2E=      0 Chk=      7 Scr=      1
 Normal termination of Gaussian 09 at Sat Aug 28 00:56:22 2021.
