 Entering Gaussian System, Link 0=g09
 AtFile(1): pc-2.gbs
            -H     0
            S    4   1.00
                  0.754230D+02           0.240650D-02
                  0.113500D+02           0.184870D-01
                  0.259930D+01           0.897420D-01
                  0.735130D+00           0.281110D+00
            S    1   1.00
                  0.231670D+00           0.100000D+01
            S    1   1.00
                  0.741470D-01           0.100000D+01
            P    1   1.00
                  0.160000D+01           0.100000D+01
            P    1   1.00
                  0.450000D+00           0.100000D+01
            D    1   1.00
                  0.125000D+01           0.100000D+01
            ****
            -C     0
            S    7   1.00
                  0.785710D+04           0.568250D-03
                  0.117870D+04           0.439150D-02
                  0.268320D+03           0.225040D-01
                  0.759480D+02           0.866530D-01
                  0.245590D+02           0.244050D+00
                  0.862120D+01           0.441480D+00
                  0.312780D+01           0.353320D+00
            S    7   1.00
                  0.117870D+04          -0.594920D-06
                  0.268320D+03          -0.627480D-04
                  0.759480D+02          -0.757730D-03
                  0.245590D+02          -0.733080D-02
                  0.862120D+01          -0.389320D-01
                  0.312780D+01          -0.889080D-01
                  0.822020D+00           0.216890D+00
            S    1   1.00
                  0.330170D+00           0.100000D+01
            S    1   1.00
                  0.114630D+00           0.100000D+01
            P    4   1.00
                  0.337750D+02           0.602940D-02
                  0.767660D+01           0.432280D-01
                  0.223570D+01           0.163010D+00
                  0.764470D+00           0.365040D+00
            P    1   1.00
                  0.262320D+00           0.100000D+01
            P    1   1.00
                  0.846380D-01           0.100000D+01
            D    1   1.00
                  0.140000D+01           0.100000D+01
            D    1   1.00
                  0.450000D+00           0.100000D+01
            F    1   1.00
                  0.950000D+00           0.100000D+01
            ****
            -N     0
            S    7   1.00
                  0.111010D+05           0.545700D-03
                  0.166530D+04           0.421810D-02
                  0.379080D+03           0.216450D-01
                  0.107300D+03           0.837760D-01
                  0.347470D+02           0.238810D+00
                  0.122490D+02           0.439940D+00
                  0.447430D+01           0.363640D+00
            S    7   1.00
                  0.166530D+04          -0.150060D-05
                  0.379080D+03          -0.587530D-04
                  0.107300D+03          -0.774530D-03
                  0.347470D+02          -0.721610D-02
                  0.122490D+02          -0.393380D-01
                  0.447430D+01          -0.906110D-01
                  0.124040D+01           0.198820D+00
            S    1   1.00
                  0.487430D+00           0.100000D+01
            S    1   1.00
                  0.164840D+00           0.100000D+01
            P    4   1.00
                  0.479340D+02           0.617060D-02
                  0.109990D+02           0.442600D-01
                  0.324720D+01           0.168250D+00
                  0.111140D+01           0.368480D+00
            P    1   1.00
                  0.379880D+00           0.100000D+01
            P    1   1.00
                  0.120680D+00           0.100000D+01
            D    1   1.00
                  0.180000D+01           0.100000D+01
            D    1   1.00
                  0.550000D+00           0.100000D+01
            F    1   1.00
                  0.102000D+01           0.100000D+01
            ****
            -O     0
            S    7   1.00
                  0.147820D+05           0.535190D-03
                  0.221730D+04           0.413750D-02
                  0.504740D+03           0.212450D-01
                  0.142870D+03           0.824530D-01
                  0.463000D+02           0.236710D+00
                  0.163370D+02           0.440390D+00
                  0.598280D+01           0.364650D+00
            S    7   1.00
                  0.221730D+04          -0.192750D-05
                  0.504740D+03          -0.579640D-04
                  0.142870D+03          -0.794940D-03
                  0.463000D+02          -0.731250D-02
                  0.163370D+02          -0.405740D-01
                  0.598280D+01          -0.915940D-01
                  0.167180D+01           0.209400D+00
            S    1   1.00
                  0.646620D+00           0.100000D+01
            S    1   1.00
                  0.216690D+00           0.100000D+01
            P    4   1.00
                  0.604240D+02           0.689490D-02
                  0.139350D+02           0.490050D-01
                  0.415310D+01           0.182550D+00
                  0.141580D+01           0.376330D+00
            P    1   1.00
                  0.475490D+00           0.100000D+01
            P    1   1.00
                  0.145290D+00           0.100000D+01
            D    1   1.00
                  0.220000D+01           0.100000D+01
            D    1   1.00
                  0.650000D+00           0.100000D+01
            F    1   1.00
                  0.110000D+01           0.100000D+01
            ****
 Initial command:
 /public3/home/sc51754/softwares/g09e01/l1.exe "./Gau-5476.inp" -scrdir="./"
 Entering Link 1 = /public3/home/sc51754/softwares/g09e01/l1.exe PID=      5477.
  
 Copyright (c) 1988,1990,1992,1993,1995,1998,2003,2009,2015,
            Gaussian, Inc.  All Rights Reserved.
  
 This is part of the Gaussian(R) 09 program.  It is based on
 the Gaussian(R) 03 system (copyright 2003, Gaussian, Inc.),
 the Gaussian(R) 98 system (copyright 1998, Gaussian, Inc.),
 the Gaussian(R) 94 system (copyright 1995, Gaussian, Inc.),
 the Gaussian 92(TM) system (copyright 1992, Gaussian, Inc.),
 the Gaussian 90(TM) system (copyright 1990, Gaussian, Inc.),
 the Gaussian 88(TM) system (copyright 1988, Gaussian, Inc.),
 the Gaussian 86(TM) system (copyright 1986, Carnegie Mellon
 University), and the Gaussian 82(TM) system (copyright 1983,
 Carnegie Mellon University). Gaussian is a federally registered
 trademark of Gaussian, Inc.
  
 This software contains proprietary and confidential information,
 including trade secrets, belonging to Gaussian, Inc.
  
 This software is provided under written license and may be
 used, copied, transmitted, or stored only in accord with that
 written license.
  
 The following legend is applicable only to US Government
 contracts under FAR:
  
                    RESTRICTED RIGHTS LEGEND
  
 Use, reproduction and disclosure by the US Government is
 subject to restrictions as set forth in subparagraphs (a)
 and (c) of the Commercial Computer Software - Restricted
 Rights clause in FAR 52.227-19.
  
 Gaussian, Inc.
 340 Quinnipiac St., Bldg. 40, Wallingford CT 06492
  
  
 ---------------------------------------------------------------
 Warning -- This program may not be used in any manner that
 competes with the business of Gaussian, Inc. or will provide
 assistance to any competitor of Gaussian, Inc.  The licensee
 of this program is prohibited from giving any competitor of
 Gaussian, Inc. access to this program.  By using this program,
 the user acknowledges that Gaussian, Inc. is engaged in the
 business of creating and licensing software in the field of
 computational chemistry and represents and warrants to the
 licensee that it is not a competitor of Gaussian, Inc. and that
 it will not use this program in any manner prohibited above.
 ---------------------------------------------------------------
  

 Cite this work as:
 Gaussian 09, Revision E.01,
 M. J. Frisch, G. W. Trucks, H. B. Schlegel, G. E. Scuseria, 
 M. A. Robb, J. R. Cheeseman, G. Scalmani, V. Barone, B. Mennucci, 
 G. A. Petersson, H. Nakatsuji, M. Caricato, X. Li, H. P. Hratchian, 
 A. F. Izmaylov, J. Bloino, G. Zheng, J. L. Sonnenberg, M. Hada, 
 M. Ehara, K. Toyota, R. Fukuda, J. Hasegawa, M. Ishida, T. Nakajima, 
 Y. Honda, O. Kitao, H. Nakai, T. Vreven, J. A. Montgomery, Jr., 
 J. E. Peralta, F. Ogliaro, M. Bearpark, J. J. Heyd, E. Brothers, 
 K. N. Kudin, V. N. Staroverov, T. Keith, R. Kobayashi, J. Normand, 
 K. Raghavachari, A. Rendell, J. C. Burant, S. S. Iyengar, J. Tomasi, 
 M. Cossi, N. Rega, J. M. Millam, M. Klene, J. E. Knox, J. B. Cross, 
 V. Bakken, C. Adamo, J. Jaramillo, R. Gomperts, R. E. Stratmann, 
 O. Yazyev, A. J. Austin, R. Cammi, C. Pomelli, J. W. Ochterski, 
 R. L. Martin, K. Morokuma, V. G. Zakrzewski, G. A. Voth, 
 P. Salvador, J. J. Dannenberg, S. Dapprich, A. D. Daniels, 
 O. Farkas, J. B. Foresman, J. V. Ortiz, J. Cioslowski, 
 and D. J. Fox, Gaussian, Inc., Wallingford CT, 2013.
 
 ******************************************
 Gaussian 09:  EM64L-G09RevE.01 30-Nov-2015
                27-Aug-2021 
 ******************************************
 %nprocshared=64
 Will use up to   64 processors via shared memory.
 %mem=128GB
 %chk=HY_M06L_PC2_OPT_FREQ.chk
 --------------------
 #p opt freq M06L/gen
 --------------------
 1/14=-1,18=20,19=15,26=3,38=1/1,3;
 2/9=110,12=2,17=6,18=5,40=1/2;
 3/5=7,11=2,16=1,25=1,30=1,71=1,74=-53/1,2,3;
 4//1;
 5/5=2,38=5/2;
 6/7=2,8=2,9=2,10=2,28=1/1;
 7//1,2,3,16;
 1/14=-1,18=20,19=15,26=3/3(2);
 2/9=110/2;
 99//99;
 2/9=110/2;
 3/5=7,6=1,11=2,16=1,25=1,30=1,71=1,74=-53,82=7/1,2,3;
 4/5=5,16=3,69=1/1;
 5/5=2,38=5/2;
 7//1,2,3,16;
 1/14=-1,18=20,19=15,26=3/3(-5);
 2/9=110/2;
 6/7=2,8=2,9=2,10=2,19=2,28=1/1;
 99/9=1/99;
 Leave Link    1 at Fri Aug 27 00:04:58 2021, MaxMem= 17179869184 cpu:         3.2
 (Enter /public3/home/sc51754/softwares/g09e01/l101.exe)
 --------------------
 HY_M06L_PC2_OPT_FREQ
 --------------------
 Symbolic Z-matrix:
 Charge =  0 Multiplicity = 1
 O                     0.00837   2.23974   0. 
 N                    -1.17143   0.29602   0. 
 C                     0.        0.89831   0. 
 C                     1.21926   0.22535   0. 
 C                    -1.18415  -1.03535   0. 
 C                     1.18363  -1.14867   0. 
 C                    -0.04131  -1.80488   0. 
 H                    -0.91394   2.51588   0. 
 H                     2.14363   0.78426   0. 
 H                    -2.16362  -1.50192   0. 
 H                     2.10659  -1.71377   0. 
 H                    -0.10426  -2.88308   0. 
 
 NAtoms=     12 NQM=       12 NQMF=       0 NMMI=      0 NMMIF=      0
                NMic=       0 NMicF=      0.
                    Isotopes and Nuclear Properties:
 (Nuclear quadrupole moments (NQMom) in fm**2, nuclear magnetic moments (NMagM)
  in nuclear magnetons)

  Atom         1           2           3           4           5           6           7           8           9          10
 IAtWgt=          16          14          12          12          12          12          12           1           1           1
 AtmWgt=  15.9949146  14.0030740  12.0000000  12.0000000  12.0000000  12.0000000  12.0000000   1.0078250   1.0078250   1.0078250
 NucSpn=           0           2           0           0           0           0           0           1           1           1
 AtZEff=   0.0000000   0.0000000   0.0000000   0.0000000   0.0000000   0.0000000   0.0000000   0.0000000   0.0000000   0.0000000
 NQMom=    0.0000000   2.0440000   0.0000000   0.0000000   0.0000000   0.0000000   0.0000000   0.0000000   0.0000000   0.0000000
 NMagM=    0.0000000   0.4037610   0.0000000   0.0000000   0.0000000   0.0000000   0.0000000   2.7928460   2.7928460   2.7928460
 AtZNuc=   8.0000000   7.0000000   6.0000000   6.0000000   6.0000000   6.0000000   6.0000000   1.0000000   1.0000000   1.0000000

  Atom        11          12
 IAtWgt=           1           1
 AtmWgt=   1.0078250   1.0078250
 NucSpn=           1           1
 AtZEff=   0.0000000   0.0000000
 NQMom=    0.0000000   0.0000000
 NMagM=    2.7928460   2.7928460
 AtZNuc=   1.0000000   1.0000000
 Leave Link  101 at Fri Aug 27 00:04:58 2021, MaxMem= 17179869184 cpu:         6.1
 (Enter /public3/home/sc51754/softwares/g09e01/l103.exe)

 GradGradGradGradGradGradGradGradGradGradGradGradGradGradGradGradGradGrad
 Berny optimization.
 Initialization pass.
                           ----------------------------
                           !    Initial Parameters    !
                           ! (Angstroms and Degrees)  !
 --------------------------                            --------------------------
 ! Name  Definition              Value          Derivative Info.                !
 --------------------------------------------------------------------------------
 ! R1    R(1,3)                  1.3415         estimate D2E/DX2                !
 ! R2    R(1,8)                  0.9628         estimate D2E/DX2                !
 ! R3    R(2,3)                  1.3172         estimate D2E/DX2                !
 ! R4    R(2,5)                  1.3314         estimate D2E/DX2                !
 ! R5    R(3,4)                  1.3927         estimate D2E/DX2                !
 ! R6    R(4,6)                  1.3745         estimate D2E/DX2                !
 ! R7    R(4,9)                  1.0802         estimate D2E/DX2                !
 ! R8    R(5,7)                  1.3778         estimate D2E/DX2                !
 ! R9    R(5,10)                 1.0849         estimate D2E/DX2                !
 ! R10   R(6,7)                  1.3896         estimate D2E/DX2                !
 ! R11   R(6,11)                 1.0822         estimate D2E/DX2                !
 ! R12   R(7,12)                 1.08           estimate D2E/DX2                !
 ! A1    A(3,1,8)              106.3104         estimate D2E/DX2                !
 ! A2    A(3,2,5)              117.7571         estimate D2E/DX2                !
 ! A3    A(1,3,2)              117.5674         estimate D2E/DX2                !
 ! A4    A(1,3,4)              118.5383         estimate D2E/DX2                !
 ! A5    A(2,3,4)              123.8942         estimate D2E/DX2                !
 ! A6    A(3,4,6)              117.4104         estimate D2E/DX2                !
 ! A7    A(3,4,9)              119.945          estimate D2E/DX2                !
 ! A8    A(6,4,9)              122.6446         estimate D2E/DX2                !
 ! A9    A(2,5,7)              123.4071         estimate D2E/DX2                !
 ! A10   A(2,5,10)             116.018          estimate D2E/DX2                !
 ! A11   A(7,5,10)             120.5749         estimate D2E/DX2                !
 ! A12   A(4,6,7)              119.6636         estimate D2E/DX2                !
 ! A13   A(4,6,11)             119.9925         estimate D2E/DX2                !
 ! A14   A(7,6,11)             120.3439         estimate D2E/DX2                !
 ! A15   A(5,7,6)              117.8675         estimate D2E/DX2                !
 ! A16   A(5,7,12)             120.6134         estimate D2E/DX2                !
 ! A17   A(6,7,12)             121.519          estimate D2E/DX2                !
 ! D1    D(8,1,3,2)              0.0            estimate D2E/DX2                !
 ! D2    D(8,1,3,4)            180.0            estimate D2E/DX2                !
 ! D3    D(5,2,3,1)            180.0            estimate D2E/DX2                !
 ! D4    D(5,2,3,4)              0.0            estimate D2E/DX2                !
 ! D5    D(3,2,5,7)              0.0            estimate D2E/DX2                !
 ! D6    D(3,2,5,10)           180.0            estimate D2E/DX2                !
 ! D7    D(1,3,4,6)            180.0            estimate D2E/DX2                !
 ! D8    D(1,3,4,9)              0.0            estimate D2E/DX2                !
 ! D9    D(2,3,4,6)              0.0            estimate D2E/DX2                !
 ! D10   D(2,3,4,9)            180.0            estimate D2E/DX2                !
 ! D11   D(3,4,6,7)              0.0            estimate D2E/DX2                !
 ! D12   D(3,4,6,11)           180.0            estimate D2E/DX2                !
 ! D13   D(9,4,6,7)            180.0            estimate D2E/DX2                !
 ! D14   D(9,4,6,11)             0.0            estimate D2E/DX2                !
 ! D15   D(2,5,7,6)              0.0            estimate D2E/DX2                !
 ! D16   D(2,5,7,12)           180.0            estimate D2E/DX2                !
 ! D17   D(10,5,7,6)           180.0            estimate D2E/DX2                !
 ! D18   D(10,5,7,12)            0.0            estimate D2E/DX2                !
 ! D19   D(4,6,7,5)              0.0            estimate D2E/DX2                !
 ! D20   D(4,6,7,12)           180.0            estimate D2E/DX2                !
 ! D21   D(11,6,7,5)           180.0            estimate D2E/DX2                !
 ! D22   D(11,6,7,12)            0.0            estimate D2E/DX2                !
 --------------------------------------------------------------------------------
 Trust Radius=3.00D-01 FncErr=1.00D-07 GrdErr=1.00D-06
 Number of steps in this run=     61 maximum allowed number of steps=    100.
 GradGradGradGradGradGradGradGradGradGradGradGradGradGradGradGradGradGrad

 Leave Link  103 at Fri Aug 27 00:04:58 2021, MaxMem= 17179869184 cpu:         0.1
 (Enter /public3/home/sc51754/softwares/g09e01/l202.exe)
                          Input orientation:                          
 ---------------------------------------------------------------------
 Center     Atomic      Atomic             Coordinates (Angstroms)
 Number     Number       Type             X           Y           Z
 ---------------------------------------------------------------------
      1          8           0        0.008372    2.239736    0.000000
      2          7           0       -1.171427    0.296023    0.000000
      3          6           0        0.000000    0.898309    0.000000
      4          6           0        1.219264    0.225352    0.000000
      5          6           0       -1.184145   -1.035351    0.000000
      6          6           0        1.183632   -1.148671    0.000000
      7          6           0       -0.041314   -1.804878    0.000000
      8          1           0       -0.913944    2.515883    0.000000
      9          1           0        2.143627    0.784264    0.000000
     10          1           0       -2.163617   -1.501920    0.000000
     11          1           0        2.106589   -1.713772    0.000000
     12          1           0       -0.104256   -2.883075    0.000000
 ---------------------------------------------------------------------
                    Distance matrix (angstroms):
                    1          2          3          4          5
     1  O    0.000000
     2  N    2.273752   0.000000
     3  C    1.341453   1.317190   0.000000
     4  C    2.350320   2.391735   1.392651   0.000000
     5  C    3.485440   1.331435   2.267430   2.713991   0.000000
     6  C    3.586438   2.762869   2.364553   1.374485   2.370487
     7  C    4.044919   2.385569   2.703503   2.389747   1.377764
     8  H    0.962769   2.234743   1.857913   3.130033   3.561498
     9  H    2.584127   3.350815   2.146659   1.080199   3.792765
    10  H    4.326376   2.053543   3.231461   3.798335   1.084920
    11  H    4.475795   3.845083   3.355694   2.132498   3.359938
    12  H    5.124049   3.353434   3.782821   3.378465   2.140151
                    6          7          8          9         10
     6  C    0.000000
     7  C    1.389640   0.000000
     8  H    4.222414   4.407999   0.000000
     9  H    2.158200   3.387864   3.513865   0.000000
    10  H    3.365837   2.143818   4.207662   4.876370   0.000000
    11  H    1.082215   2.149834   5.197461   2.498311   4.275458
    12  H    2.160281   1.080033   5.459335   4.301436   2.479628
                   11         12
    11  H    0.000000
    12  H    2.501021   0.000000
 Stoichiometry    C5H5NO
 Framework group  CS[SG(C5H5NO)]
 Deg. of freedom    21
 Full point group                 CS      NOp   2
 Largest Abelian subgroup         CS      NOp   2
 Largest concise Abelian subgroup C1      NOp   1
                         Standard orientation:                         
 ---------------------------------------------------------------------
 Center     Atomic      Atomic             Coordinates (Angstroms)
 Number     Number       Type             X           Y           Z
 ---------------------------------------------------------------------
      1          8           0        0.008372    2.239736    0.000000
      2          7           0       -1.171427    0.296023    0.000000
      3          6           0       -0.000000    0.898309    0.000000
      4          6           0        1.219264    0.225352    0.000000
      5          6           0       -1.184145   -1.035351    0.000000
      6          6           0        1.183632   -1.148671    0.000000
      7          6           0       -0.041314   -1.804878    0.000000
      8          1           0       -0.913944    2.515883    0.000000
      9          1           0        2.143627    0.784264    0.000000
     10          1           0       -2.163617   -1.501920    0.000000
     11          1           0        2.106589   -1.713772    0.000000
     12          1           0       -0.104257   -2.883075    0.000000
 ---------------------------------------------------------------------
 Rotational constants (GHZ):      5.9244098      2.8053779      1.9038502
 Leave Link  202 at Fri Aug 27 00:04:58 2021, MaxMem= 17179869184 cpu:         3.5
 (Enter /public3/home/sc51754/softwares/g09e01/l301.exe)
 General basis read from cards:  (5D, 7F)
 Centers:       8      9     10     11     12
 S 4 1.00
     Exponent=  7.5423000000D+01 Coefficients=  2.4065000000D-03
     Exponent=  1.1350000000D+01 Coefficients=  1.8487000000D-02
     Exponent=  2.5993000000D+00 Coefficients=  8.9742000000D-02
     Exponent=  7.3513000000D-01 Coefficients=  2.8111000000D-01
 S 1 1.00
     Exponent=  2.3167000000D-01 Coefficients=  1.0000000000D+00
 S 1 1.00
     Exponent=  7.4147000000D-02 Coefficients=  1.0000000000D+00
 P 1 1.00
     Exponent=  1.6000000000D+00 Coefficients=  1.0000000000D+00
 P 1 1.00
     Exponent=  4.5000000000D-01 Coefficients=  1.0000000000D+00
 D 1 1.00
     Exponent=  1.2500000000D+00 Coefficients=  1.0000000000D+00
 ****
 Centers:       3      4      5      6      7
 S 7 1.00
     Exponent=  7.8571000000D+03 Coefficients=  5.6825000000D-04
     Exponent=  1.1787000000D+03 Coefficients=  4.3915000000D-03
     Exponent=  2.6832000000D+02 Coefficients=  2.2504000000D-02
     Exponent=  7.5948000000D+01 Coefficients=  8.6653000000D-02
     Exponent=  2.4559000000D+01 Coefficients=  2.4405000000D-01
     Exponent=  8.6212000000D+00 Coefficients=  4.4148000000D-01
     Exponent=  3.1278000000D+00 Coefficients=  3.5332000000D-01
 S 7 1.00
     Exponent=  1.1787000000D+03 Coefficients= -5.9492000000D-07
     Exponent=  2.6832000000D+02 Coefficients= -6.2748000000D-05
     Exponent=  7.5948000000D+01 Coefficients= -7.5773000000D-04
     Exponent=  2.4559000000D+01 Coefficients= -7.3308000000D-03
     Exponent=  8.6212000000D+00 Coefficients= -3.8932000000D-02
     Exponent=  3.1278000000D+00 Coefficients= -8.8908000000D-02
     Exponent=  8.2202000000D-01 Coefficients=  2.1689000000D-01
 S 1 1.00
     Exponent=  3.3017000000D-01 Coefficients=  1.0000000000D+00
 S 1 1.00
     Exponent=  1.1463000000D-01 Coefficients=  1.0000000000D+00
 P 4 1.00
     Exponent=  3.3775000000D+01 Coefficients=  6.0294000000D-03
     Exponent=  7.6766000000D+00 Coefficients=  4.3228000000D-02
     Exponent=  2.2357000000D+00 Coefficients=  1.6301000000D-01
     Exponent=  7.6447000000D-01 Coefficients=  3.6504000000D-01
 P 1 1.00
     Exponent=  2.6232000000D-01 Coefficients=  1.0000000000D+00
 P 1 1.00
     Exponent=  8.4638000000D-02 Coefficients=  1.0000000000D+00
 D 1 1.00
     Exponent=  1.4000000000D+00 Coefficients=  1.0000000000D+00
 D 1 1.00
     Exponent=  4.5000000000D-01 Coefficients=  1.0000000000D+00
 F 1 1.00
     Exponent=  9.5000000000D-01 Coefficients=  1.0000000000D+00
 ****
 Centers:       2
 S 7 1.00
     Exponent=  1.1101000000D+04 Coefficients=  5.4570000000D-04
     Exponent=  1.6653000000D+03 Coefficients=  4.2181000000D-03
     Exponent=  3.7908000000D+02 Coefficients=  2.1645000000D-02
     Exponent=  1.0730000000D+02 Coefficients=  8.3776000000D-02
     Exponent=  3.4747000000D+01 Coefficients=  2.3881000000D-01
     Exponent=  1.2249000000D+01 Coefficients=  4.3994000000D-01
     Exponent=  4.4743000000D+00 Coefficients=  3.6364000000D-01
 S 7 1.00
     Exponent=  1.6653000000D+03 Coefficients= -1.5006000000D-06
     Exponent=  3.7908000000D+02 Coefficients= -5.8753000000D-05
     Exponent=  1.0730000000D+02 Coefficients= -7.7453000000D-04
     Exponent=  3.4747000000D+01 Coefficients= -7.2161000000D-03
     Exponent=  1.2249000000D+01 Coefficients= -3.9338000000D-02
     Exponent=  4.4743000000D+00 Coefficients= -9.0611000000D-02
     Exponent=  1.2404000000D+00 Coefficients=  1.9882000000D-01
 S 1 1.00
     Exponent=  4.8743000000D-01 Coefficients=  1.0000000000D+00
 S 1 1.00
     Exponent=  1.6484000000D-01 Coefficients=  1.0000000000D+00
 P 4 1.00
     Exponent=  4.7934000000D+01 Coefficients=  6.1706000000D-03
     Exponent=  1.0999000000D+01 Coefficients=  4.4260000000D-02
     Exponent=  3.2472000000D+00 Coefficients=  1.6825000000D-01
     Exponent=  1.1114000000D+00 Coefficients=  3.6848000000D-01
 P 1 1.00
     Exponent=  3.7988000000D-01 Coefficients=  1.0000000000D+00
 P 1 1.00
     Exponent=  1.2068000000D-01 Coefficients=  1.0000000000D+00
 D 1 1.00
     Exponent=  1.8000000000D+00 Coefficients=  1.0000000000D+00
 D 1 1.00
     Exponent=  5.5000000000D-01 Coefficients=  1.0000000000D+00
 F 1 1.00
     Exponent=  1.0200000000D+00 Coefficients=  1.0000000000D+00
 ****
 Centers:       1
 S 7 1.00
     Exponent=  1.4782000000D+04 Coefficients=  5.3519000000D-04
     Exponent=  2.2173000000D+03 Coefficients=  4.1375000000D-03
     Exponent=  5.0474000000D+02 Coefficients=  2.1245000000D-02
     Exponent=  1.4287000000D+02 Coefficients=  8.2453000000D-02
     Exponent=  4.6300000000D+01 Coefficients=  2.3671000000D-01
     Exponent=  1.6337000000D+01 Coefficients=  4.4039000000D-01
     Exponent=  5.9828000000D+00 Coefficients=  3.6465000000D-01
 S 7 1.00
     Exponent=  2.2173000000D+03 Coefficients= -1.9275000000D-06
     Exponent=  5.0474000000D+02 Coefficients= -5.7964000000D-05
     Exponent=  1.4287000000D+02 Coefficients= -7.9494000000D-04
     Exponent=  4.6300000000D+01 Coefficients= -7.3125000000D-03
     Exponent=  1.6337000000D+01 Coefficients= -4.0574000000D-02
     Exponent=  5.9828000000D+00 Coefficients= -9.1594000000D-02
     Exponent=  1.6718000000D+00 Coefficients=  2.0940000000D-01
 S 1 1.00
     Exponent=  6.4662000000D-01 Coefficients=  1.0000000000D+00
 S 1 1.00
     Exponent=  2.1669000000D-01 Coefficients=  1.0000000000D+00
 P 4 1.00
     Exponent=  6.0424000000D+01 Coefficients=  6.8949000000D-03
     Exponent=  1.3935000000D+01 Coefficients=  4.9005000000D-02
     Exponent=  4.1531000000D+00 Coefficients=  1.8255000000D-01
     Exponent=  1.4158000000D+00 Coefficients=  3.7633000000D-01
 P 1 1.00
     Exponent=  4.7549000000D-01 Coefficients=  1.0000000000D+00
 P 1 1.00
     Exponent=  1.4529000000D-01 Coefficients=  1.0000000000D+00
 D 1 1.00
     Exponent=  2.2000000000D+00 Coefficients=  1.0000000000D+00
 D 1 1.00
     Exponent=  6.5000000000D-01 Coefficients=  1.0000000000D+00
 F 1 1.00
     Exponent=  1.1000000000D+00 Coefficients=  1.0000000000D+00
 ****
 Ernie: Thresh=  0.10000D-02 Tol=  0.10000D-05 Strict=F.
 Ernie:  7 primitive shells out of 220 were deleted.
 There are   223 symmetry adapted cartesian basis functions of A'  symmetry.
 There are    97 symmetry adapted cartesian basis functions of A"  symmetry.
 There are   190 symmetry adapted basis functions of A'  symmetry.
 There are    90 symmetry adapted basis functions of A"  symmetry.
   280 basis functions,   475 primitive gaussians,   320 cartesian basis functions
    25 alpha electrons       25 beta electrons
       nuclear repulsion energy       277.5236709615 Hartrees.
 IExCor= 4134 DFT=T Ex+Corr=M06L ExCW=0 ScaHFX=  0.000000
 ScaDFX=  1.000000  1.000000  1.000000  1.000000 ScalE2=  1.000000  1.000000
 IRadAn=      0 IRanWt=     -1 IRanGd=            0 ICorTp=0 IEmpDi=  4
 NAtoms=   12 NActive=   12 NUniq=   12 SFac= 1.00D+00 NAtFMM=   60 NAOKFM=F Big=F
 Integral buffers will be    131072 words long.
 Raffenetti 2 integral format.
 Two-electron integral symmetry is turned on.
 Leave Link  301 at Fri Aug 27 00:04:59 2021, MaxMem= 17179869184 cpu:         1.6
 (Enter /public3/home/sc51754/softwares/g09e01/l302.exe)
 NPDir=0 NMtPBC=     1 NCelOv=     1 NCel=       1 NClECP=     1 NCelD=      1
         NCelK=      1 NCelE2=     1 NClLst=     1 CellRange=     0.0.
 One-electron integrals computed using PRISM.
 NBasis=   280 RedAO= T EigKep=  2.16D-04  NBF=   190    90
 NBsUse=   280 1.00D-06 EigRej= -1.00D+00 NBFU=   190    90
 Precomputing XC quadrature grid using
 IXCGrd= 4 IRadAn=           0 IRanWt=          -1 IRanGd=           0 AccXCQ= 0.00D+00.
 Generated NRdTot=       0 NPtTot=           0 NUsed=           0 NTot=          32
 NSgBfM=   320   320   320   320   320 MxSgAt=    12 MxSgA2=    12.
 Leave Link  302 at Fri Aug 27 00:04:59 2021, MaxMem= 17179869184 cpu:        46.4
 (Enter /public3/home/sc51754/softwares/g09e01/l303.exe)
 DipDrv:  MaxL=1.
 Leave Link  303 at Fri Aug 27 00:05:00 2021, MaxMem= 17179869184 cpu:         7.9
 (Enter /public3/home/sc51754/softwares/g09e01/l401.exe)
 ExpMin= 7.41D-02 ExpMax= 1.48D+04 ExpMxC= 5.05D+02 IAcc=2 IRadAn=         4 AccDes= 0.00D+00
 Harris functional with IExCor= 1009 and IRadAn=       4 diagonalized for initial guess.
 HarFok:  IExCor= 1009 AccDes= 0.00D+00 IRadAn=         4 IDoV= 1 UseB2=F ITyADJ=14
 ICtDFT=  3500011 ScaDFX=  1.000000  1.000000  1.000000  1.000000
 FoFCou: FMM=F IPFlag=           0 FMFlag=      100000 FMFlg1=           0
         NFxFlg=           0 DoJE=T BraDBF=F KetDBF=T FulRan=T
         wScrn=  0.000000 ICntrl=     500 IOpCl=  0 I1Cent=   200000004 NGrid=           0
         NMat0=    1 NMatS0=      1 NMatT0=    0 NMatD0=    1 NMtDS0=    0 NMtDT0=    0
 Petite list used in FoFCou.
 Harris En= -323.373786825503    
 JPrj=0 DoOrth=F DoCkMO=F.
 Initial guess orbital symmetries:
       Occupied  (A') (A') (A') (A') (A') (A') (A') (A') (A') (A')
                 (A') (A') (A') (A') (A') (A') (A') (A') (A") (A')
                 (A') (A") (A") (A') (A")
       Virtual   (A") (A") (A') (A') (A") (A') (A') (A') (A') (A')
                 (A') (A') (A") (A') (A") (A") (A') (A') (A') (A')
                 (A') (A') (A") (A") (A') (A') (A') (A') (A') (A')
                 (A') (A") (A') (A") (A') (A') (A') (A') (A') (A')
                 (A') (A') (A") (A') (A') (A') (A') (A") (A") (A')
                 (A") (A") (A') (A') (A") (A') (A') (A") (A') (A')
                 (A') (A") (A') (A') (A") (A') (A") (A') (A") (A')
                 (A') (A") (A") (A') (A") (A') (A') (A") (A') (A')
                 (A") (A') (A') (A") (A') (A') (A") (A') (A") (A")
                 (A') (A') (A') (A') (A') (A") (A') (A') (A") (A')
                 (A') (A') (A") (A') (A') (A') (A') (A") (A') (A')
                 (A') (A") (A') (A') (A') (A') (A") (A') (A') (A')
                 (A") (A') (A") (A') (A") (A') (A") (A") (A') (A")
                 (A") (A') (A') (A') (A") (A') (A') (A") (A') (A')
                 (A') (A') (A') (A") (A") (A') (A") (A') (A') (A')
                 (A") (A') (A') (A") (A") (A') (A") (A') (A") (A')
                 (A") (A') (A') (A') (A") (A") (A') (A') (A") (A')
                 (A") (A') (A') (A") (A') (A') (A") (A') (A") (A")
                 (A") (A") (A') (A') (A") (A') (A") (A") (A') (A")
                 (A") (A') (A') (A") (A') (A') (A") (A') (A") (A")
                 (A') (A') (A") (A') (A') (A') (A") (A') (A') (A')
                 (A") (A') (A') (A") (A') (A") (A') (A') (A") (A")
                 (A') (A') (A") (A') (A') (A") (A') (A') (A') (A')
                 (A") (A') (A') (A') (A') (A") (A") (A') (A') (A')
                 (A') (A") (A') (A') (A') (A') (A') (A') (A') (A')
                 (A') (A') (A') (A') (A')
 The electronic state of the initial guess is 1-A'.
 Leave Link  401 at Fri Aug 27 00:05:01 2021, MaxMem= 17179869184 cpu:        69.6
 (Enter /public3/home/sc51754/softwares/g09e01/l502.exe)
 Closed shell SCF:
 Using DIIS extrapolation, IDIIS=  1040.
 Integral symmetry usage will be decided dynamically.
 Keep J ints in memory in symmetry-blocked form, NReq=1167802198.
 IVT=      348658 IEndB=      348658 NGot= 17179869184 MDV= 16785904737
 LenX= 16785904737 LenY= 16785801896
 Requested convergence on RMS density matrix=1.00D-08 within 128 cycles.
 Requested convergence on MAX density matrix=1.00D-06.
 Requested convergence on             energy=1.00D-06.
 No special actions if energy rises.
 FoFCou: FMM=F IPFlag=           0 FMFlag=           0 FMFlg1=           0
         NFxFlg=           0 DoJE=F BraDBF=F KetDBF=F FulRan=T
         wScrn=  0.000000 ICntrl=     600 IOpCl=  0 I1Cent=           0 NGrid=           0
         NMat0=    1 NMatS0=  39340 NMatT0=    0 NMatD0=    1 NMtDS0=    0 NMtDT0=    0
 Petite list used in FoFCou.
 Integral accuracy reduced to 1.0D-05 until final iterations.

 Cycle   1  Pass 0  IDiag  1:
 E= -323.441525333161    
 DIIS: error= 2.61D-02 at cycle   1 NSaved=   1.
 NSaved= 1 IEnMin= 1 EnMin= -323.441525333161     IErMin= 1 ErrMin= 2.61D-02
 ErrMax= 2.61D-02  0.00D+00 EMaxC= 1.00D-01 BMatC= 1.90D-01 BMatP= 1.90D-01
 IDIUse=3 WtCom= 7.39D-01 WtEn= 2.61D-01
 Coeff-Com:  0.100D+01
 Coeff-En:   0.100D+01
 Coeff:      0.100D+01
 Gap=     0.166 Goal=   None    Shift=    0.000
 GapD=    0.166 DampG=1.000 DampE=0.500 DampFc=0.5000 IDamp=-1.
 Damping current iteration by 5.00D-01
 RMSDP=3.13D-03 MaxDP=1.21D-01              OVMax= 2.27D-01

 Cycle   2  Pass 0  IDiag  1:
 E= -323.499854685954     Delta-E=       -0.058329352793 Rises=F Damp=T
 DIIS: error= 7.59D-03 at cycle   2 NSaved=   2.
 NSaved= 2 IEnMin= 2 EnMin= -323.499854685954     IErMin= 2 ErrMin= 7.59D-03
 ErrMax= 7.59D-03  0.00D+00 EMaxC= 1.00D-01 BMatC= 1.86D-02 BMatP= 1.90D-01
 IDIUse=3 WtCom= 9.24D-01 WtEn= 7.59D-02
 Coeff-Com:  0.839D-01 0.916D+00
 Coeff-En:   0.223D+00 0.777D+00
 Coeff:      0.945D-01 0.906D+00
 Gap=     0.166 Goal=   None    Shift=    0.000
 RMSDP=1.07D-03 MaxDP=3.88D-02 DE=-5.83D-02 OVMax= 2.05D-01

 Cycle   3  Pass 0  IDiag  1:
 E= -323.580857043304     Delta-E=       -0.081002357351 Rises=F Damp=F
 DIIS: error= 9.54D-03 at cycle   3 NSaved=   3.
 NSaved= 3 IEnMin= 3 EnMin= -323.580857043304     IErMin= 2 ErrMin= 7.59D-03
 ErrMax= 9.54D-03  0.00D+00 EMaxC= 1.00D-01 BMatC= 1.38D-02 BMatP= 1.86D-02
 IDIUse=3 WtCom= 9.05D-01 WtEn= 9.54D-02
 Coeff-Com: -0.396D-01 0.458D+00 0.582D+00
 Coeff-En:   0.000D+00 0.000D+00 0.100D+01
 Coeff:     -0.358D-01 0.414D+00 0.622D+00
 Gap=     0.170 Goal=   None    Shift=    0.000
 RMSDP=6.08D-04 MaxDP=2.33D-02 DE=-8.10D-02 OVMax= 1.09D-01

 Cycle   4  Pass 0  IDiag  1:
 E= -323.584325024109     Delta-E=       -0.003467980805 Rises=F Damp=F
 DIIS: error= 1.02D-02 at cycle   4 NSaved=   4.
 NSaved= 4 IEnMin= 4 EnMin= -323.584325024109     IErMin= 2 ErrMin= 7.59D-03
 ErrMax= 1.02D-02  0.00D+00 EMaxC= 1.00D-01 BMatC= 1.06D-02 BMatP= 1.38D-02
 IDIUse=3 WtCom= 8.98D-01 WtEn= 1.02D-01
 Coeff-Com: -0.463D-01 0.151D+00 0.479D+00 0.417D+00
 Coeff-En:   0.000D+00 0.000D+00 0.451D+00 0.549D+00
 Coeff:     -0.415D-01 0.135D+00 0.476D+00 0.431D+00
 Gap=     0.167 Goal=   None    Shift=    0.000
 RMSDP=3.31D-04 MaxDP=1.04D-02 DE=-3.47D-03 OVMax= 5.33D-02

 Cycle   5  Pass 0  IDiag  1:
 E= -323.595921372209     Delta-E=       -0.011596348100 Rises=F Damp=F
 DIIS: error= 1.01D-03 at cycle   5 NSaved=   5.
 NSaved= 5 IEnMin= 5 EnMin= -323.595921372209     IErMin= 5 ErrMin= 1.01D-03
 ErrMax= 1.01D-03  0.00D+00 EMaxC= 1.00D-01 BMatC= 2.48D-04 BMatP= 1.06D-02
 IDIUse=3 WtCom= 9.90D-01 WtEn= 1.01D-02
 Coeff-Com: -0.179D-01 0.371D-01 0.197D+00 0.219D+00 0.566D+00
 Coeff-En:   0.000D+00 0.000D+00 0.000D+00 0.000D+00 0.100D+01
 Coeff:     -0.177D-01 0.368D-01 0.195D+00 0.216D+00 0.570D+00
 Gap=     0.167 Goal=   None    Shift=    0.000
 RMSDP=5.26D-05 MaxDP=2.76D-03 DE=-1.16D-02 OVMax= 8.47D-03

 Cycle   6  Pass 0  IDiag  1:
 E= -323.596100458730     Delta-E=       -0.000179086520 Rises=F Damp=F
 DIIS: error= 4.09D-04 at cycle   6 NSaved=   6.
 NSaved= 6 IEnMin= 6 EnMin= -323.596100458730     IErMin= 6 ErrMin= 4.09D-04
 ErrMax= 4.09D-04  0.00D+00 EMaxC= 1.00D-01 BMatC= 5.63D-05 BMatP= 2.48D-04
 IDIUse=3 WtCom= 9.96D-01 WtEn= 4.09D-03
 Coeff-Com: -0.733D-02 0.973D-02 0.762D-01 0.936D-01 0.369D+00 0.459D+00
 Coeff-En:   0.000D+00 0.000D+00 0.000D+00 0.000D+00 0.167D+00 0.833D+00
 Coeff:     -0.730D-02 0.969D-02 0.759D-01 0.932D-01 0.368D+00 0.460D+00
 Gap=     0.167 Goal=   None    Shift=    0.000
 RMSDP=2.34D-05 MaxDP=1.05D-03 DE=-1.79D-04 OVMax= 2.81D-03

 Cycle   7  Pass 0  IDiag  1:
 E= -323.596144869221     Delta-E=       -0.000044410491 Rises=F Damp=F
 DIIS: error= 1.28D-04 at cycle   7 NSaved=   7.
 NSaved= 7 IEnMin= 7 EnMin= -323.596144869221     IErMin= 7 ErrMin= 1.28D-04
 ErrMax= 1.28D-04  0.00D+00 EMaxC= 1.00D-01 BMatC= 3.06D-06 BMatP= 5.63D-05
 IDIUse=3 WtCom= 9.99D-01 WtEn= 1.28D-03
 Coeff-Com: -0.278D-02 0.334D-02 0.247D-01 0.290D-01 0.143D+00 0.237D+00
 Coeff-Com:  0.566D+00
 Coeff-En:   0.000D+00 0.000D+00 0.000D+00 0.000D+00 0.000D+00 0.000D+00
 Coeff-En:   0.100D+01
 Coeff:     -0.278D-02 0.333D-02 0.247D-01 0.290D-01 0.143D+00 0.237D+00
 Coeff:      0.566D+00
 Gap=     0.167 Goal=   None    Shift=    0.000
 RMSDP=8.02D-06 MaxDP=2.43D-04 DE=-4.44D-05 OVMax= 1.41D-03

 Initial convergence to 1.0D-05 achieved.  Increase integral accuracy.
 Cycle   8  Pass 1  IDiag  1:
 E= -323.596353823618     Delta-E=       -0.000208954397 Rises=F Damp=F
 DIIS: error= 3.92D-04 at cycle   1 NSaved=   1.
 NSaved= 1 IEnMin= 1 EnMin= -323.596353823618     IErMin= 1 ErrMin= 3.92D-04
 ErrMax= 3.92D-04  0.00D+00 EMaxC= 1.00D-01 BMatC= 8.30D-05 BMatP= 8.30D-05
 IDIUse=3 WtCom= 9.96D-01 WtEn= 3.92D-03
 Coeff-Com:  0.100D+01
 Coeff-En:   0.100D+01
 Coeff:      0.100D+01
 Gap=     0.167 Goal=   None    Shift=    0.000
 RMSDP=8.02D-06 MaxDP=2.43D-04 DE=-2.09D-04 OVMax= 2.01D-03

 Cycle   9  Pass 1  IDiag  1:
 E= -323.596380399415     Delta-E=       -0.000026575797 Rises=F Damp=F
 DIIS: error= 2.16D-04 at cycle   2 NSaved=   2.
 NSaved= 2 IEnMin= 2 EnMin= -323.596380399415     IErMin= 2 ErrMin= 2.16D-04
 ErrMax= 2.16D-04  0.00D+00 EMaxC= 1.00D-01 BMatC= 1.11D-05 BMatP= 8.30D-05
 IDIUse=3 WtCom= 9.98D-01 WtEn= 2.16D-03
 Coeff-Com:  0.191D+00 0.809D+00
 Coeff-En:   0.000D+00 0.100D+01
 Coeff:      0.190D+00 0.810D+00
 Gap=     0.167 Goal=   None    Shift=    0.000
 RMSDP=2.39D-05 MaxDP=7.04D-04 DE=-2.66D-05 OVMax= 3.90D-03

 Cycle  10  Pass 1  IDiag  1:
 E= -323.596364068616     Delta-E=        0.000016330799 Rises=F Damp=F
 DIIS: error= 3.09D-04 at cycle   3 NSaved=   3.
 NSaved= 3 IEnMin= 2 EnMin= -323.596380399415     IErMin= 2 ErrMin= 2.16D-04
 ErrMax= 3.09D-04  0.00D+00 EMaxC= 1.00D-01 BMatC= 2.51D-05 BMatP= 1.11D-05
 IDIUse=3 WtCom= 3.63D-01 WtEn= 6.37D-01
 Coeff-Com:  0.591D-01 0.589D+00 0.352D+00
 Coeff-En:   0.000D+00 0.678D+00 0.322D+00
 Coeff:      0.214D-01 0.646D+00 0.333D+00
 Gap=     0.167 Goal=   None    Shift=    0.000
 RMSDP=1.37D-05 MaxDP=4.54D-04 DE= 1.63D-05 OVMax= 2.52D-03

 Cycle  11  Pass 1  IDiag  1:
 E= -323.596389994071     Delta-E=       -0.000025925455 Rises=F Damp=F
 DIIS: error= 3.95D-05 at cycle   4 NSaved=   4.
 NSaved= 4 IEnMin= 4 EnMin= -323.596389994071     IErMin= 4 ErrMin= 3.95D-05
 ErrMax= 3.95D-05  0.00D+00 EMaxC= 1.00D-01 BMatC= 4.21D-07 BMatP= 1.11D-05
 IDIUse=1 WtCom= 1.00D+00 WtEn= 0.00D+00
 Coeff-Com:  0.424D-02 0.228D+00 0.104D+00 0.664D+00
 Coeff:      0.424D-02 0.228D+00 0.104D+00 0.664D+00
 Gap=     0.167 Goal=   None    Shift=    0.000
 RMSDP=2.38D-06 MaxDP=1.09D-04 DE=-2.59D-05 OVMax= 1.84D-04

 Cycle  12  Pass 1  IDiag  1:
 E= -323.596390252158     Delta-E=       -0.000000258088 Rises=F Damp=F
 DIIS: error= 2.02D-05 at cycle   5 NSaved=   5.
 NSaved= 5 IEnMin= 5 EnMin= -323.596390252158     IErMin= 5 ErrMin= 2.02D-05
 ErrMax= 2.02D-05  0.00D+00 EMaxC= 1.00D-01 BMatC= 1.05D-07 BMatP= 4.21D-07
 IDIUse=1 WtCom= 1.00D+00 WtEn= 0.00D+00
 Coeff-Com: -0.319D-02 0.766D-01 0.279D-01 0.389D+00 0.510D+00
 Coeff:     -0.319D-02 0.766D-01 0.279D-01 0.389D+00 0.510D+00
 Gap=     0.167 Goal=   None    Shift=    0.000
 RMSDP=9.40D-07 MaxDP=5.19D-05 DE=-2.58D-07 OVMax= 1.23D-04

 Cycle  13  Pass 1  IDiag  1:
 E= -323.596390349228     Delta-E=       -0.000000097070 Rises=F Damp=F
 DIIS: error= 6.75D-06 at cycle   6 NSaved=   6.
 NSaved= 6 IEnMin= 6 EnMin= -323.596390349228     IErMin= 6 ErrMin= 6.75D-06
 ErrMax= 6.75D-06  0.00D+00 EMaxC= 1.00D-01 BMatC= 8.16D-09 BMatP= 1.05D-07
 IDIUse=1 WtCom= 1.00D+00 WtEn= 0.00D+00
 Coeff-Com: -0.212D-02 0.271D-01 0.914D-02 0.173D+00 0.292D+00 0.500D+00
 Coeff:     -0.212D-02 0.271D-01 0.914D-02 0.173D+00 0.292D+00 0.500D+00
 Gap=     0.167 Goal=   None    Shift=    0.000
 RMSDP=3.34D-07 MaxDP=1.30D-05 DE=-9.71D-08 OVMax= 5.03D-05

 Cycle  14  Pass 1  IDiag  1:
 E= -323.596390355253     Delta-E=       -0.000000006024 Rises=F Damp=F
 DIIS: error= 3.03D-06 at cycle   7 NSaved=   7.
 NSaved= 7 IEnMin= 7 EnMin= -323.596390355253     IErMin= 7 ErrMin= 3.03D-06
 ErrMax= 3.03D-06  0.00D+00 EMaxC= 1.00D-01 BMatC= 1.37D-09 BMatP= 8.16D-09
 IDIUse=1 WtCom= 1.00D+00 WtEn= 0.00D+00
 Coeff-Com: -0.577D-03-0.131D-02-0.841D-03 0.153D-01 0.683D-01 0.310D+00
 Coeff-Com:  0.609D+00
 Coeff:     -0.577D-03-0.131D-02-0.841D-03 0.153D-01 0.683D-01 0.310D+00
 Coeff:      0.609D+00
 Gap=     0.167 Goal=   None    Shift=    0.000
 RMSDP=1.52D-07 MaxDP=4.97D-06 DE=-6.02D-09 OVMax= 2.71D-05

 Cycle  15  Pass 1  IDiag  1:
 E= -323.596390356384     Delta-E=       -0.000000001131 Rises=F Damp=F
 DIIS: error= 1.23D-06 at cycle   8 NSaved=   8.
 NSaved= 8 IEnMin= 8 EnMin= -323.596390356384     IErMin= 8 ErrMin= 1.23D-06
 ErrMax= 1.23D-06  0.00D+00 EMaxC= 1.00D-01 BMatC= 3.10D-10 BMatP= 1.37D-09
 IDIUse=1 WtCom= 1.00D+00 WtEn= 0.00D+00
 Coeff-Com: -0.199D-03-0.332D-02-0.136D-02-0.564D-02 0.206D-01 0.160D+00
 Coeff-Com:  0.416D+00 0.413D+00
 Coeff:     -0.199D-03-0.332D-02-0.136D-02-0.564D-02 0.206D-01 0.160D+00
 Coeff:      0.416D+00 0.413D+00
 Gap=     0.167 Goal=   None    Shift=    0.000
 RMSDP=5.33D-08 MaxDP=2.18D-06 DE=-1.13D-09 OVMax= 8.67D-06

 Cycle  16  Pass 1  IDiag  1:
 E= -323.596390356694     Delta-E=       -0.000000000310 Rises=F Damp=F
 DIIS: error= 3.02D-07 at cycle   9 NSaved=   9.
 NSaved= 9 IEnMin= 9 EnMin= -323.596390356694     IErMin= 9 ErrMin= 3.02D-07
 ErrMax= 3.02D-07  0.00D+00 EMaxC= 1.00D-01 BMatC= 1.26D-11 BMatP= 3.10D-10
 IDIUse=1 WtCom= 1.00D+00 WtEn= 0.00D+00
 Coeff-Com:  0.193D-04-0.133D-02-0.436D-03-0.608D-02-0.290D-02 0.159D-01
 Coeff-Com:  0.912D-01 0.188D+00 0.716D+00
 Coeff:      0.193D-04-0.133D-02-0.436D-03-0.608D-02-0.290D-02 0.159D-01
 Coeff:      0.912D-01 0.188D+00 0.716D+00
 Gap=     0.167 Goal=   None    Shift=    0.000
 RMSDP=1.47D-08 MaxDP=5.79D-07 DE=-3.10D-10 OVMax= 1.84D-06

 Cycle  17  Pass 1  IDiag  1:
 E= -323.596390356705     Delta-E=       -0.000000000010 Rises=F Damp=F
 DIIS: error= 1.55D-07 at cycle  10 NSaved=  10.
 NSaved=10 IEnMin=10 EnMin= -323.596390356705     IErMin=10 ErrMin= 1.55D-07
 ErrMax= 1.55D-07  0.00D+00 EMaxC= 1.00D-01 BMatC= 4.21D-12 BMatP= 1.26D-11
 IDIUse=1 WtCom= 1.00D+00 WtEn= 0.00D+00
 Coeff-Com:  0.324D-04-0.518D-03-0.143D-03-0.328D-02-0.375D-02-0.549D-02
 Coeff-Com:  0.164D-01 0.773D-01 0.453D+00 0.466D+00
 Coeff:      0.324D-04-0.518D-03-0.143D-03-0.328D-02-0.375D-02-0.549D-02
 Coeff:      0.164D-01 0.773D-01 0.453D+00 0.466D+00
 Gap=     0.167 Goal=   None    Shift=    0.000
 RMSDP=6.48D-09 MaxDP=3.18D-07 DE=-1.03D-11 OVMax= 9.41D-07

 SCF Done:  E(RM06L) =  -323.596390357     A.U. after   17 cycles
            NFock= 17  Conv=0.65D-08     -V/T= 2.0034
 KE= 3.224914738250D+02 PE=-1.310469515346D+03 EE= 3.868579802032D+02
 Leave Link  502 at Fri Aug 27 00:05:09 2021, MaxMem= 17179869184 cpu:       288.8
 (Enter /public3/home/sc51754/softwares/g09e01/l601.exe)
 Copying SCF densities to generalized density rwf, IOpCl= 0 IROHF=0.

 **********************************************************************

            Population analysis using the SCF density.

 **********************************************************************

 Orbital symmetries:
       Occupied  (A') (A') (A') (A') (A') (A') (A') (A') (A') (A')
                 (A') (A') (A') (A') (A') (A') (A') (A") (A') (A')
                 (A') (A") (A") (A') (A")
       Virtual   (A") (A") (A') (A') (A') (A') (A') (A") (A') (A')
                 (A') (A") (A') (A') (A') (A") (A") (A') (A') (A')
                 (A') (A') (A") (A') (A") (A') (A') (A') (A') (A')
                 (A') (A") (A') (A") (A') (A') (A') (A') (A') (A')
                 (A') (A') (A') (A") (A') (A') (A') (A") (A") (A")
                 (A') (A") (A') (A') (A") (A') (A') (A") (A') (A')
                 (A') (A') (A') (A") (A') (A') (A") (A") (A') (A')
                 (A") (A") (A") (A") (A') (A') (A') (A") (A') (A')
                 (A') (A") (A') (A') (A') (A") (A") (A') (A") (A')
                 (A") (A') (A') (A') (A') (A") (A') (A') (A") (A')
                 (A') (A') (A') (A") (A') (A') (A') (A') (A") (A')
                 (A') (A') (A") (A') (A') (A') (A") (A') (A') (A')
                 (A") (A") (A') (A') (A') (A") (A") (A") (A") (A')
                 (A") (A') (A') (A') (A') (A") (A') (A") (A') (A')
                 (A') (A") (A') (A') (A") (A") (A') (A') (A') (A')
                 (A") (A') (A') (A") (A') (A") (A") (A') (A') (A")
                 (A") (A') (A') (A") (A') (A') (A") (A") (A') (A')
                 (A') (A") (A') (A") (A') (A") (A') (A') (A") (A")
                 (A') (A") (A') (A') (A") (A") (A") (A") (A') (A")
                 (A') (A") (A') (A") (A') (A') (A") (A') (A") (A")
                 (A') (A') (A") (A') (A') (A") (A') (A') (A') (A')
                 (A") (A') (A") (A') (A') (A") (A') (A") (A') (A')
                 (A") (A') (A") (A') (A') (A') (A") (A') (A') (A')
                 (A") (A') (A') (A') (A') (A") (A') (A") (A') (A')
                 (A') (A") (A') (A') (A') (A') (A') (A') (A') (A')
                 (A') (A') (A') (A') (A')
 The electronic state is 1-A'.
 Alpha  occ. eigenvalues --  -18.99577 -14.16390 -10.13818 -10.08329 -10.06661
 Alpha  occ. eigenvalues --  -10.05354 -10.04920  -1.05277  -0.90574  -0.77394
 Alpha  occ. eigenvalues --   -0.72233  -0.61205  -0.59279  -0.51778  -0.47852
 Alpha  occ. eigenvalues --   -0.44665  -0.40966  -0.40528  -0.37778  -0.36403
 Alpha  occ. eigenvalues --   -0.33346  -0.32453  -0.26871  -0.23957  -0.21787
 Alpha virt. eigenvalues --   -0.05083  -0.02346   0.03555   0.04150   0.05453
 Alpha virt. eigenvalues --    0.07315   0.08856   0.11635   0.14442   0.16901
 Alpha virt. eigenvalues --    0.18080   0.19118   0.19174   0.21169   0.22138
 Alpha virt. eigenvalues --    0.22804   0.23554   0.25475   0.25936   0.26135
 Alpha virt. eigenvalues --    0.27669   0.28149   0.29223   0.30296   0.31199
 Alpha virt. eigenvalues --    0.34310   0.35134   0.36039   0.37271   0.38430
 Alpha virt. eigenvalues --    0.39630   0.43553   0.44264   0.45453   0.46192
 Alpha virt. eigenvalues --    0.49365   0.51862   0.51969   0.54660   0.57085
 Alpha virt. eigenvalues --    0.59967   0.61257   0.62815   0.63895   0.64877
 Alpha virt. eigenvalues --    0.66407   0.71037   0.75348   0.76315   0.80074
 Alpha virt. eigenvalues --    0.82343   0.85601   0.87287   0.91216   0.91601
 Alpha virt. eigenvalues --    0.94550   0.96498   0.96747   0.98205   1.01100
 Alpha virt. eigenvalues --    1.03394   1.08562   1.10325   1.10342   1.13995
 Alpha virt. eigenvalues --    1.15447   1.15601   1.18252   1.18727   1.20347
 Alpha virt. eigenvalues --    1.23465   1.28183   1.30011   1.31125   1.31134
 Alpha virt. eigenvalues --    1.32463   1.38430   1.43111   1.43900   1.45455
 Alpha virt. eigenvalues --    1.51061   1.52344   1.53375   1.55001   1.56763
 Alpha virt. eigenvalues --    1.58448   1.60679   1.62904   1.65019   1.68730
 Alpha virt. eigenvalues --    1.69445   1.69773   1.72241   1.75735   1.76874
 Alpha virt. eigenvalues --    1.81654   1.83773   1.86081   1.88652   1.89577
 Alpha virt. eigenvalues --    1.93001   1.98443   1.99514   2.00117   2.03832
 Alpha virt. eigenvalues --    2.08182   2.10629   2.16148   2.16284   2.20152
 Alpha virt. eigenvalues --    2.22003   2.28099   2.28472   2.30536   2.30964
 Alpha virt. eigenvalues --    2.38571   2.45599   2.58617   2.68126   2.76569
 Alpha virt. eigenvalues --    2.93331   2.96581   2.99092   3.05668   3.20468
 Alpha virt. eigenvalues --    3.20534   3.22903   3.26200   3.29933   3.31067
 Alpha virt. eigenvalues --    3.37297   3.37785   3.39858   3.42172   3.47561
 Alpha virt. eigenvalues --    3.48533   3.54340   3.56090   3.58527   3.63566
 Alpha virt. eigenvalues --    3.66503   3.68399   3.68641   3.70637   3.73298
 Alpha virt. eigenvalues --    3.77255   3.77762   3.85681   3.87057   3.91041
 Alpha virt. eigenvalues --    3.91201   3.93884   3.97182   3.99247   4.04651
 Alpha virt. eigenvalues --    4.07012   4.11645   4.13952   4.17227   4.17345
 Alpha virt. eigenvalues --    4.18157   4.19826   4.21740   4.26767   4.27879
 Alpha virt. eigenvalues --    4.30150   4.30605   4.32305   4.32778   4.34432
 Alpha virt. eigenvalues --    4.36891   4.38691   4.38926   4.40789   4.42711
 Alpha virt. eigenvalues --    4.43925   4.44574   4.47998   4.50052   4.51691
 Alpha virt. eigenvalues --    4.52869   4.54793   4.55050   4.56199   4.56799
 Alpha virt. eigenvalues --    4.59412   4.64371   4.65633   4.66682   4.71505
 Alpha virt. eigenvalues --    4.72343   4.73670   4.77084   4.80460   4.80606
 Alpha virt. eigenvalues --    4.88439   4.89597   4.94126   4.98011   5.01015
 Alpha virt. eigenvalues --    5.04522   5.05251   5.11726   5.12590   5.17774
 Alpha virt. eigenvalues --    5.22294   5.25040   5.26804   5.32969   5.33324
 Alpha virt. eigenvalues --    5.35303   5.39091   5.39720   5.44990   5.45410
 Alpha virt. eigenvalues --    5.49697   5.50392   5.52277   5.52381   5.55684
 Alpha virt. eigenvalues --    5.57081   5.59099   5.65426   5.69359   5.73297
 Alpha virt. eigenvalues --    5.78806   5.80703   5.83368   5.90392   5.94762
 Alpha virt. eigenvalues --    5.96280   6.12893   6.18497   6.21333   6.23581
 Alpha virt. eigenvalues --    6.28379   6.36875   6.38442   6.43777   6.44423
 Alpha virt. eigenvalues --    6.62336   6.63547   6.64537   6.80490   6.84579
 Alpha virt. eigenvalues --    7.09477   7.32455   7.47794   9.33779  12.14770
 Alpha virt. eigenvalues --   12.78415  15.62379  17.50189  18.74660  22.32178
          Condensed to atoms (all electrons):
               1          2          3          4          5          6
     1  O    8.059895  -0.085481   0.224367  -0.041165   0.003894   0.008640
     2  N   -0.085481   6.928950   0.341686   0.033902   0.450251  -0.058677
     3  C    0.224367   0.341686   4.495773   0.430751  -0.073495  -0.015776
     4  C   -0.041165   0.033902   0.430751   4.887874  -0.064925   0.416436
     5  C    0.003894   0.450251  -0.073495  -0.064925   4.593291  -0.031852
     6  C    0.008640  -0.058677  -0.015776   0.416436  -0.031852   4.775550
     7  C    0.000124   0.013794  -0.077307   0.013481   0.436469   0.387023
     8  H    0.344578   0.021886  -0.038647   0.006485   0.004250  -0.001005
     9  H    0.003134   0.008736  -0.065099   0.488896  -0.003710  -0.068598
    10  H   -0.000293  -0.054220   0.002487  -0.004705   0.474038   0.009496
    11  H   -0.000262  -0.003616   0.013891  -0.074017   0.010863   0.488689
    12  H    0.000049   0.012166  -0.002015   0.010984  -0.060342  -0.075667
               7          8          9         10         11         12
     1  O    0.000124   0.344578   0.003134  -0.000293  -0.000262   0.000049
     2  N    0.013794   0.021886   0.008736  -0.054220  -0.003616   0.012166
     3  C   -0.077307  -0.038647  -0.065099   0.002487   0.013891  -0.002015
     4  C    0.013481   0.006485   0.488896  -0.004705  -0.074017   0.010984
     5  C    0.436469   0.004250  -0.003710   0.474038   0.010863  -0.060342
     6  C    0.387023  -0.001005  -0.068598   0.009496   0.488689  -0.075667
     7  C    5.003429   0.000307   0.011918  -0.088122  -0.075098   0.488544
     8  H    0.000307   0.411791  -0.001330  -0.000364   0.000136  -0.000077
     9  H    0.011918  -0.001330   0.674096   0.000147  -0.019703   0.000283
    10  H   -0.088122  -0.000364   0.000147   0.674977  -0.000327  -0.013464
    11  H   -0.075098   0.000136  -0.019703  -0.000327   0.699762  -0.017926
    12  H    0.488544  -0.000077   0.000283  -0.013464  -0.017926   0.703621
 Mulliken charges:
               1
     1  O   -0.517480
     2  N   -0.609378
     3  C    0.763383
     4  C   -0.103997
     5  C    0.261270
     6  C    0.165741
     7  C   -0.114562
     8  H    0.251989
     9  H   -0.028770
    10  H    0.000348
    11  H   -0.022391
    12  H   -0.046155
 Sum of Mulliken charges =  -0.00000
 Mulliken charges with hydrogens summed into heavy atoms:
               1
     1  O   -0.265490
     2  N   -0.609378
     3  C    0.763383
     4  C   -0.132767
     5  C    0.261618
     6  C    0.143350
     7  C   -0.160717
 Electronic spatial extent (au):  <R**2>=            622.4146
 Charge=             -0.0000 electrons
 Dipole moment (field-independent basis, Debye):
    X=              0.4611    Y=             -0.9492    Z=             -0.0000  Tot=              1.0553
 Quadrupole moment (field-independent basis, Debye-Ang):
   XX=            -37.8292   YY=            -36.2284   ZZ=            -41.9092
   XY=             -2.0391   XZ=              0.0000   YZ=              0.0000
 Traceless Quadrupole moment (field-independent basis, Debye-Ang):
   XX=              0.8263   YY=              2.4272   ZZ=             -3.2536
   XY=             -2.0391   XZ=              0.0000   YZ=              0.0000
 Octapole moment (field-independent basis, Debye-Ang**2):
  XXX=              5.8499  YYY=              6.5451  ZZZ=              0.0000  XYY=            -10.5766
  XXY=              1.0788  XXZ=              0.0000  XZZ=             -1.3263  YZZ=              5.2552
  YYZ=             -0.0000  XYZ=              0.0000
 Hexadecapole moment (field-independent basis, Debye-Ang**3):
 XXXX=           -263.4391 YYYY=           -446.8003 ZZZZ=            -42.5741 XXXY=              8.0917
 XXXZ=              0.0000 YYYX=            -28.7979 YYYZ=              0.0000 ZZZX=              0.0000
 ZZZY=              0.0000 XXYY=           -108.2255 XXZZ=            -57.0195 YYZZ=            -93.2771
 XXYZ=              0.0000 YYXZ=              0.0000 ZZXY=              0.7295
 N-N= 2.775236709615D+02 E-N=-1.310469522447D+03  KE= 3.224914738250D+02
 Symmetry A'   KE= 3.106991499084D+02
 Symmetry A"   KE= 1.179232391651D+01
 No NMR shielding tensors so no spin-rotation constants.
 Leave Link  601 at Fri Aug 27 00:05:11 2021, MaxMem= 17179869184 cpu:       110.0
 (Enter /public3/home/sc51754/softwares/g09e01/l701.exe)
 Compute integral first derivatives.
 ... and contract with generalized density number  0.
 Leave Link  701 at Fri Aug 27 00:05:13 2021, MaxMem= 17179869184 cpu:        79.4
 (Enter /public3/home/sc51754/softwares/g09e01/l702.exe)
 L702 exits ... SP integral derivatives will be done elsewhere.
 Leave Link  702 at Fri Aug 27 00:05:13 2021, MaxMem= 17179869184 cpu:         0.3
 (Enter /public3/home/sc51754/softwares/g09e01/l703.exe)
 Compute integral first derivatives, UseDBF=F ICtDFT=           0.
 Integral derivatives from FoFJK, PRISM(SPDF).
 Calling FoFJK, ICntrl=      2527 FMM=F ISym2X=1 I1Cent= 0 IOpClX= 0 NMat=1 NMatS=1 NMatT=0.
 FoFJK:  IHMeth= 1 ICntrl=    2527 DoSepK=F KAlg= 0 I1Cent=   0 FoldK=F
 IRaf=         0 NMat=   1 IRICut=       1 DoRegI=T DoRafI=F ISym2E= 1.
 FoFCou: FMM=F IPFlag=           0 FMFlag=      100000 FMFlg1=         800
         NFxFlg=           0 DoJE=F BraDBF=F KetDBF=F FulRan=T
         wScrn=  0.000000 ICntrl=    2527 IOpCl=  0 I1Cent=           0 NGrid=           0
         NMat0=    1 NMatS0=      1 NMatT0=    0 NMatD0=    1 NMtDS0=    0 NMtDT0=    0
 Petite list used in FoFCou.
 Leave Link  703 at Fri Aug 27 00:05:15 2021, MaxMem= 17179869184 cpu:       144.5
 (Enter /public3/home/sc51754/softwares/g09e01/l716.exe)
 Dipole        = 1.81410436D-01-3.73463644D-01-2.24904707D-32
 ***** Axes restored to original set *****
 -------------------------------------------------------------------
 Center     Atomic                   Forces (Hartrees/Bohr)
 Number     Number              X              Y              Z
 -------------------------------------------------------------------
      1        8          -0.000127971    0.005033884   -0.000000000
      2        7          -0.006162198    0.001163989   -0.000000000
      3        6           0.003167241   -0.001490001    0.000000000
      4        6           0.002979843    0.002336072    0.000000000
      5        6          -0.002208724   -0.001809243   -0.000000000
      6        6           0.002166471   -0.002731204    0.000000000
      7        6           0.000630745   -0.003315410    0.000000000
      8        1           0.000218733   -0.000783118    0.000000000
      9        1          -0.000775433   -0.000845464    0.000000000
     10        1           0.000639807    0.000835946   -0.000000000
     11        1          -0.000777207    0.000590328   -0.000000000
     12        1           0.000248692    0.001014220   -0.000000000
 -------------------------------------------------------------------
 Cartesian Forces:  Max     0.006162198 RMS     0.001886319
 Leave Link  716 at Fri Aug 27 00:05:15 2021, MaxMem= 17179869184 cpu:         0.3
 (Enter /public3/home/sc51754/softwares/g09e01/l103.exe)

 GradGradGradGradGradGradGradGradGradGradGradGradGradGradGradGradGradGrad
 Berny optimization.
 FormGI is forming the generalized inverse of G from B-inverse, IUseBI=4.
 Internal  Forces:  Max     0.005358745 RMS     0.001319219
 Search for a local minimum.
 Step number   1 out of a maximum of   61
 All quantities printed in internal units (Hartrees-Bohrs-Radians)
 RMS Force = .13192D-02 SwitMx=.10000D-02 MixMth= 1
 Mixed Optimization -- RFO/linear search
 Second derivative matrix not updated -- first step.
 ITU=  0
     Eigenvalues ---    0.02265   0.02291   0.02312   0.02345   0.02366
     Eigenvalues ---    0.02409   0.02454   0.02466   0.02614   0.16000
     Eigenvalues ---    0.16000   0.16000   0.16000   0.16000   0.22000
     Eigenvalues ---    0.22422   0.24442   0.25000   0.35406   0.35728
     Eigenvalues ---    0.35970   0.35990   0.43621   0.45785   0.48169
     Eigenvalues ---    0.49389   0.54882   0.56881   0.57480   0.60970
 RFO step:  Lambda=-1.79322400D-04 EMin= 2.26525640D-02
 Linear search not attempted -- first point.
 Iteration  1 RMS(Cart)=  0.00323278 RMS(Int)=  0.00001241
 Iteration  2 RMS(Cart)=  0.00001051 RMS(Int)=  0.00000072
 Iteration  3 RMS(Cart)=  0.00000000 RMS(Int)=  0.00000072
 ITry= 1 IFail=0 DXMaxC= 1.13D-02 DCOld= 1.00D+10 DXMaxT= 3.00D-01 DXLimC= 3.00D+00 Rises=F
 ClnCor:  largest displacement from symmetrization is 5.03D-12 for atom    11.
 Variable       Old X    -DE/DX   Delta X   Delta X   Delta X     New X
                                 (Linear)    (Quad)   (Total)
    R1        2.53498   0.00423   0.00000   0.00744   0.00744   2.54242
    R2        1.81937  -0.00039   0.00000  -0.00072  -0.00072   1.81865
    R3        2.48913   0.00536   0.00000   0.00879   0.00879   2.49792
    R4        2.51605   0.00273   0.00000   0.00476   0.00476   2.52080
    R5        2.63173   0.00235   0.00000   0.00516   0.00516   2.63689
    R6        2.59740   0.00269   0.00000   0.00519   0.00519   2.60259
    R7        2.04128  -0.00110   0.00000  -0.00305  -0.00305   2.03823
    R8        2.60360   0.00303   0.00000   0.00600   0.00600   2.60960
    R9        2.05020  -0.00094   0.00000  -0.00265  -0.00265   2.04755
   R10        2.62604   0.00165   0.00000   0.00317   0.00317   2.62921
   R11        2.04509  -0.00097   0.00000  -0.00271  -0.00271   2.04238
   R12        2.04097  -0.00103   0.00000  -0.00285  -0.00285   2.03812
    A1        1.85547  -0.00130   0.00000  -0.00814  -0.00814   1.84733
    A2        2.05525  -0.00131   0.00000  -0.00400  -0.00400   2.05125
    A3        2.05194  -0.00081   0.00000  -0.00361  -0.00361   2.04833
    A4        2.06888   0.00055   0.00000   0.00184   0.00184   2.07073
    A5        2.16236   0.00026   0.00000   0.00177   0.00177   2.16413
    A6        2.04920   0.00002   0.00000  -0.00016  -0.00016   2.04904
    A7        2.09344   0.00028   0.00000   0.00189   0.00189   2.09532
    A8        2.14055  -0.00030   0.00000  -0.00173  -0.00173   2.13882
    A9        2.15386   0.00050   0.00000   0.00224   0.00224   2.15610
   A10        2.02490  -0.00070   0.00000  -0.00392  -0.00392   2.02098
   A11        2.10443   0.00020   0.00000   0.00167   0.00167   2.10610
   A12        2.08852   0.00021   0.00000  -0.00023  -0.00023   2.08829
   A13        2.09426  -0.00025   0.00000  -0.00077  -0.00077   2.09349
   A14        2.10040   0.00004   0.00000   0.00100   0.00100   2.10140
   A15        2.05718   0.00032   0.00000   0.00037   0.00037   2.05755
   A16        2.10510   0.00008   0.00000   0.00130   0.00130   2.10640
   A17        2.12091  -0.00040   0.00000  -0.00167  -0.00167   2.11924
    D1        0.00000   0.00000   0.00000   0.00000  -0.00000   0.00000
    D2        3.14159   0.00000   0.00000   0.00000   0.00000   3.14159
    D3        3.14159  -0.00000   0.00000   0.00000   0.00000   3.14159
    D4        0.00000   0.00000   0.00000   0.00000  -0.00000   0.00000
    D5       -0.00000  -0.00000   0.00000  -0.00000   0.00000   0.00000
    D6        3.14159  -0.00000   0.00000  -0.00000   0.00000   3.14159
    D7        3.14159   0.00000   0.00000  -0.00000   0.00000   3.14159
    D8        0.00000  -0.00000   0.00000  -0.00000  -0.00000   0.00000
    D9       -0.00000  -0.00000   0.00000  -0.00000   0.00000   0.00000
   D10        3.14159  -0.00000   0.00000  -0.00000   0.00000   3.14159
   D11        0.00000   0.00000   0.00000   0.00000  -0.00000   0.00000
   D12        3.14159  -0.00000   0.00000   0.00000   0.00000   3.14159
   D13        3.14159   0.00000   0.00000   0.00000   0.00000   3.14159
   D14       -0.00000   0.00000   0.00000  -0.00000   0.00000   0.00000
   D15       -0.00000  -0.00000   0.00000  -0.00000   0.00000   0.00000
   D16        3.14159  -0.00000   0.00000  -0.00000   0.00000   3.14159
   D17        3.14159   0.00000   0.00000   0.00000   0.00000   3.14159
   D18       -0.00000  -0.00000   0.00000  -0.00000   0.00000   0.00000
   D19        0.00000  -0.00000   0.00000  -0.00000   0.00000   0.00000
   D20        3.14159   0.00000   0.00000  -0.00000   0.00000   3.14159
   D21        3.14159   0.00000   0.00000   0.00000   0.00000   3.14159
   D22       -0.00000   0.00000   0.00000   0.00000   0.00000   0.00000
         Item               Value     Threshold  Converged?
 Maximum Force            0.005359     0.000450     NO 
 RMS     Force            0.001319     0.000300     NO 
 Maximum Displacement     0.011250     0.001800     NO 
 RMS     Displacement     0.003231     0.001200     NO 
 Predicted change in Energy=-8.969665D-05
 Lowest energy point so far.  Saving SCF results.
 GradGradGradGradGradGradGradGradGradGradGradGradGradGradGradGradGradGrad

 Leave Link  103 at Fri Aug 27 00:05:17 2021, MaxMem= 17179869184 cpu:        62.1
 (Enter /public3/home/sc51754/softwares/g09e01/l202.exe)
                          Input orientation:                          
 ---------------------------------------------------------------------
 Center     Atomic      Atomic             Coordinates (Angstroms)
 Number     Number       Type             X           Y           Z
 ---------------------------------------------------------------------
      1          8           0        0.007191    2.245689   -0.000000
      2          7           0       -1.175927    0.298325   -0.000000
      3          6           0        0.000879    0.900315   -0.000000
      4          6           0        1.222337    0.225682    0.000000
      5          6           0       -1.186084   -1.035588   -0.000000
      6          6           0        1.186016   -1.151072    0.000000
      7          6           0       -0.040855   -1.807240    0.000000
      8          1           0       -0.917392    2.512780   -0.000000
      9          1           0        2.146533    0.781745    0.000000
     10          1           0       -2.165210   -1.499616   -0.000000
     11          1           0        2.107933   -1.715127    0.000000
     12          1           0       -0.102641   -2.883993    0.000000
 ---------------------------------------------------------------------
                    Distance matrix (angstroms):
                    1          2          3          4          5
     1  O    0.000000
     2  N    2.278595   0.000000
     3  C    1.345390   1.321841   0.000000
     4  C    2.357332   2.399364   1.395382   0.000000
     5  C    3.491516   1.333952   2.270815   2.718694   0.000000
     6  C    3.595500   2.771196   2.369122   1.377233   2.374910
     7  C    4.053214   2.392027   2.707876   2.393413   1.380941
     8  H    0.962389   2.229495   1.855604   3.131974   3.558526
     9  H    2.592280   3.357445   2.148927   1.078584   3.795923
    10  H    4.329738   2.052138   3.232894   3.801595   1.083517
    11  H    4.483435   3.851978   3.358603   2.133312   3.363380
    12  H    5.130858   3.358436   3.785723   3.380184   2.142534
                    6          7          8          9         10
     6  C    0.000000
     7  C    1.391319   0.000000
     8  H    4.224706   4.408048   0.000000
     9  H    2.158327   3.389322   3.519108   0.000000
    10  H    3.369302   2.146512   4.201948   4.878087   0.000000
    11  H    1.080782   2.150762   5.198826   2.497170   4.278574
    12  H    2.159549   1.078524   5.457928   4.300746   2.484087
                   11         12
    11  H    0.000000
    12  H    2.500577   0.000000
 Stoichiometry    C5H5NO
 Framework group  CS[SG(C5H5NO)]
 Deg. of freedom    21
 Full point group                 CS      NOp   2
 RotChk:  IX=0 Diff= 1.73D-03
 Largest Abelian subgroup         CS      NOp   2
 Largest concise Abelian subgroup C1      NOp   1
                         Standard orientation:                         
 ---------------------------------------------------------------------
 Center     Atomic      Atomic             Coordinates (Angstroms)
 Number     Number       Type             X           Y           Z
 ---------------------------------------------------------------------
      1          8           0        0.004668    2.244854    0.000000
      2          7           0       -1.176070    0.296046   -0.000000
      3          6           0       -0.000000    0.899472    0.000000
      4          6           0        1.222281    0.226332    0.000000
      5          6           0       -1.184598   -1.037879   -0.000000
      6          6           0        1.187642   -1.150466    0.000000
      7          6           0       -0.038427   -1.808131   -0.000000
      8          1           0       -0.920241    2.510814   -0.000000
      9          1           0        2.145797    0.783524    0.000000
     10          1           0       -2.163155   -1.503103   -0.000000
     11          1           0        2.110248   -1.713394    0.000000
     12          1           0       -0.098898   -2.884959   -0.000000
 ---------------------------------------------------------------------
 Rotational constants (GHZ):      5.8979302      2.7952635      1.8964571
 Leave Link  202 at Fri Aug 27 00:05:17 2021, MaxMem= 17179869184 cpu:         5.0
 (Enter /public3/home/sc51754/softwares/g09e01/l301.exe)
 Basis read from rwf:  (5D, 7F)
 No pseudopotential information found on rwf file.
 There are   223 symmetry adapted cartesian basis functions of A'  symmetry.
 There are    97 symmetry adapted cartesian basis functions of A"  symmetry.
 There are   190 symmetry adapted basis functions of A'  symmetry.
 There are    90 symmetry adapted basis functions of A"  symmetry.
   280 basis functions,   475 primitive gaussians,   320 cartesian basis functions
    25 alpha electrons       25 beta electrons
       nuclear repulsion energy       277.0120765878 Hartrees.
 IExCor= 4134 DFT=T Ex+Corr=M06L ExCW=0 ScaHFX=  0.000000
 ScaDFX=  1.000000  1.000000  1.000000  1.000000 ScalE2=  1.000000  1.000000
 IRadAn=      0 IRanWt=     -1 IRanGd=            0 ICorTp=0 IEmpDi=  4
 NAtoms=   12 NActive=   12 NUniq=   12 SFac= 1.00D+00 NAtFMM=   60 NAOKFM=F Big=F
 Integral buffers will be    131072 words long.
 Raffenetti 2 integral format.
 Two-electron integral symmetry is turned on.
 No density basis found on file   724.
 Leave Link  301 at Fri Aug 27 00:05:17 2021, MaxMem= 17179869184 cpu:         1.1
 (Enter /public3/home/sc51754/softwares/g09e01/l302.exe)
 NPDir=0 NMtPBC=     1 NCelOv=     1 NCel=       1 NClECP=     1 NCelD=      1
         NCelK=      1 NCelE2=     1 NClLst=     1 CellRange=     0.0.
 One-electron integrals computed using PRISM.
 NBasis=   280 RedAO= T EigKep=  2.19D-04  NBF=   190    90
 NBsUse=   280 1.00D-06 EigRej= -1.00D+00 NBFU=   190    90
 Precomputing XC quadrature grid using
 IXCGrd= 4 IRadAn=           0 IRanWt=          -1 IRanGd=           0 AccXCQ= 0.00D+00.
 Generated NRdTot=       0 NPtTot=           0 NUsed=           0 NTot=          32
 NSgBfM=   320   320   320   320   320 MxSgAt=    12 MxSgA2=    12.
 Leave Link  302 at Fri Aug 27 00:05:18 2021, MaxMem= 17179869184 cpu:        39.9
 (Enter /public3/home/sc51754/softwares/g09e01/l303.exe)
 DipDrv:  MaxL=1.
 Leave Link  303 at Fri Aug 27 00:05:18 2021, MaxMem= 17179869184 cpu:        10.5
 (Enter /public3/home/sc51754/softwares/g09e01/l401.exe)
 Initial guess from the checkpoint file:  "HY_M06L_PC2_OPT_FREQ.chk"
 B after Tr=    -0.000000    0.000000    0.000000
         Rot=    1.000000   -0.000000   -0.000000   -0.000613 Ang=  -0.07 deg.
 Guess basis will be translated and rotated to current coordinates.
 JPrj=2 DoOrth=T DoCkMO=T.
 Initial guess orbital symmetries:
       Occupied  (A') (A') (A') (A') (A') (A') (A') (A') (A') (A')
                 (A') (A') (A') (A') (A') (A') (A') (A") (A') (A')
                 (A') (A") (A") (A') (A")
       Virtual   (A') (A') (A') (A') (A') (A') (A') (A') (A') (A')
                 (A') (A') (A') (A') (A') (A') (A') (A') (A') (A')
                 (A') (A') (A') (A') (A') (A') (A') (A') (A') (A')
                 (A') (A') (A') (A') (A') (A') (A') (A') (A') (A')
                 (A') (A') (A') (A') (A') (A') (A') (A') (A') (A')
                 (A') (A') (A') (A') (A') (A') (A') (A') (A') (A')
                 (A') (A') (A') (A') (A') (A') (A') (A') (A') (A')
                 (A') (A') (A') (A') (A') (A') (A') (A') (A') (A')
                 (A') (A') (A') (A') (A') (A') (A') (A') (A') (A')
                 (A') (A') (A') (A') (A') (A') (A') (A') (A') (A')
                 (A') (A') (A') (A') (A') (A') (A') (A') (A') (A')
                 (A') (A') (A') (A') (A') (A') (A') (A') (A') (A')
                 (A') (A') (A') (A') (A') (A') (A') (A') (A') (A')
                 (A') (A') (A') (A') (A') (A') (A') (A') (A') (A')
                 (A') (A') (A') (A') (A') (A') (A') (A') (A') (A')
                 (A') (A') (A') (A') (A') (A') (A') (A') (A') (A')
                 (A') (A') (A') (A') (A') (A') (A') (A') (A') (A")
                 (A") (A") (A") (A") (A") (A") (A") (A") (A") (A")
                 (A") (A") (A") (A") (A") (A") (A") (A") (A") (A")
                 (A") (A") (A") (A") (A") (A") (A") (A") (A") (A")
                 (A") (A") (A") (A") (A") (A") (A") (A") (A") (A")
                 (A") (A") (A") (A") (A") (A") (A") (A") (A") (A")
                 (A") (A") (A") (A") (A") (A") (A") (A") (A") (A")
                 (A") (A") (A") (A") (A") (A") (A") (A") (A") (A")
                 (A") (A") (A") (A") (A") (A") (A") (A") (A") (A")
                 (A") (A") (A") (A") (A")
 The electronic state of the initial guess is 1-A'.
 Leave Link  401 at Fri Aug 27 00:05:19 2021, MaxMem= 17179869184 cpu:        43.8
 (Enter /public3/home/sc51754/softwares/g09e01/l502.exe)
 Closed shell SCF:
 Using DIIS extrapolation, IDIIS=  1040.
 Integral symmetry usage will be decided dynamically.
 Keep J ints in memory in symmetry-blocked form, NReq=1167802198.
 IVT=      348658 IEndB=      348658 NGot= 17179869184 MDV= 16785904737
 LenX= 16785904737 LenY= 16785801896
 Requested convergence on RMS density matrix=1.00D-08 within 128 cycles.
 Requested convergence on MAX density matrix=1.00D-06.
 Requested convergence on             energy=1.00D-06.
 No special actions if energy rises.
 FoFCou: FMM=F IPFlag=           0 FMFlag=           0 FMFlg1=           0
         NFxFlg=           0 DoJE=F BraDBF=F KetDBF=F FulRan=T
         wScrn=  0.000000 ICntrl=     600 IOpCl=  0 I1Cent=           0 NGrid=           0
         NMat0=    1 NMatS0=  39340 NMatT0=    0 NMatD0=    1 NMtDS0=    0 NMtDT0=    0
 Petite list used in FoFCou.

 Cycle   1  Pass 1  IDiag  1:
 E= -323.596446180076    
 DIIS: error= 2.68D-04 at cycle   1 NSaved=   1.
 NSaved= 1 IEnMin= 1 EnMin= -323.596446180076     IErMin= 1 ErrMin= 2.68D-04
 ErrMax= 2.68D-04  0.00D+00 EMaxC= 1.00D-01 BMatC= 4.06D-05 BMatP= 4.06D-05
 IDIUse=3 WtCom= 9.97D-01 WtEn= 2.68D-03
 Coeff-Com:  0.100D+01
 Coeff-En:   0.100D+01
 Coeff:      0.100D+01
 Gap=     0.559 Goal=   None    Shift=    0.000
 RMSDP=2.85D-05 MaxDP=1.50D-03              OVMax= 1.83D-03

 Cycle   2  Pass 1  IDiag  1:
 E= -323.596481696045     Delta-E=       -0.000035515969 Rises=F Damp=F
 DIIS: error= 1.38D-04 at cycle   2 NSaved=   2.
 NSaved= 2 IEnMin= 2 EnMin= -323.596481696045     IErMin= 2 ErrMin= 1.38D-04
 ErrMax= 1.38D-04  0.00D+00 EMaxC= 1.00D-01 BMatC= 5.50D-06 BMatP= 4.06D-05
 IDIUse=3 WtCom= 9.99D-01 WtEn= 1.38D-03
 Coeff-Com:  0.180D+00 0.820D+00
 Coeff-En:   0.000D+00 0.100D+01
 Coeff:      0.180D+00 0.820D+00
 Gap=     0.166 Goal=   None    Shift=    0.000
 RMSDP=1.51D-05 MaxDP=7.75D-04 DE=-3.55D-05 OVMax= 1.60D-03

 Cycle   3  Pass 1  IDiag  1:
 E= -323.596477808365     Delta-E=        0.000003887679 Rises=F Damp=F
 DIIS: error= 2.09D-04 at cycle   3 NSaved=   3.
 NSaved= 3 IEnMin= 2 EnMin= -323.596481696045     IErMin= 2 ErrMin= 1.38D-04
 ErrMax= 2.09D-04  0.00D+00 EMaxC= 1.00D-01 BMatC= 8.97D-06 BMatP= 5.50D-06
 IDIUse=3 WtCom= 4.09D-01 WtEn= 5.91D-01
 Coeff-Com:  0.233D-01 0.559D+00 0.418D+00
 Coeff-En:   0.000D+00 0.619D+00 0.381D+00
 Coeff:      0.954D-02 0.594D+00 0.396D+00
 Gap=     0.166 Goal=   None    Shift=    0.000
 RMSDP=9.47D-06 MaxDP=4.48D-04 DE= 3.89D-06 OVMax= 1.29D-03

 Cycle   4  Pass 1  IDiag  1:
 E= -323.596485918686     Delta-E=       -0.000008110321 Rises=F Damp=F
 DIIS: error= 4.45D-05 at cycle   4 NSaved=   4.
 NSaved= 4 IEnMin= 4 EnMin= -323.596485918686     IErMin= 4 ErrMin= 4.45D-05
 ErrMax= 4.45D-05  0.00D+00 EMaxC= 1.00D-01 BMatC= 5.70D-07 BMatP= 5.50D-06
 IDIUse=1 WtCom= 1.00D+00 WtEn= 0.00D+00
 Coeff-Com: -0.421D-03 0.301D+00 0.248D+00 0.451D+00
 Coeff:     -0.421D-03 0.301D+00 0.248D+00 0.451D+00
 Gap=     0.166 Goal=   None    Shift=    0.000
 RMSDP=2.36D-06 MaxDP=9.50D-05 DE=-8.11D-06 OVMax= 2.97D-04

 Cycle   5  Pass 1  IDiag  1:
 E= -323.596486453213     Delta-E=       -0.000000534527 Rises=F Damp=F
 DIIS: error= 1.31D-05 at cycle   5 NSaved=   5.
 NSaved= 5 IEnMin= 5 EnMin= -323.596486453213     IErMin= 5 ErrMin= 1.31D-05
 ErrMax= 1.31D-05  0.00D+00 EMaxC= 1.00D-01 BMatC= 2.99D-08 BMatP= 5.70D-07
 IDIUse=1 WtCom= 1.00D+00 WtEn= 0.00D+00
 Coeff-Com: -0.994D-03 0.893D-01 0.832D-01 0.226D+00 0.603D+00
 Coeff:     -0.994D-03 0.893D-01 0.832D-01 0.226D+00 0.603D+00
 Gap=     0.166 Goal=   None    Shift=    0.000
 RMSDP=6.08D-07 MaxDP=2.71D-05 DE=-5.35D-07 OVMax= 9.36D-05

 Cycle   6  Pass 1  IDiag  1:
 E= -323.596486478347     Delta-E=       -0.000000025134 Rises=F Damp=F
 DIIS: error= 4.23D-06 at cycle   6 NSaved=   6.
 NSaved= 6 IEnMin= 6 EnMin= -323.596486478347     IErMin= 6 ErrMin= 4.23D-06
 ErrMax= 4.23D-06  0.00D+00 EMaxC= 1.00D-01 BMatC= 6.38D-09 BMatP= 2.99D-08
 IDIUse=1 WtCom= 1.00D+00 WtEn= 0.00D+00
 Coeff-Com: -0.485D-03 0.243D-01 0.270D-01 0.959D-01 0.377D+00 0.476D+00
 Coeff:     -0.485D-03 0.243D-01 0.270D-01 0.959D-01 0.377D+00 0.476D+00
 Gap=     0.166 Goal=   None    Shift=    0.000
 RMSDP=2.70D-07 MaxDP=1.38D-05 DE=-2.51D-08 OVMax= 4.10D-05

 Cycle   7  Pass 1  IDiag  1:
 E= -323.596486484233     Delta-E=       -0.000000005885 Rises=F Damp=F
 DIIS: error= 1.49D-06 at cycle   7 NSaved=   7.
 NSaved= 7 IEnMin= 7 EnMin= -323.596486484233     IErMin= 7 ErrMin= 1.49D-06
 ErrMax= 1.49D-06  0.00D+00 EMaxC= 1.00D-01 BMatC= 4.46D-10 BMatP= 6.38D-09
 IDIUse=1 WtCom= 1.00D+00 WtEn= 0.00D+00
 Coeff-Com: -0.142D-03-0.119D-02 0.724D-03 0.163D-01 0.106D+00 0.251D+00
 Coeff-Com:  0.628D+00
 Coeff:     -0.142D-03-0.119D-02 0.724D-03 0.163D-01 0.106D+00 0.251D+00
 Coeff:      0.628D+00
 Gap=     0.166 Goal=   None    Shift=    0.000
 RMSDP=8.02D-08 MaxDP=3.13D-06 DE=-5.89D-09 OVMax= 1.11D-05

 Cycle   8  Pass 1  IDiag  1:
 E= -323.596486484612     Delta-E=       -0.000000000380 Rises=F Damp=F
 DIIS: error= 8.59D-07 at cycle   8 NSaved=   8.
 NSaved= 8 IEnMin= 8 EnMin= -323.596486484612     IErMin= 8 ErrMin= 8.59D-07
 ErrMax= 8.59D-07  0.00D+00 EMaxC= 1.00D-01 BMatC= 6.93D-11 BMatP= 4.46D-10
 IDIUse=1 WtCom= 1.00D+00 WtEn= 0.00D+00
 Coeff-Com: -0.678D-04-0.226D-02-0.150D-02 0.321D-02 0.384D-01 0.120D+00
 Coeff-Com:  0.386D+00 0.456D+00
 Coeff:     -0.678D-04-0.226D-02-0.150D-02 0.321D-02 0.384D-01 0.120D+00
 Coeff:      0.386D+00 0.456D+00
 Gap=     0.166 Goal=   None    Shift=    0.000
 RMSDP=3.40D-08 MaxDP=1.54D-06 DE=-3.80D-10 OVMax= 5.10D-06

 Cycle   9  Pass 1  IDiag  1:
 E= -323.596486484684     Delta-E=       -0.000000000071 Rises=F Damp=F
 DIIS: error= 2.77D-07 at cycle   9 NSaved=   9.
 NSaved= 9 IEnMin= 9 EnMin= -323.596486484684     IErMin= 9 ErrMin= 2.77D-07
 ErrMax= 2.77D-07  0.00D+00 EMaxC= 1.00D-01 BMatC= 8.86D-12 BMatP= 6.93D-11
 IDIUse=1 WtCom= 1.00D+00 WtEn= 0.00D+00
 Coeff-Com:  0.401D-05-0.131D-02-0.133D-02-0.215D-02-0.650D-03 0.140D-01
 Coeff-Com:  0.814D-01 0.277D+00 0.633D+00
 Coeff:      0.401D-05-0.131D-02-0.133D-02-0.215D-02-0.650D-03 0.140D-01
 Coeff:      0.814D-01 0.277D+00 0.633D+00
 Gap=     0.166 Goal=   None    Shift=    0.000
 RMSDP=1.63D-08 MaxDP=4.73D-07 DE=-7.12D-11 OVMax= 2.54D-06

 Cycle  10  Pass 1  IDiag  1:
 E= -323.596486484689     Delta-E=       -0.000000000006 Rises=F Damp=F
 DIIS: error= 7.85D-08 at cycle  10 NSaved=  10.
 NSaved=10 IEnMin=10 EnMin= -323.596486484689     IErMin=10 ErrMin= 7.85D-08
 ErrMax= 7.85D-08  0.00D+00 EMaxC= 1.00D-01 BMatC= 2.54D-12 BMatP= 8.86D-12
 IDIUse=1 WtCom= 1.00D+00 WtEn= 0.00D+00
 Coeff-Com:  0.875D-05-0.658D-03-0.788D-03-0.194D-02-0.473D-02-0.226D-02
 Coeff-Com:  0.183D-01 0.143D+00 0.435D+00 0.414D+00
 Coeff:      0.875D-05-0.658D-03-0.788D-03-0.194D-02-0.473D-02-0.226D-02
 Coeff:      0.183D-01 0.143D+00 0.435D+00 0.414D+00
 Gap=     0.166 Goal=   None    Shift=    0.000
 RMSDP=5.34D-09 MaxDP=2.13D-07 DE=-5.57D-12 OVMax= 9.15D-07

 SCF Done:  E(RM06L) =  -323.596486485     A.U. after   10 cycles
[...]
     30  0.687241D-02  0.000000D+00  0.000000D+00 -0.276189D-03  0.000000D+00
     31  0.000000D+00  0.628902D-04 -0.875788D-04  0.000000D+00  0.835518D-03
     32  0.000000D+00  0.470893D-04 -0.576573D-03  0.000000D+00 -0.427760D-03
     33  0.483640D-02  0.000000D+00  0.000000D+00 -0.485281D-03  0.000000D+00
     34  0.000000D+00 -0.167161D-03 -0.298040D-03  0.000000D+00  0.158767D-03
     35  0.000000D+00  0.190203D-03  0.216472D-03  0.000000D+00  0.334173D-03
     36 -0.323560D-01  0.000000D+00  0.000000D+00 -0.415677D-04  0.000000D+00
               26            27            28            29            30 
     26  0.136034D+00
     27  0.000000D+00  0.242171D-01
     28 -0.536947D-04  0.000000D+00  0.306134D+00
     29  0.164157D-03  0.000000D+00  0.112761D+00  0.117711D+00
     30  0.000000D+00 -0.193304D-02  0.000000D+00  0.000000D+00  0.262011D-01
     31  0.328505D-03  0.000000D+00 -0.120586D-02  0.100838D-02  0.000000D+00
     32  0.127418D-02  0.000000D+00 -0.841589D-03  0.472622D-03  0.000000D+00
     33  0.000000D+00 -0.466236D-02  0.000000D+00  0.000000D+00 -0.456253D-03
     34 -0.152114D-02  0.000000D+00  0.806408D-03 -0.665236D-03  0.000000D+00
     35 -0.469552D-03  0.000000D+00  0.259497D-03  0.573377D-03  0.000000D+00
     36  0.000000D+00  0.662264D-03  0.000000D+00  0.000000D+00 -0.343657D-02
               31            32            33            34            35 
     31  0.275869D+00
     32 -0.134937D+00  0.141232D+00
     33  0.000000D+00  0.000000D+00  0.273734D-01
     34  0.138231D-02  0.672228D-03  0.000000D+00  0.574802D-01
     35 -0.788141D-04  0.800313D-03  0.000000D+00  0.176664D-01  0.363235D+00
     36  0.000000D+00  0.000000D+00 -0.375850D-02  0.000000D+00  0.000000D+00
               36 
     36  0.247582D-01
 FormGI is forming the generalized inverse of G from B-inverse, IUseBI=4.
 Leave Link  716 at Fri Aug 27 00:06:28 2021, MaxMem= 17179869184 cpu:        24.3
 (Enter /public3/home/sc51754/softwares/g09e01/l103.exe)

 GradGradGradGradGradGradGradGradGradGradGradGradGradGradGradGradGradGrad
 Berny optimization.
 Red2BG is reusing G-inverse.
 Internal  Forces:  Max     0.000414853 RMS     0.000076795
 Search for a local minimum.
 Step number   1 out of a maximum of    2
 All quantities printed in internal units (Hartrees-Bohrs-Radians)
 Second derivative matrix not updated -- analytic derivatives used.
 ITU=  0
     Eigenvalues ---    0.01417   0.01744   0.01799   0.02201   0.02338
     Eigenvalues ---    0.02755   0.03047   0.03651   0.04422   0.10320
     Eigenvalues ---    0.10928   0.12021   0.13063   0.16128   0.18875
     Eigenvalues ---    0.19933   0.21380   0.23930   0.32051   0.35616
     Eigenvalues ---    0.35977   0.36410   0.36587   0.38332   0.43828
     Eigenvalues ---    0.45819   0.48259   0.52342   0.52511   0.57870
 Angle between quadratic step and forces=  24.65 degrees.
 Linear search not attempted -- first point.
 Iteration  1 RMS(Cart)=  0.00018254 RMS(Int)=  0.00000003
 Iteration  2 RMS(Cart)=  0.00000004 RMS(Int)=  0.00000000
 ITry= 1 IFail=0 DXMaxC= 7.15D-04 DCOld= 1.00D+10 DXMaxT= 3.00D-01 DXLimC= 3.00D+00 Rises=F
 ClnCor:  largest displacement from symmetrization is 1.10D-11 for atom    10.
 Variable       Old X    -DE/DX   Delta X   Delta X   Delta X     New X
                                 (Linear)    (Quad)   (Total)
    R1        2.54439   0.00014   0.00000   0.00035   0.00035   2.54474
    R2        1.81897   0.00002   0.00000   0.00003   0.00003   1.81901
    R3        2.49991   0.00017   0.00000   0.00059   0.00059   2.50050
    R4        2.52152  -0.00006   0.00000  -0.00031  -0.00031   2.52121
    R5        2.63512  -0.00041   0.00000  -0.00122  -0.00122   2.63390
    R6        2.60320   0.00009   0.00000   0.00042   0.00042   2.60362
    R7        2.03789   0.00004   0.00000   0.00012   0.00012   2.03801
    R8        2.60961  -0.00010   0.00000   0.00004   0.00004   2.60965
    R9        2.04717   0.00007   0.00000   0.00021   0.00021   2.04738
   R10        2.62856  -0.00019   0.00000  -0.00067  -0.00067   2.62788
   R11        2.04208   0.00007   0.00000   0.00020   0.00020   2.04228
   R12        2.03785   0.00006   0.00000   0.00018   0.00018   2.03802
    A1        1.84541   0.00001   0.00000  -0.00006  -0.00006   1.84535
    A2        2.04890  -0.00001   0.00000  -0.00009  -0.00009   2.04881
    A3        2.04546  -0.00001   0.00000  -0.00030  -0.00030   2.04517
    A4        2.07166   0.00002   0.00000   0.00031   0.00031   2.07197
    A5        2.16607  -0.00001   0.00000  -0.00001  -0.00001   2.16605
    A6        2.04832   0.00002   0.00000   0.00013   0.00013   2.04845
    A7        2.09615  -0.00001   0.00000   0.00008   0.00008   2.09622
    A8        2.13871  -0.00001   0.00000  -0.00021  -0.00021   2.13851
    A9        2.15692  -0.00002   0.00000  -0.00002  -0.00002   2.15689
   A10        2.01973   0.00004   0.00000   0.00023   0.00023   2.01996
   A11        2.10654  -0.00001   0.00000  -0.00021  -0.00021   2.10633
   A12        2.08849   0.00002   0.00000  -0.00004  -0.00004   2.08846
   A13        2.09288  -0.00002   0.00000  -0.00018  -0.00018   2.09270
   A14        2.10181   0.00000   0.00000   0.00022   0.00022   2.10203
   A15        2.05767   0.00001   0.00000   0.00003   0.00003   2.05770
   A16        2.10641  -0.00003   0.00000  -0.00033  -0.00033   2.10608
   A17        2.11910   0.00002   0.00000   0.00030   0.00030   2.11940
    D1       -0.00000   0.00000   0.00000   0.00000   0.00000   0.00000
    D2        3.14159   0.00000   0.00000   0.00000   0.00000   3.14159
    D3        3.14159   0.00000   0.00000   0.00000   0.00000   3.14159
    D4       -0.00000  -0.00000   0.00000   0.00000   0.00000   0.00000
    D5        0.00000  -0.00000   0.00000   0.00000  -0.00000   0.00000
    D6        3.14159  -0.00000   0.00000   0.00000   0.00000   3.14159
    D7        3.14159  -0.00000   0.00000  -0.00000   0.00000   3.14159
    D8       -0.00000  -0.00000   0.00000  -0.00000   0.00000   0.00000
    D9       -0.00000  -0.00000   0.00000  -0.00000   0.00000   0.00000
   D10        3.14159   0.00000   0.00000  -0.00000   0.00000   3.14159
   D11        0.00000   0.00000   0.00000  -0.00000   0.00000   0.00000
   D12        3.14159   0.00000   0.00000  -0.00000   0.00000   3.14159
   D13        3.14159  -0.00000   0.00000   0.00000   0.00000   3.14159
   D14       -0.00000   0.00000   0.00000  -0.00000   0.00000   0.00000
   D15        0.00000  -0.00000   0.00000  -0.00000   0.00000   0.00000
   D16        3.14159  -0.00000   0.00000  -0.00000   0.00000   3.14159
   D17        3.14159  -0.00000   0.00000  -0.00000   0.00000   3.14159
   D18       -0.00000  -0.00000   0.00000  -0.00000   0.00000   0.00000
   D19       -0.00000   0.00000   0.00000   0.00000   0.00000   0.00000
   D20        3.14159   0.00000   0.00000   0.00000   0.00000   3.14159
   D21        3.14159  -0.00000   0.00000   0.00000   0.00000   3.14159
   D22        0.00000  -0.00000   0.00000   0.00000   0.00000   0.00000
         Item               Value     Threshold  Converged?
 Maximum Force            0.000415     0.000450     YES
 RMS     Force            0.000077     0.000300     YES
 Maximum Displacement     0.000715     0.001800     YES
 RMS     Displacement     0.000183     0.001200     YES
 Predicted change in Energy=-4.636758D-07
 Optimization completed.
    -- Stationary point found.
                           ----------------------------
                           !   Optimized Parameters   !
                           ! (Angstroms and Degrees)  !
 --------------------------                            --------------------------
 ! Name  Definition              Value          Derivative Info.                !
 --------------------------------------------------------------------------------
 ! R1    R(1,3)                  1.3464         -DE/DX =    0.0001              !
 ! R2    R(1,8)                  0.9626         -DE/DX =    0.0                 !
 ! R3    R(2,3)                  1.3229         -DE/DX =    0.0002              !
 ! R4    R(2,5)                  1.3343         -DE/DX =   -0.0001              !
 ! R5    R(3,4)                  1.3944         -DE/DX =   -0.0004              !
 ! R6    R(4,6)                  1.3776         -DE/DX =    0.0001              !
 ! R7    R(4,9)                  1.0784         -DE/DX =    0.0                 !
 ! R8    R(5,7)                  1.3809         -DE/DX =   -0.0001              !
 ! R9    R(5,10)                 1.0833         -DE/DX =    0.0001              !
 ! R10   R(6,7)                  1.391          -DE/DX =   -0.0002              !
 ! R11   R(6,11)                 1.0806         -DE/DX =    0.0001              !
 ! R12   R(7,12)                 1.0784         -DE/DX =    0.0001              !
 ! A1    A(3,1,8)              105.7341         -DE/DX =    0.0                 !
 ! A2    A(3,2,5)              117.3935         -DE/DX =    0.0                 !
 ! A3    A(1,3,2)              117.1963         -DE/DX =    0.0                 !
 ! A4    A(1,3,4)              118.6973         -DE/DX =    0.0                 !
 ! A5    A(2,3,4)              124.1064         -DE/DX =    0.0                 !
 ! A6    A(3,4,6)              117.3603         -DE/DX =    0.0                 !
 ! A7    A(3,4,9)              120.1004         -DE/DX =    0.0                 !
 ! A8    A(6,4,9)              122.5393         -DE/DX =    0.0                 !
 ! A9    A(2,5,7)              123.5822         -DE/DX =    0.0                 !
 ! A10   A(2,5,10)             115.7221         -DE/DX =    0.0                 !
 ! A11   A(7,5,10)             120.6957         -DE/DX =    0.0                 !
 ! A12   A(4,6,7)              119.6618         -DE/DX =    0.0                 !
 ! A13   A(4,6,11)             119.9133         -DE/DX =    0.0                 !
 ! A14   A(7,6,11)             120.425          -DE/DX =    0.0                 !
 ! A15   A(5,7,6)              117.8959         -DE/DX =    0.0                 !
 ! A16   A(5,7,12)             120.6886         -DE/DX =    0.0                 !
 ! A17   A(6,7,12)             121.4155         -DE/DX =    0.0                 !
 ! D1    D(8,1,3,2)              0.0            -DE/DX =    0.0                 !
 ! D2    D(8,1,3,4)            180.0            -DE/DX =    0.0                 !
 ! D3    D(5,2,3,1)            180.0            -DE/DX =    0.0                 !
 ! D4    D(5,2,3,4)              0.0            -DE/DX =    0.0                 !
 ! D5    D(3,2,5,7)              0.0            -DE/DX =    0.0                 !
 ! D6    D(3,2,5,10)           180.0            -DE/DX =    0.0                 !
 ! D7    D(1,3,4,6)            180.0            -DE/DX =    0.0                 !
 ! D8    D(1,3,4,9)              0.0            -DE/DX =    0.0                 !
 ! D9    D(2,3,4,6)              0.0            -DE/DX =    0.0                 !
 ! D10   D(2,3,4,9)            180.0            -DE/DX =    0.0                 !
 ! D11   D(3,4,6,7)              0.0            -DE/DX =    0.0                 !
 ! D12   D(3,4,6,11)           180.0            -DE/DX =    0.0                 !
 ! D13   D(9,4,6,7)            180.0            -DE/DX =    0.0                 !
 ! D14   D(9,4,6,11)             0.0            -DE/DX =    0.0                 !
 ! D15   D(2,5,7,6)              0.0            -DE/DX =    0.0                 !
 ! D16   D(2,5,7,12)           180.0            -DE/DX =    0.0                 !
 ! D17   D(10,5,7,6)           180.0            -DE/DX =    0.0                 !
 ! D18   D(10,5,7,12)            0.0            -DE/DX =    0.0                 !
 ! D19   D(4,6,7,5)              0.0            -DE/DX =    0.0                 !
 ! D20   D(4,6,7,12)           180.0            -DE/DX =    0.0                 !
 ! D21   D(11,6,7,5)           180.0            -DE/DX =    0.0                 !
 ! D22   D(11,6,7,12)            0.0            -DE/DX =    0.0                 !
 --------------------------------------------------------------------------------
 GradGradGradGradGradGradGradGradGradGradGradGradGradGradGradGradGradGrad

 Leave Link  103 at Fri Aug 27 00:06:29 2021, MaxMem= 17179869184 cpu:        33.8
 (Enter /public3/home/sc51754/softwares/g09e01/l9999.exe)
 1\1\GINC-R2613\Freq\RM06L\Gen\C5H5N1O1\SC51754\27-Aug-2021\0\\#P Geom=
 AllCheck Guess=TCheck SCRF=Check GenChk RM06L/ChkBas Freq\\HY_M06L_PC2
 _OPT_FREQ\\0,1\O,0.0067925831,2.2460957532,0.\N,-1.1766664517,0.299170
 0802,0.\C,0.0020841189,0.8996689374,0.\C,1.2228983271,0.225808719,0.\C
 ,-1.1859236906,-1.0351300035,0.\C,1.1859405932,-1.1512508052,0.\C,-0.0
 40794062,-1.806938548,0.\H,-0.9187817442,2.5103540356,0.\H,2.147255162
 1,0.7812602406,0.\H,-2.1651313765,-1.4985147189,0.\H,2.1078099076,-1.7
 150806341,0.\H,-0.102702367,-2.8835430563,0.\\Version=EM64L-G09RevE.01
 \State=1-A'\HF=-323.59649\RMSD=5.038e-09\RMSF=1.505e-04\ZeroPoint=0.09
 38741\Thermal=0.0990402\Dipole=0.1869388,-0.3941048,0.\DipoleDeriv=-0.
 181979,0.091942,0.,0.0889936,-1.5834949,0.,0.,0.,-0.3495127,-0.473601,
 -0.2753036,0.,0.1815308,-0.8047733,0.,0.,0.,-0.2755687,0.3021952,-0.20
 59248,0.,-0.0590197,1.8048816,0.,0.,0.,0.209984,-0.0156037,0.4032368,0
 .,-0.0551588,-0.4437506,0.,0.,0.,-0.139931,0.4504092,0.1334035,0.,-0.2
 222205,0.4100054,0.,0.,0.,-0.0037324,0.2764309,0.0692413,0.,0.1204694,
 0.3365094,0.,0.,0.,-0.0799604,-0.4281154,-0.1167147,0.,0.0833543,-0.05
 35745,0.,0.,0.,-0.1365807,0.1757507,-0.0043884,0.,-0.0720411,0.3703699
 ,0.,0.,0.,0.3048938,-0.0345147,-0.0600555,0.,-0.0553264,0.0321376,0.,0
 .,0.,0.1359938,-0.0804585,-0.0991992,0.,-0.0643727,-0.0003787,0.,0.,0.
 ,0.089003,-0.0494664,0.0740692,0.,0.0694282,0.0332599,0.,0.,0.,0.10934
 55,0.0589527,-0.0103066,0.,-0.015637,-0.1011917,0.,0.,0.,0.1360657\Pol
 ar=73.2642556,-0.0111224,84.7925814,0.,0.,36.9022606\PG=CS [SG(C5H5N1O
 1)]\NImag=0\\0.59461692,-0.09926948,0.47872963,0.,0.,0.03773375,-0.007
 46370,-0.03380988,0.,0.46630983,-0.06715395,-0.05570888,0.,0.12538318,
 0.62745732,0.,0.,0.00736249,0.,0.,0.08929817,-0.11148754,-0.01455711,0
 .,-0.29910734,-0.05577081,0.,0.70881837,0.03405871,-0.30572418,0.,-0.0
 8195490,-0.16601443,0.,-0.02717221,0.72297574,0.,0.,-0.05148097,0.,0.,
 -0.07107699,0.,0.,0.18463831,0.00059381,0.01494961,0.,-0.06296503,-0.0
 3208444,0.,-0.26492772,0.10041430,0.,0.70966048,0.05149593,-0.04331354
 ,0.,0.01498207,0.05944256,0.,0.03395358,-0.15028511,0.,0.05337953,0.73
 036216,0.,0.,0.00822030,0.,0.,0.01959444,0.,0.,-0.07505063,0.,0.,0.122
 53210,-0.00505761,0.00121237,0.,-0.11515671,-0.00807576,0.,0.01518871,
 -0.04833761,0.,-0.01572265,0.02515590,0.,0.75966953,0.00833808,0.00059
 146,0.,0.00726710,-0.34205287,0.,-0.09833788,-0.04849946,0.,0.03403243
 ,-0.04924466,0.,0.02942247,0.67532629,0.,0.,0.01064170,0.,0.,-0.063218
 50,0.,0.,-0.00389739,0.,0.,-0.00565623,0.,0.,0.15865316,-0.01166542,0.
 00387777,0.,-0.01740353,-0.03811522,0.,0.04531141,0.03089113,0.,-0.129
 37142,0.02170974,0.,-0.06218930,0.03151337,0.,0.71556996,-0.00591764,0
 .00742437,0.,-0.03216187,-0.05001928,0.,0.08100507,-0.03305178,0.,-0.0
 3416893,-0.37047669,0.,-0.01807947,0.06500382,0.,-0.03995845,0.7093572
 0,0.,0.,0.00470474,0.,0.,-0.00831663,0.,0.,0.00243800,0.,0.,-0.0579381
 9,0.,0.,0.00803353,0.,0.,0.14451289,0.00803457,-0.00485313,0.,0.040349
 43,0.07870059,0.,-0.07662551,0.00061964,0.,0.02998106,-0.07140853,0.,-
 0.28588606,0.06330007,0.,-0.28313419,-0.05299176,0.,0.66102766,-0.0022
 8979,-0.00631385,0.,0.02191906,-0.05351559,0.,0.01379328,0.00485965,0.
 ,-0.03436647,-0.02547780,0.,0.12705487,-0.18737676,0.,-0.11372454,-0.1
 7090601,0.,-0.00061422,0.76305513,0.,0.,-0.00171341,0.,0.,0.02293902,0
 .,0.,-0.00951229,0.,0.,0.00740134,0.,0.,-0.06891520,0.,0.,-0.06333803,
 0.,0.,0.12423134,-0.47025604,0.13314247,0.,-0.00054348,-0.00376870,0.,
 -0.00250359,0.01098044,0.,0.00272806,-0.00214009,0.,-0.00161721,-0.001
 76961,0.,0.00006360,0.00106040,0.,-0.00067952,-0.00044379,0.,0.4727727
 7,0.08117748,-0.07451968,0.,0.00158268,0.00763839,0.,0.05616814,-0.027
 06517,0.,-0.00237634,-0.00780210,0.,-0.00074984,-0.00189174,0.,0.00273
 428,0.00051963,0.,-0.00115599,0.00112264,0.,-0.13701683,0.10189370,0.,
 0.,-0.01236026,0.,0.,-0.00395887,0.,0.,0.00102702,0.,0.,0.00372312,0.,
 0.,-0.00067780,0.,0.,0.00155112,0.,0.,0.00060830,0.,0.,0.01151362,0.00
 197542,-0.00073076,0.,-0.00630364,0.00333003,0.,-0.01675639,-0.0199157
 6,0.,-0.26981274,-0.12371468,0.,0.00051654,0.00278555,0.,0.00463301,0.
 00161233,0.,0.00265886,0.00071560,0.,0.00000856,-0.00016359,0.,0.28219
 047,-0.00068351,0.00098096,0.,0.00519535,-0.00007814,0.,0.01264054,0.0
 1130363,0.,-0.12554315,-0.13246045,0.,0.00048265,-0.00165642,0.,-0.028
 64677,-0.00995300,0.,0.00168498,-0.00523881,0.,-0.00029800,0.00009901,
 0.,0.13641424,0.13603444,0.,0.,-0.00191365,0.,0.,0.00614825,0.,0.,0.00
 158398,0.,0.,-0.03361151,0.,0.,-0.00036022,0.,0.,0.00154630,0.,0.,0.00
 894608,0.,0.,-0.00062322,0.,0.,0.02421712,-0.00017484,-0.00023583,0.,0
 .00558108,-0.00658413,0.,0.00311097,0.00193709,0.,0.00052756,0.0007657
 3,0.,-0.29354800,-0.09868870,0.,-0.00349975,0.00458674,0.,-0.01775862,
 -0.01409197,0.,0.00013112,0.00018561,0.,-0.00010438,-0.00005369,0.,0.3
 0613431,-0.00139976,-0.00128914,0.,-0.03145068,-0.02559627,0.,-0.00058
 819,-0.00434871,0.,-0.00001296,-0.00078703,0.,-0.09823054,-0.09691050,
 0.,0.00324193,-0.00157374,0.,0.01555875,0.01121881,0.,0.00001643,0.000
 36543,0.,-0.00023936,0.00016416,0.,0.11276124,0.11771102,0.,0.,0.00052
 905,0.,0.,-0.00376236,0.,0.,0.01082205,0.,0.,-0.00080148,0.,0.,-0.0415
 7500,0.,0.,0.00781633,0.,0.,0.00687241,0.,0.,-0.00027619,0.,0.,-0.0019
 3304,0.,0.,0.02620105,-0.00001594,0.00016322,0.,0.00062699,-0.00070683
 ,0.,0.00209784,-0.00128550,0.,0.00434763,-0.00217833,0.,-0.00449065,-0
 .00465695,0.,-0.26159363,0.12455793,0.,-0.01791633,0.01787259,0.,0.000
 06289,-0.00008758,0.,0.00083552,0.00032850,0.,-0.00120586,0.00100838,0
 .,0.27586922,0.00198247,-0.00085268,0.,-0.00055310,-0.00058291,0.,-0.0
 0183766,-0.00526286,0.,0.02865482,-0.01087584,0.,-0.00346245,-0.000659
 50,0.,0.12393976,-0.13678542,0.,-0.01323720,0.01181617,0.,0.00004709,-
 0.00057657,0.,-0.00042776,0.00127418,0.,-0.00084159,0.00047262,0.,-0.1
 3493661,0.14123250,0.,0.,-0.00022060,0.,0.,-0.00347176,0.,0.,0.0101095
 6,0.,0.,0.00485728,0.,0.,0.00778545,0.,0.,-0.04190730,0.,0.,0.00483640
 ,0.,0.,-0.00048528,0.,0.,-0.00466236,0.,0.,-0.00045625,0.,0.,0.0273733
 6,0.00090038,0.00011075,0.,-0.00392392,0.00484604,0.,-0.00311922,-0.00
 023532,0.,-0.00503905,-0.00200084,0.,0.00829339,0.02679407,0.,0.003279
 27,-0.02954435,0.,-0.06005135,-0.01582462,0.,-0.00016716,-0.00029804,0
 .,0.00015877,-0.00152114,0.,0.00080641,-0.00066524,0.,0.00138231,0.000
 67223,0.,0.05748018,-0.00033854,-0.00000446,0.,0.00360098,-0.00096989,
 0.,0.00070325,0.00111270,0.,-0.00287840,0.00091851,0.,-0.00639260,-0.0
 1262966,0.,0.00253700,-0.00953910,0.,-0.01560319,-0.34324356,0.,0.0001
 9020,0.00021647,0.,0.00033417,-0.00046955,0.,0.00025950,0.00057338,0.,
 -0.00007881,0.00080031,0.,0.01766645,0.36323485,0.,0.,-0.00150316,0.,0
 .,0.00846274,0.,0.,0.00039934,0.,0.,0.00672947,0.,0.,-0.00081350,0.,0.
 ,0.00089723,0.,0.,-0.03235595,0.,0.,-0.00004157,0.,0.,0.00066226,0.,0.
 ,-0.00343657,0.,0.,-0.00375850,0.,0.,0.02475820\\-0.00005245,-0.000126
 56,0.,0.00012323,0.00011049,0.,-0.00056374,0.00023428,0.,0.00039536,-0
 .00022619,0.,-0.00008880,-0.00005588,0.,0.00026127,0.00016323,0.,-0.00
 011183,-0.00021389,0.,-0.00002839,-0.00002989,0.,-0.00004998,0.0000143
 3,0.,0.00007546,0.00001045,0.,-0.00003897,0.00006541,0.,0.00007883,0.0
 0005422,0.\\\@


 A successful marriage requires falling in love
 many times, always with the same person.
                           -- Mignon McLaughlin
 Job cpu time:       0 days  0 hours 43 minutes 20.9 seconds.
 File lengths (MBytes):  RWF=     80 Int=      0 D2E=      0 Chk=      7 Scr=      1
 Normal termination of Gaussian 09 at Fri Aug 27 00:06:29 2021.
