 Entering Gaussian System, Link 0=g09
 AtFile(1): pc-2.gbs
            -H     0
            S    4   1.00
                  0.754230D+02           0.240650D-02
                  0.113500D+02           0.184870D-01
                  0.259930D+01           0.897420D-01
                  0.735130D+00           0.281110D+00
            S    1   1.00
                  0.231670D+00           0.100000D+01
            S    1   1.00
                  0.741470D-01           0.100000D+01
            P    1   1.00
                  0.160000D+01           0.100000D+01
            P    1   1.00
                  0.450000D+00           0.100000D+01
            D    1   1.00
                  0.125000D+01           0.100000D+01
            ****
            -C     0
            S    7   1.00
                  0.785710D+04           0.568250D-03
                  0.117870D+04           0.439150D-02
                  0.268320D+03           0.225040D-01
                  0.759480D+02           0.866530D-01
                  0.245590D+02           0.244050D+00
                  0.862120D+01           0.441480D+00
                  0.312780D+01           0.353320D+00
            S    7   1.00
                  0.117870D+04          -0.594920D-06
                  0.268320D+03          -0.627480D-04
                  0.759480D+02          -0.757730D-03
                  0.245590D+02          -0.733080D-02
                  0.862120D+01          -0.389320D-01
                  0.312780D+01          -0.889080D-01
                  0.822020D+00           0.216890D+00
            S    1   1.00
                  0.330170D+00           0.100000D+01
            S    1   1.00
                  0.114630D+00           0.100000D+01
            P    4   1.00
                  0.337750D+02           0.602940D-02
                  0.767660D+01           0.432280D-01
                  0.223570D+01           0.163010D+00
                  0.764470D+00           0.365040D+00
            P    1   1.00
                  0.262320D+00           0.100000D+01
            P    1   1.00
                  0.846380D-01           0.100000D+01
            D    1   1.00
                  0.140000D+01           0.100000D+01
            D    1   1.00
                  0.450000D+00           0.100000D+01
            F    1   1.00
                  0.950000D+00           0.100000D+01
            ****
            -N     0
            S    7   1.00
                  0.111010D+05           0.545700D-03
                  0.166530D+04           0.421810D-02
                  0.379080D+03           0.216450D-01
                  0.107300D+03           0.837760D-01
                  0.347470D+02           0.238810D+00
                  0.122490D+02           0.439940D+00
                  0.447430D+01           0.363640D+00
            S    7   1.00
                  0.166530D+04          -0.150060D-05
                  0.379080D+03          -0.587530D-04
                  0.107300D+03          -0.774530D-03
                  0.347470D+02          -0.721610D-02
                  0.122490D+02          -0.393380D-01
                  0.447430D+01          -0.906110D-01
                  0.124040D+01           0.198820D+00
            S    1   1.00
                  0.487430D+00           0.100000D+01
            S    1   1.00
                  0.164840D+00           0.100000D+01
            P    4   1.00
                  0.479340D+02           0.617060D-02
                  0.109990D+02           0.442600D-01
                  0.324720D+01           0.168250D+00
                  0.111140D+01           0.368480D+00
            P    1   1.00
                  0.379880D+00           0.100000D+01
            P    1   1.00
                  0.120680D+00           0.100000D+01
            D    1   1.00
                  0.180000D+01           0.100000D+01
            D    1   1.00
                  0.550000D+00           0.100000D+01
            F    1   1.00
                  0.102000D+01           0.100000D+01
            ****
            -O     0
            S    7   1.00
                  0.147820D+05           0.535190D-03
                  0.221730D+04           0.413750D-02
                  0.504740D+03           0.212450D-01
                  0.142870D+03           0.824530D-01
                  0.463000D+02           0.236710D+00
                  0.163370D+02           0.440390D+00
                  0.598280D+01           0.364650D+00
            S    7   1.00
                  0.221730D+04          -0.192750D-05
                  0.504740D+03          -0.579640D-04
                  0.142870D+03          -0.794940D-03
                  0.463000D+02          -0.731250D-02
                  0.163370D+02          -0.405740D-01
                  0.598280D+01          -0.915940D-01
                  0.167180D+01           0.209400D+00
            S    1   1.00
                  0.646620D+00           0.100000D+01
            S    1   1.00
                  0.216690D+00           0.100000D+01
            P    4   1.00
                  0.604240D+02           0.689490D-02
                  0.139350D+02           0.490050D-01
                  0.415310D+01           0.182550D+00
                  0.141580D+01           0.376330D+00
            P    1   1.00
                  0.475490D+00           0.100000D+01
            P    1   1.00
                  0.145290D+00           0.100000D+01
            D    1   1.00
                  0.220000D+01           0.100000D+01
            D    1   1.00
                  0.650000D+00           0.100000D+01
            F    1   1.00
                  0.110000D+01           0.100000D+01
            ****
 Initial command:
 /public3/home/sc51754/softwares/g09e01/l1.exe "./Gau-12706.inp" -scrdir="./"
 Entering Link 1 = /public3/home/sc51754/softwares/g09e01/l1.exe PID=     12707.
  
 Copyright (c) 1988,1990,1992,1993,1995,1998,2003,2009,2015,
            Gaussian, Inc.  All Rights Reserved.
  
 This is part of the Gaussian(R) 09 program.  It is based on
 the Gaussian(R) 03 system (copyright 2003, Gaussian, Inc.),
 the Gaussian(R) 98 system (copyright 1998, Gaussian, Inc.),
 the Gaussian(R) 94 system (copyright 1995, Gaussian, Inc.),
 the Gaussian 92(TM) system (copyright 1992, Gaussian, Inc.),
 the Gaussian 90(TM) system (copyright 1990, Gaussian, Inc.),
 the Gaussian 88(TM) system (copyright 1988, Gaussian, Inc.),
 the Gaussian 86(TM) system (copyright 1986, Carnegie Mellon
 University), and the Gaussian 82(TM) system (copyright 1983,
 Carnegie Mellon University). Gaussian is a federally registered
 trademark of Gaussian, Inc.
  
 This software contains proprietary and confidential information,
 including trade secrets, belonging to Gaussian, Inc.
  
 This software is provided under written license and may be
 used, copied, transmitted, or stored only in accord with that
 written license.
  
 The following legend is applicable only to US Government
 contracts under FAR:
  
                    RESTRICTED RIGHTS LEGEND
  
 Use, reproduction and disclosure by the US Government is
 subject to restrictions as set forth in subparagraphs (a)
 and (c) of the Commercial Computer Software - Restricted
 Rights clause in FAR 52.227-19.
  
 Gaussian, Inc.
 340 Quinnipiac St., Bldg. 40, Wallingford CT 06492
  
  
 ---------------------------------------------------------------
 Warning -- This program may not be used in any manner that
 competes with the business of Gaussian, Inc. or will provide
 assistance to any competitor of Gaussian, Inc.  The licensee
 of this program is prohibited from giving any competitor of
 Gaussian, Inc. access to this program.  By using this program,
 the user acknowledges that Gaussian, Inc. is engaged in the
 business of creating and licensing software in the field of
 computational chemistry and represents and warrants to the
 licensee that it is not a competitor of Gaussian, Inc. and that
 it will not use this program in any manner prohibited above.
 ---------------------------------------------------------------
  

 Cite this work as:
 Gaussian 09, Revision E.01,
 M. J. Frisch, G. W. Trucks, H. B. Schlegel, G. E. Scuseria, 
 M. A. Robb, J. R. Cheeseman, G. Scalmani, V. Barone, B. Mennucci, 
 G. A. Petersson, H. Nakatsuji, M. Caricato, X. Li, H. P. Hratchian, 
 A. F. Izmaylov, J. Bloino, G. Zheng, J. L. Sonnenberg, M. Hada, 
 M. Ehara, K. Toyota, R. Fukuda, J. Hasegawa, M. Ishida, T. Nakajima, 
 Y. Honda, O. Kitao, H. Nakai, T. Vreven, J. A. Montgomery, Jr., 
 J. E. Peralta, F. Ogliaro, M. Bearpark, J. J. Heyd, E. Brothers, 
 K. N. Kudin, V. N. Staroverov, T. Keith, R. Kobayashi, J. Normand, 
 K. Raghavachari, A. Rendell, J. C. Burant, S. S. Iyengar, J. Tomasi, 
 M. Cossi, N. Rega, J. M. Millam, M. Klene, J. E. Knox, J. B. Cross, 
 V. Bakken, C. Adamo, J. Jaramillo, R. Gomperts, R. E. Stratmann, 
 O. Yazyev, A. J. Austin, R. Cammi, C. Pomelli, J. W. Ochterski, 
 R. L. Martin, K. Morokuma, V. G. Zakrzewski, G. A. Voth, 
 P. Salvador, J. J. Dannenberg, S. Dapprich, A. D. Daniels, 
 O. Farkas, J. B. Foresman, J. V. Ortiz, J. Cioslowski, 
 and D. J. Fox, Gaussian, Inc., Wallingford CT, 2013.
 
 ******************************************
 Gaussian 09:  EM64L-G09RevE.01 30-Nov-2015
                28-Aug-2021 
 ******************************************
 %nprocshared=64
 Will use up to   64 processors via shared memory.
 %mem=128GB
 %chk=TST_GAS_M06L.chk
 -----------------------------------------------
 #p opt=(calcfc,qst3,MaxCycle=200) freq M06L/gen
 -----------------------------------------------
 1/5=1,6=200,10=4,14=-1,18=20,26=3,27=203,38=1/1,3;
 2/9=110,12=2,17=6,18=5,40=1/2;
 3/5=7,11=2,16=1,25=1,30=1,71=2,74=-53,140=1/1,2,3;
 4//1;
 5/5=2,38=5/2;
 8/6=4,10=90,11=11/1;
 11/6=1,8=1,9=11,15=111,16=1/1,2,10;
 10/6=1,13=1/2;
 6/7=2,8=2,9=2,10=2,28=1/1;
 7/10=1,18=20,25=1/1,2,3,16;
 1/5=1,6=200,10=4,14=-1,18=20,26=3,27=203/3(2);
 2/9=110/2;
 99//99;
 2/9=110/2;
 3/5=7,6=1,11=2,16=1,25=1,30=1,71=1,74=-53,82=7/1,2,3;
 4/5=5,16=3,69=1/1;
 5/5=2,38=5/2;
 7//1,2,3,16;
 1/5=1,6=200,14=-1,18=20,26=3,27=203/3(-5);
 2/9=110/2;
 6/7=2,8=2,9=2,10=2,19=2,28=1/1;
 99/9=1/99;
 Leave Link    1 at Sat Aug 28 00:50:26 2021, MaxMem= 17179869184 cpu:         5.8
 (Enter /public3/home/sc51754/softwares/g09e01/l101.exe)
 --------------------
 HY_M06L_PC2_OPT_FREQ
 --------------------
 Symbolic Z-matrix:
 Charge =  0 Multiplicity = 1
 O                     0.00133   2.2451    0. 
 N                    -1.17724   0.29521   0. 
 C                     0.        0.89866   0. 
 C                     1.2225    0.22787   0. 
 C                    -1.18315  -1.03911   0. 
 C                     1.189    -1.14928   0. 
 C                    -0.03608  -1.80804   0. 
 H                    -0.92491   2.50703   0. 
 H                     2.14546   0.78564   0. 
 H                    -2.16119  -1.50496   0. 
 H                     2.11229  -1.71079   0. 
 H                    -0.09529  -2.8848    0. 
 
 --------------------
 PY_M06L_PC2_OPT_FREQ
 --------------------
 Symbolic Z-matrix:
 Charge =  0 Multiplicity = 1
 O                    -0.13972   2.27532   0. 
 N                    -1.13425   0.22733   0. 
 C                     0.        1.06538   0. 
 C                     1.23747   0.32528   0. 
 C                    -1.11337  -1.12746   0. 
 C                     1.26017  -1.03245   0. 
 C                     0.067    -1.79445   0. 
 H                    -2.01223   0.71713   0. 
 H                     2.14282   0.91064   0. 
 H                    -2.0742   -1.61968   0. 
 H                     2.21051  -1.5493    0. 
 H                     0.08308  -2.87046   0. 
 
 ------------
 TST_GAS_M06L
 ------------
 Symbolic Z-matrix:
 Charge =  0 Multiplicity = 1
 O                     0.21688   2.58466   0. 
 N                    -0.96169   0.63477   0. 
 C                     0.21555   1.23823   0. 
 C                     1.43805   0.56743   0. 
 C                    -0.9676   -0.69955   0. 
 C                     1.40455  -0.80971   0. 
 C                     0.17947  -1.46848   0. 
 H                    -1.14046   2.16747   0. 
 H                     2.36101   1.12521   0. 
 H                    -1.94564  -1.16539   0. 
 H                     2.32783  -1.37123   0. 
 H                     0.12026  -2.54524   0. 
 
 NAtoms=     12 NQM=       12 NQMF=       0 NMMI=      0 NMMIF=      0
                NMic=       0 NMicF=      0.
                    Isotopes and Nuclear Properties:
 (Nuclear quadrupole moments (NQMom) in fm**2, nuclear magnetic moments (NMagM)
  in nuclear magnetons)

  Atom         1           2           3           4           5           6           7           8           9          10
 IAtWgt=          16          14          12          12          12          12          12           1           1           1
 AtmWgt=  15.9949146  14.0030740  12.0000000  12.0000000  12.0000000  12.0000000  12.0000000   1.0078250   1.0078250   1.0078250
 NucSpn=           0           2           0           0           0           0           0           1           1           1
 AtZEff=   0.0000000   0.0000000   0.0000000   0.0000000   0.0000000   0.0000000   0.0000000   0.0000000   0.0000000   0.0000000
 NQMom=    0.0000000   2.0440000   0.0000000   0.0000000   0.0000000   0.0000000   0.0000000   0.0000000   0.0000000   0.0000000
 NMagM=    0.0000000   0.4037610   0.0000000   0.0000000   0.0000000   0.0000000   0.0000000   2.7928460   2.7928460   2.7928460
 AtZNuc=   8.0000000   7.0000000   6.0000000   6.0000000   6.0000000   6.0000000   6.0000000   1.0000000   1.0000000   1.0000000

  Atom        11          12
 IAtWgt=           1           1
 AtmWgt=   1.0078250   1.0078250
 NucSpn=           1           1
 AtZEff=   0.0000000   0.0000000
 NQMom=    0.0000000   0.0000000
 NMagM=    2.7928460   2.7928460
 AtZNuc=   1.0000000   1.0000000
 Leave Link  101 at Sat Aug 28 00:50:29 2021, MaxMem= 17179869184 cpu:        27.8
 (Enter /public3/home/sc51754/softwares/g09e01/l103.exe)

 GradGradGradGradGradGradGradGradGradGradGradGradGradGradGradGradGradGrad
 Berny optimization.
 Initialization pass.
                           ----------------------------
                           !    Initial Parameters    !
                           ! (Angstroms and Degrees)  !
 --------------------------                            --------------------------
 ! Name  Definition        TS        Reactant  Product Derivative Info.         !
 --------------------------------------------------------------------------------
 ! R1    R(1,3)             1.3464    1.3464    1.218  calculate D2E/DX2 analyti!
 ! R2    R(1,8)             1.42      0.9626    2.436  calculate D2E/DX2 analyti!
 ! R3    R(2,3)             1.3229    1.3229    1.4103 calculate D2E/DX2 analyti!
 ! R4    R(2,5)             1.3343    1.3343    1.355  calculate D2E/DX2 analyti!
 ! R5    R(2,8)             1.5431    2.2262    1.0054 calculate D2E/DX2 analyti!
 ! R6    R(3,4)             1.3944    1.3944    1.4419 calculate D2E/DX2 analyti!
 ! R7    R(4,6)             1.3776    1.3776    1.3579 calculate D2E/DX2 analyti!
 ! R8    R(4,9)             1.0784    1.0784    1.0781 calculate D2E/DX2 analyti!
 ! R9    R(5,7)             1.3809    1.3809    1.3558 calculate D2E/DX2 analyti!
 ! R10   R(5,10)            1.0833    1.0833    1.0796 calculate D2E/DX2 analyti!
 ! R11   R(6,7)             1.391     1.391     1.4157 calculate D2E/DX2 analyti!
 ! R12   R(6,11)            1.0806    1.0806    1.0818 calculate D2E/DX2 analyti!
 ! R13   R(7,12)            1.0784    1.0784    1.0761 calculate D2E/DX2 analyti!
 ! A1    A(3,1,8)          72.8581  105.734    56.8222 calculate D2E/DX2 analyti!
 ! A2    A(3,2,5)         117.3934  117.3934  125.5764 calculate D2E/DX2 analyti!
 ! A3    A(3,2,8)          69.5128   56.3518  114.3847 calculate D2E/DX2 analyti!
 ! A4    A(5,2,8)         173.0938  173.7453  120.0389 calculate D2E/DX2 analyti!
 ! A5    A(1,3,2)         117.1963  117.1963  119.8719 calculate D2E/DX2 analyti!
 ! A6    A(1,3,4)         118.6973  118.6973  127.4701 calculate D2E/DX2 analyti!
 ! A7    A(2,3,4)         124.1064  124.1064  112.6579 calculate D2E/DX2 analyti!
 ! A8    A(3,4,6)         117.3603  117.3603  121.8409 calculate D2E/DX2 analyti!
 ! A9    A(3,4,9)         120.1005  120.1005  116.2325 calculate D2E/DX2 analyti!
 ! A10   A(6,4,9)         122.5392  122.5392  121.9265 calculate D2E/DX2 analyti!
 ! A11   A(2,5,7)         123.5822  123.5822  120.3521 calculate D2E/DX2 analyti!
 ! A12   A(2,5,10)        115.7222  115.7222  116.2426 calculate D2E/DX2 analyti!
 ! A13   A(7,5,10)        120.6957  120.6957  123.4053 calculate D2E/DX2 analyti!
 ! A14   A(4,6,7)         119.6618  119.6618  121.6056 calculate D2E/DX2 analyti!
 ! A15   A(4,6,11)        119.9133  119.9133  119.4983 calculate D2E/DX2 analyti!
 ! A16   A(7,6,11)        120.4249  120.4249  118.8961 calculate D2E/DX2 analyti!
 ! A17   A(5,7,6)         117.8959  117.8959  117.967  calculate D2E/DX2 analyti!
 ! A18   A(5,7,12)        120.6886  120.6886  120.3255 calculate D2E/DX2 analyti!
 ! A19   A(6,7,12)        121.4156  121.4156  121.7075 calculate D2E/DX2 analyti!
 ! D1    D(8,1,3,2)         0.0       0.0       0.0    calculate D2E/DX2 analyti!
 ! D2    D(8,1,3,4)       180.0     180.0     180.0    calculate D2E/DX2 analyti!
 ! D3    D(5,2,3,1)       180.0     180.0     180.0    calculate D2E/DX2 analyti!
 ! D4    D(5,2,3,4)         0.0       0.0       0.0    calculate D2E/DX2 analyti!
 ! D5    D(8,2,3,1)         0.0       0.0       0.0    calculate D2E/DX2 analyti!
 ! D6    D(8,2,3,4)       180.0     180.0     180.0    calculate D2E/DX2 analyti!
 ! D7    D(3,2,5,7)         0.0       0.0       0.0    calculate D2E/DX2 analyti!
 ! D8    D(3,2,5,10)      180.0     180.0     180.0    calculate D2E/DX2 analyti!
 ! D9    D(8,2,5,7)       180.0       0.0     180.0    calculate D2E/DX2 analyti!
 ! D10   D(8,2,5,10)        0.0     180.0       0.0    calculate D2E/DX2 analyti!
 ! D11   D(1,3,4,6)       180.0     180.0     180.0    calculate D2E/DX2 analyti!
 ! D12   D(1,3,4,9)         0.0       0.0       0.0    calculate D2E/DX2 analyti!
 ! D13   D(2,3,4,6)         0.0       0.0       0.0    calculate D2E/DX2 analyti!
 ! D14   D(2,3,4,9)       180.0     180.0     180.0    calculate D2E/DX2 analyti!
 ! D15   D(3,4,6,7)         0.0       0.0       0.0    calculate D2E/DX2 analyti!
 ! D16   D(3,4,6,11)      180.0     180.0     180.0    calculate D2E/DX2 analyti!
 ! D17   D(9,4,6,7)       180.0     180.0     180.0    calculate D2E/DX2 analyti!
 ! D18   D(9,4,6,11)        0.0       0.0       0.0    calculate D2E/DX2 analyti!
 ! D19   D(2,5,7,6)         0.0       0.0       0.0    calculate D2E/DX2 analyti!
 ! D20   D(2,5,7,12)      180.0     180.0     180.0    calculate D2E/DX2 analyti!
 ! D21   D(10,5,7,6)      180.0     180.0     180.0    calculate D2E/DX2 analyti!
 ! D22   D(10,5,7,12)       0.0       0.0       0.0    calculate D2E/DX2 analyti!
 ! D23   D(4,6,7,5)         0.0       0.0       0.0    calculate D2E/DX2 analyti!
 ! D24   D(4,6,7,12)      180.0     180.0     180.0    calculate D2E/DX2 analyti!
 ! D25   D(11,6,7,5)      180.0     180.0     180.0    calculate D2E/DX2 analyti!
 ! D26   D(11,6,7,12)       0.0       0.0       0.0    calculate D2E/DX2 analyti!
 --------------------------------------------------------------------------------
 Trust Radius=3.00D-01 FncErr=1.00D-07 GrdErr=1.00D-06
 Number of steps in this run=    100 maximum allowed number of steps=    100.
 Search for a saddle point of order  1.
 GradGradGradGradGradGradGradGradGradGradGradGradGradGradGradGradGradGrad

 Leave Link  103 at Sat Aug 28 00:50:29 2021, MaxMem= 17179869184 cpu:         4.5
 (Enter /public3/home/sc51754/softwares/g09e01/l202.exe)
                          Input orientation:                          
 ---------------------------------------------------------------------
 Center     Atomic      Atomic             Coordinates (Angstroms)
 Number     Number       Type             X           Y           Z
 ---------------------------------------------------------------------
      1          8           0        0.216875    2.584662    0.000000
      2          7           0       -0.961691    0.634770    0.000000
      3          6           0        0.215548    1.238227    0.000000
      4          6           0        1.438051    0.567435    0.000000
      5          6           0       -0.967597   -0.699549    0.000000
      6          6           0        1.404552   -0.809713    0.000000
      7          6           0        0.179468   -1.468480    0.000000
      8          1           0       -1.140456    2.167468    0.000000
      9          1           0        2.361010    1.125206    0.000000
     10          1           0       -1.945638   -1.165392    0.000000
     11          1           0        2.327834   -1.371226    0.000000
     12          1           0        0.120263   -2.545236    0.000000
 ---------------------------------------------------------------------
                    Distance matrix (angstroms):
                    1          2          3          4          5
     1  O    0.000000
     2  N    2.278398   0.000000
     3  C    1.346436   1.322895   0.000000
     4  C    2.358066   2.400686   1.394445   0.000000
     5  C    3.491277   1.334332   2.270420   2.718895   0.000000
     6  C    3.596159   2.772298   2.368077   1.377555   2.374706
     7  C    4.053315   2.392886   2.706947   2.393529   1.380946
     8  H    1.420000   1.543089   1.643849   3.034602   2.872224
     9  H    2.593709   3.358701   2.148437   1.078407   3.795966
    10  H    4.328899   2.051520   3.232354   3.801584   1.083316
    11  H    4.483882   3.852920   3.357231   2.133101   3.363185
    12  H    5.130808   3.359027   3.784663   3.380131   2.142429
                    6          7          8          9         10
     6  C    0.000000
     7  C    1.390973   0.000000
     8  H    3.916718   3.868117   0.000000
     9  H    2.158408   3.389149   3.653297   0.000000
    10  H    3.369018   2.146611   3.428743   4.877915   0.000000
    11  H    1.080623   2.150566   4.954937   2.496652   4.278426
    12  H    2.159036   1.078382   4.878422   4.300359   2.484334
                   11         12
    11  H    0.000000
    12  H    2.500334   0.000000
 Stoichiometry    C5H5NO
 Framework group  CS[SG(C5H5NO)]
 Deg. of freedom    21
 Full point group                 CS      NOp   2
 Largest Abelian subgroup         CS      NOp   2
 Largest concise Abelian subgroup C1      NOp   1
                         Standard orientation:                         
 ---------------------------------------------------------------------
 Center     Atomic      Atomic             Coordinates (Angstroms)
 Number     Number       Type             X           Y           Z
 ---------------------------------------------------------------------
      1          8           0       -0.011398    2.258675   -0.000000
      2          7           0       -1.171483    0.297731   -0.000000
      3          6           0       -0.000000    0.912287   -0.000000
      4          6           0        1.228788    0.253079    0.000000
      5          6           0       -1.164779   -1.036584   -0.000000
      6          6           0        1.208306   -1.124324    0.000000
      7          6           0       -0.010498   -1.794640    0.000000
      8          1           0       -1.364726    1.828672   -0.000000
      9          1           0        2.146434    0.819548    0.000000
     10          1           0       -2.138373   -1.511649   -0.000000
     11          1           0        2.136853   -1.677086    0.000000
     12          1           0       -0.059524   -2.871907    0.000000
 ---------------------------------------------------------------------
 Rotational constants (GHZ):      5.8298027      2.8413381      1.9102954
 Leave Link  202 at Sat Aug 28 00:50:30 2021, MaxMem= 17179869184 cpu:        16.8
 (Enter /public3/home/sc51754/softwares/g09e01/l301.exe)
 General basis read from cards:  (5D, 7F)
 Centers:       8      9     10     11     12
 S 4 1.00
     Exponent=  7.5423000000D+01 Coefficients=  2.4065000000D-03
     Exponent=  1.1350000000D+01 Coefficients=  1.8487000000D-02
     Exponent=  2.5993000000D+00 Coefficients=  8.9742000000D-02
     Exponent=  7.3513000000D-01 Coefficients=  2.8111000000D-01
 S 1 1.00
     Exponent=  2.3167000000D-01 Coefficients=  1.0000000000D+00
 S 1 1.00
     Exponent=  7.4147000000D-02 Coefficients=  1.0000000000D+00
 P 1 1.00
     Exponent=  1.6000000000D+00 Coefficients=  1.0000000000D+00
 P 1 1.00
     Exponent=  4.5000000000D-01 Coefficients=  1.0000000000D+00
 D 1 1.00
     Exponent=  1.2500000000D+00 Coefficients=  1.0000000000D+00
 ****
 Centers:       3      4      5      6      7
 S 7 1.00
     Exponent=  7.8571000000D+03 Coefficients=  5.6825000000D-04
     Exponent=  1.1787000000D+03 Coefficients=  4.3915000000D-03
     Exponent=  2.6832000000D+02 Coefficients=  2.2504000000D-02
     Exponent=  7.5948000000D+01 Coefficients=  8.6653000000D-02
     Exponent=  2.4559000000D+01 Coefficients=  2.4405000000D-01
     Exponent=  8.6212000000D+00 Coefficients=  4.4148000000D-01
     Exponent=  3.1278000000D+00 Coefficients=  3.5332000000D-01
 S 7 1.00
     Exponent=  1.1787000000D+03 Coefficients= -5.9492000000D-07
     Exponent=  2.6832000000D+02 Coefficients= -6.2748000000D-05
     Exponent=  7.5948000000D+01 Coefficients= -7.5773000000D-04
     Exponent=  2.4559000000D+01 Coefficients= -7.3308000000D-03
     Exponent=  8.6212000000D+00 Coefficients= -3.8932000000D-02
     Exponent=  3.1278000000D+00 Coefficients= -8.8908000000D-02
     Exponent=  8.2202000000D-01 Coefficients=  2.1689000000D-01
 S 1 1.00
     Exponent=  3.3017000000D-01 Coefficients=  1.0000000000D+00
 S 1 1.00
     Exponent=  1.1463000000D-01 Coefficients=  1.0000000000D+00
 P 4 1.00
     Exponent=  3.3775000000D+01 Coefficients=  6.0294000000D-03
     Exponent=  7.6766000000D+00 Coefficients=  4.3228000000D-02
     Exponent=  2.2357000000D+00 Coefficients=  1.6301000000D-01
     Exponent=  7.6447000000D-01 Coefficients=  3.6504000000D-01
 P 1 1.00
     Exponent=  2.6232000000D-01 Coefficients=  1.0000000000D+00
 P 1 1.00
     Exponent=  8.4638000000D-02 Coefficients=  1.0000000000D+00
 D 1 1.00
     Exponent=  1.4000000000D+00 Coefficients=  1.0000000000D+00
 D 1 1.00
     Exponent=  4.5000000000D-01 Coefficients=  1.0000000000D+00
 F 1 1.00
     Exponent=  9.5000000000D-01 Coefficients=  1.0000000000D+00
 ****
 Centers:       2
 S 7 1.00
     Exponent=  1.1101000000D+04 Coefficients=  5.4570000000D-04
     Exponent=  1.6653000000D+03 Coefficients=  4.2181000000D-03
     Exponent=  3.7908000000D+02 Coefficients=  2.1645000000D-02
     Exponent=  1.0730000000D+02 Coefficients=  8.3776000000D-02
     Exponent=  3.4747000000D+01 Coefficients=  2.3881000000D-01
     Exponent=  1.2249000000D+01 Coefficients=  4.3994000000D-01
     Exponent=  4.4743000000D+00 Coefficients=  3.6364000000D-01
 S 7 1.00
     Exponent=  1.6653000000D+03 Coefficients= -1.5006000000D-06
     Exponent=  3.7908000000D+02 Coefficients= -5.8753000000D-05
     Exponent=  1.0730000000D+02 Coefficients= -7.7453000000D-04
     Exponent=  3.4747000000D+01 Coefficients= -7.2161000000D-03
     Exponent=  1.2249000000D+01 Coefficients= -3.9338000000D-02
     Exponent=  4.4743000000D+00 Coefficients= -9.0611000000D-02
     Exponent=  1.2404000000D+00 Coefficients=  1.9882000000D-01
 S 1 1.00
     Exponent=  4.8743000000D-01 Coefficients=  1.0000000000D+00
 S 1 1.00
     Exponent=  1.6484000000D-01 Coefficients=  1.0000000000D+00
 P 4 1.00
     Exponent=  4.7934000000D+01 Coefficients=  6.1706000000D-03
     Exponent=  1.0999000000D+01 Coefficients=  4.4260000000D-02
     Exponent=  3.2472000000D+00 Coefficients=  1.6825000000D-01
     Exponent=  1.1114000000D+00 Coefficients=  3.6848000000D-01
 P 1 1.00
     Exponent=  3.7988000000D-01 Coefficients=  1.0000000000D+00
 P 1 1.00
     Exponent=  1.2068000000D-01 Coefficients=  1.0000000000D+00
 D 1 1.00
     Exponent=  1.8000000000D+00 Coefficients=  1.0000000000D+00
 D 1 1.00
     Exponent=  5.5000000000D-01 Coefficients=  1.0000000000D+00
 F 1 1.00
     Exponent=  1.0200000000D+00 Coefficients=  1.0000000000D+00
 ****
 Centers:       1
 S 7 1.00
     Exponent=  1.4782000000D+04 Coefficients=  5.3519000000D-04
     Exponent=  2.2173000000D+03 Coefficients=  4.1375000000D-03
     Exponent=  5.0474000000D+02 Coefficients=  2.1245000000D-02
     Exponent=  1.4287000000D+02 Coefficients=  8.2453000000D-02
     Exponent=  4.6300000000D+01 Coefficients=  2.3671000000D-01
     Exponent=  1.6337000000D+01 Coefficients=  4.4039000000D-01
     Exponent=  5.9828000000D+00 Coefficients=  3.6465000000D-01
 S 7 1.00
     Exponent=  2.2173000000D+03 Coefficients= -1.9275000000D-06
     Exponent=  5.0474000000D+02 Coefficients= -5.7964000000D-05
     Exponent=  1.4287000000D+02 Coefficients= -7.9494000000D-04
     Exponent=  4.6300000000D+01 Coefficients= -7.3125000000D-03
     Exponent=  1.6337000000D+01 Coefficients= -4.0574000000D-02
     Exponent=  5.9828000000D+00 Coefficients= -9.1594000000D-02
     Exponent=  1.6718000000D+00 Coefficients=  2.0940000000D-01
 S 1 1.00
     Exponent=  6.4662000000D-01 Coefficients=  1.0000000000D+00
 S 1 1.00
     Exponent=  2.1669000000D-01 Coefficients=  1.0000000000D+00
 P 4 1.00
     Exponent=  6.0424000000D+01 Coefficients=  6.8949000000D-03
     Exponent=  1.3935000000D+01 Coefficients=  4.9005000000D-02
     Exponent=  4.1531000000D+00 Coefficients=  1.8255000000D-01
     Exponent=  1.4158000000D+00 Coefficients=  3.7633000000D-01
 P 1 1.00
     Exponent=  4.7549000000D-01 Coefficients=  1.0000000000D+00
 P 1 1.00
     Exponent=  1.4529000000D-01 Coefficients=  1.0000000000D+00
 D 1 1.00
     Exponent=  2.2000000000D+00 Coefficients=  1.0000000000D+00
 D 1 1.00
     Exponent=  6.5000000000D-01 Coefficients=  1.0000000000D+00
 F 1 1.00
     Exponent=  1.1000000000D+00 Coefficients=  1.0000000000D+00
 ****
 Ernie: Thresh=  0.10000D-02 Tol=  0.10000D-05 Strict=F.
 Ernie:  7 primitive shells out of 220 were deleted.
 There are   223 symmetry adapted cartesian basis functions of A'  symmetry.
 There are    97 symmetry adapted cartesian basis functions of A"  symmetry.
 There are   190 symmetry adapted basis functions of A'  symmetry.
 There are    90 symmetry adapted basis functions of A"  symmetry.
   280 basis functions,   475 primitive gaussians,   320 cartesian basis functions
    25 alpha electrons       25 beta electrons
       nuclear repulsion energy       276.9703157523 Hartrees.
 IExCor= 4134 DFT=T Ex+Corr=M06L ExCW=0 ScaHFX=  0.000000
 ScaDFX=  1.000000  1.000000  1.000000  1.000000 ScalE2=  1.000000  1.000000
 IRadAn=      0 IRanWt=     -1 IRanGd=            0 ICorTp=0 IEmpDi=  4
 NAtoms=   12 NActive=   12 NUniq=   12 SFac= 1.00D+00 NAtFMM=   60 NAOKFM=F Big=F
 Integral buffers will be    131072 words long.
 Raffenetti 2 integral format.
 Two-electron integral symmetry is turned on.
 Leave Link  301 at Sat Aug 28 00:50:31 2021, MaxMem= 17179869184 cpu:        13.6
 (Enter /public3/home/sc51754/softwares/g09e01/l302.exe)
 NPDir=0 NMtPBC=     1 NCelOv=     1 NCel=       1 NClECP=     1 NCelD=      1
         NCelK=      1 NCelE2=     1 NClLst=     1 CellRange=     0.0.
 One-electron integrals computed using PRISM.
 NBasis=   280 RedAO= T EigKep=  2.19D-04  NBF=   190    90
 NBsUse=   280 1.00D-06 EigRej= -1.00D+00 NBFU=   190    90
 Precomputing XC quadrature grid using
 IXCGrd= 4 IRadAn=           0 IRanWt=          -1 IRanGd=           0 AccXCQ= 0.00D+00.
 Generated NRdTot=       0 NPtTot=           0 NUsed=           0 NTot=          32
 NSgBfM=   320   320   320   320   320 MxSgAt=    12 MxSgA2=    12.
 Leave Link  302 at Sat Aug 28 00:50:34 2021, MaxMem= 17179869184 cpu:        95.6
 (Enter /public3/home/sc51754/softwares/g09e01/l303.exe)
 DipDrv:  MaxL=1.
 Leave Link  303 at Sat Aug 28 00:50:35 2021, MaxMem= 17179869184 cpu:        38.6
 (Enter /public3/home/sc51754/softwares/g09e01/l401.exe)
 ExpMin= 7.41D-02 ExpMax= 1.48D+04 ExpMxC= 5.05D+02 IAcc=2 IRadAn=         4 AccDes= 0.00D+00
 Harris functional with IExCor= 1009 and IRadAn=       4 diagonalized for initial guess.
 HarFok:  IExCor= 1009 AccDes= 0.00D+00 IRadAn=         4 IDoV= 1 UseB2=F ITyADJ=14
 ICtDFT=  3500011 ScaDFX=  1.000000  1.000000  1.000000  1.000000
 FoFCou: FMM=F IPFlag=           0 FMFlag=      100000 FMFlg1=           0
         NFxFlg=           0 DoJE=T BraDBF=F KetDBF=T FulRan=T
         wScrn=  0.000000 ICntrl=     500 IOpCl=  0 I1Cent=   200000004 NGrid=           0
         NMat0=    1 NMatS0=      1 NMatT0=    0 NMatD0=    1 NMtDS0=    0 NMtDT0=    0
 Petite list used in FoFCou.
 Harris En= -323.302933271951    
 JPrj=0 DoOrth=F DoCkMO=F.
 Initial guess orbital symmetries:
       Occupied  (A') (A') (A') (A') (A') (A') (A') (A') (A') (A')
                 (A') (A') (A') (A') (A') (A') (A') (A') (A") (A')
                 (A") (A') (A") (A') (A")
       Virtual   (A") (A") (A') (A') (A") (A') (A') (A') (A') (A')
                 (A') (A') (A") (A') (A') (A") (A") (A') (A') (A')
                 (A') (A') (A") (A') (A") (A') (A') (A') (A') (A')
                 (A') (A') (A") (A") (A') (A') (A') (A') (A') (A')
                 (A') (A') (A') (A") (A') (A") (A') (A') (A") (A")
                 (A') (A') (A') (A") (A") (A') (A") (A') (A') (A')
                 (A') (A") (A') (A') (A") (A') (A') (A") (A') (A")
                 (A') (A") (A") (A') (A") (A') (A') (A") (A') (A")
                 (A') (A") (A') (A') (A") (A') (A") (A') (A') (A")
                 (A') (A") (A') (A') (A') (A') (A') (A") (A') (A')
                 (A') (A') (A") (A') (A') (A') (A") (A') (A') (A')
                 (A") (A') (A') (A') (A') (A') (A") (A') (A') (A')
                 (A") (A') (A') (A") (A') (A") (A') (A") (A") (A')
                 (A") (A") (A') (A') (A") (A') (A') (A') (A") (A')
                 (A') (A') (A') (A") (A') (A") (A") (A') (A') (A')
                 (A') (A') (A') (A") (A") (A") (A") (A') (A') (A")
                 (A") (A') (A") (A') (A') (A") (A') (A") (A') (A')
                 (A") (A') (A") (A') (A") (A') (A') (A") (A") (A")
                 (A') (A") (A') (A') (A") (A") (A') (A") (A') (A")
                 (A") (A') (A") (A') (A') (A') (A") (A") (A') (A")
                 (A') (A') (A") (A") (A') (A') (A') (A") (A') (A')
                 (A') (A") (A') (A") (A') (A') (A") (A') (A') (A")
                 (A') (A") (A') (A') (A") (A') (A') (A") (A') (A')
                 (A') (A') (A") (A') (A') (A') (A') (A') (A") (A')
                 (A') (A') (A") (A') (A') (A') (A') (A') (A') (A')
                 (A') (A') (A') (A') (A')
 The electronic state of the initial guess is 1-A'.
 Leave Link  401 at Sat Aug 28 00:50:37 2021, MaxMem= 17179869184 cpu:        61.8
 (Enter /public3/home/sc51754/softwares/g09e01/l502.exe)
 Closed shell SCF:
 Using DIIS extrapolation, IDIIS=  1040.
 Integral symmetry usage will be decided dynamically.
 Keep J ints in memory in symmetry-blocked form, NReq=1167802198.
 IVT=      348658 IEndB=      348658 NGot= 17179869184 MDV= 16785904737
 LenX= 16785904737 LenY= 16785801896
 Requested convergence on RMS density matrix=1.00D-08 within 128 cycles.
 Requested convergence on MAX density matrix=1.00D-06.
 Requested convergence on             energy=1.00D-06.
 No special actions if energy rises.
 FoFCou: FMM=F IPFlag=           0 FMFlag=           0 FMFlg1=           0
         NFxFlg=           0 DoJE=F BraDBF=F KetDBF=F FulRan=T
         wScrn=  0.000000 ICntrl=     600 IOpCl=  0 I1Cent=           0 NGrid=           0
         NMat0=    1 NMatS0=  39340 NMatT0=    0 NMatD0=    1 NMtDS0=    0 NMtDT0=    0
 Petite list used in FoFCou.
 Integral accuracy reduced to 1.0D-05 until final iterations.

 Cycle   1  Pass 0  IDiag  1:
 E= -323.357120637583    
 DIIS: error= 2.28D-02 at cycle   1 NSaved=   1.
 NSaved= 1 IEnMin= 1 EnMin= -323.357120637583     IErMin= 1 ErrMin= 2.28D-02
 ErrMax= 2.28D-02  0.00D+00 EMaxC= 1.00D-01 BMatC= 1.93D-01 BMatP= 1.93D-01
 IDIUse=3 WtCom= 7.72D-01 WtEn= 2.28D-01
 Coeff-Com:  0.100D+01
 Coeff-En:   0.100D+01
 Coeff:      0.100D+01
 Gap=     0.080 Goal=   None    Shift=    0.000
 GapD=    0.080 DampG=0.500 DampE=0.500 DampFc=0.2500 IDamp=-1.
 Damping current iteration by 2.50D-01
 RMSDP=3.50D-03 MaxDP=1.50D-01              OVMax= 2.44D-01

 Cycle   2  Pass 0  IDiag  1:
 E= -323.411388947053     Delta-E=       -0.054268309470 Rises=F Damp=T
 DIIS: error= 1.31D-02 at cycle   2 NSaved=   2.
 NSaved= 2 IEnMin= 2 EnMin= -323.411388947053     IErMin= 2 ErrMin= 1.31D-02
 ErrMax= 1.31D-02  0.00D+00 EMaxC= 1.00D-01 BMatC= 4.80D-02 BMatP= 1.93D-01
 IDIUse=3 WtCom= 8.69D-01 WtEn= 1.31D-01
 Coeff-Com: -0.485D+00 0.149D+01
 Coeff-En:   0.000D+00 0.100D+01
 Coeff:     -0.422D+00 0.142D+01
 Gap=     0.167 Goal=   None    Shift=    0.000
 RMSDP=1.63D-03 MaxDP=5.82D-02 DE=-5.43D-02 OVMax= 2.55D-01

 Cycle   3  Pass 0  IDiag  1:
 E= -323.444687334683     Delta-E=       -0.033298387630 Rises=F Damp=F
 DIIS: error= 1.82D-02 at cycle   3 NSaved=   3.
 NSaved= 3 IEnMin= 3 EnMin= -323.444687334683     IErMin= 2 ErrMin= 1.31D-02
 ErrMax= 1.82D-02  0.00D+00 EMaxC= 1.00D-01 BMatC= 8.22D-02 BMatP= 4.80D-02
 IDIUse=2 WtCom= 0.00D+00 WtEn= 1.00D+00
 Coeff-En:   0.000D+00 0.311D+00 0.689D+00
 Coeff:      0.000D+00 0.311D+00 0.689D+00
 Gap=     0.117 Goal=   None    Shift=    0.000
 RMSDP=2.26D-03 MaxDP=8.98D-02 DE=-3.33D-02 OVMax= 3.56D-01

 Cycle   4  Pass 0  IDiag  1:
 E= -323.091837202045     Delta-E=        0.352850132637 Rises=F Damp=F
 DIIS: error= 4.23D-02 at cycle   4 NSaved=   4.
 NSaved= 4 IEnMin= 3 EnMin= -323.444687334683     IErMin= 2 ErrMin= 1.31D-02
 ErrMax= 4.23D-02  0.00D+00 EMaxC= 1.00D-01 BMatC= 4.82D-01 BMatP= 4.80D-02
 IDIUse=2 WtCom= 0.00D+00 WtEn= 1.00D+00
 Coeff-En:   0.000D+00 0.000D+00 0.767D+00 0.233D+00
 Coeff:      0.000D+00 0.000D+00 0.767D+00 0.233D+00
 Gap=     0.133 Goal=   None    Shift=    0.000
 RMSDP=1.27D-03 MaxDP=5.98D-02 DE= 3.53D-01 OVMax= 2.24D-01

 Cycle   5  Pass 0  IDiag  1:
 E= -323.487571964270     Delta-E=       -0.395734762225 Rises=F Damp=F
 DIIS: error= 9.80D-03 at cycle   5 NSaved=   5.
 NSaved= 5 IEnMin= 5 EnMin= -323.487571964270     IErMin= 5 ErrMin= 9.80D-03
 ErrMax= 9.80D-03  0.00D+00 EMaxC= 1.00D-01 BMatC= 3.55D-02 BMatP= 4.80D-02
 IDIUse=3 WtCom= 9.02D-01 WtEn= 9.80D-02
 Coeff-Com: -0.138D+00 0.230D+00 0.390D+00-0.841D-02 0.526D+00
 Coeff-En:   0.000D+00 0.000D+00 0.360D+00 0.000D+00 0.640D+00
 Coeff:     -0.125D+00 0.208D+00 0.387D+00-0.759D-02 0.538D+00
 Gap=     0.143 Goal=   None    Shift=    0.000
 RMSDP=5.18D-04 MaxDP=2.77D-02 DE=-3.96D-01 OVMax= 7.11D-02

 Cycle   6  Pass 0  IDiag  1:
 E= -323.518272371326     Delta-E=       -0.030700407056 Rises=F Damp=F
 DIIS: error= 3.36D-03 at cycle   6 NSaved=   6.
 NSaved= 6 IEnMin= 6 EnMin= -323.518272371326     IErMin= 6 ErrMin= 3.36D-03
 ErrMax= 3.36D-03  0.00D+00 EMaxC= 1.00D-01 BMatC= 2.33D-03 BMatP= 3.55D-02
 IDIUse=3 WtCom= 9.66D-01 WtEn= 3.36D-02
 Coeff-Com: -0.117D+00 0.160D+00 0.188D+00-0.563D-01 0.409D+00 0.417D+00
 Coeff-En:   0.000D+00 0.000D+00 0.000D+00 0.000D+00 0.000D+00 0.100D+01
 Coeff:     -0.113D+00 0.155D+00 0.181D+00-0.545D-01 0.395D+00 0.437D+00
 Gap=     0.146 Goal=   None    Shift=    0.000
 RMSDP=1.47D-04 MaxDP=5.10D-03 DE=-3.07D-02 OVMax= 2.42D-02

 Cycle   7  Pass 0  IDiag  1:
 E= -323.520599885664     Delta-E=       -0.002327514337 Rises=F Damp=F
 DIIS: error= 8.02D-04 at cycle   7 NSaved=   7.
 NSaved= 7 IEnMin= 7 EnMin= -323.520599885664     IErMin= 7 ErrMin= 8.02D-04
 ErrMax= 8.02D-04  0.00D+00 EMaxC= 1.00D-01 BMatC= 8.23D-05 BMatP= 2.33D-03
 IDIUse=3 WtCom= 9.92D-01 WtEn= 8.02D-03
 Coeff-Com: -0.296D-01 0.370D-01 0.568D-01-0.182D-01 0.118D+00 0.204D+00
 Coeff-Com:  0.633D+00
 Coeff-En:   0.000D+00 0.000D+00 0.000D+00 0.000D+00 0.000D+00 0.000D+00
 Coeff-En:   0.100D+01
 Coeff:     -0.294D-01 0.368D-01 0.563D-01-0.180D-01 0.117D+00 0.202D+00
 Coeff:      0.636D+00
 Gap=     0.146 Goal=   None    Shift=    0.000
 RMSDP=3.68D-05 MaxDP=1.38D-03 DE=-2.33D-03 OVMax= 6.50D-03

 Cycle   8  Pass 0  IDiag  1:
 E= -323.520674545710     Delta-E=       -0.000074660047 Rises=F Damp=F
 DIIS: error= 2.52D-04 at cycle   8 NSaved=   8.
 NSaved= 8 IEnMin= 8 EnMin= -323.520674545710     IErMin= 8 ErrMin= 2.52D-04
 ErrMax= 2.52D-04  0.00D+00 EMaxC= 1.00D-01 BMatC= 1.43D-05 BMatP= 8.23D-05
 IDIUse=3 WtCom= 9.97D-01 WtEn= 2.52D-03
 Coeff-Com: -0.109D-02 0.697D-04 0.837D-02-0.257D-02 0.877D-02 0.611D-01
 Coeff-Com:  0.404D+00 0.521D+00
 Coeff-En:   0.000D+00 0.000D+00 0.000D+00 0.000D+00 0.000D+00 0.000D+00
 Coeff-En:   0.790D-01 0.921D+00
 Coeff:     -0.109D-02 0.695D-04 0.835D-02-0.257D-02 0.874D-02 0.609D-01
 Coeff:      0.404D+00 0.522D+00
 Gap=     0.146 Goal=   None    Shift=    0.000
 RMSDP=1.16D-05 MaxDP=4.99D-04 DE=-7.47D-05 OVMax= 1.86D-03

 Cycle   9  Pass 0  IDiag  1:
 E= -323.520687905779     Delta-E=       -0.000013360068 Rises=F Damp=F
 DIIS: error= 5.15D-05 at cycle   9 NSaved=   9.
 NSaved= 9 IEnMin= 9 EnMin= -323.520687905779     IErMin= 9 ErrMin= 5.15D-05
 ErrMax= 5.15D-05  0.00D+00 EMaxC= 1.00D-01 BMatC= 4.72D-07 BMatP= 1.43D-05
 IDIUse=1 WtCom= 1.00D+00 WtEn= 0.00D+00
 Coeff-Com: -0.629D-04 0.285D-03-0.151D-02 0.181D-03-0.556D-02 0.517D-02
 Coeff-Com:  0.615D-01 0.171D+00 0.769D+00
 Coeff:     -0.629D-04 0.285D-03-0.151D-02 0.181D-03-0.556D-02 0.517D-02
 Coeff:      0.615D-01 0.171D+00 0.769D+00
 Gap=     0.146 Goal=   None    Shift=    0.000
 RMSDP=3.18D-06 MaxDP=1.23D-04 DE=-1.34D-05 OVMax= 4.89D-04

 Initial convergence to 1.0D-05 achieved.  Increase integral accuracy.
 Cycle  10  Pass 1  IDiag  1:
 E= -323.520710381696     Delta-E=       -0.000022475918 Rises=F Damp=F
 DIIS: error= 3.09D-04 at cycle   1 NSaved=   1.
 NSaved= 1 IEnMin= 1 EnMin= -323.520710381696     IErMin= 1 ErrMin= 3.09D-04
 ErrMax= 3.09D-04  0.00D+00 EMaxC= 1.00D-01 BMatC= 6.60D-05 BMatP= 6.60D-05
 IDIUse=3 WtCom= 9.97D-01 WtEn= 3.09D-03
 Coeff-Com:  0.100D+01
 Coeff-En:   0.100D+01
 Coeff:      0.100D+01
 Gap=     0.146 Goal=   None    Shift=    0.000
 RMSDP=3.18D-06 MaxDP=1.23D-04 DE=-2.25D-05 OVMax= 1.19D-03

 Cycle  11  Pass 1  IDiag  1:
 E= -323.520733540499     Delta-E=       -0.000023158803 Rises=F Damp=F
 DIIS: error= 2.59D-04 at cycle   2 NSaved=   2.
 NSaved= 2 IEnMin= 2 EnMin= -323.520733540499     IErMin= 2 ErrMin= 2.59D-04
 ErrMax= 2.59D-04  0.00D+00 EMaxC= 1.00D-01 BMatC= 6.57D-06 BMatP= 6.60D-05
 IDIUse=3 WtCom= 9.97D-01 WtEn= 2.59D-03
 Coeff-Com:  0.172D+00 0.828D+00
 Coeff-En:   0.000D+00 0.100D+01
 Coeff:      0.172D+00 0.828D+00
 Gap=     0.146 Goal=   None    Shift=    0.000
 RMSDP=1.63D-05 MaxDP=5.85D-04 DE=-2.32D-05 OVMax= 2.84D-03

 Cycle  12  Pass 1  IDiag  1:
 E= -323.520724518942     Delta-E=        0.000009021557 Rises=F Damp=F
 DIIS: error= 4.45D-04 at cycle   3 NSaved=   3.
 NSaved= 3 IEnMin= 2 EnMin= -323.520733540499     IErMin= 2 ErrMin= 2.59D-04
 ErrMax= 4.45D-04  0.00D+00 EMaxC= 1.00D-01 BMatC= 1.28D-05 BMatP= 6.57D-06
 IDIUse=3 WtCom= 3.22D-01 WtEn= 6.78D-01
 Coeff-Com:  0.684D-01 0.581D+00 0.351D+00
 Coeff-En:   0.000D+00 0.683D+00 0.317D+00
 Coeff:      0.220D-01 0.650D+00 0.328D+00
 Gap=     0.146 Goal=   None    Shift=    0.000
 RMSDP=1.06D-05 MaxDP=3.62D-04 DE= 9.02D-06 OVMax= 2.08D-03

 Cycle  13  Pass 1  IDiag  1:
 E= -323.520738555304     Delta-E=       -0.000014036361 Rises=F Damp=F
 DIIS: error= 4.47D-05 at cycle   4 NSaved=   4.
 NSaved= 4 IEnMin= 4 EnMin= -323.520738555304     IErMin= 4 ErrMin= 4.47D-05
 ErrMax= 4.47D-05  0.00D+00 EMaxC= 1.00D-01 BMatC= 7.24D-07 BMatP= 6.57D-06
 IDIUse=1 WtCom= 1.00D+00 WtEn= 0.00D+00
 Coeff-Com:  0.146D-01 0.284D+00 0.176D+00 0.525D+00
 Coeff:      0.146D-01 0.284D+00 0.176D+00 0.525D+00
 Gap=     0.146 Goal=   None    Shift=    0.000
 RMSDP=3.43D-06 MaxDP=1.66D-04 DE=-1.40D-05 OVMax= 4.25D-04

 Cycle  14  Pass 1  IDiag  1:
 E= -323.520738711892     Delta-E=       -0.000000156589 Rises=F Damp=F
 DIIS: error= 4.37D-05 at cycle   5 NSaved=   5.
 NSaved= 5 IEnMin= 5 EnMin= -323.520738711892     IErMin= 5 ErrMin= 4.37D-05
 ErrMax= 4.37D-05  0.00D+00 EMaxC= 1.00D-01 BMatC= 5.39D-07 BMatP= 7.24D-07
 IDIUse=1 WtCom= 1.00D+00 WtEn= 0.00D+00
 Coeff-Com: -0.317D-02 0.107D+00 0.699D-01 0.437D+00 0.390D+00
 Coeff:     -0.317D-02 0.107D+00 0.699D-01 0.437D+00 0.390D+00
 Gap=     0.146 Goal=   None    Shift=    0.000
 RMSDP=1.76D-06 MaxDP=7.71D-05 DE=-1.57D-07 OVMax= 2.05D-04

 Cycle  15  Pass 1  IDiag  1:
 E= -323.520739147005     Delta-E=       -0.000000435112 Rises=F Damp=F
 DIIS: error= 8.81D-06 at cycle   6 NSaved=   6.
 NSaved= 6 IEnMin= 6 EnMin= -323.520739147005     IErMin= 6 ErrMin= 8.81D-06
 ErrMax= 8.81D-06  0.00D+00 EMaxC= 1.00D-01 BMatC= 2.07D-08 BMatP= 5.39D-07
 IDIUse=1 WtCom= 1.00D+00 WtEn= 0.00D+00
 Coeff-Com: -0.316D-02 0.419D-01 0.267D-01 0.228D+00 0.236D+00 0.470D+00
 Coeff:     -0.316D-02 0.419D-01 0.267D-01 0.228D+00 0.236D+00 0.470D+00
 Gap=     0.146 Goal=   None    Shift=    0.000
 RMSDP=4.53D-07 MaxDP=2.12D-05 DE=-4.35D-07 OVMax= 6.09D-05

 Cycle  16  Pass 1  IDiag  1:
 E= -323.520739165423     Delta-E=       -0.000000018418 Rises=F Damp=F
 DIIS: error= 2.41D-06 at cycle   7 NSaved=   7.
 NSaved= 7 IEnMin= 7 EnMin= -323.520739165423     IErMin= 7 ErrMin= 2.41D-06
 ErrMax= 2.41D-06  0.00D+00 EMaxC= 1.00D-01 BMatC= 1.20D-09 BMatP= 2.07D-08
 IDIUse=1 WtCom= 1.00D+00 WtEn= 0.00D+00
 Coeff-Com: -0.986D-03 0.214D-02 0.629D-03 0.360D-01 0.473D-01 0.219D+00
 Coeff-Com:  0.696D+00
 Coeff:     -0.986D-03 0.214D-02 0.629D-03 0.360D-01 0.473D-01 0.219D+00
 Coeff:      0.696D+00
 Gap=     0.146 Goal=   None    Shift=    0.000
 RMSDP=1.44D-07 MaxDP=6.18D-06 DE=-1.84D-08 OVMax= 1.95D-05

 Cycle  17  Pass 1  IDiag  1:
 E= -323.520739166144     Delta-E=       -0.000000000721 Rises=F Damp=F
 DIIS: error= 1.80D-06 at cycle   8 NSaved=   8.
 NSaved= 8 IEnMin= 8 EnMin= -323.520739166144     IErMin= 8 ErrMin= 1.80D-06
 ErrMax= 1.80D-06  0.00D+00 EMaxC= 1.00D-01 BMatC= 4.25D-10 BMatP= 1.20D-09
 IDIUse=1 WtCom= 1.00D+00 WtEn= 0.00D+00
 Coeff-Com: -0.264D-03-0.352D-02-0.269D-02-0.392D-02 0.369D-02 0.900D-01
 Coeff-Com:  0.457D+00 0.460D+00
 Coeff:     -0.264D-03-0.352D-02-0.269D-02-0.392D-02 0.369D-02 0.900D-01
 Coeff:      0.457D+00 0.460D+00
 Gap=     0.146 Goal=   None    Shift=    0.000
 RMSDP=7.44D-08 MaxDP=2.80D-06 DE=-7.21D-10 OVMax= 1.25D-05

 Cycle  18  Pass 1  IDiag  1:
 E= -323.520739166583     Delta-E=       -0.000000000439 Rises=F Damp=F
 DIIS: error= 4.63D-07 at cycle   9 NSaved=   9.
 NSaved= 9 IEnMin= 9 EnMin= -323.520739166583     IErMin= 9 ErrMin= 4.63D-07
 ErrMax= 4.63D-07  0.00D+00 EMaxC= 1.00D-01 BMatC= 4.50D-11 BMatP= 4.25D-10
 IDIUse=1 WtCom= 1.00D+00 WtEn= 0.00D+00
 Coeff-Com: -0.217D-04-0.250D-02-0.173D-02-0.791D-02-0.455D-02 0.239D-01
 Coeff-Com:  0.184D+00 0.290D+00 0.519D+00
 Coeff:     -0.217D-04-0.250D-02-0.173D-02-0.791D-02-0.455D-02 0.239D-01
 Coeff:      0.184D+00 0.290D+00 0.519D+00
 Gap=     0.146 Goal=   None    Shift=    0.000
 RMSDP=2.65D-08 MaxDP=7.72D-07 DE=-4.39D-10 OVMax= 4.38D-06

 Cycle  19  Pass 1  IDiag  1:
 E= -323.520739166623     Delta-E=       -0.000000000040 Rises=F Damp=F
 DIIS: error= 2.00D-07 at cycle  10 NSaved=  10.
 NSaved=10 IEnMin=10 EnMin= -323.520739166623     IErMin=10 ErrMin= 2.00D-07
 ErrMax= 2.00D-07  0.00D+00 EMaxC= 1.00D-01 BMatC= 9.39D-12 BMatP= 4.50D-11
 IDIUse=1 WtCom= 1.00D+00 WtEn= 0.00D+00
 Coeff-Com:  0.384D-04-0.954D-03-0.618D-03-0.453D-02-0.359D-02-0.947D-03
 Coeff-Com:  0.340D-01 0.112D+00 0.352D+00 0.513D+00
 Coeff:      0.384D-04-0.954D-03-0.618D-03-0.453D-02-0.359D-02-0.947D-03
 Coeff:      0.340D-01 0.112D+00 0.352D+00 0.513D+00
 Gap=     0.146 Goal=   None    Shift=    0.000
 RMSDP=8.28D-09 MaxDP=3.32D-07 DE=-4.01D-11 OVMax= 1.10D-06

 SCF Done:  E(RM06L) =  -323.520739167     A.U. after   19 cycles
            NFock= 19  Conv=0.83D-08     -V/T= 2.0041
 KE= 3.221885657622D+02 PE=-1.308929251652D+03 EE= 3.862496309706D+02
 Leave Link  502 at Sat Aug 28 00:50:49 2021, MaxMem= 17179869184 cpu:       417.2
 (Enter /public3/home/sc51754/softwares/g09e01/l801.exe)
 DoSCS=F DFT=T ScalE2(SS,OS)=  1.000000  1.000000
 Range of M.O.s used for correlation:     1   280
 NBasis=   280 NAE=    25 NBE=    25 NFC=     0 NFV=     0
 NROrb=    280 NOA=    25 NOB=    25 NVA=   255 NVB=   255

 **** Warning!!: The largest alpha MO coefficient is  0.19524471D+02

 Leave Link  801 at Sat Aug 28 00:50:49 2021, MaxMem= 17179869184 cpu:         1.7
 (Enter /public3/home/sc51754/softwares/g09e01/l1101.exe)
 Using compressed storage, NAtomX=    12.
 Will process     13 centers per pass.
 Leave Link 1101 at Sat Aug 28 00:50:50 2021, MaxMem= 17179869184 cpu:        49.1
 (Enter /public3/home/sc51754/softwares/g09e01/l1102.exe)
 Symmetrizing basis deriv contribution to polar:
 IMax=3 JMax=2 DiffMx= 0.00D+00
 Leave Link 1102 at Sat Aug 28 00:50:52 2021, MaxMem= 17179869184 cpu:        10.9
 (Enter /public3/home/sc51754/softwares/g09e01/l1110.exe)
 Forming Gx(P) for the SCF density, NAtomX=    12.
 Integral derivatives from FoFJK, PRISM(SPDF).
 Do as many integral derivatives as possible in FoFJK.
 G2DrvN: MDV=   17179868984.
 G2DrvN: will do    13 centers at a time, making    1 passes.
 Calling FoFCou, ICntrl=  3507 FMM=F I1Cent=   0 AccDes= 0.00D+00.
 FoFJK:  IHMeth= 1 ICntrl=    3507 DoSepK=F KAlg= 0 I1Cent=   0 FoldK=F
 IRaf=         0 NMat=   1 IRICut=       1 DoRegI=T DoRafI=F ISym2E= 1.
 FoFCou: FMM=F IPFlag=           0 FMFlag=      100000 FMFlg1=           0
         NFxFlg=           0 DoJE=F BraDBF=F KetDBF=F FulRan=T
         wScrn=  0.000000 ICntrl=    3507 IOpCl=  0 I1Cent=           0 NGrid=           0
         NMat0=    1 NMatS0=      1 NMatT0=    0 NMatD0=    1 NMtDS0=    0 NMtDT0=    0
 Petite list used in FoFCou.
 End of G2Drv F.D. properties file   721 does not exist.
 End of G2Drv F.D. properties file   722 does not exist.
 End of G2Drv F.D. properties file   788 does not exist.
 Leave Link 1110 at Sat Aug 28 00:50:58 2021, MaxMem= 17179869184 cpu:       351.0
 (Enter /public3/home/sc51754/softwares/g09e01/l1002.exe)
 Minotr:  Closed shell wavefunction.
          IDoAtm=111111111111
          Direct CPHF calculation.
          Differentiating once with respect to nuclear coordinates.
          Using symmetry in CPHF.
          Requested convergence is 1.0D-08 RMS, and 1.0D-07 maximum.
          Secondary convergence is 1.0D-12 RMS, and 1.0D-12 maximum.
          NewPWx=T KeepS1=F KeepF1=F KeepIn=T MapXYZ=F SortEE=F KeepMc=T.
          MDV=   17179868780 using IRadAn=       2.
 Generate precomputed XC quadrature information.
 Keep J ints in memory in symmetry-blocked form, NReq=1167458725.
 FoFCou: FMM=F IPFlag=           0 FMFlag=           0 FMFlg1=           0
         NFxFlg=           0 DoJE=F BraDBF=F KetDBF=F FulRan=T
         wScrn=  0.000000 ICntrl=     600 IOpCl=  0 I1Cent=           0 NGrid=           0
         NMat0=    1 NMatS0=  39340 NMatT0=    0 NMatD0=    1 NMtDS0=    0 NMtDT0=    0
 Petite list used in FoFCou.
          Solving linear equations simultaneously, MaxMat=       0.
          There are    39 degrees of freedom in the 1st order CPHF.  IDoFFX=6 NUNeed=     0.
     33 vectors produced by pass  0 Test12= 1.63D-14 2.56D-09 XBig12= 1.80D-01 1.80D-01.
 AX will form    33 AO Fock derivatives at one time.
     33 vectors produced by pass  1 Test12= 1.63D-14 2.56D-09 XBig12= 4.86D-02 8.36D-02.
     33 vectors produced by pass  2 Test12= 1.63D-14 2.56D-09 XBig12= 6.50D-04 4.14D-03.
     33 vectors produced by pass  3 Test12= 1.63D-14 2.56D-09 XBig12= 1.07D-05 4.23D-04.
     33 vectors produced by pass  4 Test12= 1.63D-14 2.56D-09 XBig12= 7.72D-08 3.74D-05.
     33 vectors produced by pass  5 Test12= 1.63D-14 2.56D-09 XBig12= 4.48D-10 2.21D-06.
     24 vectors produced by pass  6 Test12= 1.63D-14 2.56D-09 XBig12= 1.41D-12 1.64D-07.
      7 vectors produced by pass  7 Test12= 1.63D-14 2.56D-09 XBig12= 4.07D-15 5.76D-09.
 InvSVY:  IOpt=1 It=  1 EMax= 1.11D-15
 Solved reduced A of dimension   229 with    33 vectors.
 End of Minotr F.D. properties file   721 does not exist.
 End of Minotr F.D. properties file   722 does not exist.
 End of Minotr F.D. properties file   788 does not exist.
 Leave Link 1002 at Sat Aug 28 00:51:14 2021, MaxMem= 17179869184 cpu:       964.1
 (Enter /public3/home/sc51754/softwares/g09e01/l601.exe)
 Copying SCF densities to generalized density rwf, IOpCl= 0 IROHF=0.

 **********************************************************************

            Population analysis using the SCF density.

 **********************************************************************

 Orbital symmetries:
       Occupied  (A') (A') (A') (A') (A') (A') (A') (A') (A') (A')
                 (A') (A') (A') (A') (A') (A') (A") (A') (A') (A')
                 (A") (A') (A') (A") (A")
       Virtual   (A") (A") (A') (A') (A') (A') (A') (A") (A') (A')
                 (A') (A') (A") (A') (A') (A") (A") (A') (A') (A')
                 (A') (A') (A") (A') (A") (A') (A') (A') (A') (A')
                 (A') (A") (A') (A") (A') (A') (A') (A') (A') (A')
                 (A') (A') (A") (A') (A') (A') (A") (A') (A") (A")
                 (A') (A') (A") (A') (A") (A') (A") (A') (A') (A')
                 (A') (A') (A') (A") (A') (A") (A') (A') (A") (A')
                 (A") (A") (A') (A") (A") (A') (A') (A") (A') (A')
                 (A") (A") (A') (A') (A') (A") (A") (A') (A') (A')
                 (A") (A") (A') (A') (A') (A') (A') (A") (A') (A')
                 (A') (A') (A") (A') (A') (A') (A') (A") (A') (A')
                 (A') (A') (A") (A') (A') (A') (A") (A') (A') (A')
                 (A') (A") (A") (A') (A') (A") (A') (A") (A") (A")
                 (A') (A") (A') (A') (A') (A") (A') (A') (A") (A')
                 (A') (A") (A') (A') (A') (A") (A") (A') (A') (A')
                 (A') (A') (A") (A') (A") (A") (A") (A') (A') (A")
                 (A') (A") (A") (A') (A') (A") (A') (A') (A") (A')
                 (A') (A") (A') (A") (A') (A") (A") (A') (A") (A')
                 (A") (A') (A") (A') (A") (A') (A") (A') (A") (A")
                 (A") (A') (A") (A') (A') (A') (A") (A") (A') (A")
                 (A') (A") (A') (A") (A') (A') (A") (A') (A') (A')
                 (A') (A") (A") (A') (A') (A') (A") (A') (A") (A')
                 (A') (A") (A') (A') (A") (A') (A') (A") (A') (A')
                 (A') (A") (A') (A') (A') (A') (A') (A') (A") (A')
                 (A') (A') (A") (A') (A') (A') (A') (A') (A') (A')
                 (A') (A') (A') (A') (A')
 The electronic state is 1-A'.
 Alpha  occ. eigenvalues --  -18.97212 -14.20222 -10.14113 -10.10420 -10.07526
 Alpha  occ. eigenvalues --  -10.06093 -10.05746  -1.00766  -0.91443  -0.78654
 Alpha  occ. eigenvalues --   -0.72333  -0.62672  -0.58831  -0.50159  -0.47610
 Alpha  occ. eigenvalues --   -0.43704  -0.41008  -0.40056  -0.39497  -0.35007
 Alpha  occ. eigenvalues --   -0.31325  -0.30549  -0.28392  -0.28310  -0.21188
 Alpha virt. eigenvalues --   -0.06607  -0.02898  -0.02295   0.03169   0.04842
 Alpha virt. eigenvalues --    0.06460   0.08388   0.10463   0.12850   0.14986
 Alpha virt. eigenvalues --    0.16500   0.18351   0.18442   0.18592   0.21034
 Alpha virt. eigenvalues --    0.22086   0.23173   0.24795   0.25281   0.25769
 Alpha virt. eigenvalues --    0.27224   0.27576   0.28668   0.29273   0.30600
 Alpha virt. eigenvalues --    0.32595   0.34662   0.36245   0.37061   0.38497
 Alpha virt. eigenvalues --    0.42480   0.42990   0.43360   0.44977   0.45447
 Alpha virt. eigenvalues --    0.49028   0.50758   0.51357   0.54883   0.58202
 Alpha virt. eigenvalues --    0.58850   0.60607   0.63424   0.63802   0.65086
 Alpha virt. eigenvalues --    0.66277   0.69938   0.71297   0.74960   0.78679
 Alpha virt. eigenvalues --    0.81246   0.87613   0.89378   0.89718   0.93044
 Alpha virt. eigenvalues --    0.94486   0.94833   0.95980   0.98289   0.99956
 Alpha virt. eigenvalues --    1.01088   1.07058   1.09166   1.09301   1.13130
 Alpha virt. eigenvalues --    1.14538   1.16264   1.16556   1.20565   1.21123
 Alpha virt. eigenvalues --    1.23262   1.27142   1.27865   1.28961   1.30230
 Alpha virt. eigenvalues --    1.37409   1.41935   1.42034   1.42378   1.49075
 Alpha virt. eigenvalues --    1.51472   1.52845   1.53156   1.55170   1.58522
 Alpha virt. eigenvalues --    1.59284   1.62360   1.63320   1.66375   1.68317
 Alpha virt. eigenvalues --    1.69473   1.71759   1.71776   1.76838   1.77591
 Alpha virt. eigenvalues --    1.80165   1.84122   1.87572   1.88542   1.89782
 Alpha virt. eigenvalues --    1.92306   1.94714   2.01103   2.01930   2.03277
 Alpha virt. eigenvalues --    2.09956   2.12687   2.14370   2.18359   2.19807
 Alpha virt. eigenvalues --    2.25826   2.26239   2.26499   2.28869   2.29851
 Alpha virt. eigenvalues --    2.36170   2.46216   2.46335   2.62048   2.67385
 Alpha virt. eigenvalues --    2.89493   2.91401   2.95328   2.97396   3.07874
 Alpha virt. eigenvalues --    3.18544   3.19807   3.20457   3.22864   3.29468
 Alpha virt. eigenvalues --    3.31103   3.36595   3.38269   3.42181   3.43510
 Alpha virt. eigenvalues --    3.45135   3.47261   3.55441   3.56007   3.63093
 Alpha virt. eigenvalues --    3.64082   3.64740   3.66990   3.67906   3.71414
 Alpha virt. eigenvalues --    3.72020   3.76709   3.80876   3.85196   3.90343
 Alpha virt. eigenvalues --    3.91653   3.95203   3.96753   4.00382   4.00882
 Alpha virt. eigenvalues --    4.06105   4.14517   4.14839   4.15817   4.16320
 Alpha virt. eigenvalues --    4.18358   4.18429   4.22846   4.23639   4.26596
 Alpha virt. eigenvalues --    4.28241   4.29023   4.29943   4.30750   4.33708
 Alpha virt. eigenvalues --    4.36276   4.37338   4.39279   4.40017   4.40840
 Alpha virt. eigenvalues --    4.41272   4.43100   4.44886   4.48720   4.49253
 Alpha virt. eigenvalues --    4.49839   4.50219   4.53138   4.53950   4.56621
 Alpha virt. eigenvalues --    4.58410   4.60655   4.61666   4.61977   4.70243
 Alpha virt. eigenvalues --    4.71771   4.74023   4.76955   4.78424   4.82275
 Alpha virt. eigenvalues --    4.84263   4.87853   4.89836   4.95513   4.97081
 Alpha virt. eigenvalues --    5.01819   5.06005   5.06425   5.07427   5.12585
 Alpha virt. eigenvalues --    5.16771   5.22475   5.24327   5.31486   5.32573
 Alpha virt. eigenvalues --    5.35418   5.36021   5.39360   5.40567   5.43168
 Alpha virt. eigenvalues --    5.46038   5.48773   5.49610   5.53269   5.53528
 Alpha virt. eigenvalues --    5.54705   5.56017   5.60971   5.63294   5.64860
 Alpha virt. eigenvalues --    5.69611   5.77061   5.79999   5.80088   5.86736
 Alpha virt. eigenvalues --    5.91816   5.95792   5.98747   6.03404   6.14886
 Alpha virt. eigenvalues --    6.20630   6.24633   6.25658   6.38408   6.46515
 Alpha virt. eigenvalues --    6.57420   6.61378   6.67200   6.69808   6.80957
 Alpha virt. eigenvalues --    7.00356   7.25586   7.37131   9.50889  12.01956
 Alpha virt. eigenvalues --   12.70012  14.86970  17.60934  18.61543  22.38776
          Condensed to atoms (all electrons):
               1          2          3          4          5          6
     1  O    8.274642  -0.117607   0.273665  -0.043242   0.002634   0.005217
     2  N   -0.117607   6.918750   0.307559   0.027333   0.422708  -0.053707
     3  C    0.273665   0.307559   4.522049   0.414014  -0.073018  -0.016268
     4  C   -0.043242   0.027333   0.414014   4.892988  -0.066172   0.419333
     5  C    0.002634   0.422708  -0.073018  -0.066172   4.625214  -0.032144
     6  C    0.005217  -0.053707  -0.016268   0.419333  -0.032144   4.778559
     7  C    0.001111   0.022023  -0.064749   0.002317   0.454210   0.372265
     8  H    0.190348   0.093751  -0.065583   0.014723   0.003322  -0.003474
     9  H    0.004328   0.008417  -0.068548   0.499755  -0.003607  -0.066368
    10  H   -0.000573  -0.053743  -0.000733  -0.003282   0.468564   0.009287
    11  H   -0.000485  -0.002765   0.014633  -0.068955   0.011601   0.482386
    12  H    0.000071   0.009762  -0.001880   0.010411  -0.061442  -0.072554
               7          8          9         10         11         12
     1  O    0.001111   0.190348   0.004328  -0.000573  -0.000485   0.000071
     2  N    0.022023   0.093751   0.008417  -0.053743  -0.002765   0.009762
     3  C   -0.064749  -0.065583  -0.068548  -0.000733   0.014633  -0.001880
     4  C    0.002317   0.014723   0.499755  -0.003282  -0.068955   0.010411
     5  C    0.454210   0.003322  -0.003607   0.468564   0.011601  -0.061442
     6  C    0.372265  -0.003474  -0.066368   0.009287   0.482386  -0.072554
     7  C    4.977090   0.001510   0.011511  -0.069977  -0.078251   0.496469
     8  H    0.001510   0.496188  -0.001407  -0.002082   0.000290  -0.000212
     9  H    0.011511  -0.001407   0.653502   0.000155  -0.018506   0.000231
    10  H   -0.069977  -0.002082   0.000155   0.653584  -0.000203  -0.014137
    11  H   -0.078251   0.000290  -0.018506  -0.000203   0.698571  -0.017147
    12  H    0.496469  -0.000212   0.000231  -0.014137  -0.017147   0.682677
 Mulliken charges:
               1
     1  O   -0.590109
     2  N   -0.582482
     3  C    0.758859
     4  C   -0.099224
     5  C    0.248132
     6  C    0.177468
     7  C   -0.125531
     8  H    0.272626
     9  H   -0.019465
    10  H    0.013141
    11  H   -0.021168
    12  H   -0.032249
 Sum of Mulliken charges =  -0.00000
 Mulliken charges with hydrogens summed into heavy atoms:
               1
     1  O   -0.317483
     2  N   -0.582482
     3  C    0.758859
     4  C   -0.118688
     5  C    0.261272
     6  C    0.156301
     7  C   -0.157779
 APT charges:
               1
     1  O   -0.412711
     2  N   -0.581608
     3  C    0.549995
     4  C   -0.604515
     5  C   -0.278660
     6  C   -0.305235
     7  C   -0.599463
     8  H    0.315097
     9  H    0.421580
    10  H    0.483178
    11  H    0.480676
    12  H    0.531666
 Sum of APT charges =  -0.00000
 APT charges with hydrogens summed into heavy atoms:
               1
     1  O   -0.097614
     2  N   -0.581608
     3  C    0.549995
     4  C   -0.182934
     5  C    0.204518
     6  C    0.175441
     7  C   -0.067797
 Electronic spatial extent (au):  <R**2>=            620.5616
 Charge=             -0.0000 electrons
 Dipole moment (field-independent basis, Debye):
    X=              0.0606    Y=             -2.9187    Z=              0.0000  Tot=              2.9194
 Quadrupole moment (field-independent basis, Debye-Ang):
   XX=            -35.5879   YY=            -42.7061   ZZ=            -42.1043
   XY=             -0.8437   XZ=              0.0000   YZ=             -0.0000
 Traceless Quadrupole moment (field-independent basis, Debye-Ang):
   XX=              4.5448   YY=             -2.5733   ZZ=             -1.9715
   XY=             -0.8437   XZ=              0.0000   YZ=             -0.0000
 Octapole moment (field-independent basis, Debye-Ang**2):
  XXX=              2.4106  YYY=            -18.4466  ZZZ=              0.0000  XYY=             -4.2127
  XXY=              1.1363  XXZ=              0.0000  XZZ=             -1.2169  YZZ=              4.1829
  YYZ=              0.0000  XYZ=              0.0000
 Hexadecapole moment (field-independent basis, Debye-Ang**3):
 XXXX=           -257.8713 YYYY=           -504.3639 ZZZZ=            -42.6305 XXXY=              8.6585
 XXXZ=             -0.0000 YYYX=             -3.3458 YYYZ=              0.0000 ZZZX=             -0.0000
 ZZZY=              0.0000 XXYY=           -109.6080 XXZZ=            -57.6284 YYZZ=            -93.7720
 XXYZ=              0.0000 YYXZ=             -0.0000 ZZXY=              1.9811
 N-N= 2.769703157523D+02 E-N=-1.308929263064D+03  KE= 3.221885657622D+02
 Symmetry A'   KE= 3.104523419576D+02
 Symmetry A"   KE= 1.173622380459D+01
  Exact polarizability:   0.000   0.000   0.000   0.000   0.000   0.000
 Approx polarizability: 150.749   8.120 185.852   0.000  -0.000  57.329
 No NMR shielding tensors so no spin-rotation constants.
 Leave Link  601 at Sat Aug 28 00:51:15 2021, MaxMem= 17179869184 cpu:        43.4
 (Enter /public3/home/sc51754/softwares/g09e01/l701.exe)
 Compute integral second derivatives.
 ... and contract with generalized density number  0.
 Leave Link  701 at Sat Aug 28 00:51:17 2021, MaxMem= 17179869184 cpu:        86.3
 (Enter /public3/home/sc51754/softwares/g09e01/l702.exe)
 L702 exits ... SP integral derivatives will be done elsewhere.
 Leave Link  702 at Sat Aug 28 00:51:17 2021, MaxMem= 17179869184 cpu:         0.6
 (Enter /public3/home/sc51754/softwares/g09e01/l703.exe)
 Compute integral second derivatives, UseDBF=F ICtDFT=           0.
 Integral derivatives from FoFJK, PRISM(SPDF).
 Calling FoFJK, ICntrl=    100547 FMM=F ISym2X=1 I1Cent= 0 IOpClX= 0 NMat=1 NMatS=1 NMatT=0.
 FoFJK:  IHMeth= 1 ICntrl=  100547 DoSepK=F KAlg= 0 I1Cent=   0 FoldK=F
 IRaf=         0 NMat=   1 IRICut=       1 DoRegI=T DoRafI=F ISym2E= 1.
 FoFCou: FMM=F IPFlag=           0 FMFlag=      100000 FMFlg1=         800
         NFxFlg=           0 DoJE=F BraDBF=F KetDBF=F FulRan=T
         wScrn=  0.000000 ICntrl=  100547 IOpCl=  0 I1Cent=           0 NGrid=           0
         NMat0=    1 NMatS0=      1 NMatT0=    0 NMatD0=    1 NMtDS0=    0 NMtDT0=    0
 Petite list used in FoFCou.
 Leave Link  703 at Sat Aug 28 00:51:25 2021, MaxMem= 17179869184 cpu:       505.3
 (Enter /public3/home/sc51754/softwares/g09e01/l716.exe)
 Dipole        = 2.38241334D-02-1.14831520D+00 6.32251522D-32
 Polarizability= 0.00000000D+00 0.00000000D+00 0.00000000D+00
                 0.00000000D+00 0.00000000D+00 0.00000000D+00
 ***** Axes restored to original set *****
 -------------------------------------------------------------------
 Center     Atomic                   Forces (Hartrees/Bohr)
 Number     Number              X              Y              Z
 -------------------------------------------------------------------
      1        8          -0.086160544   -0.059964063   -0.000000000
      2        7           0.007618167    0.017344221   -0.000000000
      3        6           0.052529598    0.041019894    0.000000000
      4        6           0.003577929   -0.017253098    0.000000000
      5        6          -0.014537970   -0.014896376   -0.000000000
      6        6           0.005672722    0.006350807   -0.000000000
      7        6          -0.006047384    0.004066383   -0.000000000
      8        1           0.039680972    0.022798876    0.000000000
      9        1          -0.001418655    0.000183813   -0.000000000
     10        1           0.000839476    0.000139806    0.000000000
     11        1           0.000037063   -0.000823356    0.000000000
     12        1          -0.001791373    0.001033093   -0.000000000
 -------------------------------------------------------------------
 Cartesian Forces:  Max     0.086160544 RMS     0.022847086
 Force constants in Cartesian coordinates: 
                1             2             3             4             5 
      1  0.582913D-01
      2  0.790592D-02  0.419686D+00
      3  0.000000D+00  0.000000D+00  0.796110D-01
      4 -0.180485D-01 -0.244554D-01  0.000000D+00  0.506730D+00
      5 -0.997775D-01 -0.459422D-01  0.000000D+00  0.132563D+00  0.612588D+00
      6  0.000000D+00  0.000000D+00  0.170094D-01  0.000000D+00  0.000000D+00
      7 -0.942979D-01  0.730698D-02  0.000000D+00 -0.327392D+00 -0.717816D-01
      8 -0.203872D-01 -0.284645D+00  0.000000D+00 -0.105961D+00 -0.198234D+00
      9  0.000000D+00  0.000000D+00 -0.738474D-01  0.000000D+00  0.000000D+00
     10 -0.271333D-02  0.197314D-01  0.000000D+00 -0.562663D-01 -0.270960D-01
     11  0.549453D-01 -0.505140D-01  0.000000D+00  0.988100D-02  0.622208D-01
     12  0.000000D+00  0.000000D+00  0.137577D-01  0.000000D+00  0.000000D+00
     13  0.789193D-02 -0.269821D-02  0.000000D+00 -0.118277D+00 -0.420579D-04
     14  0.210171D-01 -0.243196D-02  0.000000D+00  0.423868D-02 -0.336948D+00
     15  0.000000D+00  0.000000D+00  0.729634D-02  0.000000D+00  0.000000D+00
     16 -0.153911D-01  0.639849D-02  0.000000D+00 -0.142654D-01 -0.421736D-01
     17 -0.955002D-02  0.107144D-01  0.000000D+00 -0.248673D-01 -0.498618D-01
     18  0.000000D+00  0.000000D+00  0.556239D-02  0.000000D+00  0.000000D+00
     19  0.119887D-01 -0.738434D-02  0.000000D+00  0.327947D-01  0.783461D-01
     20 -0.716318D-02 -0.567702D-02  0.000000D+00  0.236180D-01 -0.569119D-01
     21  0.000000D+00  0.000000D+00 -0.246112D-02  0.000000D+00  0.000000D+00
     22  0.478622D-01 -0.568234D-02  0.000000D+00 -0.128874D-02  0.261553D-01
     23  0.536220D-01 -0.399597D-01  0.000000D+00  0.113895D-01  0.376503D-01
     24  0.000000D+00  0.000000D+00 -0.436872D-01  0.000000D+00  0.000000D+00
     25  0.291128D-02 -0.856334D-03  0.000000D+00 -0.484761D-02  0.418954D-02
     26 -0.910286D-03  0.832445D-03  0.000000D+00  0.521685D-02 -0.843495D-03
     27  0.000000D+00  0.000000D+00 -0.219475D-02  0.000000D+00  0.000000D+00
     28 -0.705909D-03  0.000000D+00  0.000000D+00  0.432359D-02 -0.505489D-02
     29 -0.876218D-03 -0.159100D-02  0.000000D+00 -0.343692D-01 -0.227729D-01
     30  0.000000D+00  0.000000D+00  0.800884D-03  0.000000D+00  0.000000D+00
     31 -0.156003D-04  0.155737D-03  0.000000D+00  0.797917D-03 -0.767845D-03
     32  0.197918D-02 -0.849657D-03  0.000000D+00 -0.482574D-03 -0.365878D-03
     33  0.000000D+00  0.000000D+00 -0.999083D-03  0.000000D+00  0.000000D+00
     34  0.222692D-02 -0.422431D-03  0.000000D+00 -0.426037D-02  0.543935D-02
     35 -0.805237D-03  0.377910D-03  0.000000D+00  0.322859D-02 -0.578054D-03
     36  0.000000D+00  0.000000D+00 -0.848040D-03  0.000000D+00  0.000000D+00
                6             7             8             9            10 
      6  0.891421D-01
      7  0.000000D+00  0.753505D+00
      8  0.000000D+00 -0.337228D-01  0.646714D+00
      9 -0.714929D-01  0.000000D+00  0.000000D+00  0.187273D+00
     10  0.000000D+00 -0.274157D+00  0.897537D-01  0.000000D+00  0.719247D+00
     11  0.000000D+00  0.473850D-01 -0.136440D+00  0.000000D+00  0.488633D-01
     12  0.125191D-01  0.000000D+00  0.000000D+00 -0.770954D-01  0.000000D+00
     13  0.000000D+00  0.204826D-01 -0.339666D-01  0.000000D+00 -0.136144D-01
     14  0.000000D+00 -0.981997D-01 -0.359456D-01  0.000000D+00  0.310623D-01
     15 -0.524635D-01  0.000000D+00  0.000000D+00  0.140442D-02  0.000000D+00
     16  0.000000D+00  0.445928D-01  0.287132D-01  0.000000D+00 -0.132643D+00
     17  0.000000D+00  0.702874D-01 -0.396288D-01  0.000000D+00 -0.301997D-01
     18 -0.644288D-02  0.000000D+00  0.000000D+00  0.216599D-02  0.000000D+00
     19  0.000000D+00 -0.688254D-01  0.525034D-02  0.000000D+00  0.274222D-01
     20  0.000000D+00  0.147797D-01  0.698786D-03  0.000000D+00 -0.353539D-01
     21  0.180031D-01  0.000000D+00  0.000000D+00 -0.916004D-02  0.000000D+00
     22  0.000000D+00 -0.402508D-01  0.871916D-01  0.000000D+00  0.291187D-02
     23  0.000000D+00  0.510172D-01  0.454508D-01  0.000000D+00  0.487944D-02
     24 -0.160625D-01  0.000000D+00  0.000000D+00  0.184212D-01  0.000000D+00
     25  0.000000D+00 -0.164719D-01 -0.182855D-01  0.000000D+00 -0.270119D+00
     26  0.000000D+00  0.133394D-01  0.108599D-01  0.000000D+00 -0.127842D+00
     27  0.551534D-02  0.000000D+00  0.000000D+00  0.156716D-02  0.000000D+00
     28  0.000000D+00  0.334221D-02  0.122683D-02  0.000000D+00  0.401062D-03
     29  0.000000D+00  0.153941D-02 -0.372555D-02  0.000000D+00 -0.484742D-04
     30 -0.154395D-02  0.000000D+00  0.000000D+00  0.973287D-02  0.000000D+00
     31  0.000000D+00  0.186077D-02 -0.118662D-02  0.000000D+00  0.455733D-02
     32  0.000000D+00 -0.186149D-02 -0.527598D-02  0.000000D+00  0.290552D-01
     33 -0.219529D-02  0.000000D+00  0.000000D+00  0.113695D-01  0.000000D+00
     34  0.000000D+00 -0.238808D-02  0.137441D-02  0.000000D+00 -0.502641D-02
     35  0.000000D+00 -0.896306D-04  0.171608D-03  0.000000D+00 -0.280512D-02
     36  0.801209D-02  0.000000D+00  0.000000D+00 -0.338932D-03  0.000000D+00
               11            12            13            14            15 
     11  0.728521D+00
     12  0.000000D+00  0.121084D+00
     13  0.215206D-01  0.000000D+00  0.754525D+00
     14 -0.463969D-01  0.000000D+00  0.313642D-01  0.678364D+00
     15  0.000000D+00 -0.239703D-02  0.000000D+00  0.000000D+00  0.145909D+00
     16  0.212593D-01  0.000000D+00 -0.623608D-01  0.312679D-01  0.000000D+00
     17 -0.370204D+00  0.000000D+00 -0.161049D-01  0.617545D-01  0.000000D+00
     18  0.000000D+00 -0.591001D-01  0.000000D+00  0.000000D+00  0.701534D-02
     19 -0.682034D-01  0.000000D+00 -0.285133D+00  0.654121D-01  0.000000D+00
     20 -0.254586D-01  0.000000D+00  0.125938D+00 -0.182662D+00  0.000000D+00
     21  0.000000D+00  0.839469D-02  0.000000D+00  0.000000D+00 -0.662811D-01
     22 -0.653030D-02  0.000000D+00 -0.127021D-01 -0.838634D-02  0.000000D+00
     23 -0.175053D-01  0.000000D+00 -0.175459D-01 -0.198396D-01  0.000000D+00
     24  0.000000D+00  0.643807D-02  0.000000D+00  0.000000D+00 -0.414625D-02
     25 -0.125960D+00  0.000000D+00  0.147323D-03  0.254893D-02  0.000000D+00
     26 -0.133786D+00  0.000000D+00  0.489431D-03 -0.143407D-02  0.000000D+00
     27  0.000000D+00 -0.337143D-01  0.000000D+00  0.000000D+00 -0.402957D-03
     28  0.951513D-03  0.000000D+00 -0.292579D+00 -0.102821D+00  0.000000D+00
     29 -0.592956D-03  0.000000D+00 -0.100155D+00 -0.101711D+00  0.000000D+00
     30  0.000000D+00 -0.911841D-03  0.000000D+00  0.000000D+00 -0.414150D-01
     31 -0.191934D-02  0.000000D+00 -0.465132D-02 -0.418059D-02  0.000000D+00
     32 -0.105538D-01  0.000000D+00 -0.355888D-02 -0.750094D-03  0.000000D+00
     33  0.000000D+00  0.560670D-02  0.000000D+00  0.000000D+00  0.687939D-02
     34 -0.219271D-02  0.000000D+00  0.626991D-02  0.266766D-01  0.000000D+00
     35  0.709257D-03  0.000000D+00 -0.524160D-02 -0.119993D-01  0.000000D+00
     36  0.000000D+00  0.541849D-02  0.000000D+00  0.000000D+00 -0.139850D-02
               16            17            18            19            20 
     16  0.719589D+00
     17 -0.395475D-01  0.704921D+00
     18  0.000000D+00  0.000000D+00  0.145072D+00
     19 -0.283426D+00 -0.554193D-01  0.000000D+00  0.658493D+00
     20 -0.114837D+00 -0.169432D+00  0.000000D+00  0.321426D-02  0.761006D+00
     21  0.000000D+00  0.000000D+00 -0.614725D-01  0.000000D+00  0.000000D+00
     22  0.203477D-02  0.443144D-02  0.000000D+00 -0.250138D-02  0.164733D-02
     23  0.804052D-02  0.891250D-02  0.000000D+00 -0.939694D-02  0.579996D-02
     24  0.000000D+00  0.000000D+00 -0.360056D-03  0.000000D+00  0.000000D+00
     25  0.493283D-02  0.213734D-02  0.000000D+00  0.246416D-02  0.715177D-03
     26 -0.283794D-01 -0.101820D-01  0.000000D+00  0.181212D-02 -0.535124D-02
     27  0.000000D+00  0.000000D+00  0.173500D-02  0.000000D+00  0.000000D+00
     28 -0.353773D-02  0.444411D-02  0.000000D+00 -0.170788D-01 -0.141773D-01
     29  0.323310D-02 -0.166489D-02  0.000000D+00  0.154471D-01  0.114459D-01
     30  0.000000D+00  0.000000D+00  0.819786D-02  0.000000D+00  0.000000D+00
     31 -0.262967D+00  0.123844D+00  0.000000D+00 -0.173880D-01  0.176025D-01
     32  0.123670D+00 -0.135827D+00  0.000000D+00 -0.134597D-01  0.116728D-01
     33  0.000000D+00  0.000000D+00 -0.431819D-01  0.000000D+00  0.000000D+00
     34  0.344239D-02 -0.294560D-01  0.000000D+00 -0.588101D-01 -0.159840D-01
     35  0.235521D-02 -0.950272D-02  0.000000D+00 -0.156183D-01 -0.345130D+00
     36  0.000000D+00  0.000000D+00  0.809026D-03  0.000000D+00  0.000000D+00
               21            22            23            24            25 
     21  0.119517D+00
     22  0.000000D+00  0.616568D-02
     23  0.000000D+00 -0.993705D-01 -0.215016D-01
     24  0.294849D-02  0.000000D+00  0.000000D+00  0.388271D-01
     25  0.000000D+00 -0.151753D-02 -0.152833D-02  0.000000D+00  0.281643D+00
     26  0.000000D+00  0.143555D-03  0.773244D-03  0.000000D+00  0.137398D+00
     27  0.897480D-02  0.000000D+00  0.000000D+00 -0.349954D-03  0.000000D+00
     28  0.000000D+00  0.660011D-03  0.886585D-03  0.000000D+00 -0.584089D-04
     29  0.000000D+00 -0.247722D-03 -0.115245D-03  0.000000D+00 -0.192240D-03
     30  0.649308D-02  0.000000D+00  0.000000D+00 -0.154932D-02  0.000000D+00
     31  0.000000D+00 -0.619699D-04 -0.431654D-05  0.000000D+00  0.779416D-03
     32  0.000000D+00  0.526673D-04 -0.786222D-03  0.000000D+00 -0.459159D-03
     33  0.464484D-02  0.000000D+00  0.000000D+00 -0.109008D-02  0.000000D+00
     34  0.000000D+00 -0.131208D-02 -0.198928D-02  0.000000D+00  0.136571D-03
     35  0.000000D+00  0.595347D-03  0.112085D-02  0.000000D+00  0.292719D-03
     36 -0.296007D-01  0.000000D+00  0.000000D+00  0.610502D-03  0.000000D+00
               26            27            28            29            30 
     26  0.138273D+00
     27  0.000000D+00  0.246376D-01
     28 -0.598599D-04  0.000000D+00  0.305476D+00
     29  0.130610D-03  0.000000D+00  0.115251D+00  0.119487D+00
     30  0.000000D+00 -0.167410D-02  0.000000D+00  0.000000D+00  0.264041D-01
     31  0.289352D-03  0.000000D+00 -0.116493D-02  0.970541D-03  0.000000D+00
     32  0.125053D-02  0.000000D+00 -0.840960D-03  0.490974D-03  0.000000D+00
     33  0.000000D+00 -0.472095D-02  0.000000D+00  0.000000D+00 -0.459925D-03
     34 -0.149720D-02  0.000000D+00  0.921624D-03 -0.553357D-03  0.000000D+00
     35 -0.523474D-03  0.000000D+00  0.193029D-03  0.618985D-03  0.000000D+00
     36  0.000000D+00  0.627121D-03  0.000000D+00  0.000000D+00 -0.407464D-02
               31            32            33            34            35 
     31  0.276931D+00
     32 -0.134792D+00  0.140225D+00
     33  0.000000D+00  0.000000D+00  0.274320D-01
     34  0.132288D-02  0.697549D-03  0.000000D+00  0.574767D-01
     35 -0.120707D-04  0.768626D-03  0.000000D+00  0.179071D-01  0.363967D+00
     36  0.000000D+00  0.000000D+00 -0.328515D-02  0.000000D+00  0.000000D+00
               36 
     36  0.240687D-01
 FormGI is forming the generalized inverse of G from B-inverse, IUseBI=4.
 Leave Link  716 at Sat Aug 28 00:51:25 2021, MaxMem= 17179869184 cpu:         3.2
 (Enter /public3/home/sc51754/softwares/g09e01/l103.exe)

 GradGradGradGradGradGradGradGradGradGradGradGradGradGradGradGradGradGrad
 Berny optimization.
 Red2BG is reusing G-inverse.
 Internal  Forces:  Max     0.053027014 RMS     0.011704094
 Search for a saddle point.
 Step number   1 out of a maximum of  100
 All quantities printed in internal units (Hartrees-Bohrs-Radians)
 Second derivative matrix not updated -- analytic derivatives used.
 ITU=  0
 LST/QST climbing along tangent vector
     Eigenvalues ---   -0.06559   0.00108   0.00358   0.01618   0.01747
     Eigenvalues ---    0.02079   0.02323   0.02777   0.03081   0.04349
     Eigenvalues ---    0.04478   0.10299   0.10622   0.11951   0.12926
     Eigenvalues ---    0.14554   0.19806   0.19887   0.23290   0.30091
     Eigenvalues ---    0.32366   0.35763   0.36142   0.36607   0.36646
     Eigenvalues ---    0.41592   0.42768   0.47017   0.49345   0.54451
     Eigenvalues --- 1000.000001000.000001000.000001000.000001000.00000
     Eigenvalues --- 1000.000001000.000001000.000001000.000001000.00000
     Eigenvalues --- 1000.000001000.000001000.000001000.000001000.00000
     Eigenvalues --- 1000.000001000.000001000.000001000.000001000.00000
     Eigenvalues --- 1000.000001000.000001000.000001000.000001000.00000
     Eigenvalues --- 1000.000001000.000001000.00000
 Eigenvectors required to have negative eigenvalues:
                          R2        R5        A4        A3        D22
   1                    0.64749  -0.52618  -0.21643   0.18234   0.17989
                          D8        D21       D10       A1        D9
   1                   -0.16511   0.16353  -0.14989  -0.14724   0.13585
 QST in optimization variable space.
                        Tangent   TS vect  // Eig F  Eigenval
   1         R1        -0.04624  -0.04624  -0.02883  -0.06559
[...]
    A3        1.30388  -0.00003   0.00000   0.00004   0.00003   1.30391
    A4        2.82717   0.00003   0.00000  -0.00014  -0.00014   2.82703
    A5        1.84242  -0.00000   0.00000  -0.00010  -0.00010   1.84232
    A6        2.34637   0.00003   0.00000   0.00041   0.00041   2.34678
    A7        2.09440  -0.00003   0.00000  -0.00031  -0.00031   2.09409
    A8        2.03577   0.00002   0.00000   0.00016   0.00016   2.03593
    A9        2.11085  -0.00001   0.00000  -0.00005  -0.00005   2.11080
   A10        2.13657  -0.00001   0.00000  -0.00011  -0.00011   2.13646
   A11        2.08136   0.00002   0.00000   0.00006   0.00006   2.08141
   A12        2.05203  -0.00001   0.00000   0.00001   0.00001   2.05205
   A13        2.14980  -0.00001   0.00000  -0.00007  -0.00007   2.14973
   A14        2.13266  -0.00000   0.00000   0.00004   0.00004   2.13270
   A15        2.07677  -0.00000   0.00000  -0.00008  -0.00008   2.07669
   A16        2.07376   0.00001   0.00000   0.00003   0.00003   2.07379
   A17        2.07005  -0.00001   0.00000  -0.00005  -0.00005   2.07000
   A18        2.09963   0.00001   0.00000   0.00002   0.00002   2.09964
   A19        2.11351   0.00000   0.00000   0.00004   0.00004   2.11355
    D1        0.00026  -0.00002   0.00000  -0.00026  -0.00026   0.00000
    D2        3.14142  -0.00000   0.00000   0.00017   0.00017   3.14159
    D3        3.14047   0.00002   0.00000   0.00111   0.00111   3.14159
    D4       -0.00077   0.00001   0.00000   0.00076   0.00077  -0.00000
    D5       -0.00027   0.00002   0.00000   0.00027   0.00027  -0.00000
    D6       -3.14152   0.00001   0.00000  -0.00008  -0.00008  -3.14159
    D7        0.00069  -0.00001   0.00000  -0.00069  -0.00069   0.00000
    D8       -3.14137   0.00000   0.00000  -0.00022  -0.00022   3.14159
    D9        3.13965  -0.00001   0.00000   0.00194   0.00194   3.14158
   D10       -0.00241   0.00000   0.00000   0.00240   0.00240  -0.00001
   D11       -3.14063  -0.00002   0.00000  -0.00096  -0.00096  -3.14159
   D12        0.00062  -0.00002   0.00000  -0.00062  -0.00062   0.00001
   D13        0.00049  -0.00000   0.00000  -0.00049  -0.00049   0.00000
   D14       -3.14144   0.00000   0.00000  -0.00014  -0.00014  -3.14159
   D15       -0.00019  -0.00000   0.00000   0.00019   0.00019  -0.00000
   D16        3.14127   0.00000   0.00000   0.00032   0.00032  -3.14159
   D17       -3.14144  -0.00001   0.00000  -0.00016  -0.00016   3.14159
   D18        0.00002  -0.00000   0.00000  -0.00003  -0.00003  -0.00000
   D19       -0.00035   0.00001   0.00000   0.00036   0.00036   0.00000
   D20        3.14122   0.00001   0.00000   0.00038   0.00038   3.14159
   D21       -3.14145  -0.00000   0.00000  -0.00014  -0.00014  -3.14159
   D22        0.00012  -0.00000   0.00000  -0.00012  -0.00012   0.00000
   D23        0.00012  -0.00001   0.00000  -0.00013  -0.00013  -0.00000
   D24       -3.14144  -0.00000   0.00000  -0.00015  -0.00015  -3.14159
   D25       -3.14134  -0.00001   0.00000  -0.00026  -0.00026   3.14159
   D26        0.00028  -0.00001   0.00000  -0.00028  -0.00028   0.00000
         Item               Value     Threshold  Converged?
 Maximum Force            0.000415     0.000450     YES
 RMS     Force            0.000062     0.000300     YES
 Maximum Displacement     0.001115     0.001800     YES
 RMS     Displacement     0.000266     0.001200     YES
 Predicted change in Energy=-2.688175D-07
 Optimization completed.
    -- Stationary point found.
                           ----------------------------
                           !   Optimized Parameters   !
                           ! (Angstroms and Degrees)  !
 --------------------------                            --------------------------
 ! Name  Definition              Value          Derivative Info.                !
 --------------------------------------------------------------------------------
 ! R1    R(1,3)                  1.2811         -DE/DX =   -0.0004              !
 ! R2    R(1,8)                  1.3663         -DE/DX =   -0.0002              !
 ! R3    R(2,3)                  1.3602         -DE/DX =    0.0                 !
 ! R4    R(2,5)                  1.3322         -DE/DX =    0.0                 !
 ! R5    R(2,8)                  1.28           -DE/DX =    0.0                 !
 ! R6    R(3,4)                  1.4021         -DE/DX =    0.0                 !
 ! R7    R(4,6)                  1.3775         -DE/DX =    0.0                 !
 ! R8    R(4,9)                  1.0775         -DE/DX =    0.0                 !
 ! R9    R(5,7)                  1.3779         -DE/DX =    0.0                 !
 ! R10   R(5,10)                 1.0802         -DE/DX =    0.0                 !
 ! R11   R(6,7)                  1.4007         -DE/DX =    0.0                 !
 ! R12   R(6,11)                 1.0813         -DE/DX =    0.0                 !
 ! R13   R(7,12)                 1.0772         -DE/DX =    0.0                 !
 ! A1    A(3,1,8)               74.4604         -DE/DX =    0.0001              !
 ! A2    A(3,2,5)              123.3087         -DE/DX =    0.0                 !
 ! A3    A(3,2,8)               74.7065         -DE/DX =    0.0                 !
 ! A4    A(5,2,8)              161.9847         -DE/DX =    0.0                 !
 ! A5    A(1,3,2)              105.563          -DE/DX =    0.0                 !
 ! A6    A(1,3,4)              134.437          -DE/DX =    0.0                 !
 ! A7    A(2,3,4)              120.0            -DE/DX =    0.0                 !
 ! A8    A(3,4,6)              116.6408         -DE/DX =    0.0                 !
 ! A9    A(3,4,9)              120.943          -DE/DX =    0.0                 !
 ! A10   A(6,4,9)              122.4162         -DE/DX =    0.0                 !
 ! A11   A(2,5,7)              119.2529         -DE/DX =    0.0                 !
 ! A12   A(2,5,10)             117.5729         -DE/DX =    0.0                 !
 ! A13   A(7,5,10)             123.1742         -DE/DX =    0.0                 !
 ! A14   A(4,6,7)              122.1925         -DE/DX =    0.0                 !
 ! A15   A(4,6,11)             118.99           -DE/DX =    0.0                 !
 ! A16   A(7,6,11)             118.8176         -DE/DX =    0.0                 !
 ! A17   A(5,7,6)              118.605          -DE/DX =    0.0                 !
 ! A18   A(5,7,12)             120.2997         -DE/DX =    0.0                 !
 ! A19   A(6,7,12)             121.0953         -DE/DX =    0.0                 !
 ! D1    D(8,1,3,2)              0.0147         -DE/DX =    0.0                 !
 ! D2    D(8,1,3,4)            179.9904         -DE/DX =    0.0                 !
 ! D3    D(5,2,3,1)            179.9359         -DE/DX =    0.0                 !
 ! D4    D(5,2,3,4)             -0.044          -DE/DX =    0.0                 !
 ! D5    D(8,2,3,1)             -0.0157         -DE/DX =    0.0                 !
 ! D6    D(8,2,3,4)           -179.9956         -DE/DX =    0.0                 !
 ! D7    D(3,2,5,7)              0.0395         -DE/DX =    0.0                 !
 ! D8    D(3,2,5,10)           180.0126         -DE/DX =    0.0                 !
 ! D9    D(8,2,5,7)            179.8886         -DE/DX =    0.0                 !
 ! D10   D(8,2,5,10)            -0.1383         -DE/DX =    0.0                 !
 ! D11   D(1,3,4,6)           -179.9448         -DE/DX =    0.0                 !
 ! D12   D(1,3,4,9)              0.0356         -DE/DX =    0.0                 !
 ! D13   D(2,3,4,6)              0.0281         -DE/DX =    0.0                 !
 ! D14   D(2,3,4,9)           -179.9915         -DE/DX =    0.0                 !
 ! D15   D(3,4,6,7)             -0.0109         -DE/DX =    0.0                 !
 ! D16   D(3,4,6,11)          -180.0185         -DE/DX =    0.0                 !
 ! D17   D(9,4,6,7)            180.009          -DE/DX =    0.0                 !
 ! D18   D(9,4,6,11)             0.0014         -DE/DX =    0.0                 !
 ! D19   D(2,5,7,6)             -0.0202         -DE/DX =    0.0                 !
 ! D20   D(2,5,7,12)           179.9784         -DE/DX =    0.0                 !
 ! D21   D(10,5,7,6)          -179.9918         -DE/DX =    0.0                 !
 ! D22   D(10,5,7,12)            0.0069         -DE/DX =    0.0                 !
 ! D23   D(4,6,7,5)              0.0071         -DE/DX =    0.0                 !
 ! D24   D(4,6,7,12)          -179.9915         -DE/DX =    0.0                 !
 ! D25   D(11,6,7,5)           180.0147         -DE/DX =    0.0                 !
 ! D26   D(11,6,7,12)            0.0161         -DE/DX =    0.0                 !
 --------------------------------------------------------------------------------
 GradGradGradGradGradGradGradGradGradGradGradGradGradGradGradGradGradGrad

 Leave Link  103 at Sat Aug 28 00:56:11 2021, MaxMem= 17179869184 cpu:        25.8
 (Enter /public3/home/sc51754/softwares/g09e01/l9999.exe)
 1\1\GINC-T1606\Freq\RM06L\Gen\C5H5N1O1\SC51754\28-Aug-2021\0\\#P Geom=
 AllCheck Guess=TCheck SCRF=Check GenChk RM06L/ChkBas Freq\\HY_M06L_PC2
 _OPT_FREQ\\0,1\O,0.0275078002,2.5634162852,0.0004610517\N,-0.877560993
 1,0.6641483214,0.0007626105\C,0.3166198192,1.3153936935,0.0006762791\C
 ,1.5134825548,0.5849922294,0.0003965231\C,-0.9867897358,-0.663601366,-
 0.0002615659\C,1.3993324069,-0.787789729,-0.0003818391\C,0.1561738344,
 -1.4332591714,-0.0006489542\H,-1.1722899448,1.9097408902,0.0008855706\
 H,2.4678520483,1.0852580893,0.0004615326\H,-1.9820810235,-1.0834141754
 ,-0.0003004121\H,2.2984956294,-1.3884392971,-0.0009269033\H,0.08748110
 41,-2.5082780701,-0.001123893\\Version=EM64L-G09RevE.01\State=1-A\HF=-
 323.5403194\RMSD=3.329e-09\RMSF=1.288e-04\ZeroPoint=0.0886387\Thermal=
 0.0936324\Dipole=-0.0337767,-1.2645708,-0.0002921\DipoleDeriv=-0.47419
 84,-0.0142223,0.0000501,0.1757193,-1.6267045,-0.000224,0.0000554,0.000
 1199,-0.3654774,-0.3286666,-0.3945448,0.0000679,0.1743877,-0.9593972,-
 0.0001436,0.0004082,0.0001737,-0.2052367,0.2069437,-0.4017265,-0.00020
 73,-0.2445737,1.6581994,0.0000991,0.0000272,-0.0002709,0.2175195,-0.01
 01262,0.488558,0.0001206,-0.0852045,-0.5734331,-0.0001446,-0.0001547,-
 0.000105,-0.1702073,0.4818777,0.1301531,-0.0000173,-0.4747031,0.430884
 1,0.0003308,-0.0005444,0.0001161,0.0332685,0.3646552,0.1418102,0.00002
 82,0.2094099,0.4689575,0.0002925,0.0000674,0.0002545,-0.0537978,-0.564
 1408,-0.1544287,-0.0000237,0.07331,-0.1601149,0.000032,0.000081,-0.000
 0588,-0.1832105,0.3647628,0.2425902,-0.0000451,0.2050707,0.7343919,-0.
 0000027,-0.0001663,-0.0000636,0.2178355,-0.0208103,-0.0413705,-0.00000
 05,-0.0467208,0.0331654,-0.0000444,0.0000592,0.0000309,0.1431938,-0.04
 14398,-0.0684966,-0.0000249,-0.0440645,0.0399448,-0.0000349,0.0001453,
 -0.0000175,0.1118878,-0.0371227,0.0761342,0.0000569,0.0794384,0.026687
 7,-0.0000489,0.0000462,-0.0001023,0.1079107,0.0582652,-0.0044561,-0.00
 00048,-0.0220695,-0.0725811,-0.0001113,-0.0000246,-0.0000768,0.146314\
 Polar=73.4785209,0.1132896,88.9239346,-0.0018222,0.0196022,36.4412319\
 PG=C01 [X(C5H5N1O1)]\NImag=1\\0.08318956,-0.02249391,0.62621847,0.0000
 1186,-0.00007146,0.05368909,-0.01215258,-0.05180591,0.00000087,0.47602
 548,-0.14774983,-0.12523327,0.00003482,0.11962121,0.71339424,-0.000031
 68,0.00003774,0.03572974,-0.00000896,0.00022906,0.08932586,-0.10610288
 ,0.06700775,0.00000509,-0.25584779,-0.02173880,0.00003691,0.70787429,0
 .03416138,-0.43974648,0.00005895,-0.07077856,-0.18149556,-0.00003704,-
 0.12831211,0.74235450,0.00000082,0.00002827,-0.07184579,0.00004609,0.0
 0001009,-0.07733150,-0.00006531,0.00005417,0.18865281,-0.00496131,0.01
 902832,0.00000429,-0.04931073,-0.02030618,-0.00001369,-0.26688811,0.08
 191694,0.00003012,0.72418202,0.05940552,-0.02616806,-0.00000367,0.0108
 5558,0.06163550,0.00002052,0.04657239,-0.14657285,-0.00001469,0.057210
 66,0.70318073,0.00000183,0.00001759,0.01224870,0.00002632,0.00002168,0
 .00647599,0.00000753,-0.00004678,-0.07293911,-0.00001844,0.00024939,0.
 11652877,0.01102358,-0.00370113,-0.00000692,-0.13814928,-0.01980931,-0
 .00002043,0.02583944,-0.02400825,-0.00003117,-0.00951272,0.01995607,0.
 00001264,0.77557744,0.02293809,-0.00015204,0.00000738,-0.01442402,-0.3
 4388929,-0.00020875,-0.09089657,-0.02401880,-0.00003048,0.02520132,-0.
 04642248,-0.00002657,0.02995843,0.67133786,0.00003831,0.00000440,0.007
 14210,-0.00002947,-0.00020697,-0.04965203,-0.00004641,0.00000891,-0.00
 068766,0.00001657,-0.00002786,-0.00063882,-0.00003938,0.00031029,0.144
 77965,-0.02001031,0.00140946,-0.00000005,-0.01612787,-0.04146964,-0.00
 002730,0.04548661,0.02916284,0.00000750,-0.12935094,0.00617868,0.00002
 099,-0.05923918,0.03355566,0.00003129,0.69359148,-0.01769499,0.0072835
 6,-0.00000458,-0.01900347,-0.04917843,-0.00002167,0.06870278,-0.041359
 69,-0.00002572,-0.04532568,-0.37068595,-0.00016834,-0.01200850,0.05944
 403,0.00003101,-0.04075742,0.70539756,-0.00000391,0.00000142,0.0057007
 5,-0.00000984,-0.00001634,-0.00628229,0.00002506,-0.00001726,0.0005952
 2,-0.00000796,-0.00019278,-0.05563426,-0.00000702,0.00002539,0.0060641
 1,-0.00009779,0.00033893,0.14626647,0.01926961,-0.00316963,0.00000588,
 0.03127782,0.07843314,0.00004902,-0.06864084,0.00696549,0.00000032,0.0
 2256752,-0.06858038,-0.00003958,-0.29018525,0.07223358,0.00003440,-0.2
 6583826,-0.04312584,-0.00000617,0.64244065,-0.00743820,-0.00744268,0.0
 0000398,0.02852016,-0.06305337,-0.00005073,0.01155367,0.00119228,0.000
 00264,-0.03405808,-0.02227904,-0.00001399,0.13018576,-0.18461954,-0.00
 005944,-0.10297183,-0.16088329,-0.00004871,-0.01433810,0.75773666,-0.0
 0001004,-0.00000653,-0.00255648,0.00002126,-0.00006270,0.01738919,0.00
 001094,-0.00000392,-0.00868765,-0.00002341,-0.00001247,0.00809752,0.00
 006520,-0.00004578,-0.06371651,-0.00004280,-0.00004873,-0.06209264,-0.
 00002546,0.00031407,0.11508247,0.02516913,-0.00662202,-0.00001914,-0.0
 2915932,0.05067289,0.00001512,-0.06799324,0.08662623,0.00001049,0.0015
 3122,-0.01104686,0.00000315,-0.00983296,-0.00859715,-0.00001399,0.0034
 6869,0.00542933,0.00000066,-0.00361635,0.00122023,0.00000171,0.0826363
 0,0.08018511,-0.03240246,-0.00002964,0.02542531,0.00623897,0.00004090,
 0.03064678,0.08490744,-0.00000524,0.00881663,-0.02314614,0.00000105,-0
 .01929348,-0.02059320,-0.00003191,0.01055669,0.01412061,0.00000361,-0.
 01492656,0.00631896,0.00000875,-0.11864330,-0.03638112,-0.00000506,-0.
 00000333,-0.03606249,-0.00001685,0.00000826,-0.02854749,0.00000283,-0.
 00001104,0.02081126,0.00000493,-0.00000151,0.00706489,0.00001869,-0.00
 000944,-0.00677704,0.00000155,0.00000559,-0.00069812,-0.00001018,-0.00
 000493,0.00487501,0.00000269,0.00001485,0.04218278,0.00244805,0.000471
 87,-0.00000095,-0.00372220,0.00359588,0.00000057,-0.01669664,-0.017320
 58,-0.00000118,-0.28892194,-0.11663021,-0.00001216,-0.00027313,0.00257
 878,0.00000170,0.00278356,0.00114329,-0.00000011,0.00287551,0.00041495
 ,0.00000160,-0.00176098,-0.00131891,0.00000062,0.30250263,-0.00209690,
 0.00038366,0.00000121,0.00487913,-0.00088623,-0.00000283,0.01498922,0.
 01243882,0.00000146,-0.11745549,-0.11737020,-0.00001846,0.00060443,-0.
 00165798,-0.00000063,-0.02922456,-0.00916112,0.00000177,0.00145809,-0.
 00516202,-0.00000711,0.00075699,0.00069759,-0.00000040,0.12738208,0.11
 948511,-0.00000248,-0.00000155,-0.00221228,-0.00000118,-0.00000479,0.0
 0644084,0.00001634,0.00000456,0.00120336,-0.00001002,-0.00001000,-0.03
 126649,0.00000125,0.00000303,-0.00044006,-0.00001730,-0.00001009,0.000
 95955,0.00000465,-0.00000872,0.00907978,-0.00000027,0.00000074,-0.0003
 4201,0.00001120,0.00002225,0.02279511,-0.00069380,-0.00045107,0.000000
 02,0.00162207,-0.00506971,-0.00000203,0.00348194,0.00159548,0.00000126
 ,0.00014187,0.00062413,0.00000045,-0.30681143,-0.09652165,-0.00000828,
 -0.00289422,0.00422024,0.00000277,-0.01449534,-0.01310277,-0.00000151,
 0.00067781,0.00078851,-0.00000059,-0.00008491,-0.00005255,-0.00000026,
 0.31925869,-0.00003634,-0.00251599,0.00000104,-0.03706741,-0.01662810,
 -0.00000387,0.00353556,-0.00125610,-0.00001130,-0.00030691,-0.00071263
 ,0.00000021,-0.09313125,-0.09575416,-0.00001686,0.00325305,-0.00201591
 ,-0.00000601,0.01536838,0.01217208,0.00000099,-0.00027180,-0.00068407,
 0.00000177,-0.00023614,0.00021364,0.00000156,0.10855371,0.10606680,0.0
 0000046,-0.00000533,0.00025200,-0.00003527,-0.00001141,-0.00048551,0.0
 0001019,-0.00000207,0.00983201,0.00000177,0.00000052,-0.00052607,0.000
 00833,-0.00001001,-0.04102092,0.00000094,-0.00000364,0.00810894,0.0000
 0647,0.00000321,0.00608144,-0.00000127,-0.00000373,-0.00252071,-0.0000
 0057,0.00000099,-0.00193556,0.00000948,0.00002925,0.02660807,0.0000974
 5,0.00019440,0.,0.00068116,-0.00132390,-0.00000088,0.00163862,-0.00160
 782,0.00000130,0.00527418,-0.00284331,-0.00000241,-0.00485004,-0.00340
 520,0.00000030,-0.25424820,0.12798572,0.00012010,-0.01747029,0.0181291
 2,0.00001304,0.00000203,0.00003714,0.,0.00079570,0.00023758,-0.0000010
 1,-0.00105092,0.00096312,-0.00000005,0.26793086,0.00212923,-0.00036976
 ,0.00000115,-0.00047166,-0.00018061,0.00000006,-0.00175885,-0.00624565
 ,-0.00001012,0.02755423,-0.01230076,-0.00001472,-0.00339105,-0.0006726
 1,-0.00000418,0.12798446,-0.14400531,-0.00008502,-0.01312627,0.0114660
 0,0.00000513,-0.00012716,-0.00073099,0.00000122,-0.00028016,0.00150948
 ,0.00000355,-0.00076030,0.00051113,0.00000038,-0.13829604,0.15027702,0
 .00000447,-0.00000280,-0.00123659,-0.00000174,0.00000361,-0.00092354,-
 0.00000117,-0.00000551,0.01099962,0.00001814,-0.00000670,0.00547050,0.
 00000044,-0.00000695,0.00635640,0.00012469,-0.00008562,-0.04285729,-0.
 00001259,0.00000215,0.00463143,-0.00000139,-0.00000286,-0.00112769,-0.
 00000098,0.00000296,-0.00502104,-0.00000061,0.00000045,-0.00050607,-0.
 00012952,0.00009982,0.02753176,0.00272349,0.00013187,-0.00000096,-0.00
 513676,0.00514425,0.00000335,-0.00215140,0.00159896,-0.00000026,-0.004
 75106,-0.00170226,-0.00000030,0.00641353,0.02737871,0.00001494,0.00237
 865,-0.02956547,-0.00001578,-0.05818478,-0.01811490,-0.00001053,-0.001
 12233,-0.00227394,0.00000140,0.00005434,-0.00147802,-0.00000094,0.0008
 4825,-0.00062397,-0.00000048,0.00119945,0.00054358,0.00000028,0.057728
 61,-0.00130917,0.00014506,0.00000081,0.00424964,-0.00072385,-0.0000033
 8,-0.00030183,-0.00019792,0.00000092,-0.00227575,0.00084189,-0.0000010
 6,-0.00536173,-0.01300178,-0.00000676,0.00232260,-0.00895607,-0.000005
 00,-0.01719191,-0.34544605,-0.00014171,0.00060262,0.00165442,-0.000001
 04,0.00019916,-0.00049075,-0.00000054,0.00017597,0.00060331,0.00000185
 ,-0.00007080,0.00074206,0.00000146,0.01896118,0.36482969,-0.00000458,0
 .00000158,-0.00084874,0.00000876,-0.00000531,0.00786074,-0.00000198,-0
 .00000296,-0.00060258,-0.00000230,-0.00000075,0.00511838,-0.00000161,-
 0.00000811,-0.00140921,-0.00000173,-0.00000715,-0.00013043,-0.00000676
 ,-0.00013953,-0.02818355,0.00000225,0.00000347,0.00114159,0.00000024,-
 0.00000121,0.00073879,-0.00000072,0.00000278,-0.00388763,-0.00000085,0
 .00000275,-0.00331749,0.00000929,0.00015445,0.02352012\\0.00012665,0.0
 0054546,-0.00004759,0.00008569,0.00003316,0.00001626,0.00003280,-0.000
 48670,0.00003554,0.00001315,0.00001195,0.00000902,-0.00003077,-0.00000
 389,-0.00006102,-0.00000602,-0.00000535,-0.00000653,-0.00004112,0.0000
 1359,0.00001658,-0.00010287,-0.00008104,0.00002861,0.00002541,-0.00003
 057,0.00000152,-0.00003020,0.00003500,0.00000682,-0.00002727,-0.000035
 57,-0.00000923,-0.00004545,0.00000396,0.00001001\\\@


 The juvenile sea squirt wanders through the sea searching
 for a suitable rock or hunk of coral to cling to and make
 its home for life.  For this task it has a rudimentary
 nervous system.  When it finds its spot and takes root, it
 doesn't need its brain any more so it eats it.
 It's rather like getting tenure.

                               -- source unknown
 Job cpu time:       0 days  0 hours 47 minutes 10.2 seconds.
 File lengths (MBytes):  RWF=     81 Int=      0 D2E=      0 Chk=      7 Scr=      1
 Normal termination of Gaussian 09 at Sat Aug 28 00:56:12 2021.
