 Entering Gaussian System, Link 0=g09
 AtFile(1): pc-2.gbs
            -H     0
            S    4   1.00
                  0.754230D+02           0.240650D-02
                  0.113500D+02           0.184870D-01
                  0.259930D+01           0.897420D-01
                  0.735130D+00           0.281110D+00
            S    1   1.00
                  0.231670D+00           0.100000D+01
            S    1   1.00
                  0.741470D-01           0.100000D+01
            P    1   1.00
                  0.160000D+01           0.100000D+01
            P    1   1.00
                  0.450000D+00           0.100000D+01
            D    1   1.00
                  0.125000D+01           0.100000D+01
            ****
            -C     0
            S    7   1.00
                  0.785710D+04           0.568250D-03
                  0.117870D+04           0.439150D-02
                  0.268320D+03           0.225040D-01
                  0.759480D+02           0.866530D-01
                  0.245590D+02           0.244050D+00
                  0.862120D+01           0.441480D+00
                  0.312780D+01           0.353320D+00
            S    7   1.00
                  0.117870D+04          -0.594920D-06
                  0.268320D+03          -0.627480D-04
                  0.759480D+02          -0.757730D-03
                  0.245590D+02          -0.733080D-02
                  0.862120D+01          -0.389320D-01
                  0.312780D+01          -0.889080D-01
                  0.822020D+00           0.216890D+00
            S    1   1.00
                  0.330170D+00           0.100000D+01
            S    1   1.00
                  0.114630D+00           0.100000D+01
            P    4   1.00
                  0.337750D+02           0.602940D-02
                  0.767660D+01           0.432280D-01
                  0.223570D+01           0.163010D+00
                  0.764470D+00           0.365040D+00
            P    1   1.00
                  0.262320D+00           0.100000D+01
            P    1   1.00
                  0.846380D-01           0.100000D+01
            D    1   1.00
                  0.140000D+01           0.100000D+01
            D    1   1.00
                  0.450000D+00           0.100000D+01
            F    1   1.00
                  0.950000D+00           0.100000D+01
            ****
            -N     0
            S    7   1.00
                  0.111010D+05           0.545700D-03
                  0.166530D+04           0.421810D-02
                  0.379080D+03           0.216450D-01
                  0.107300D+03           0.837760D-01
                  0.347470D+02           0.238810D+00
                  0.122490D+02           0.439940D+00
                  0.447430D+01           0.363640D+00
            S    7   1.00
                  0.166530D+04          -0.150060D-05
                  0.379080D+03          -0.587530D-04
                  0.107300D+03          -0.774530D-03
                  0.347470D+02          -0.721610D-02
                  0.122490D+02          -0.393380D-01
                  0.447430D+01          -0.906110D-01
                  0.124040D+01           0.198820D+00
            S    1   1.00
                  0.487430D+00           0.100000D+01
            S    1   1.00
                  0.164840D+00           0.100000D+01
            P    4   1.00
                  0.479340D+02           0.617060D-02
                  0.109990D+02           0.442600D-01
                  0.324720D+01           0.168250D+00
                  0.111140D+01           0.368480D+00
            P    1   1.00
                  0.379880D+00           0.100000D+01
            P    1   1.00
                  0.120680D+00           0.100000D+01
            D    1   1.00
                  0.180000D+01           0.100000D+01
            D    1   1.00
                  0.550000D+00           0.100000D+01
            F    1   1.00
                  0.102000D+01           0.100000D+01
            ****
            -O     0
            S    7   1.00
                  0.147820D+05           0.535190D-03
                  0.221730D+04           0.413750D-02
                  0.504740D+03           0.212450D-01
                  0.142870D+03           0.824530D-01
                  0.463000D+02           0.236710D+00
                  0.163370D+02           0.440390D+00
                  0.598280D+01           0.364650D+00
            S    7   1.00
                  0.221730D+04          -0.192750D-05
                  0.504740D+03          -0.579640D-04
                  0.142870D+03          -0.794940D-03
                  0.463000D+02          -0.731250D-02
                  0.163370D+02          -0.405740D-01
                  0.598280D+01          -0.915940D-01
                  0.167180D+01           0.209400D+00
            S    1   1.00
                  0.646620D+00           0.100000D+01
            S    1   1.00
                  0.216690D+00           0.100000D+01
            P    4   1.00
                  0.604240D+02           0.689490D-02
                  0.139350D+02           0.490050D-01
                  0.415310D+01           0.182550D+00
                  0.141580D+01           0.376330D+00
            P    1   1.00
                  0.475490D+00           0.100000D+01
            P    1   1.00
                  0.145290D+00           0.100000D+01
            D    1   1.00
                  0.220000D+01           0.100000D+01
            D    1   1.00
                  0.650000D+00           0.100000D+01
            F    1   1.00
                  0.110000D+01           0.100000D+01
            ****
 Initial command:
 /public3/home/sc51754/softwares/g09e01/l1.exe "./Gau-13806.inp" -scrdir="./"
 Entering Link 1 = /public3/home/sc51754/softwares/g09e01/l1.exe PID=     13807.
  
 Copyright (c) 1988,1990,1992,1993,1995,1998,2003,2009,2015,
            Gaussian, Inc.  All Rights Reserved.
  
 This is part of the Gaussian(R) 09 program.  It is based on
 the Gaussian(R) 03 system (copyright 2003, Gaussian, Inc.),
 the Gaussian(R) 98 system (copyright 1998, Gaussian, Inc.),
 the Gaussian(R) 94 system (copyright 1995, Gaussian, Inc.),
 the Gaussian 92(TM) system (copyright 1992, Gaussian, Inc.),
 the Gaussian 90(TM) system (copyright 1990, Gaussian, Inc.),
 the Gaussian 88(TM) system (copyright 1988, Gaussian, Inc.),
 the Gaussian 86(TM) system (copyright 1986, Carnegie Mellon
 University), and the Gaussian 82(TM) system (copyright 1983,
 Carnegie Mellon University). Gaussian is a federally registered
 trademark of Gaussian, Inc.
  
 This software contains proprietary and confidential information,
 including trade secrets, belonging to Gaussian, Inc.
  
 This software is provided under written license and may be
 used, copied, transmitted, or stored only in accord with that
 written license.
  
 The following legend is applicable only to US Government
 contracts under FAR:
  
                    RESTRICTED RIGHTS LEGEND
  
 Use, reproduction and disclosure by the US Government is
 subject to restrictions as set forth in subparagraphs (a)
 and (c) of the Commercial Computer Software - Restricted
 Rights clause in FAR 52.227-19.
  
 Gaussian, Inc.
 340 Quinnipiac St., Bldg. 40, Wallingford CT 06492
  
  
 ---------------------------------------------------------------
 Warning -- This program may not be used in any manner that
 competes with the business of Gaussian, Inc. or will provide
 assistance to any competitor of Gaussian, Inc.  The licensee
 of this program is prohibited from giving any competitor of
 Gaussian, Inc. access to this program.  By using this program,
 the user acknowledges that Gaussian, Inc. is engaged in the
 business of creating and licensing software in the field of
 computational chemistry and represents and warrants to the
 licensee that it is not a competitor of Gaussian, Inc. and that
 it will not use this program in any manner prohibited above.
 ---------------------------------------------------------------
  

 Cite this work as:
 Gaussian 09, Revision E.01,
 M. J. Frisch, G. W. Trucks, H. B. Schlegel, G. E. Scuseria, 
 M. A. Robb, J. R. Cheeseman, G. Scalmani, V. Barone, B. Mennucci, 
 G. A. Petersson, H. Nakatsuji, M. Caricato, X. Li, H. P. Hratchian, 
 A. F. Izmaylov, J. Bloino, G. Zheng, J. L. Sonnenberg, M. Hada, 
 M. Ehara, K. Toyota, R. Fukuda, J. Hasegawa, M. Ishida, T. Nakajima, 
 Y. Honda, O. Kitao, H. Nakai, T. Vreven, J. A. Montgomery, Jr., 
 J. E. Peralta, F. Ogliaro, M. Bearpark, J. J. Heyd, E. Brothers, 
 K. N. Kudin, V. N. Staroverov, T. Keith, R. Kobayashi, J. Normand, 
 K. Raghavachari, A. Rendell, J. C. Burant, S. S. Iyengar, J. Tomasi, 
 M. Cossi, N. Rega, J. M. Millam, M. Klene, J. E. Knox, J. B. Cross, 
 V. Bakken, C. Adamo, J. Jaramillo, R. Gomperts, R. E. Stratmann, 
 O. Yazyev, A. J. Austin, R. Cammi, C. Pomelli, J. W. Ochterski, 
 R. L. Martin, K. Morokuma, V. G. Zakrzewski, G. A. Voth, 
 P. Salvador, J. J. Dannenberg, S. Dapprich, A. D. Daniels, 
 O. Farkas, J. B. Foresman, J. V. Ortiz, J. Cioslowski, 
 and D. J. Fox, Gaussian, Inc., Wallingford CT, 2013.
 
 ******************************************
 Gaussian 09:  EM64L-G09RevE.01 30-Nov-2015
                26-Aug-2021 
 ******************************************
 %nprocshared=64
 Will use up to   64 processors via shared memory.
 %mem=128GB
 %chk=PY_PBEPBE_PC2_OPT_FREQ.chk
 ----------------------
 #p opt freq PBEPBE/gen
 ----------------------
 1/14=-1,18=20,19=15,26=3,38=1/1,3;
 2/9=110,12=2,17=6,18=5,40=1/2;
 3/5=7,11=2,16=1,25=1,30=1,71=1,74=1009/1,2,3;
 4//1;
 5/5=2,38=5/2;
 6/7=2,8=2,9=2,10=2,28=1/1;
 7//1,2,3,16;
 1/14=-1,18=20,19=15,26=3/3(2);
 2/9=110/2;
 99//99;
 2/9=110/2;
 3/5=7,6=1,11=2,16=1,25=1,30=1,71=1,74=1009,82=7/1,2,3;
 4/5=5,16=3,69=1/1;
 5/5=2,38=5/2;
 7//1,2,3,16;
 1/14=-1,18=20,19=15,26=3/3(-5);
 2/9=110/2;
 6/7=2,8=2,9=2,10=2,19=2,28=1/1;
 99/9=1/99;
 Leave Link    1 at Thu Aug 26 23:58:36 2021, MaxMem= 17179869184 cpu:         3.1
 (Enter /public3/home/sc51754/softwares/g09e01/l101.exe)
 ----------------------
 PY_PBEPBE_PC2_OPT_FREQ
 ----------------------
 Symbolic Z-matrix:
 Charge =  0 Multiplicity = 1
 O                    -0.1303    2.2679    0. 
 N                    -1.13214   0.23327   0. 
 C                     0.        1.06201   0. 
 C                     1.23795   0.32011   0. 
 C                    -1.11441  -1.12189   0. 
 C                     1.25607  -1.03234   0. 
 C                     0.05856  -1.79159   0. 
 H                    -2.00762   0.73274   0. 
 H                     2.14422   0.90837   0. 
 H                    -2.07697  -1.61403   0. 
 H                     2.20675  -1.5513    0. 
 H                     0.072    -2.86964   0. 
 
 NAtoms=     12 NQM=       12 NQMF=       0 NMMI=      0 NMMIF=      0
                NMic=       0 NMicF=      0.
                    Isotopes and Nuclear Properties:
 (Nuclear quadrupole moments (NQMom) in fm**2, nuclear magnetic moments (NMagM)
  in nuclear magnetons)

  Atom         1           2           3           4           5           6           7           8           9          10
 IAtWgt=          16          14          12          12          12          12          12           1           1           1
 AtmWgt=  15.9949146  14.0030740  12.0000000  12.0000000  12.0000000  12.0000000  12.0000000   1.0078250   1.0078250   1.0078250
 NucSpn=           0           2           0           0           0           0           0           1           1           1
 AtZEff=   0.0000000   0.0000000   0.0000000   0.0000000   0.0000000   0.0000000   0.0000000   0.0000000   0.0000000   0.0000000
 NQMom=    0.0000000   2.0440000   0.0000000   0.0000000   0.0000000   0.0000000   0.0000000   0.0000000   0.0000000   0.0000000
 NMagM=    0.0000000   0.4037610   0.0000000   0.0000000   0.0000000   0.0000000   0.0000000   2.7928460   2.7928460   2.7928460
 AtZNuc=   8.0000000   7.0000000   6.0000000   6.0000000   6.0000000   6.0000000   6.0000000   1.0000000   1.0000000   1.0000000

  Atom        11          12
 IAtWgt=           1           1
 AtmWgt=   1.0078250   1.0078250
 NucSpn=           1           1
 AtZEff=   0.0000000   0.0000000
 NQMom=    0.0000000   0.0000000
 NMagM=    2.7928460   2.7928460
 AtZNuc=   1.0000000   1.0000000
 Leave Link  101 at Thu Aug 26 23:58:37 2021, MaxMem= 17179869184 cpu:         5.3
 (Enter /public3/home/sc51754/softwares/g09e01/l103.exe)

 GradGradGradGradGradGradGradGradGradGradGradGradGradGradGradGradGradGrad
 Berny optimization.
 Initialization pass.
                           ----------------------------
                           !    Initial Parameters    !
                           ! (Angstroms and Degrees)  !
 --------------------------                            --------------------------
 ! Name  Definition              Value          Derivative Info.                !
 --------------------------------------------------------------------------------
 ! R1    R(1,3)                  1.2129         estimate D2E/DX2                !
 ! R2    R(2,3)                  1.403          estimate D2E/DX2                !
 ! R3    R(2,5)                  1.3553         estimate D2E/DX2                !
 ! R4    R(2,8)                  1.0079         estimate D2E/DX2                !
 ! R5    R(3,4)                  1.4432         estimate D2E/DX2                !
 ! R6    R(4,6)                  1.3526         estimate D2E/DX2                !
 ! R7    R(4,9)                  1.0805         estimate D2E/DX2                !
 ! R8    R(5,7)                  1.3507         estimate D2E/DX2                !
 ! R9    R(5,10)                 1.0811         estimate D2E/DX2                !
 ! R10   R(6,7)                  1.4179         estimate D2E/DX2                !
 ! R11   R(6,11)                 1.0831         estimate D2E/DX2                !
 ! R12   R(7,12)                 1.0781         estimate D2E/DX2                !
 ! A1    A(3,2,5)              125.4546         estimate D2E/DX2                !
 ! A2    A(3,2,8)              114.0905         estimate D2E/DX2                !
 ! A3    A(5,2,8)              120.4549         estimate D2E/DX2                !
 ! A4    A(1,3,2)              120.0371         estimate D2E/DX2                !
 ! A5    A(1,3,4)              127.1013         estimate D2E/DX2                !
 ! A6    A(2,3,4)              112.8616         estimate D2E/DX2                !
 ! A7    A(3,4,6)              121.7019         estimate D2E/DX2                !
 ! A8    A(3,4,9)              116.0785         estimate D2E/DX2                !
 ! A9    A(6,4,9)              122.2196         estimate D2E/DX2                !
 ! A10   A(2,5,7)              120.4739         estimate D2E/DX2                !
 ! A11   A(2,5,10)             116.3305         estimate D2E/DX2                !
 ! A12   A(7,5,10)             123.1956         estimate D2E/DX2                !
 ! A13   A(4,6,7)              121.6078         estimate D2E/DX2                !
 ! A14   A(4,6,11)             119.3971         estimate D2E/DX2                !
 ! A15   A(7,6,11)             118.9951         estimate D2E/DX2                !
 ! A16   A(5,7,6)              117.9002         estimate D2E/DX2                !
 ! A17   A(5,7,12)             120.4381         estimate D2E/DX2                !
 ! A18   A(6,7,12)             121.6617         estimate D2E/DX2                !
 ! D1    D(5,2,3,1)            180.0            estimate D2E/DX2                !
 ! D2    D(5,2,3,4)              0.0            estimate D2E/DX2                !
 ! D3    D(8,2,3,1)              0.0            estimate D2E/DX2                !
 ! D4    D(8,2,3,4)            180.0            estimate D2E/DX2                !
 ! D5    D(3,2,5,7)              0.0            estimate D2E/DX2                !
 ! D6    D(3,2,5,10)           180.0            estimate D2E/DX2                !
 ! D7    D(8,2,5,7)            180.0            estimate D2E/DX2                !
 ! D8    D(8,2,5,10)             0.0            estimate D2E/DX2                !
 ! D9    D(1,3,4,6)            180.0            estimate D2E/DX2                !
 ! D10   D(1,3,4,9)              0.0            estimate D2E/DX2                !
 ! D11   D(2,3,4,6)              0.0            estimate D2E/DX2                !
 ! D12   D(2,3,4,9)            180.0            estimate D2E/DX2                !
 ! D13   D(3,4,6,7)              0.0            estimate D2E/DX2                !
 ! D14   D(3,4,6,11)           180.0            estimate D2E/DX2                !
 ! D15   D(9,4,6,7)            180.0            estimate D2E/DX2                !
 ! D16   D(9,4,6,11)             0.0            estimate D2E/DX2                !
 ! D17   D(2,5,7,6)              0.0            estimate D2E/DX2                !
 ! D18   D(2,5,7,12)           180.0            estimate D2E/DX2                !
 ! D19   D(10,5,7,6)           180.0            estimate D2E/DX2                !
 ! D20   D(10,5,7,12)            0.0            estimate D2E/DX2                !
 ! D21   D(4,6,7,5)              0.0            estimate D2E/DX2                !
 ! D22   D(4,6,7,12)           180.0            estimate D2E/DX2                !
 ! D23   D(11,6,7,5)           180.0            estimate D2E/DX2                !
 ! D24   D(11,6,7,12)            0.0            estimate D2E/DX2                !
 --------------------------------------------------------------------------------
 Trust Radius=3.00D-01 FncErr=1.00D-07 GrdErr=1.00D-06
 Number of steps in this run=     64 maximum allowed number of steps=    100.
 GradGradGradGradGradGradGradGradGradGradGradGradGradGradGradGradGradGrad

 Leave Link  103 at Thu Aug 26 23:58:37 2021, MaxMem= 17179869184 cpu:         0.1
 (Enter /public3/home/sc51754/softwares/g09e01/l202.exe)
                          Input orientation:                          
 ---------------------------------------------------------------------
 Center     Atomic      Atomic             Coordinates (Angstroms)
 Number     Number       Type             X           Y           Z
 ---------------------------------------------------------------------
      1          8           0       -0.130304    2.267896    0.000000
      2          7           0       -1.132141    0.233271    0.000000
      3          6           0        0.000000    1.062005    0.000000
      4          6           0        1.237945    0.320111    0.000000
      5          6           0       -1.114407   -1.121885    0.000000
      6          6           0        1.256071   -1.032342    0.000000
      7          6           0        0.058564   -1.791590    0.000000
      8          1           0       -2.007624    0.732742    0.000000
      9          1           0        2.144218    0.908369    0.000000
     10          1           0       -2.076968   -1.614034    0.000000
     11          1           0        2.206750   -1.551299    0.000000
     12          1           0        0.071999   -2.869636    0.000000
 ---------------------------------------------------------------------
                    Distance matrix (angstroms):
                    1          2          3          4          5
     1  O    0.000000
     2  N    2.267901   0.000000
     3  C    1.212911   1.403048   0.000000
     4  C    2.380330   2.371676   1.443231   0.000000
     5  C    3.529741   1.355272   2.451791   2.759151   0.000000
     6  C    3.579610   2.702838   2.442131   1.352574   2.372169
     7  C    4.063877   2.349008   2.854196   2.418723   1.350691
     8  H    2.425083   1.007939   2.034445   3.271694   2.058514
     9  H    2.649861   3.345188   2.149715   1.080453   3.839345
    10  H    4.342681   2.074906   3.387474   3.837912   1.081080
    11  H    4.477507   3.785879   3.420395   2.107311   3.348803
    12  H    5.141514   3.328361   3.932300   3.396162   2.112390
                    6          7          8          9         10
     6  C    0.000000
     7  C    1.417914   0.000000
     8  H    3.710421   3.262114   0.000000
     9  H    2.134283   3.411705   4.155555   0.000000
    10  H    3.383418   2.142901   2.347800   4.917411   0.000000
    11  H    1.083101   2.161583   4.793516   2.460463   4.284177
    12  H    2.185790   1.078130   4.159562   4.308992   2.488894
                   11         12
    11  H    0.000000
    12  H    2.509019   0.000000
 Stoichiometry    C5H5NO
 Framework group  CS[SG(C5H5NO)]
 Deg. of freedom    21
 Full point group                 CS      NOp   2
 Largest Abelian subgroup         CS      NOp   2
 Largest concise Abelian subgroup C1      NOp   1
                         Standard orientation:                         
 ---------------------------------------------------------------------
 Center     Atomic      Atomic             Coordinates (Angstroms)
 Number     Number       Type             X           Y           Z
 ---------------------------------------------------------------------
      1          8           0       -0.130304    2.267896    0.000000
      2          7           0       -1.132141    0.233271    0.000000
      3          6           0       -0.000000    1.062005    0.000000
      4          6           0        1.237945    0.320111   -0.000000
      5          6           0       -1.114407   -1.121885    0.000000
      6          6           0        1.256071   -1.032342   -0.000000
      7          6           0        0.058564   -1.791590   -0.000000
      8          1           0       -2.007624    0.732742    0.000000
      9          1           0        2.144218    0.908369   -0.000000
     10          1           0       -2.076968   -1.614034    0.000000
     11          1           0        2.206750   -1.551299   -0.000000
     12          1           0        0.071999   -2.869636   -0.000000
 ---------------------------------------------------------------------
 Rotational constants (GHZ):      5.7341355      2.8228169      1.8916098
 Leave Link  202 at Thu Aug 26 23:58:37 2021, MaxMem= 17179869184 cpu:         5.7
 (Enter /public3/home/sc51754/softwares/g09e01/l301.exe)
 General basis read from cards:  (5D, 7F)
 Centers:       8      9     10     11     12
 S 4 1.00
     Exponent=  7.5423000000D+01 Coefficients=  2.4065000000D-03
     Exponent=  1.1350000000D+01 Coefficients=  1.8487000000D-02
     Exponent=  2.5993000000D+00 Coefficients=  8.9742000000D-02
     Exponent=  7.3513000000D-01 Coefficients=  2.8111000000D-01
 S 1 1.00
     Exponent=  2.3167000000D-01 Coefficients=  1.0000000000D+00
 S 1 1.00
     Exponent=  7.4147000000D-02 Coefficients=  1.0000000000D+00
 P 1 1.00
     Exponent=  1.6000000000D+00 Coefficients=  1.0000000000D+00
 P 1 1.00
     Exponent=  4.5000000000D-01 Coefficients=  1.0000000000D+00
 D 1 1.00
     Exponent=  1.2500000000D+00 Coefficients=  1.0000000000D+00
 ****
 Centers:       3      4      5      6      7
 S 7 1.00
     Exponent=  7.8571000000D+03 Coefficients=  5.6825000000D-04
     Exponent=  1.1787000000D+03 Coefficients=  4.3915000000D-03
     Exponent=  2.6832000000D+02 Coefficients=  2.2504000000D-02
     Exponent=  7.5948000000D+01 Coefficients=  8.6653000000D-02
     Exponent=  2.4559000000D+01 Coefficients=  2.4405000000D-01
     Exponent=  8.6212000000D+00 Coefficients=  4.4148000000D-01
     Exponent=  3.1278000000D+00 Coefficients=  3.5332000000D-01
 S 7 1.00
     Exponent=  1.1787000000D+03 Coefficients= -5.9492000000D-07
     Exponent=  2.6832000000D+02 Coefficients= -6.2748000000D-05
     Exponent=  7.5948000000D+01 Coefficients= -7.5773000000D-04
     Exponent=  2.4559000000D+01 Coefficients= -7.3308000000D-03
     Exponent=  8.6212000000D+00 Coefficients= -3.8932000000D-02
     Exponent=  3.1278000000D+00 Coefficients= -8.8908000000D-02
     Exponent=  8.2202000000D-01 Coefficients=  2.1689000000D-01
 S 1 1.00
     Exponent=  3.3017000000D-01 Coefficients=  1.0000000000D+00
 S 1 1.00
     Exponent=  1.1463000000D-01 Coefficients=  1.0000000000D+00
 P 4 1.00
     Exponent=  3.3775000000D+01 Coefficients=  6.0294000000D-03
     Exponent=  7.6766000000D+00 Coefficients=  4.3228000000D-02
     Exponent=  2.2357000000D+00 Coefficients=  1.6301000000D-01
     Exponent=  7.6447000000D-01 Coefficients=  3.6504000000D-01
 P 1 1.00
     Exponent=  2.6232000000D-01 Coefficients=  1.0000000000D+00
 P 1 1.00
     Exponent=  8.4638000000D-02 Coefficients=  1.0000000000D+00
 D 1 1.00
     Exponent=  1.4000000000D+00 Coefficients=  1.0000000000D+00
 D 1 1.00
     Exponent=  4.5000000000D-01 Coefficients=  1.0000000000D+00
 F 1 1.00
     Exponent=  9.5000000000D-01 Coefficients=  1.0000000000D+00
 ****
 Centers:       2
 S 7 1.00
     Exponent=  1.1101000000D+04 Coefficients=  5.4570000000D-04
     Exponent=  1.6653000000D+03 Coefficients=  4.2181000000D-03
     Exponent=  3.7908000000D+02 Coefficients=  2.1645000000D-02
     Exponent=  1.0730000000D+02 Coefficients=  8.3776000000D-02
     Exponent=  3.4747000000D+01 Coefficients=  2.3881000000D-01
     Exponent=  1.2249000000D+01 Coefficients=  4.3994000000D-01
     Exponent=  4.4743000000D+00 Coefficients=  3.6364000000D-01
 S 7 1.00
     Exponent=  1.6653000000D+03 Coefficients= -1.5006000000D-06
     Exponent=  3.7908000000D+02 Coefficients= -5.8753000000D-05
     Exponent=  1.0730000000D+02 Coefficients= -7.7453000000D-04
     Exponent=  3.4747000000D+01 Coefficients= -7.2161000000D-03
     Exponent=  1.2249000000D+01 Coefficients= -3.9338000000D-02
     Exponent=  4.4743000000D+00 Coefficients= -9.0611000000D-02
     Exponent=  1.2404000000D+00 Coefficients=  1.9882000000D-01
 S 1 1.00
     Exponent=  4.8743000000D-01 Coefficients=  1.0000000000D+00
 S 1 1.00
     Exponent=  1.6484000000D-01 Coefficients=  1.0000000000D+00
 P 4 1.00
     Exponent=  4.7934000000D+01 Coefficients=  6.1706000000D-03
     Exponent=  1.0999000000D+01 Coefficients=  4.4260000000D-02
     Exponent=  3.2472000000D+00 Coefficients=  1.6825000000D-01
     Exponent=  1.1114000000D+00 Coefficients=  3.6848000000D-01
 P 1 1.00
     Exponent=  3.7988000000D-01 Coefficients=  1.0000000000D+00
 P 1 1.00
     Exponent=  1.2068000000D-01 Coefficients=  1.0000000000D+00
 D 1 1.00
     Exponent=  1.8000000000D+00 Coefficients=  1.0000000000D+00
 D 1 1.00
     Exponent=  5.5000000000D-01 Coefficients=  1.0000000000D+00
 F 1 1.00
     Exponent=  1.0200000000D+00 Coefficients=  1.0000000000D+00
 ****
 Centers:       1
 S 7 1.00
     Exponent=  1.4782000000D+04 Coefficients=  5.3519000000D-04
     Exponent=  2.2173000000D+03 Coefficients=  4.1375000000D-03
     Exponent=  5.0474000000D+02 Coefficients=  2.1245000000D-02
     Exponent=  1.4287000000D+02 Coefficients=  8.2453000000D-02
     Exponent=  4.6300000000D+01 Coefficients=  2.3671000000D-01
     Exponent=  1.6337000000D+01 Coefficients=  4.4039000000D-01
     Exponent=  5.9828000000D+00 Coefficients=  3.6465000000D-01
 S 7 1.00
     Exponent=  2.2173000000D+03 Coefficients= -1.9275000000D-06
     Exponent=  5.0474000000D+02 Coefficients= -5.7964000000D-05
     Exponent=  1.4287000000D+02 Coefficients= -7.9494000000D-04
     Exponent=  4.6300000000D+01 Coefficients= -7.3125000000D-03
     Exponent=  1.6337000000D+01 Coefficients= -4.0574000000D-02
     Exponent=  5.9828000000D+00 Coefficients= -9.1594000000D-02
     Exponent=  1.6718000000D+00 Coefficients=  2.0940000000D-01
 S 1 1.00
     Exponent=  6.4662000000D-01 Coefficients=  1.0000000000D+00
 S 1 1.00
     Exponent=  2.1669000000D-01 Coefficients=  1.0000000000D+00
 P 4 1.00
     Exponent=  6.0424000000D+01 Coefficients=  6.8949000000D-03
     Exponent=  1.3935000000D+01 Coefficients=  4.9005000000D-02
     Exponent=  4.1531000000D+00 Coefficients=  1.8255000000D-01
     Exponent=  1.4158000000D+00 Coefficients=  3.7633000000D-01
 P 1 1.00
     Exponent=  4.7549000000D-01 Coefficients=  1.0000000000D+00
 P 1 1.00
     Exponent=  1.4529000000D-01 Coefficients=  1.0000000000D+00
 D 1 1.00
     Exponent=  2.2000000000D+00 Coefficients=  1.0000000000D+00
 D 1 1.00
     Exponent=  6.5000000000D-01 Coefficients=  1.0000000000D+00
 F 1 1.00
     Exponent=  1.1000000000D+00 Coefficients=  1.0000000000D+00
 ****
 Ernie: Thresh=  0.10000D-02 Tol=  0.10000D-05 Strict=F.
 Ernie:  7 primitive shells out of 220 were deleted.
 There are   223 symmetry adapted cartesian basis functions of A'  symmetry.
 There are    97 symmetry adapted cartesian basis functions of A"  symmetry.
 There are   190 symmetry adapted basis functions of A'  symmetry.
 There are    90 symmetry adapted basis functions of A"  symmetry.
   280 basis functions,   475 primitive gaussians,   320 cartesian basis functions
    25 alpha electrons       25 beta electrons
       nuclear repulsion energy       276.8386644497 Hartrees.
 IExCor= 1009 DFT=T Ex=PBE Corr=PBE ExCW=0 ScaHFX=  0.000000
 ScaDFX=  1.000000  1.000000  1.000000  1.000000 ScalE2=  1.000000  1.000000
 IRadAn=      0 IRanWt=     -1 IRanGd=            0 ICorTp=0 IEmpDi=  4
 NAtoms=   12 NActive=   12 NUniq=   12 SFac= 1.00D+00 NAtFMM=   60 NAOKFM=F Big=F
 Integral buffers will be    131072 words long.
 Raffenetti 2 integral format.
 Two-electron integral symmetry is turned on.
 Leave Link  301 at Thu Aug 26 23:58:37 2021, MaxMem= 17179869184 cpu:         1.6
 (Enter /public3/home/sc51754/softwares/g09e01/l302.exe)
 NPDir=0 NMtPBC=     1 NCelOv=     1 NCel=       1 NClECP=     1 NCelD=      1
         NCelK=      1 NCelE2=     1 NClLst=     1 CellRange=     0.0.
 One-electron integrals computed using PRISM.
 NBasis=   280 RedAO= T EigKep=  2.29D-04  NBF=   190    90
 NBsUse=   280 1.00D-06 EigRej= -1.00D+00 NBFU=   190    90
 Precomputing XC quadrature grid using
 IXCGrd= 4 IRadAn=           0 IRanWt=          -1 IRanGd=           0 AccXCQ= 0.00D+00.
 Generated NRdTot=       0 NPtTot=           0 NUsed=           0 NTot=          32
 NSgBfM=   320   320   320   320   320 MxSgAt=    12 MxSgA2=    12.
 Leave Link  302 at Thu Aug 26 23:58:38 2021, MaxMem= 17179869184 cpu:        40.3
 (Enter /public3/home/sc51754/softwares/g09e01/l303.exe)
 DipDrv:  MaxL=1.
 Leave Link  303 at Thu Aug 26 23:58:38 2021, MaxMem= 17179869184 cpu:        11.3
 (Enter /public3/home/sc51754/softwares/g09e01/l401.exe)
 ExpMin= 7.41D-02 ExpMax= 1.48D+04 ExpMxC= 5.05D+02 IAcc=2 IRadAn=         4 AccDes= 0.00D+00
 Harris functional with IExCor= 1009 and IRadAn=       4 diagonalized for initial guess.
 HarFok:  IExCor= 1009 AccDes= 0.00D+00 IRadAn=         4 IDoV= 1 UseB2=F ITyADJ=14
 ICtDFT=  3500011 ScaDFX=  1.000000  1.000000  1.000000  1.000000
 FoFCou: FMM=F IPFlag=           0 FMFlag=      100000 FMFlg1=           0
         NFxFlg=           0 DoJE=T BraDBF=F KetDBF=T FulRan=T
         wScrn=  0.000000 ICntrl=     500 IOpCl=  0 I1Cent=   200000004 NGrid=           0
         NMat0=    1 NMatS0=      1 NMatT0=    0 NMatD0=    1 NMtDS0=    0 NMtDT0=    0
 Petite list used in FoFCou.
 Harris En= -323.391688734430    
 JPrj=0 DoOrth=F DoCkMO=F.
 Initial guess orbital symmetries:
       Occupied  (A') (A') (A') (A') (A') (A') (A') (A') (A') (A')
                 (A') (A') (A') (A') (A') (A') (A') (A') (A") (A')
                 (A') (A") (A") (A') (A")
       Virtual   (A") (A") (A') (A') (A") (A') (A') (A') (A') (A')
                 (A') (A') (A") (A') (A") (A') (A") (A') (A') (A')
                 (A') (A') (A") (A') (A") (A') (A') (A') (A') (A')
                 (A") (A') (A') (A') (A") (A') (A') (A') (A') (A')
                 (A') (A') (A") (A') (A') (A') (A") (A') (A") (A")
                 (A') (A") (A') (A') (A") (A') (A') (A') (A') (A")
                 (A') (A") (A') (A') (A") (A') (A") (A') (A") (A")
                 (A') (A') (A') (A") (A') (A") (A') (A") (A') (A')
                 (A") (A') (A") (A') (A") (A') (A') (A') (A") (A")
                 (A') (A') (A") (A') (A') (A') (A') (A") (A') (A')
                 (A') (A') (A") (A') (A') (A') (A") (A') (A') (A')
                 (A") (A') (A') (A') (A') (A') (A") (A') (A') (A")
                 (A') (A') (A") (A') (A') (A") (A") (A") (A') (A")
                 (A') (A') (A") (A') (A") (A') (A') (A") (A') (A')
                 (A') (A') (A") (A') (A") (A') (A') (A') (A') (A')
                 (A') (A") (A") (A") (A") (A') (A") (A") (A') (A")
                 (A') (A") (A') (A') (A") (A') (A') (A') (A') (A")
                 (A') (A") (A') (A") (A") (A') (A') (A") (A") (A")
                 (A') (A") (A') (A") (A") (A') (A') (A") (A') (A")
                 (A') (A") (A') (A") (A') (A") (A') (A') (A") (A')
                 (A') (A') (A") (A") (A') (A') (A") (A') (A') (A')
                 (A") (A') (A') (A") (A') (A") (A') (A") (A') (A')
                 (A") (A') (A") (A') (A") (A') (A') (A') (A") (A')
                 (A') (A') (A') (A") (A') (A") (A') (A') (A') (A')
                 (A') (A") (A') (A') (A') (A') (A') (A') (A') (A')
                 (A') (A') (A') (A') (A')
 The electronic state of the initial guess is 1-A'.
 Leave Link  401 at Thu Aug 26 23:58:39 2021, MaxMem= 17179869184 cpu:        52.4
 (Enter /public3/home/sc51754/softwares/g09e01/l502.exe)
 Closed shell SCF:
 Using DIIS extrapolation, IDIIS=  1040.
 Integral symmetry usage will be decided dynamically.
 Keep J ints in memory in symmetry-blocked form, NReq=1167802198.
 IVT=      348658 IEndB=      348658 NGot= 17179869184 MDV= 16785904737
 LenX= 16785904737 LenY= 16785801896
 Requested convergence on RMS density matrix=1.00D-08 within 128 cycles.
 Requested convergence on MAX density matrix=1.00D-06.
 Requested convergence on             energy=1.00D-06.
 No special actions if energy rises.
 FoFCou: FMM=F IPFlag=           0 FMFlag=           0 FMFlg1=           0
         NFxFlg=           0 DoJE=F BraDBF=F KetDBF=F FulRan=T
         wScrn=  0.000000 ICntrl=     600 IOpCl=  0 I1Cent=           0 NGrid=           0
         NMat0=    1 NMatS0=  39340 NMatT0=    0 NMatD0=    1 NMtDS0=    0 NMtDT0=    0
 Petite list used in FoFCou.
 Integral accuracy reduced to 1.0D-05 until final iterations.

 Cycle   1  Pass 0  IDiag  1:
 E= -323.087261457866    
 DIIS: error= 2.64D-02 at cycle   1 NSaved=   1.
 NSaved= 1 IEnMin= 1 EnMin= -323.087261457866     IErMin= 1 ErrMin= 2.64D-02
 ErrMax= 2.64D-02  0.00D+00 EMaxC= 1.00D-01 BMatC= 1.99D-01 BMatP= 1.99D-01
 IDIUse=3 WtCom= 7.36D-01 WtEn= 2.64D-01
 Coeff-Com:  0.100D+01
 Coeff-En:   0.100D+01
 Coeff:      0.100D+01
 Gap=     0.037 Goal=   None    Shift=    0.000
 GapD=    0.037 DampG=0.250 DampE=0.500 DampFc=0.2500 IDamp=-1.
 Damping current iteration by 2.50D-01
 RMSDP=6.38D-03 MaxDP=3.31D-01              OVMax= 5.16D-01

 Cycle   2  Pass 0  IDiag  1:
 E= -323.130690808495     Delta-E=       -0.043429350630 Rises=F Damp=T
 DIIS: error= 1.36D-02 at cycle   2 NSaved=   2.
 NSaved= 2 IEnMin= 2 EnMin= -323.130690808495     IErMin= 2 ErrMin= 1.36D-02
 ErrMax= 1.36D-02  0.00D+00 EMaxC= 1.00D-01 BMatC= 2.81D-02 BMatP= 1.99D-01
 IDIUse=3 WtCom= 8.64D-01 WtEn= 1.36D-01
 Coeff-Com: -0.133D+00 0.113D+01
 Coeff-En:   0.263D+00 0.737D+00
 Coeff:     -0.791D-01 0.108D+01
 Gap=     0.107 Goal=   None    Shift=    0.000
 RMSDP=1.58D-03 MaxDP=7.57D-02 DE=-4.34D-02 OVMax= 4.91D-01

 Cycle   3  Pass 0  IDiag  1:
 E= -323.175492683545     Delta-E=       -0.044801875050 Rises=F Damp=F
 DIIS: error= 2.04D-02 at cycle   3 NSaved=   3.
 NSaved= 3 IEnMin= 3 EnMin= -323.175492683545     IErMin= 2 ErrMin= 1.36D-02
 ErrMax= 2.04D-02  0.00D+00 EMaxC= 1.00D-01 BMatC= 9.77D-02 BMatP= 2.81D-02
 IDIUse=2 WtCom= 0.00D+00 WtEn= 1.00D+00
 EnCoef did     4 forward-backward iterations
 Coeff-En:   0.262D-01 0.310D+00 0.663D+00
 Coeff:      0.262D-01 0.310D+00 0.663D+00
 Gap=     0.054 Goal=   None    Shift=    0.000
 RMSDP=2.72D-03 MaxDP=1.18D-01 DE=-4.48D-02 OVMax= 4.82D-01

 Cycle   4  Pass 0  IDiag  1:
 E= -322.906675957876     Delta-E=        0.268816725669 Rises=F Damp=F
 DIIS: error= 4.66D-02 at cycle   4 NSaved=   4.
 NSaved= 4 IEnMin= 3 EnMin= -323.175492683545     IErMin= 2 ErrMin= 1.36D-02
 ErrMax= 4.66D-02  0.00D+00 EMaxC= 1.00D-01 BMatC= 4.03D-01 BMatP= 2.81D-02
 IDIUse=2 WtCom= 0.00D+00 WtEn= 1.00D+00
 EnCoef did     2 forward-backward iterations
 Coeff-En:   0.262D-01 0.000D+00 0.697D+00 0.277D+00
 Coeff:      0.262D-01 0.000D+00 0.697D+00 0.277D+00
 Gap=     0.107 Goal=   None    Shift=    0.000
 RMSDP=1.81D-03 MaxDP=7.56D-02 DE= 2.69D-01 OVMax= 2.81D-01

 Cycle   5  Pass 0  IDiag  1:
 E= -323.251476712268     Delta-E=       -0.344800754392 Rises=F Damp=F
 DIIS: error= 1.02D-02 at cycle   5 NSaved=   5.
 NSaved= 5 IEnMin= 5 EnMin= -323.251476712268     IErMin= 5 ErrMin= 1.02D-02
 ErrMax= 1.02D-02  0.00D+00 EMaxC= 1.00D-01 BMatC= 2.02D-02 BMatP= 2.81D-02
 IDIUse=3 WtCom= 8.98D-01 WtEn= 1.02D-01
 Coeff-Com: -0.141D+00 0.296D+00 0.321D+00-0.348D-02 0.528D+00
 Coeff-En:   0.000D+00 0.000D+00 0.225D+00 0.000D+00 0.775D+00
 Coeff:     -0.127D+00 0.266D+00 0.311D+00-0.312D-02 0.553D+00
 Gap=     0.125 Goal=   None    Shift=    0.000
 RMSDP=4.26D-04 MaxDP=1.81D-02 DE=-3.45D-01 OVMax= 7.46D-02

 Cycle   6  Pass 0  IDiag  1:
 E= -323.270508534748     Delta-E=       -0.019031822480 Rises=F Damp=F
 DIIS: error= 2.68D-03 at cycle   6 NSaved=   6.
 NSaved= 6 IEnMin= 6 EnMin= -323.270508534748     IErMin= 6 ErrMin= 2.68D-03
 ErrMax= 2.68D-03  0.00D+00 EMaxC= 1.00D-01 BMatC= 1.41D-03 BMatP= 2.02D-02
 IDIUse=3 WtCom= 9.73D-01 WtEn= 2.68D-02
 Coeff-Com: -0.120D+00 0.191D+00 0.142D+00-0.397D-01 0.390D+00 0.436D+00
 Coeff-En:   0.000D+00 0.000D+00 0.000D+00 0.000D+00 0.000D+00 0.100D+01
 Coeff:     -0.117D+00 0.186D+00 0.139D+00-0.386D-01 0.380D+00 0.452D+00
 Gap=     0.124 Goal=   None    Shift=    0.000
 RMSDP=1.09D-04 MaxDP=4.40D-03 DE=-1.90D-02 OVMax= 1.81D-02

 Cycle   7  Pass 0  IDiag  1:
 E= -323.271837415891     Delta-E=       -0.001328881143 Rises=F Damp=F
 DIIS: error= 6.63D-04 at cycle   7 NSaved=   7.
 NSaved= 7 IEnMin= 7 EnMin= -323.271837415891     IErMin= 7 ErrMin= 6.63D-04
 ErrMax= 6.63D-04  0.00D+00 EMaxC= 1.00D-01 BMatC= 1.35D-04 BMatP= 1.41D-03
 IDIUse=3 WtCom= 9.93D-01 WtEn= 6.63D-03
 Coeff-Com: -0.685D-01 0.980D-01 0.691D-01-0.215D-01 0.214D+00 0.300D+00
 Coeff-Com:  0.408D+00
 Coeff-En:   0.000D+00 0.000D+00 0.000D+00 0.000D+00 0.000D+00 0.000D+00
 Coeff-En:   0.100D+01
 Coeff:     -0.680D-01 0.974D-01 0.687D-01-0.214D-01 0.213D+00 0.298D+00
 Coeff:      0.412D+00
 Gap=     0.123 Goal=   None    Shift=    0.000
 RMSDP=4.09D-05 MaxDP=1.24D-03 DE=-1.33D-03 OVMax= 7.30D-03

 Cycle   8  Pass 0  IDiag  1:
 E= -323.271946800590     Delta-E=       -0.000109384700 Rises=F Damp=F
 DIIS: error= 2.67D-04 at cycle   8 NSaved=   8.
 NSaved= 8 IEnMin= 8 EnMin= -323.271946800590     IErMin= 8 ErrMin= 2.67D-04
 ErrMax= 2.67D-04  0.00D+00 EMaxC= 1.00D-01 BMatC= 1.92D-05 BMatP= 1.35D-04
 IDIUse=3 WtCom= 9.97D-01 WtEn= 2.67D-03
 Coeff-Com: -0.903D-02 0.795D-02-0.564D-03 0.640D-03 0.119D-01 0.479D-01
 Coeff-Com:  0.254D+00 0.687D+00
 Coeff-En:   0.000D+00 0.000D+00 0.000D+00 0.000D+00 0.000D+00 0.000D+00
 Coeff-En:   0.539D-01 0.946D+00
 Coeff:     -0.900D-02 0.793D-02-0.562D-03 0.638D-03 0.119D-01 0.478D-01
 Coeff:      0.253D+00 0.688D+00
 Gap=     0.123 Goal=   None    Shift=    0.000
 RMSDP=1.62D-05 MaxDP=7.20D-04 DE=-1.09D-04 OVMax= 3.46D-03

 Cycle   9  Pass 0  IDiag  1:
 E= -323.271965199021     Delta-E=       -0.000018398431 Rises=F Damp=F
 DIIS: error= 1.23D-04 at cycle   9 NSaved=   9.
 NSaved= 9 IEnMin= 9 EnMin= -323.271965199021     IErMin= 9 ErrMin= 1.23D-04
 ErrMax= 1.23D-04  0.00D+00 EMaxC= 1.00D-01 BMatC= 1.89D-06 BMatP= 1.92D-05
 IDIUse=3 WtCom= 9.99D-01 WtEn= 1.23D-03
 Coeff-Com: -0.306D-02 0.274D-02-0.294D-02 0.906D-03-0.200D-02 0.144D-01
 Coeff-Com:  0.117D+00 0.412D+00 0.461D+00
 Coeff-En:   0.000D+00 0.000D+00 0.000D+00 0.000D+00 0.000D+00 0.000D+00
 Coeff-En:   0.000D+00 0.533D-01 0.947D+00
 Coeff:     -0.305D-02 0.274D-02-0.294D-02 0.905D-03-0.199D-02 0.144D-01
 Coeff:      0.117D+00 0.411D+00 0.462D+00
 Gap=     0.123 Goal=   None    Shift=    0.000
 RMSDP=5.35D-06 MaxDP=2.59D-04 DE=-1.84D-05 OVMax= 9.51D-04

 Initial convergence to 1.0D-05 achieved.  Increase integral accuracy.
 Cycle  10  Pass 1  IDiag  1:
 E= -323.271924096096     Delta-E=        0.000041102925 Rises=F Damp=F
 DIIS: error= 5.94D-05 at cycle   1 NSaved=   1.
 NSaved= 1 IEnMin= 1 EnMin= -323.271924096096     IErMin= 1 ErrMin= 5.94D-05
 ErrMax= 5.94D-05  0.00D+00 EMaxC= 1.00D-01 BMatC= 5.16D-07 BMatP= 5.16D-07
 IDIUse=1 WtCom= 1.00D+00 WtEn= 0.00D+00
 Coeff-Com:  0.100D+01
 Coeff:      0.100D+01
 Gap=     0.123 Goal=   None    Shift=    0.000
 RMSDP=5.35D-06 MaxDP=2.59D-04 DE= 4.11D-05 OVMax= 1.18D-03

 Cycle  11  Pass 1  IDiag  1:
 E= -323.271921819367     Delta-E=        0.000002276730 Rises=F Damp=F
 DIIS: error= 1.73D-04 at cycle   2 NSaved=   2.
 NSaved= 2 IEnMin= 1 EnMin= -323.271924096096     IErMin= 1 ErrMin= 5.94D-05
 ErrMax= 1.73D-04  0.00D+00 EMaxC= 1.00D-01 BMatC= 2.48D-06 BMatP= 5.16D-07
 IDIUse=3 WtCom= 4.32D-01 WtEn= 5.68D-01
 Coeff-Com:  0.703D+00 0.297D+00
 Coeff-En:   0.785D+00 0.215D+00
 Coeff:      0.750D+00 0.250D+00
 Gap=     0.123 Goal=   None    Shift=    0.000
 RMSDP=4.50D-06 MaxDP=1.86D-04 DE= 2.28D-06 OVMax= 8.25D-04

 Cycle  12  Pass 1  IDiag  1:
 E= -323.271924692797     Delta-E=       -0.000002873430 Rises=F Damp=F
 DIIS: error= 1.36D-05 at cycle   3 NSaved=   3.
 NSaved= 3 IEnMin= 3 EnMin= -323.271924692797     IErMin= 3 ErrMin= 1.36D-05
 ErrMax= 1.36D-05  0.00D+00 EMaxC= 1.00D-01 BMatC= 3.51D-08 BMatP= 5.16D-07
 IDIUse=1 WtCom= 1.00D+00 WtEn= 0.00D+00
 Coeff-Com:  0.208D+00 0.341D-01 0.758D+00
 Coeff:      0.208D+00 0.341D-01 0.758D+00
 Gap=     0.123 Goal=   None    Shift=    0.000
 RMSDP=9.60D-07 MaxDP=4.29D-05 DE=-2.87D-06 OVMax= 1.04D-04

 Cycle  13  Pass 1  IDiag  1:
 E= -323.271924676253     Delta-E=        0.000000016544 Rises=F Damp=F
 DIIS: error= 1.80D-05 at cycle   4 NSaved=   4.
 NSaved= 4 IEnMin= 3 EnMin= -323.271924692797     IErMin= 3 ErrMin= 1.36D-05
 ErrMax= 1.80D-05  0.00D+00 EMaxC= 1.00D-01 BMatC= 6.14D-08 BMatP= 3.51D-08
 IDIUse=1 WtCom= 1.00D+00 WtEn= 0.00D+00
 Coeff-Com:  0.385D-01-0.264D-01 0.622D+00 0.366D+00
 Coeff:      0.385D-01-0.264D-01 0.622D+00 0.366D+00
 Gap=     0.123 Goal=   None    Shift=    0.000
 RMSDP=7.19D-07 MaxDP=4.07D-05 DE= 1.65D-08 OVMax= 1.03D-04

 Cycle  14  Pass 1  IDiag  1:
 E= -323.271924721668     Delta-E=       -0.000000045415 Rises=F Damp=F
 DIIS: error= 3.93D-06 at cycle   5 NSaved=   5.
 NSaved= 5 IEnMin= 5 EnMin= -323.271924721668     IErMin= 5 ErrMin= 3.93D-06
 ErrMax= 3.93D-06  0.00D+00 EMaxC= 1.00D-01 BMatC= 5.16D-09 BMatP= 3.51D-08
 IDIUse=1 WtCom= 1.00D+00 WtEn= 0.00D+00
 Coeff-Com: -0.561D-03-0.242D-01 0.343D+00 0.260D+00 0.421D+00
 Coeff:     -0.561D-03-0.242D-01 0.343D+00 0.260D+00 0.421D+00
 Gap=     0.123 Goal=   None    Shift=    0.000
 RMSDP=2.31D-07 MaxDP=9.30D-06 DE=-4.54D-08 OVMax= 2.77D-05

 Cycle  15  Pass 1  IDiag  1:
 E= -323.271924725826     Delta-E=       -0.000000004158 Rises=F Damp=F
 DIIS: error= 7.04D-07 at cycle   6 NSaved=   6.
 NSaved= 6 IEnMin= 6 EnMin= -323.271924725826     IErMin= 6 ErrMin= 7.04D-07
 ErrMax= 7.04D-07  0.00D+00 EMaxC= 1.00D-01 BMatC= 1.45D-10 BMatP= 5.16D-09
 IDIUse=1 WtCom= 1.00D+00 WtEn= 0.00D+00
 Coeff-Com: -0.216D-02-0.115D-01 0.148D+00 0.117D+00 0.231D+00 0.518D+00
 Coeff:     -0.216D-02-0.115D-01 0.148D+00 0.117D+00 0.231D+00 0.518D+00
 Gap=     0.123 Goal=   None    Shift=    0.000
 RMSDP=4.37D-08 MaxDP=2.29D-06 DE=-4.16D-09 OVMax= 6.11D-06

 Cycle  16  Pass 1  IDiag  1:
 E= -323.271924725971     Delta-E=       -0.000000000146 Rises=F Damp=F
 DIIS: error= 2.86D-07 at cycle   7 NSaved=   7.
 NSaved= 7 IEnMin= 7 EnMin= -323.271924725971     IErMin= 7 ErrMin= 2.86D-07
 ErrMax= 2.86D-07  0.00D+00 EMaxC= 1.00D-01 BMatC= 1.80D-11 BMatP= 1.45D-10
 IDIUse=1 WtCom= 1.00D+00 WtEn= 0.00D+00
 Coeff-Com: -0.149D-02-0.677D-02 0.848D-01 0.671D-01 0.133D+00 0.338D+00
 Coeff-Com:  0.385D+00
 Coeff:     -0.149D-02-0.677D-02 0.848D-01 0.671D-01 0.133D+00 0.338D+00
 Coeff:      0.385D+00
 Gap=     0.123 Goal=   None    Shift=    0.000
 RMSDP=1.49D-08 MaxDP=6.45D-07 DE=-1.46D-10 OVMax= 3.05D-06

 Cycle  17  Pass 1  IDiag  1:
 E= -323.271924725978     Delta-E=       -0.000000000007 Rises=F Damp=F
 DIIS: error= 1.10D-07 at cycle   8 NSaved=   8.
 NSaved= 8 IEnMin= 8 EnMin= -323.271924725978     IErMin= 8 ErrMin= 1.10D-07
 ErrMax= 1.10D-07  0.00D+00 EMaxC= 1.00D-01 BMatC= 2.03D-12 BMatP= 1.80D-11
 IDIUse=1 WtCom= 1.00D+00 WtEn= 0.00D+00
 Coeff-Com: -0.552D-03-0.230D-02 0.278D-01 0.219D-01 0.440D-01 0.131D+00
 Coeff-Com:  0.264D+00 0.514D+00
 Coeff:     -0.552D-03-0.230D-02 0.278D-01 0.219D-01 0.440D-01 0.131D+00
 Coeff:      0.264D+00 0.514D+00
 Gap=     0.123 Goal=   None    Shift=    0.000
 RMSDP=5.27D-09 MaxDP=2.18D-07 DE=-6.59D-12 OVMax= 1.13D-06

 SCF Done:  E(RPBE-PBE) =  -323.271924726     A.U. after   17 cycles
            NFock= 17  Conv=0.53D-08     -V/T= 2.0025
 KE= 3.224814702949D+02 PE=-1.308770868280D+03 EE= 3.861788088089D+02
 Leave Link  502 at Thu Aug 26 23:58:47 2021, MaxMem= 17179869184 cpu:       252.4
 (Enter /public3/home/sc51754/softwares/g09e01/l601.exe)
 Copying SCF densities to generalized density rwf, IOpCl= 0 IROHF=0.

 **********************************************************************

            Population analysis using the SCF density.

 **********************************************************************

 Orbital symmetries:
       Occupied  (A') (A') (A') (A') (A') (A') (A') (A') (A') (A')
                 (A') (A') (A') (A') (A') (A') (A') (A") (A') (A')
                 (A') (A") (A") (A') (A")
       Virtual   (A") (A") (A') (A') (A') (A') (A') (A") (A') (A')
                 (A") (A') (A') (A") (A') (A") (A') (A') (A') (A')
                 (A") (A') (A") (A') (A') (A') (A') (A') (A') (A')
                 (A") (A') (A') (A') (A") (A') (A') (A') (A') (A')
                 (A') (A') (A") (A') (A') (A') (A") (A') (A") (A")
                 (A') (A") (A') (A') (A") (A') (A') (A') (A') (A")
                 (A') (A") (A') (A") (A') (A') (A') (A") (A') (A")
                 (A") (A') (A') (A") (A') (A") (A') (A") (A') (A')
                 (A") (A') (A') (A") (A") (A') (A') (A') (A") (A")
                 (A') (A') (A") (A') (A') (A') (A') (A") (A') (A')
                 (A') (A') (A') (A") (A') (A') (A") (A') (A') (A')
                 (A") (A') (A') (A') (A') (A') (A") (A') (A') (A")
                 (A') (A') (A') (A") (A') (A") (A") (A") (A") (A')
                 (A') (A") (A') (A') (A") (A') (A") (A') (A') (A')
                 (A') (A') (A") (A') (A') (A") (A') (A') (A') (A')
                 (A') (A") (A") (A") (A") (A") (A') (A") (A') (A")
                 (A') (A") (A') (A') (A") (A') (A') (A') (A') (A")
                 (A") (A') (A') (A") (A") (A') (A') (A") (A") (A")
                 (A') (A") (A') (A") (A") (A') (A") (A') (A') (A")
                 (A') (A") (A') (A") (A') (A") (A') (A') (A") (A')
                 (A') (A') (A") (A") (A') (A') (A") (A') (A') (A')
                 (A") (A') (A") (A') (A") (A') (A") (A') (A') (A')
                 (A") (A') (A") (A") (A') (A') (A') (A") (A') (A')
                 (A') (A') (A') (A") (A') (A') (A') (A") (A') (A')
                 (A') (A") (A') (A') (A') (A') (A') (A') (A') (A')
                 (A') (A') (A') (A') (A')
 The electronic state is 1-A'.
 Alpha  occ. eigenvalues --  -18.70557 -14.04515  -9.97563  -9.94735  -9.91024
 Alpha  occ. eigenvalues --   -9.89733  -9.89305  -0.95676  -0.88480  -0.75434
 Alpha  occ. eigenvalues --   -0.69593  -0.59922  -0.58491  -0.51642  -0.46205
 Alpha  occ. eigenvalues --   -0.44199  -0.41798  -0.40388  -0.38002  -0.34779
 Alpha  occ. eigenvalues --   -0.33571  -0.31583  -0.28513  -0.21364  -0.20337
 Alpha virt. eigenvalues --   -0.08006  -0.02909  -0.01392   0.01363   0.02813
 Alpha virt. eigenvalues --    0.05388   0.06434   0.08218   0.10369   0.12561
 Alpha virt. eigenvalues --    0.12836   0.13584   0.15266   0.16909   0.16953
 Alpha virt. eigenvalues --    0.18423   0.20242   0.20865   0.23806   0.24185
 Alpha virt. eigenvalues --    0.24474   0.25587   0.26342   0.26896   0.28371
 Alpha virt. eigenvalues --    0.28881   0.30874   0.31563   0.34902   0.37388
 Alpha virt. eigenvalues --    0.37892   0.39439   0.41664   0.43362   0.44620
 Alpha virt. eigenvalues --    0.45829   0.47287   0.48973   0.52776   0.55427
 Alpha virt. eigenvalues --    0.56896   0.58052   0.59468   0.60836   0.62969
 Alpha virt. eigenvalues --    0.66748   0.70793   0.71231   0.72822   0.75264
 Alpha virt. eigenvalues --    0.77302   0.78746   0.85119   0.86687   0.86902
 Alpha virt. eigenvalues --    0.89752   0.91306   0.93567   0.94826   1.00479
 Alpha virt. eigenvalues --    1.03082   1.04894   1.04985   1.08097   1.08797
 Alpha virt. eigenvalues --    1.09959   1.12705   1.12714   1.14952   1.18129
 Alpha virt. eigenvalues --    1.18721   1.19908   1.20377   1.21920   1.22579
 Alpha virt. eigenvalues --    1.27936   1.31475   1.33959   1.35524   1.38181
 Alpha virt. eigenvalues --    1.38575   1.41802   1.43261   1.44147   1.48369
 Alpha virt. eigenvalues --    1.50710   1.53196   1.56137   1.58728   1.59616
 Alpha virt. eigenvalues --    1.60459   1.62633   1.64355   1.65863   1.68813
 Alpha virt. eigenvalues --    1.72510   1.74054   1.78562   1.79061   1.82983
 Alpha virt. eigenvalues --    1.85031   1.89270   1.92865   1.93479   1.93973
 Alpha virt. eigenvalues --    1.99545   1.99679   2.06371   2.07938   2.13452
 Alpha virt. eigenvalues --    2.14197   2.16495   2.19037   2.20512   2.23383
 Alpha virt. eigenvalues --    2.28375   2.41972   2.53468   2.55786   2.77464
 Alpha virt. eigenvalues --    2.78540   2.81692   2.84722   2.85613   3.06811
 Alpha virt. eigenvalues --    3.08485   3.11912   3.13045   3.15074   3.15421
 Alpha virt. eigenvalues --    3.18280   3.22555   3.23456   3.26341   3.29335
 Alpha virt. eigenvalues --    3.33253   3.37936   3.40866   3.45500   3.47289
 Alpha virt. eigenvalues --    3.50146   3.53234   3.56782   3.57642   3.59007
 Alpha virt. eigenvalues --    3.59678   3.62436   3.68704   3.76360   3.78332
 Alpha virt. eigenvalues --    3.81984   3.84343   3.86245   3.87143   3.89932
 Alpha virt. eigenvalues --    3.91209   3.92954   3.94364   3.97455   3.99104
 Alpha virt. eigenvalues --    4.00383   4.03875   4.05227   4.05700   4.08210
 Alpha virt. eigenvalues --    4.11358   4.12297   4.13507   4.14985   4.15193
 Alpha virt. eigenvalues --    4.17378   4.17915   4.18549   4.20438   4.22884
 Alpha virt. eigenvalues --    4.23134   4.24489   4.25119   4.26594   4.31100
 Alpha virt. eigenvalues --    4.32018   4.36258   4.36925   4.38367   4.39307
 Alpha virt. eigenvalues --    4.40694   4.42547   4.42968   4.47250   4.49017
 Alpha virt. eigenvalues --    4.49427   4.50555   4.53504   4.54733   4.59309
 Alpha virt. eigenvalues --    4.63346   4.65839   4.68855   4.75181   4.76324
 Alpha virt. eigenvalues --    4.78610   4.83138   4.83213   4.87364   4.88776
 Alpha virt. eigenvalues --    4.93422   4.98883   5.03205   5.07841   5.09390
 Alpha virt. eigenvalues --    5.12907   5.16350   5.22287   5.22365   5.24242
 Alpha virt. eigenvalues --    5.25808   5.29964   5.30833   5.32774   5.37095
 Alpha virt. eigenvalues --    5.38330   5.45068   5.47940   5.48848   5.49164
 Alpha virt. eigenvalues --    5.54727   5.59946   5.62863   5.63162   5.68554
 Alpha virt. eigenvalues --    5.73639   5.81477   5.86018   5.87539   5.96615
 Alpha virt. eigenvalues --    5.99520   6.01079   6.03877   6.10167   6.17711
 Alpha virt. eigenvalues --    6.27075   6.39716   6.41172   6.48289   6.68982
 Alpha virt. eigenvalues --    6.84821   6.86629   7.14359   9.43497  12.14534
 Alpha virt. eigenvalues --   13.01207  14.49586  17.59637  18.04147  22.49212
          Condensed to atoms (all electrons):
               1          2          3          4          5          6
     1  O    7.966474  -0.128408   0.639795  -0.078371   0.004783   0.007120
     2  N   -0.128408   6.406973   0.332976  -0.043895   0.396728  -0.018069
     3  C    0.639795   0.332976   4.395623   0.410097  -0.036682  -0.026670
     4  C   -0.078371  -0.043895   0.410097   4.999647  -0.050075   0.524106
     5  C    0.004783   0.396728  -0.036682  -0.050075   4.622284  -0.076677
     6  C    0.007120  -0.018069  -0.026670   0.524106  -0.076677   4.758446
     7  C    0.000864  -0.065181  -0.020702  -0.059855   0.614163   0.458097
     8  H    0.019658   0.374510  -0.025149   0.017908  -0.028153  -0.004654
     9  H    0.008248   0.008657  -0.044297   0.431961  -0.000006  -0.033470
    10  H   -0.001563  -0.032330   0.000622  -0.004879   0.408568   0.009736
    11  H   -0.000721  -0.002259   0.005171  -0.027797   0.008858   0.407652
    12  H    0.000032   0.005473  -0.000003   0.007081  -0.030761  -0.028526
               7          8          9         10         11         12
     1  O    0.000864   0.019658   0.008248  -0.001563  -0.000721   0.000032
     2  N   -0.065181   0.374510   0.008657  -0.032330  -0.002259   0.005473
     3  C   -0.020702  -0.025149  -0.044297   0.000622   0.005171  -0.000003
     4  C   -0.059855   0.017908   0.431961  -0.004879  -0.027797   0.007081
     5  C    0.614163  -0.028153  -0.000006   0.408568   0.008858  -0.030761
     6  C    0.458097  -0.004654  -0.033470   0.009736   0.407652  -0.028526
     7  C    4.828702   0.008502   0.007266  -0.030382  -0.034533   0.427517
     8  H    0.008502   0.501179  -0.000787  -0.015275   0.000500  -0.000423
     9  H    0.007266  -0.000787   0.578287   0.000469  -0.009435  -0.000309
    10  H   -0.030382  -0.015275   0.000469   0.608191  -0.000997  -0.004225
    11  H   -0.034533   0.000500  -0.009435  -0.000997   0.601927  -0.005794
    12  H    0.427517  -0.000423  -0.000309  -0.004225  -0.005794   0.580658
 Mulliken charges:
               1
     1  O   -0.437912
     2  N   -0.235174
     3  C    0.369218
     4  C   -0.125927
     5  C    0.166970
     6  C    0.022908
     7  C   -0.134457
     8  H    0.152186
     9  H    0.053417
    10  H    0.062065
    11  H    0.057429
    12  H    0.049278
 Sum of Mulliken charges =  -0.00000
 Mulliken charges with hydrogens summed into heavy atoms:
               1
     1  O   -0.437912
     2  N   -0.082988
     3  C    0.369218
     4  C   -0.072511
     5  C    0.229035
     6  C    0.080338
     7  C   -0.085179
 Electronic spatial extent (au):  <R**2>=            625.7773
 Charge=             -0.0000 electrons
 Dipole moment (field-independent basis, Debye):
    X=             -1.2251    Y=             -3.9618    Z=             -0.0000  Tot=              4.1469
 Quadrupole moment (field-independent basis, Debye-Ang):
   XX=            -31.8867   YY=            -47.4336   ZZ=            -42.9409
   XY=              0.1578   XZ=              0.0000   YZ=             -0.0000
 Traceless Quadrupole moment (field-independent basis, Debye-Ang):
   XX=              8.8670   YY=             -6.6798   ZZ=             -2.1872
   XY=              0.1578   XZ=              0.0000   YZ=             -0.0000
 Octapole moment (field-independent basis, Debye-Ang**2):
  XXX=            -11.2346  YYY=            -28.6545  ZZZ=              0.0000  XYY=             -0.1612
  XXY=              1.4234  XXZ=              0.0000  XZZ=             -2.1187  YZZ=              5.4058
  YYZ=             -0.0000  XYZ=              0.0000
 Hexadecapole moment (field-independent basis, Debye-Ang**3):
 XXXX=           -240.9282 YYYY=           -537.7177 ZZZZ=            -46.8419 XXXY=              2.7119
 XXXZ=              0.0000 YYYX=              7.8865 YYYZ=             -0.0000 ZZZX=              0.0000
 ZZZY=             -0.0000 XXYY=           -118.1009 XXZZ=            -60.9916 YYZZ=            -95.9547
 XXYZ=             -0.0000 YYXZ=              0.0000 ZZXY=              1.2496
 N-N= 2.768386644497D+02 E-N=-1.308770865406D+03  KE= 3.224814702949D+02
 Symmetry A'   KE= 3.109000924988D+02
 Symmetry A"   KE= 1.158137779611D+01
 No NMR shielding tensors so no spin-rotation constants.
 Leave Link  601 at Thu Aug 26 23:58:49 2021, MaxMem= 17179869184 cpu:        75.8
 (Enter /public3/home/sc51754/softwares/g09e01/l701.exe)
 Compute integral first derivatives.
 ... and contract with generalized density number  0.
 Leave Link  701 at Thu Aug 26 23:58:50 2021, MaxMem= 17179869184 cpu:        62.2
 (Enter /public3/home/sc51754/softwares/g09e01/l702.exe)
 L702 exits ... SP integral derivatives will be done elsewhere.
 Leave Link  702 at Thu Aug 26 23:58:50 2021, MaxMem= 17179869184 cpu:         0.3
 (Enter /public3/home/sc51754/softwares/g09e01/l703.exe)
 Compute integral first derivatives, UseDBF=F ICtDFT=           0.
 Integral derivatives from FoFJK, PRISM(SPDF).
 Calling FoFJK, ICntrl=      2527 FMM=F ISym2X=1 I1Cent= 0 IOpClX= 0 NMat=1 NMatS=1 NMatT=0.
 FoFJK:  IHMeth= 1 ICntrl=    2527 DoSepK=F KAlg= 0 I1Cent=   0 FoldK=F
 IRaf=         0 NMat=   1 IRICut=       1 DoRegI=T DoRafI=F ISym2E= 1.
 FoFCou: FMM=F IPFlag=           0 FMFlag=      100000 FMFlg1=         800
         NFxFlg=           0 DoJE=F BraDBF=F KetDBF=F FulRan=T
         wScrn=  0.000000 ICntrl=    2527 IOpCl=  0 I1Cent=           0 NGrid=           0
         NMat0=    1 NMatS0=      1 NMatT0=    0 NMatD0=    1 NMtDS0=    0 NMtDT0=    0
 Petite list used in FoFCou.
 Leave Link  703 at Thu Aug 26 23:58:52 2021, MaxMem= 17179869184 cpu:       142.0
 (Enter /public3/home/sc51754/softwares/g09e01/l716.exe)
 Dipole        =-4.81979551D-01-1.55870052D+00-3.63482456D-32
 ***** Axes restored to original set *****
 -------------------------------------------------------------------
 Center     Atomic                   Forces (Hartrees/Bohr)
 Number     Number              X              Y              Z
 -------------------------------------------------------------------
      1        8          -0.003110168    0.030037830   -0.000000000
      2        7          -0.001895553   -0.003611501    0.000000000
      3        6           0.005992946   -0.016645393    0.000000000
      4        6           0.000791501    0.008679062   -0.000000000
      5        6          -0.009921109    0.001865971   -0.000000000
      6        6           0.001912716   -0.010411108    0.000000000
      7        6           0.008906147   -0.005139694    0.000000000
      8        1          -0.007511401    0.003844762   -0.000000000
      9        1           0.004873519    0.003014979    0.000000000
     10        1          -0.005334526   -0.002402700   -0.000000000
     11        1           0.005163859   -0.003226931    0.000000000
     12        1           0.000132068   -0.006005278    0.000000000
 -------------------------------------------------------------------
 Cartesian Forces:  Max     0.030037830 RMS     0.007165983
 Leave Link  716 at Thu Aug 26 23:58:52 2021, MaxMem= 17179869184 cpu:         0.5
 (Enter /public3/home/sc51754/softwares/g09e01/l103.exe)

 GradGradGradGradGradGradGradGradGradGradGradGradGradGradGradGradGradGrad
 Berny optimization.
 FormGI is forming the generalized inverse of G from B-inverse, IUseBI=4.
 Internal  Forces:  Max     0.030197703 RMS     0.006157692
 Search for a local minimum.
 Step number   1 out of a maximum of   64
 All quantities printed in internal units (Hartrees-Bohrs-Radians)
 RMS Force = .61577D-02 SwitMx=.10000D-02 MixMth= 1
 Mixed Optimization -- RFO/linear search
 Second derivative matrix not updated -- first step.
 ITU=  0
     Eigenvalues ---    0.01577   0.01761   0.01972   0.02080   0.02183
     Eigenvalues ---    0.02246   0.02365   0.02483   0.02557   0.16000
     Eigenvalues ---    0.16000   0.16000   0.16000   0.16000   0.22000
     Eigenvalues ---    0.22000   0.23415   0.25000   0.35622   0.35864
     Eigenvalues ---    0.35940   0.36221   0.37867   0.40757   0.44267
     Eigenvalues ---    0.46319   0.50118   0.53776   0.54239   0.98595
 RFO step:  Lambda=-3.29442832D-03 EMin= 1.57720798D-02
 Linear search not attempted -- first point.
 Iteration  1 RMS(Cart)=  0.01662743 RMS(Int)=  0.00001309
 Iteration  2 RMS(Cart)=  0.00001406 RMS(Int)=  0.00000106
 Iteration  3 RMS(Cart)=  0.00000000 RMS(Int)=  0.00000106
 ITry= 1 IFail=0 DXMaxC= 5.81D-02 DCOld= 1.00D+10 DXMaxT= 3.00D-01 DXLimC= 3.00D+00 Rises=F
 ClnCor:  largest displacement from symmetrization is 3.23D-13 for atom     8.
 Variable       Old X    -DE/DX   Delta X   Delta X   Delta X     New X
                                 (Linear)    (Quad)   (Total)
    R1        2.29207   0.03020   0.00000   0.03053   0.03053   2.32260
    R2        2.65138   0.01294   0.00000   0.02815   0.02815   2.67953
    R3        2.56109   0.00848   0.00000   0.01565   0.01564   2.57674
    R4        1.90473   0.00843   0.00000   0.01807   0.01807   1.92280
    R5        2.72731   0.00875   0.00000   0.02174   0.02174   2.74905
    R6        2.55600   0.01685   0.00000   0.03073   0.03073   2.58673
    R7        2.04176   0.00573   0.00000   0.01580   0.01580   2.05756
    R8        2.55244   0.01667   0.00000   0.03051   0.03051   2.58294
    R9        2.04295   0.00584   0.00000   0.01615   0.01615   2.05909
   R10        2.67947   0.00646   0.00000   0.01535   0.01535   2.69482
   R11        2.04676   0.00608   0.00000   0.01691   0.01691   2.06367
   R12        2.03737   0.00601   0.00000   0.01643   0.01643   2.05380
    A1        2.18960   0.00080   0.00000   0.00287   0.00287   2.19247
    A2        1.99125  -0.00004   0.00000   0.00074   0.00074   1.99200
    A3        2.10233  -0.00075   0.00000  -0.00362  -0.00362   2.09872
    A4        2.09504   0.00048   0.00000   0.00262   0.00262   2.09767
    A5        2.21834   0.00015   0.00000   0.00132   0.00131   2.21965
    A6        1.96981  -0.00063   0.00000  -0.00394  -0.00394   1.96587
    A7        2.12410   0.00096   0.00000   0.00340   0.00340   2.12750
    A8        2.02595  -0.00034   0.00000  -0.00086  -0.00087   2.02509
    A9        2.13313  -0.00062   0.00000  -0.00253  -0.00254   2.13060
   A10        2.10267  -0.00040   0.00000  -0.00102  -0.00102   2.10164
   A11        2.03035  -0.00011   0.00000  -0.00136  -0.00135   2.02900
   A12        2.15017   0.00050   0.00000   0.00238   0.00238   2.15255
   A13        2.12246  -0.00076   0.00000  -0.00288  -0.00288   2.11958
   A14        2.08387   0.00076   0.00000   0.00374   0.00374   2.08761
   A15        2.07686   0.00001   0.00000  -0.00086  -0.00086   2.07599
   A16        2.05775   0.00004   0.00000   0.00157   0.00157   2.05931
   A17        2.10204   0.00003   0.00000  -0.00049  -0.00048   2.10156
   A18        2.12340  -0.00007   0.00000  -0.00108  -0.00108   2.12231
    D1        3.14159  -0.00000   0.00000  -0.00000   0.00000   3.14159
    D2       -0.00000  -0.00000   0.00000  -0.00000   0.00000   0.00000
    D3        0.00000  -0.00000   0.00000  -0.00000  -0.00000   0.00000
    D4        3.14159   0.00000   0.00000   0.00000   0.00000   3.14159
    D5        0.00000  -0.00000   0.00000   0.00000  -0.00000   0.00000
    D6        3.14159   0.00000   0.00000   0.00000   0.00000   3.14159
    D7        3.14159  -0.00000   0.00000  -0.00000   0.00000   3.14159
    D8       -0.00000  -0.00000   0.00000  -0.00000   0.00000   0.00000
    D9        3.14159  -0.00000   0.00000   0.00000   0.00000   3.14159
   D10        0.00000  -0.00000   0.00000   0.00000  -0.00000   0.00000
   D11        0.00000   0.00000   0.00000   0.00000  -0.00000   0.00000
   D12        3.14159   0.00000   0.00000  -0.00000   0.00000   3.14159
   D13        0.00000  -0.00000   0.00000  -0.00000   0.00000   0.00000
   D14        3.14159  -0.00000   0.00000   0.00000   0.00000   3.14159
   D15        3.14159  -0.00000   0.00000   0.00000   0.00000   3.14159
   D16       -0.00000   0.00000   0.00000   0.00000   0.00000   0.00000
   D17       -0.00000   0.00000   0.00000   0.00000   0.00000   0.00000
   D18        3.14159  -0.00000   0.00000   0.00000   0.00000   3.14159
   D19        3.14159  -0.00000   0.00000  -0.00000   0.00000   3.14159
   D20       -0.00000  -0.00000   0.00000  -0.00000   0.00000   0.00000
   D21        0.00000  -0.00000   0.00000   0.00000   0.00000   0.00000
   D22        3.14159   0.00000   0.00000   0.00000   0.00000   3.14159
   D23        3.14159  -0.00000   0.00000  -0.00000   0.00000   3.14159
   D24        0.00000  -0.00000   0.00000  -0.00000   0.00000   0.00000
         Item               Value     Threshold  Converged?
 Maximum Force            0.030198     0.000450     NO 
 RMS     Force            0.006158     0.000300     NO 
 Maximum Displacement     0.058122     0.001800     NO 
 RMS     Displacement     0.016628     0.001200     NO 
 Predicted change in Energy=-1.657176D-03
 Lowest energy point so far.  Saving SCF results.
 GradGradGradGradGradGradGradGradGradGradGradGradGradGradGradGradGradGrad

 Leave Link  103 at Thu Aug 26 23:58:53 2021, MaxMem= 17179869184 cpu:        51.8
 (Enter /public3/home/sc51754/softwares/g09e01/l202.exe)
                          Input orientation:                          
 ---------------------------------------------------------------------
 Center     Atomic      Atomic             Coordinates (Angstroms)
 Number     Number       Type             X           Y           Z
 ---------------------------------------------------------------------
      1          8           0       -0.131633    2.298653   -0.000000
      2          7           0       -1.142221    0.236496   -0.000000
      3          6           0        0.000012    1.076659   -0.000000
      4          6           0        1.246599    0.326809    0.000000
      5          6           0       -1.125159   -1.126948   -0.000000
      6          6           0        1.267356   -1.041871    0.000000
      7          6           0        0.062137   -1.804123    0.000000
      8          1           0       -2.027541    0.738012   -0.000000
      9          1           0        2.160341    0.918913    0.000000
     10          1           0       -2.096282   -1.621117   -0.000000
     11          1           0        2.224851   -1.567010    0.000000
     12          1           0        0.075644   -2.890865    0.000000
 ---------------------------------------------------------------------
                    Distance matrix (angstroms):
                    1          2          3          4          5
     1  O    0.000000
     2  N    2.296471   0.000000
     3  C    1.229064   1.417946   0.000000
     4  C    2.405762   2.390526   1.454735   0.000000
     5  C    3.566769   1.363551   2.474247   2.781842   0.000000
     6  C    3.621639   2.727688   2.468670   1.368837   2.394028
     7  C    4.107349   2.369515   2.881452   2.437995   1.366835
     8  H    2.455620   1.017502   2.055639   3.299861   2.071803
     9  H    2.675225   3.372329   2.166081   1.088812   3.870408
    10  H    4.384568   2.088291   3.416496   3.869014   1.089625
    11  H    4.527292   3.819661   3.455271   2.131555   3.378791
    12  H    5.193656   3.356125   3.968245   3.424114   2.133853
                    6          7          8          9         10
     6  C    0.000000
     7  C    1.426037   0.000000
     8  H    3.744907   3.290775   0.000000
     9  H    2.154551   3.437642   4.191787   0.000000
    10  H    3.413149   2.166163   2.360130   4.956873   0.000000
    11  H    1.092048   2.175674   4.836938   2.486760   4.321472
    12  H    2.199763   1.086826   4.194297   4.342852   2.515854
                   11         12
    11  H    0.000000
    12  H    2.524220   0.000000
 Stoichiometry    C5H5NO
 Framework group  CS[SG(C5H5NO)]
 Deg. of freedom    21
 Full point group                 CS      NOp   2
 RotChk:  IX=0 Diff= 1.72D-04
 Largest Abelian subgroup         CS      NOp   2
 Largest concise Abelian subgroup C1      NOp   1
                         Standard orientation:                         
 ---------------------------------------------------------------------
 Center     Atomic      Atomic             Coordinates (Angstroms)
 Number     Number       Type             X           Y           Z
 ---------------------------------------------------------------------
      1          8           0       -0.131794    2.294521    0.000000
      2          7           0       -1.142130    0.232241   -0.000000
      3          6           0       -0.000000    1.072544    0.000000
      4          6           0        1.246678    0.322845    0.000000
      5          6           0       -1.124903   -1.131201   -0.000000
      6          6           0        1.267602   -1.045832    0.000000
      7          6           0        0.062475   -1.808231   -0.000000
      8          1           0       -2.027512    0.733649   -0.000000
      9          1           0        2.160348    0.915060    0.000000
     10          1           0       -2.095966   -1.625487   -0.000000
     11          1           0        2.225161   -1.570855    0.000000
     12          1           0        0.076114   -2.894971   -0.000000
 ---------------------------------------------------------------------
 Rotational constants (GHZ):      5.6372958      2.7639805      1.8546439
 Leave Link  202 at Thu Aug 26 23:58:54 2021, MaxMem= 17179869184 cpu:         6.3
 (Enter /public3/home/sc51754/softwares/g09e01/l301.exe)
 Basis read from rwf:  (5D, 7F)
 No pseudopotential information found on rwf file.
 There are   223 symmetry adapted cartesian basis functions of A'  symmetry.
 There are    97 symmetry adapted cartesian basis functions of A"  symmetry.
 There are   190 symmetry adapted basis functions of A'  symmetry.
 There are    90 symmetry adapted basis functions of A"  symmetry.
   280 basis functions,   475 primitive gaussians,   320 cartesian basis functions
    25 alpha electrons       25 beta electrons
       nuclear repulsion energy       274.1882478701 Hartrees.
 IExCor= 1009 DFT=T Ex=PBE Corr=PBE ExCW=0 ScaHFX=  0.000000
 ScaDFX=  1.000000  1.000000  1.000000  1.000000 ScalE2=  1.000000  1.000000
 IRadAn=      0 IRanWt=     -1 IRanGd=            0 ICorTp=0 IEmpDi=  4
 NAtoms=   12 NActive=   12 NUniq=   12 SFac= 1.00D+00 NAtFMM=   60 NAOKFM=F Big=F
 Integral buffers will be    131072 words long.
 Raffenetti 2 integral format.
 Two-electron integral symmetry is turned on.
 No density basis found on file   724.
 Leave Link  301 at Thu Aug 26 23:58:54 2021, MaxMem= 17179869184 cpu:         0.9
 (Enter /public3/home/sc51754/softwares/g09e01/l302.exe)
 NPDir=0 NMtPBC=     1 NCelOv=     1 NCel=       1 NClECP=     1 NCelD=      1
         NCelK=      1 NCelE2=     1 NClLst=     1 CellRange=     0.0.
 One-electron integrals computed using PRISM.
 NBasis=   280 RedAO= T EigKep=  2.43D-04  NBF=   190    90
 NBsUse=   280 1.00D-06 EigRej= -1.00D+00 NBFU=   190    90
 Precomputing XC quadrature grid using
 IXCGrd= 4 IRadAn=           0 IRanWt=          -1 IRanGd=           0 AccXCQ= 0.00D+00.
 Generated NRdTot=       0 NPtTot=           0 NUsed=           0 NTot=          32
 NSgBfM=   320   320   320   320   320 MxSgAt=    12 MxSgA2=    12.
 Leave Link  302 at Thu Aug 26 23:58:55 2021, MaxMem= 17179869184 cpu:        45.4
 (Enter /public3/home/sc51754/softwares/g09e01/l303.exe)
 DipDrv:  MaxL=1.
 Leave Link  303 at Thu Aug 26 23:58:55 2021, MaxMem= 17179869184 cpu:        14.0
 (Enter /public3/home/sc51754/softwares/g09e01/l401.exe)
 Initial guess from the checkpoint file:  "PY_PBEPBE_PC2_OPT_FREQ.chk"
 B after Tr=     0.000000    0.000000   -0.000000
         Rot=    1.000000    0.000000   -0.000000   -0.000085 Ang=  -0.01 deg.
 Guess basis will be translated and rotated to current coordinates.
 JPrj=2 DoOrth=T DoCkMO=T.
 Initial guess orbital symmetries:
       Occupied  (A') (A') (A') (A') (A') (A') (A') (A') (A') (A')
                 (A') (A') (A') (A') (A') (A') (A') (A") (A') (A')
                 (A') (A") (A") (A') (A")
       Virtual   (A') (A') (A') (A') (A') (A') (A') (A') (A') (A')
                 (A') (A') (A') (A') (A') (A') (A') (A') (A') (A')
                 (A') (A') (A') (A') (A') (A') (A') (A') (A') (A')
                 (A') (A') (A') (A') (A') (A') (A') (A') (A') (A')
                 (A') (A') (A') (A') (A') (A') (A') (A') (A') (A')
                 (A') (A') (A') (A') (A') (A') (A') (A') (A') (A')
                 (A') (A') (A') (A') (A') (A') (A') (A') (A') (A')
                 (A') (A') (A') (A') (A') (A') (A') (A') (A') (A')
                 (A') (A') (A') (A') (A') (A') (A') (A') (A') (A')
                 (A') (A') (A') (A') (A') (A') (A') (A') (A') (A')
                 (A') (A') (A') (A') (A') (A') (A') (A') (A') (A')
                 (A') (A') (A') (A') (A') (A') (A') (A') (A') (A')
                 (A') (A') (A') (A') (A') (A') (A') (A') (A') (A')
                 (A') (A') (A') (A') (A') (A') (A') (A') (A') (A')
                 (A') (A') (A') (A') (A') (A') (A') (A') (A') (A')
                 (A') (A') (A') (A') (A') (A') (A') (A') (A') (A')
                 (A') (A') (A') (A') (A') (A') (A') (A') (A') (A")
                 (A") (A") (A") (A") (A") (A") (A") (A") (A") (A")
                 (A") (A") (A") (A") (A") (A") (A") (A") (A") (A")
                 (A") (A") (A") (A") (A") (A") (A") (A") (A") (A")
                 (A") (A") (A") (A") (A") (A") (A") (A") (A") (A")
                 (A") (A") (A") (A") (A") (A") (A") (A") (A") (A")
                 (A") (A") (A") (A") (A") (A") (A") (A") (A") (A")
                 (A") (A") (A") (A") (A") (A") (A") (A") (A") (A")
                 (A") (A") (A") (A") (A") (A") (A") (A") (A") (A")
                 (A") (A") (A") (A") (A")
 The electronic state of the initial guess is 1-A'.
 Generating alternative initial guess.
 ExpMin= 7.41D-02 ExpMax= 1.48D+04 ExpMxC= 5.05D+02 IAcc=2 IRadAn=         4 AccDes= 0.00D+00
 Harris functional with IExCor= 1009 and IRadAn=       4 diagonalized for initial guess.
 HarFok:  IExCor= 1009 AccDes= 0.00D+00 IRadAn=         4 IDoV= 1 UseB2=F ITyADJ=14
 ICtDFT=  3500011 ScaDFX=  1.000000  1.000000  1.000000  1.000000
 FoFCou: FMM=F IPFlag=           0 FMFlag=      100000 FMFlg1=           0
         NFxFlg=           0 DoJE=T BraDBF=F KetDBF=T FulRan=T
         wScrn=  0.000000 ICntrl=     500 IOpCl=  0 I1Cent=   200000004 NGrid=           0
         NMat0=    1 NMatS0=      1 NMatT0=    0 NMatD0=    1 NMtDS0=    0 NMtDT0=    0
 Petite list used in FoFCou.
 Harris En= -323.383036410298    
 Leave Link  401 at Thu Aug 26 23:58:57 2021, MaxMem= 17179869184 cpu:        86.6
 (Enter /public3/home/sc51754/softwares/g09e01/l502.exe)
 Closed shell SCF:
 Using DIIS extrapolation, IDIIS=  1040.
 Integral symmetry usage will be decided dynamically.
 Keep J ints in memory in symmetry-blocked form, NReq=1167802198.
 IVT=      348658 IEndB=      348658 NGot= 17179869184 MDV= 16785904737
 LenX= 16785904737 LenY= 16785801896
 Requested convergence on RMS density matrix=1.00D-08 within 128 cycles.
 Requested convergence on MAX density matrix=1.00D-06.
 Requested convergence on             energy=1.00D-06.
 No special actions if energy rises.
 FoFCou: FMM=F IPFlag=           0 FMFlag=           0 FMFlg1=           0
         NFxFlg=           0 DoJE=F BraDBF=F KetDBF=F FulRan=T
         wScrn=  0.000000 ICntrl=     600 IOpCl=  0 I1Cent=           0 NGrid=           0
         NMat0=    1 NMatS0=  39340 NMatT0=    0 NMatD0=    1 NMtDS0=    0 NMtDT0=    0
 Petite list used in FoFCou.
 Integral accuracy reduced to 1.0D-05 until final iterations.

 Cycle   1  Pass 0  IDiag  1:
 E= -323.273176147520    
 DIIS: error= 1.07D-03 at cycle   1 NSaved=   1.
 NSaved= 1 IEnMin= 1 EnMin= -323.273176147520     IErMin= 1 ErrMin= 1.07D-03
 ErrMax= 1.07D-03  0.00D+00 EMaxC= 1.00D-01 BMatC= 4.80D-04 BMatP= 4.80D-04
 IDIUse=3 WtCom= 9.89D-01 WtEn= 1.07D-02
 Coeff-Com:  0.100D+01
 Coeff-En:   0.100D+01
 Coeff:      0.100D+01
 Gap=     0.501 Goal=   None    Shift=    0.000
 GapD=    0.501 DampG=2.000 DampE=1.000 DampFc=2.0000 IDamp=-1.
 RMSDP=8.42D-05 MaxDP=2.49D-03              OVMax= 7.43D-03

 Cycle   2  Pass 0  IDiag  1:
 E= -323.273495227462     Delta-E=       -0.000319079942 Rises=F Damp=F
 DIIS: error= 8.70D-04 at cycle   2 NSaved=   2.
 NSaved= 2 IEnMin= 2 EnMin= -323.273495227462     IErMin= 2 ErrMin= 8.70D-04
 ErrMax= 8.70D-04  0.00D+00 EMaxC= 1.00D-01 BMatC= 1.08D-04 BMatP= 4.80D-04
 IDIUse=3 WtCom= 9.91D-01 WtEn= 8.70D-03
 Coeff-Com:  0.271D+00 0.729D+00
 Coeff-En:   0.000D+00 0.100D+01
 Coeff:      0.268D+00 0.732D+00
 Gap=     0.119 Goal=   None    Shift=    0.000
 RMSDP=5.71D-05 MaxDP=2.05D-03 DE=-3.19D-04 OVMax= 7.68D-03

 Cycle   3  Pass 0  IDiag  1:
 E= -323.273483205649     Delta-E=        0.000012021813 Rises=F Damp=F
 DIIS: error= 7.39D-04 at cycle   3 NSaved=   3.
 NSaved= 3 IEnMin= 2 EnMin= -323.273495227462     IErMin= 3 ErrMin= 7.39D-04
 ErrMax= 7.39D-04  0.00D+00 EMaxC= 1.00D-01 BMatC= 1.22D-04 BMatP= 1.08D-04
 IDIUse=3 WtCom= 2.69D-01 WtEn= 7.31D-01
 Coeff-Com:  0.906D-01 0.507D+00 0.403D+00
 Coeff-En:   0.000D+00 0.523D+00 0.477D+00
 Coeff:      0.244D-01 0.518D+00 0.457D+00
 Gap=     0.120 Goal=   None    Shift=    0.000
 RMSDP=4.31D-05 MaxDP=2.06D-03 DE= 1.20D-05 OVMax= 7.90D-03

 Cycle   4  Pass 0  IDiag  1:
 E= -323.273555947541     Delta-E=       -0.000072741893 Rises=F Damp=F
 DIIS: error= 5.03D-04 at cycle   4 NSaved=   4.
 NSaved= 4 IEnMin= 4 EnMin= -323.273555947541     IErMin= 4 ErrMin= 5.03D-04
 ErrMax= 5.03D-04  0.00D+00 EMaxC= 1.00D-01 BMatC= 5.56D-05 BMatP= 1.08D-04
 IDIUse=3 WtCom= 9.95D-01 WtEn= 5.03D-03
 EnCoef did     6 forward-backward iterations
 Coeff-Com:  0.234D-01 0.314D+00 0.355D+00 0.308D+00
 Coeff-En:   0.000D+00 0.101D+00 0.307D+00 0.592D+00
 Coeff:      0.233D-01 0.313D+00 0.354D+00 0.310D+00
 Gap=     0.120 Goal=   None    Shift=    0.000
 RMSDP=2.43D-05 MaxDP=1.21D-03 DE=-7.27D-05 OVMax= 3.82D-03

 Cycle   5  Pass 0  IDiag  1:
 E= -323.273600818931     Delta-E=       -0.000044871390 Rises=F Damp=F
 DIIS: error= 6.05D-05 at cycle   5 NSaved=   5.
 NSaved= 5 IEnMin= 5 EnMin= -323.273600818931     IErMin= 5 ErrMin= 6.05D-05
 ErrMax= 6.05D-05  0.00D+00 EMaxC= 1.00D-01 BMatC= 7.86D-07 BMatP= 5.56D-05
 IDIUse=1 WtCom= 1.00D+00 WtEn= 0.00D+00
 Coeff-Com:  0.299D-02 0.102D+00 0.137D+00 0.166D+00 0.592D+00
 Coeff:      0.299D-02 0.102D+00 0.137D+00 0.166D+00 0.592D+00
 Gap=     0.120 Goal=   None    Shift=    0.000
 RMSDP=3.28D-06 MaxDP=1.26D-04 DE=-4.49D-05 OVMax= 5.10D-04

 Initial convergence to 1.0D-05 achieved.  Increase integral accuracy.
 Cycle   6  Pass 1  IDiag  1:
 E= -323.273562893020     Delta-E=        0.000037925912 Rises=F Damp=F
 DIIS: error= 2.70D-05 at cycle   1 NSaved=   1.
 NSaved= 1 IEnMin= 1 EnMin= -323.273562893020     IErMin= 1 ErrMin= 2.70D-05
 ErrMax= 2.70D-05  0.00D+00 EMaxC= 1.00D-01 BMatC= 2.09D-07 BMatP= 2.09D-07
 IDIUse=1 WtCom= 1.00D+00 WtEn= 0.00D+00
 Coeff-Com:  0.100D+01
 Coeff:      0.100D+01
 Gap=     0.120 Goal=   None    Shift=    0.000
 RMSDP=3.28D-06 MaxDP=1.26D-04 DE= 3.79D-05 OVMax= 4.66D-04

 Cycle   7  Pass 1  IDiag  1:
 E= -323.273562757718     Delta-E=        0.000000135302 Rises=F Damp=F
 DIIS: error= 6.18D-05 at cycle   2 NSaved=   2.
 NSaved= 2 IEnMin= 1 EnMin= -323.273562893020     IErMin= 1 ErrMin= 2.70D-05
 ErrMax= 6.18D-05  0.00D+00 EMaxC= 1.00D-01 BMatC= 3.95D-07 BMatP= 2.09D-07
 IDIUse=1 WtCom= 1.00D+00 WtEn= 0.00D+00
 Coeff-Com:  0.602D+00 0.398D+00
 Coeff:      0.602D+00 0.398D+00
 Gap=     0.120 Goal=   None    Shift=    0.000
 RMSDP=2.64D-06 MaxDP=9.99D-05 DE= 1.35D-07 OVMax= 4.77D-04

 Cycle   8  Pass 1  IDiag  1:
 E= -323.273563052889     Delta-E=       -0.000000295171 Rises=F Damp=F
 DIIS: error= 2.90D-05 at cycle   3 NSaved=   3.
 NSaved= 3 IEnMin= 3 EnMin= -323.273563052889     IErMin= 1 ErrMin= 2.70D-05
 ErrMax= 2.90D-05  0.00D+00 EMaxC= 1.00D-01 BMatC= 1.02D-07 BMatP= 2.09D-07
 IDIUse=1 WtCom= 1.00D+00 WtEn= 0.00D+00
 Coeff-Com:  0.134D+00 0.315D+00 0.550D+00
 Coeff:      0.134D+00 0.315D+00 0.550D+00
 Gap=     0.120 Goal=   None    Shift=    0.000
 RMSDP=1.44D-06 MaxDP=6.29D-05 DE=-2.95D-07 OVMax= 2.83D-04

 Cycle   9  Pass 1  IDiag  1:
 E= -323.273563118151     Delta-E=       -0.000000065262 Rises=F Damp=F
 DIIS: error= 1.45D-05 at cycle   4 NSaved=   4.
[...]
     35  0.000000D+00 -0.364833D-03 -0.361855D-03  0.000000D+00  0.249160D-03
     36 -0.249117D-01  0.000000D+00  0.000000D+00  0.178357D-02  0.000000D+00
               26            27            28            29            30 
     26  0.136260D+00
     27  0.000000D+00  0.221586D-01
     28 -0.118297D-03  0.000000D+00  0.285636D+00
     29  0.912066D-04  0.000000D+00  0.116670D+00  0.116902D+00
     30  0.000000D+00 -0.123645D-02  0.000000D+00  0.000000D+00  0.217309D-01
     31  0.102369D-03  0.000000D+00 -0.989806D-03  0.763552D-03  0.000000D+00
     32  0.105825D-02  0.000000D+00 -0.818717D-03  0.535999D-03  0.000000D+00
     33  0.000000D+00 -0.538466D-02  0.000000D+00  0.000000D+00 -0.350063D-03
     34 -0.123861D-02  0.000000D+00  0.766553D-03 -0.407568D-03  0.000000D+00
     35 -0.527856D-03  0.000000D+00  0.202678D-03  0.528321D-03  0.000000D+00
     36  0.000000D+00  0.603385D-03  0.000000D+00  0.000000D+00 -0.430661D-02
               31            32            33            34            35 
     31  0.274257D+00
     32 -0.119601D+00  0.119751D+00
     33  0.000000D+00  0.000000D+00  0.243578D-01
     34  0.971178D-03  0.630307D-03  0.000000D+00  0.524685D-01
     35 -0.963428D-04  0.653990D-03  0.000000D+00 -0.437332D-02  0.351016D+00
     36  0.000000D+00  0.000000D+00 -0.214517D-02  0.000000D+00  0.000000D+00
               36 
     36  0.210673D-01
 FormGI is forming the generalized inverse of G from B-inverse, IUseBI=4.
 Leave Link  716 at Fri Aug 27 00:00:10 2021, MaxMem= 17179869184 cpu:        19.0
 (Enter /public3/home/sc51754/softwares/g09e01/l103.exe)

 GradGradGradGradGradGradGradGradGradGradGradGradGradGradGradGradGradGrad
 Berny optimization.
 Red2BG is reusing G-inverse.
 Internal  Forces:  Max     0.000221561 RMS     0.000047838
 Search for a local minimum.
 Step number   1 out of a maximum of    2
 All quantities printed in internal units (Hartrees-Bohrs-Radians)
 Second derivative matrix not updated -- analytic derivatives used.
 ITU=  0
     Eigenvalues ---    0.00725   0.01067   0.01459   0.01590   0.01825
     Eigenvalues ---    0.02060   0.02447   0.03046   0.04320   0.09661
     Eigenvalues ---    0.10204   0.10400   0.11402   0.11947   0.15977
     Eigenvalues ---    0.18112   0.19079   0.21931   0.28719   0.30406
     Eigenvalues ---    0.33964   0.34555   0.34899   0.35215   0.36618
     Eigenvalues ---    0.40278   0.43889   0.47955   0.50909   0.74174
 Angle between quadratic step and forces=  37.77 degrees.
 Linear search not attempted -- first point.
 Iteration  1 RMS(Cart)=  0.00029460 RMS(Int)=  0.00000011
 Iteration  2 RMS(Cart)=  0.00000012 RMS(Int)=  0.00000000
 ITry= 1 IFail=0 DXMaxC= 1.05D-03 DCOld= 1.00D+10 DXMaxT= 3.00D-01 DXLimC= 3.00D+00 Rises=F
 ClnCor:  largest displacement from symmetrization is 2.14D-11 for atom     8.
 Variable       Old X    -DE/DX   Delta X   Delta X   Delta X     New X
                                 (Linear)    (Quad)   (Total)
    R1        2.32782  -0.00022   0.00000  -0.00039  -0.00039   2.32743
    R2        2.68226   0.00012   0.00000   0.00073   0.00073   2.68299
    R3        2.57351  -0.00015   0.00000  -0.00058  -0.00058   2.57292
    R4        1.92334  -0.00001   0.00000  -0.00001  -0.00001   1.92333
    R5        2.73947   0.00002   0.00000  -0.00007  -0.00007   2.73939
    R6        2.58915   0.00006   0.00000   0.00025   0.00025   2.58939
    R7        2.05731  -0.00001   0.00000  -0.00003  -0.00003   2.05727
    R8        2.58492   0.00009   0.00000   0.00029   0.00029   2.58521
    R9        2.05857   0.00001   0.00000   0.00005   0.00005   2.05862
   R10        2.68888   0.00001   0.00000  -0.00010  -0.00010   2.68878
   R11        2.06309   0.00001   0.00000   0.00002   0.00002   2.06311
   R12        2.05387  -0.00002   0.00000  -0.00007  -0.00007   2.05380
    A1        2.19236   0.00002   0.00000   0.00014   0.00014   2.19250
    A2        1.99161  -0.00008   0.00000  -0.00083  -0.00083   1.99079
    A3        2.09922   0.00006   0.00000   0.00069   0.00069   2.09990
    A4        2.09126  -0.00003   0.00000  -0.00028  -0.00028   2.09098
    A5        2.22419   0.00004   0.00000   0.00051   0.00051   2.22470
    A6        1.96774  -0.00002   0.00000  -0.00023  -0.00023   1.96751
    A7        2.12603  -0.00001   0.00000   0.00000   0.00000   2.12603
    A8        2.02818   0.00007   0.00000   0.00069   0.00069   2.02887
    A9        2.12897  -0.00006   0.00000  -0.00069  -0.00069   2.12828
   A10        2.09926   0.00002   0.00000   0.00010   0.00010   2.09936
   A11        2.03023   0.00002   0.00000   0.00036   0.00036   2.03060
   A12        2.15370  -0.00005   0.00000  -0.00047  -0.00047   2.15323
   A13        2.12087   0.00000   0.00000   0.00016   0.00016   2.12103
   A14        2.08514  -0.00003   0.00000  -0.00045  -0.00045   2.08469
   A15        2.07717   0.00003   0.00000   0.00029   0.00029   2.07746
   A16        2.06012  -0.00002   0.00000  -0.00017  -0.00017   2.05995
   A17        2.09870  -0.00000   0.00000  -0.00008  -0.00008   2.09862
   A18        2.12437   0.00002   0.00000   0.00024   0.00024   2.12462
    D1        3.14159   0.00000   0.00000  -0.00000   0.00000   3.14159
    D2        0.00000   0.00000   0.00000  -0.00000  -0.00000   0.00000
    D3       -0.00000  -0.00000   0.00000  -0.00000   0.00000   0.00000
    D4        3.14159   0.00000   0.00000  -0.00000   0.00000   3.14159
    D5        0.00000   0.00000   0.00000   0.00000   0.00000   0.00000
    D6        3.14159  -0.00000   0.00000   0.00000   0.00000   3.14159
    D7        3.14159  -0.00000   0.00000   0.00000   0.00000   3.14159
    D8       -0.00000   0.00000   0.00000   0.00000   0.00000   0.00000
    D9        3.14159  -0.00000   0.00000   0.00000   0.00000   3.14159
   D10        0.00000  -0.00000   0.00000  -0.00000   0.00000   0.00000
   D11       -0.00000  -0.00000   0.00000   0.00000   0.00000   0.00000
   D12        3.14159  -0.00000   0.00000  -0.00000   0.00000   3.14159
   D13        0.00000   0.00000   0.00000  -0.00000   0.00000   0.00000
   D14        3.14159   0.00000   0.00000  -0.00000   0.00000   3.14159
   D15        3.14159  -0.00000   0.00000   0.00000   0.00000   3.14159
   D16        0.00000  -0.00000   0.00000   0.00000   0.00000   0.00000
   D17       -0.00000  -0.00000   0.00000  -0.00000   0.00000   0.00000
   D18        3.14159  -0.00000   0.00000   0.00000   0.00000   3.14159
   D19        3.14159  -0.00000   0.00000  -0.00000   0.00000   3.14159
   D20        0.00000   0.00000   0.00000   0.00000   0.00000   0.00000
   D21        0.00000   0.00000   0.00000   0.00000   0.00000   0.00000
   D22        3.14159   0.00000   0.00000  -0.00000   0.00000   3.14159
   D23        3.14159   0.00000   0.00000   0.00000   0.00000   3.14159
   D24       -0.00000   0.00000   0.00000  -0.00000   0.00000   0.00000
         Item               Value     Threshold  Converged?
 Maximum Force            0.000222     0.000450     YES
 RMS     Force            0.000048     0.000300     YES
 Maximum Displacement     0.001047     0.001800     YES
 RMS     Displacement     0.000295     0.001200     YES
 Predicted change in Energy=-2.940274D-07
 Optimization completed.
    -- Stationary point found.
                           ----------------------------
                           !   Optimized Parameters   !
                           ! (Angstroms and Degrees)  !
 --------------------------                            --------------------------
 ! Name  Definition              Value          Derivative Info.                !
 --------------------------------------------------------------------------------
 ! R1    R(1,3)                  1.2318         -DE/DX =   -0.0002              !
 ! R2    R(2,3)                  1.4194         -DE/DX =    0.0001              !
 ! R3    R(2,5)                  1.3618         -DE/DX =   -0.0001              !
 ! R4    R(2,8)                  1.0178         -DE/DX =    0.0                 !
 ! R5    R(3,4)                  1.4497         -DE/DX =    0.0                 !
 ! R6    R(4,6)                  1.3701         -DE/DX =    0.0001              !
 ! R7    R(4,9)                  1.0887         -DE/DX =    0.0                 !
 ! R8    R(5,7)                  1.3679         -DE/DX =    0.0001              !
 ! R9    R(5,10)                 1.0893         -DE/DX =    0.0                 !
 ! R10   R(6,7)                  1.4229         -DE/DX =    0.0                 !
 ! R11   R(6,11)                 1.0917         -DE/DX =    0.0                 !
 ! R12   R(7,12)                 1.0869         -DE/DX =    0.0                 !
 ! A1    A(3,2,5)              125.6128         -DE/DX =    0.0                 !
 ! A2    A(3,2,8)              114.111          -DE/DX =   -0.0001              !
 ! A3    A(5,2,8)              120.2762         -DE/DX =    0.0001              !
 ! A4    A(1,3,2)              119.8204         -DE/DX =    0.0                 !
 ! A5    A(1,3,4)              127.4365         -DE/DX =    0.0                 !
 ! A6    A(2,3,4)              112.7431         -DE/DX =    0.0                 !
 ! A7    A(3,4,6)              121.8125         -DE/DX =    0.0                 !
 ! A8    A(3,4,9)              116.2064         -DE/DX =    0.0001              !
 ! A9    A(6,4,9)              121.9811         -DE/DX =   -0.0001              !
 ! A10   A(2,5,7)              120.2785         -DE/DX =    0.0                 !
 ! A11   A(2,5,10)             116.3237         -DE/DX =    0.0                 !
 ! A12   A(7,5,10)             123.3979         -DE/DX =    0.0                 !
 ! A13   A(4,6,7)              121.5172         -DE/DX =    0.0                 !
 ! A14   A(4,6,11)             119.47           -DE/DX =    0.0                 !
 ! A15   A(7,6,11)             119.0128         -DE/DX =    0.0                 !
 ! A16   A(5,7,6)              118.036          -DE/DX =    0.0                 !
 ! A17   A(5,7,12)             120.2465         -DE/DX =    0.0                 !
 ! A18   A(6,7,12)             121.7175         -DE/DX =    0.0                 !
 ! D1    D(5,2,3,1)            180.0            -DE/DX =    0.0                 !
 ! D2    D(5,2,3,4)              0.0            -DE/DX =    0.0                 !
 ! D3    D(8,2,3,1)              0.0            -DE/DX =    0.0                 !
 ! D4    D(8,2,3,4)            180.0            -DE/DX =    0.0                 !
 ! D5    D(3,2,5,7)              0.0            -DE/DX =    0.0                 !
 ! D6    D(3,2,5,10)           180.0            -DE/DX =    0.0                 !
 ! D7    D(8,2,5,7)            180.0            -DE/DX =    0.0                 !
 ! D8    D(8,2,5,10)             0.0            -DE/DX =    0.0                 !
 ! D9    D(1,3,4,6)            180.0            -DE/DX =    0.0                 !
 ! D10   D(1,3,4,9)              0.0            -DE/DX =    0.0                 !
 ! D11   D(2,3,4,6)              0.0            -DE/DX =    0.0                 !
 ! D12   D(2,3,4,9)            180.0            -DE/DX =    0.0                 !
 ! D13   D(3,4,6,7)              0.0            -DE/DX =    0.0                 !
 ! D14   D(3,4,6,11)           180.0            -DE/DX =    0.0                 !
 ! D15   D(9,4,6,7)            180.0            -DE/DX =    0.0                 !
 ! D16   D(9,4,6,11)             0.0            -DE/DX =    0.0                 !
 ! D17   D(2,5,7,6)              0.0            -DE/DX =    0.0                 !
 ! D18   D(2,5,7,12)           180.0            -DE/DX =    0.0                 !
 ! D19   D(10,5,7,6)           180.0            -DE/DX =    0.0                 !
 ! D20   D(10,5,7,12)            0.0            -DE/DX =    0.0                 !
 ! D21   D(4,6,7,5)              0.0            -DE/DX =    0.0                 !
 ! D22   D(4,6,7,12)           180.0            -DE/DX =    0.0                 !
 ! D23   D(11,6,7,5)           180.0            -DE/DX =    0.0                 !
 ! D24   D(11,6,7,12)            0.0            -DE/DX =    0.0                 !
 --------------------------------------------------------------------------------
 GradGradGradGradGradGradGradGradGradGradGradGradGradGradGradGradGradGrad

 Leave Link  103 at Fri Aug 27 00:00:12 2021, MaxMem= 17179869184 cpu:        67.2
 (Enter /public3/home/sc51754/softwares/g09e01/l9999.exe)
 1\1\GINC-S2515\Freq\RPBEPBE\Gen\C5H5N1O1\SC51754\27-Aug-2021\0\\#P Geo
 m=AllCheck Guess=TCheck SCRF=Check GenChk RPBEPBE/ChkBas Freq\\PY_PBEP
 BE_PC2_OPT_FREQ\\0,1\O,-0.1348126923,2.2985413288,0.\N,-1.1411146476,0
 .2349613429,0.\C,0.0033761835,1.0744901871,0.\C,1.2460403675,0.3279576
 556,0.\C,-1.1256962952,-1.1267931861,0.\C,1.2655777707,-1.042020156,0.
 \C,0.063315519,-1.8030639761,0.\H,-2.0258343712,0.7381145674,0.\H,2.16
 11663344,0.9176751132,0.\H,-2.0965516442,-1.6208787742,0.\H,2.22362314
 19,-1.5655128456,0.\H,0.0750133336,-2.8898632569,0.\\Version=EM64L-G09
 RevE.01\State=1-A'\HF=-323.2735985\RMSD=3.600e-09\RMSF=1.022e-04\ZeroP
 oint=0.090808\Thermal=0.0962436\Dipole=-0.4821445,-1.6032952,0.\Dipole
 Deriv=-0.4048985,0.2372443,0.,0.0609929,-1.6387407,0.,0.,0.,-0.3930618
 ,-0.3015674,-0.4917388,0.,0.3452794,-0.6949429,0.,0.,0.,-0.1837757,0.4
 095445,-0.1370889,0.,-0.0387879,1.9982631,0.,0.,0.,0.2100975,-0.062976
 7,0.4750339,0.,-0.014107,-0.5087976,0.,0.,0.,-0.1505964,0.3041022,-0.0
 250378,0.,-0.5532064,0.3696296,0.,0.,0.,-0.0300367,0.3384155,0.1839913
 ,0.,0.1367625,0.421025,0.,0.,0.,-0.0899705,-0.4929188,-0.1867432,0.,0.
 1014923,-0.130662,0.,0.,0.,-0.193772,0.211601,-0.0280386,0.,-0.005518,
 0.1302146,0.,0.,0.,0.264529,0.0031509,-0.0342242,0.,-0.0491464,0.03001
 07,0.,0.,0.,0.1429098,-0.0202714,-0.0540257,0.,-0.0417918,0.0296629,0.
 ,0.,0.,0.1412747,-0.0517798,0.0758379,0.,0.0737476,0.0387476,0.,0.,0.,
 0.122852,0.0675985,-0.0152101,0.,-0.0157172,-0.0444104,0.,0.,0.,0.1595
 501\Polar=76.3991156,0.1536046,93.2004032,0.,0.,38.3930917\PG=CS [SG(C
 5H5N1O1)]\NImag=0\\0.09085199,-0.06188418,0.70830807,0.,0.,0.03014270,
 0.01224313,-0.03571934,0.,0.68833004,-0.06280597,-0.07011766,0.,-0.115
 70740,0.71027955,0.,0.,0.01771211,0.,0.,0.06848884,-0.10320092,0.07148
 900,0.,-0.18063079,0.02659215,0.,0.50446759,0.06903744,-0.58602066,0.,
 -0.02026127,-0.11950656,0.,-0.10978255,0.84547595,0.,0.,-0.06696239,0.
 ,0.,-0.05411001,0.,0.,0.18075980,0.00349880,0.02756651,0.,-0.04434941,
 -0.01409465,0.,-0.20496307,0.05185627,0.,0.61428316,0.04714891,-0.0496
 5373,0.,-0.00624563,0.04195254,0.,0.02843491,-0.12023229,0.,0.06518704
 ,0.72757978,0.,0.,0.02047004,0.,0.,0.00374507,0.,0.,-0.07103892,0.,0.,
 0.10683534,-0.00934115,-0.00314402,0.,-0.13642396,-0.02176388,0.,0.033
 16788,-0.01968989,0.,-0.01163913,0.01917321,0.,0.77730198,0.01324329,-
 0.00284037,0.,0.02566991,-0.32100534,0.,-0.06984014,-0.02763104,0.,0.0
 1600165,-0.02785430,0.,-0.01240205,0.64399038,0.,0.,0.00463584,0.,0.,-
 0.04020761,0.,0.,-0.00310574,0.,0.,0.00065362,0.,0.,0.12430713,-0.0121
 0667,0.00551086,0.,-0.00489613,-0.02880000,0.,0.03275455,0.03257861,0.
 ,-0.11940163,0.02452793,0.,-0.05779962,0.01344963,0.,0.64782070,-0.005
 50412,0.00966077,0.,-0.00429323,-0.03288526,0.,0.04479020,-0.02215996,
 0.,-0.01249849,-0.40053704,0.,-0.01920443,0.04329357,0.,-0.03950514,0.
 69833696,0.,0.,0.00375541,0.,0.,-0.00442813,0.,0.,-0.00002281,0.,0.,-0
 .05024362,0.,0.,0.00693476,0.,0.,0.12935445,0.00989875,-0.00571583,0.,
 0.00797643,0.06150255,0.,-0.04442961,-0.00395282,0.,0.01912901,-0.0488
 4837,0.,-0.32631984,0.09855710,0.,-0.23208614,-0.05295354,0.,0.6438642
 7,-0.00265388,-0.00371251,0.,0.03662506,-0.04346450,0.,0.00845497,0.00
 398879,0.,-0.03108213,-0.02735402,0.,0.13534519,-0.17518617,0.,-0.0979
 0214,-0.15861081,0.,-0.04971496,0.72430579,0.,0.,-0.00018037,0.,0.,0.0
 1082540,0.,0.,-0.00703212,0.,0.,0.00653488,0.,0.,-0.05694981,0.,0.,-0.
 05533097,0.,0.,0.10405992,0.00504150,0.00045229,0.,-0.33750735,0.14955
 766,0.,-0.02284372,0.01857234,0.,-0.00393359,-0.00381246,0.,0.00581259
 ,-0.00116810,0.,-0.00102764,-0.00262570,0.,0.00454830,-0.00217193,0.,0
 .34962195,0.00463930,-0.00194267,0.,0.14685586,-0.14579308,0.,-0.01642
 439,0.01950222,0.,-0.00297091,-0.00316490,0.,0.03089964,-0.01283990,0.
 ,0.00001730,0.00052880,0.,-0.00389424,-0.00529531,0.,-0.15907718,0.148
 09464,0.,0.,-0.00426606,0.,0.,-0.01541080,0.,0.,0.00289483,0.,0.,0.004
 12603,0.,0.,-0.00538606,0.,0.,-0.00065455,0.,0.,0.00509728,0.,0.,0.015
 61664,0.00276262,0.00103165,0.,-0.00483905,0.00267765,0.,-0.01667541,-
 0.01858421,0.,-0.25116915,-0.12397899,0.,-0.00013451,0.00232085,0.,0.0
 0472111,0.00270609,0.,0.00240381,0.00087911,0.,-0.00105726,-0.00095896
 ,0.,0.26295012,-0.00151967,0.00057590,0.,0.00356375,-0.00104939,0.,0.0
 1308950,0.01012257,0.,-0.12550178,-0.12991262,0.,0.00060808,-0.0009707
 8,0.,-0.02596597,-0.01179001,0.,0.00191497,-0.00446336,0.,0.00090097,0
 .00060632,0.,0.13416468,0.13625976,0.,0.,-0.00208497,0.,0.,0.00462657,
 0.,0.,0.00254356,0.,0.,-0.03119001,0.,0.,-0.00067269,0.,0.,0.00237130,
 0.,0.,0.00873466,0.,0.,-0.00046929,0.,0.,0.02215860,-0.00018960,-0.000
 15754,0.,0.00410454,0.00150976,0.,0.00237940,0.00178854,0.,0.00052904,
 0.00070486,0.,-0.27483707,-0.10938252,0.,-0.00329906,0.00417113,0.,-0.
 01517307,-0.01417611,0.,0.00108596,-0.00039349,0.,-0.00001293,-0.00011
 830,0.,0.28563604,-0.00166801,-0.00285164,0.,-0.03345938,-0.01979470,0
 .,0.00690548,0.00000666,0.,-0.00021560,0.00011687,0.,-0.10366142,-0.10
 650548,0.,0.00249205,-0.00149439,0.,0.01301345,0.01180393,0.,-0.000307
 22,0.00066082,0.,-0.00012504,0.00009121,0.,0.11666970,0.11690241,0.,0.
 ,-0.00032807,0.,0.,0.00235943,0.,0.,0.00507485,0.,0.,0.00012083,0.,0.,
 -0.03309691,0.,0.,0.00719001,0.,0.,0.00541408,0.,0.,-0.00257197,0.,0.,
 -0.00123645,0.,0.,0.02173088,-0.00017703,0.00057089,0.,0.00096640,-0.0
 0068957,0.,0.00179703,-0.00140335,0.,0.00241906,-0.00067019,0.,-0.0035
 4918,-0.00395031,0.,-0.25925814,0.11105352,0.,-0.01735409,0.01386168,0
 .,0.00002482,0.00005844,0.,0.00089279,0.00010237,0.,-0.00098981,0.0007
 6355,0.,0.27425695,0.00186654,-0.00138042,0.,0.00024430,-0.00016872,0.
 ,-0.00332831,-0.00407187,0.,0.02841534,-0.01143892,0.,-0.00317301,-0.0
 0130456,0.,0.11090172,-0.11419840,0.,-0.01479966,0.01055916,0.,0.00004
 415,0.00000491,0.,-0.00038199,0.00105825,0.,-0.00081872,0.00053600,0.,
 -0.11960068,0.11975058,0.,0.,-0.00237257,0.,0.,-0.00056017,0.,0.,0.011
 30019,0.,0.,0.00618024,0.,0.,0.00445607,0.,0.,-0.03846076,0.,0.,0.0037
 3875,0.,0.,-0.00075962,0.,0.,-0.00538466,0.,0.,-0.00035006,0.,0.,0.024
 35776,0.00071859,-0.00000029,0.,-0.00497386,0.00202169,0.,-0.00182294,
 -0.00015912,0.,-0.00440309,-0.00162122,0.,0.00376200,0.02750068,0.,0.0
 0457865,-0.02613629,0.,-0.05245782,0.00253513,0.,0.00023444,0.00124862
 ,0.,0.00015785,-0.00123861,0.,0.00076655,-0.00040757,0.,0.00097118,0.0
 0063031,0.,0.05246845,0.00010034,-0.00002507,0.,0.00272736,0.00155312,
 0.,-0.00038083,0.00052620,0.,-0.00266324,0.00049863,0.,-0.00298743,-0.
 01114601,0.,0.00269514,-0.01014424,0.,0.00489133,-0.33257099,0.,-0.000
 36483,-0.00036185,0.,0.00024916,-0.00052786,0.,0.00020268,0.00052832,0
 .,-0.00009634,0.00065399,0.,-0.00437332,0.35101577,0.,0.,-0.00052165,0
 .,0.,0.00695929,0.,0.,-0.00030121,0.,0.,0.00380649,0.,0.,-0.00156860,0
 .,0.,-0.00046510,0.,0.,-0.02491169,0.,0.,0.00178357,0.,0.,0.00060339,0
 .,0.,-0.00430661,0.,0.,-0.00214517,0.,0.,0.02106731\\0.00001380,0.0002
 2407,0.,0.00014361,0.00030217,0.,-0.00005720,-0.00032129,0.,0.00001543
 ,-0.00011441,0.,0.00004671,-0.00024791,0.,0.00000490,0.00006931,0.,-0.
 00006709,0.00009952,0.,-0.00004407,-0.00004711,0.,-0.00002121,0.000047
 97,0.,-0.00001070,0.00004076,0.,-0.00002617,-0.00003326,0.,0.00000200,
 -0.00001984,0.\\\@


 SUCCESS IS NEVER CERTAIN,
 FAILURE IS NEVER FINAL.
 Job cpu time:       0 days  0 hours 36 minutes 30.1 seconds.
 File lengths (MBytes):  RWF=     80 Int=      0 D2E=      0 Chk=      7 Scr=      1
 Normal termination of Gaussian 09 at Fri Aug 27 00:00:12 2021.
