 Entering Gaussian System, Link 0=g09
 AtFile(1): pc-2.gbs
            -H     0
            S    4   1.00
                  0.754230D+02           0.240650D-02
                  0.113500D+02           0.184870D-01
                  0.259930D+01           0.897420D-01
                  0.735130D+00           0.281110D+00
            S    1   1.00
                  0.231670D+00           0.100000D+01
            S    1   1.00
                  0.741470D-01           0.100000D+01
            P    1   1.00
                  0.160000D+01           0.100000D+01
            P    1   1.00
                  0.450000D+00           0.100000D+01
            D    1   1.00
                  0.125000D+01           0.100000D+01
            ****
            -C     0
            S    7   1.00
                  0.785710D+04           0.568250D-03
                  0.117870D+04           0.439150D-02
                  0.268320D+03           0.225040D-01
                  0.759480D+02           0.866530D-01
                  0.245590D+02           0.244050D+00
                  0.862120D+01           0.441480D+00
                  0.312780D+01           0.353320D+00
            S    7   1.00
                  0.117870D+04          -0.594920D-06
                  0.268320D+03          -0.627480D-04
                  0.759480D+02          -0.757730D-03
                  0.245590D+02          -0.733080D-02
                  0.862120D+01          -0.389320D-01
                  0.312780D+01          -0.889080D-01
                  0.822020D+00           0.216890D+00
            S    1   1.00
                  0.330170D+00           0.100000D+01
            S    1   1.00
                  0.114630D+00           0.100000D+01
            P    4   1.00
                  0.337750D+02           0.602940D-02
                  0.767660D+01           0.432280D-01
                  0.223570D+01           0.163010D+00
                  0.764470D+00           0.365040D+00
            P    1   1.00
                  0.262320D+00           0.100000D+01
            P    1   1.00
                  0.846380D-01           0.100000D+01
            D    1   1.00
                  0.140000D+01           0.100000D+01
            D    1   1.00
                  0.450000D+00           0.100000D+01
            F    1   1.00
                  0.950000D+00           0.100000D+01
            ****
            -N     0
            S    7   1.00
                  0.111010D+05           0.545700D-03
                  0.166530D+04           0.421810D-02
                  0.379080D+03           0.216450D-01
                  0.107300D+03           0.837760D-01
                  0.347470D+02           0.238810D+00
                  0.122490D+02           0.439940D+00
                  0.447430D+01           0.363640D+00
            S    7   1.00
                  0.166530D+04          -0.150060D-05
                  0.379080D+03          -0.587530D-04
                  0.107300D+03          -0.774530D-03
                  0.347470D+02          -0.721610D-02
                  0.122490D+02          -0.393380D-01
                  0.447430D+01          -0.906110D-01
                  0.124040D+01           0.198820D+00
            S    1   1.00
                  0.487430D+00           0.100000D+01
            S    1   1.00
                  0.164840D+00           0.100000D+01
            P    4   1.00
                  0.479340D+02           0.617060D-02
                  0.109990D+02           0.442600D-01
                  0.324720D+01           0.168250D+00
                  0.111140D+01           0.368480D+00
            P    1   1.00
                  0.379880D+00           0.100000D+01
            P    1   1.00
                  0.120680D+00           0.100000D+01
            D    1   1.00
                  0.180000D+01           0.100000D+01
            D    1   1.00
                  0.550000D+00           0.100000D+01
            F    1   1.00
                  0.102000D+01           0.100000D+01
            ****
            -O     0
            S    7   1.00
                  0.147820D+05           0.535190D-03
                  0.221730D+04           0.413750D-02
                  0.504740D+03           0.212450D-01
                  0.142870D+03           0.824530D-01
                  0.463000D+02           0.236710D+00
                  0.163370D+02           0.440390D+00
                  0.598280D+01           0.364650D+00
            S    7   1.00
                  0.221730D+04          -0.192750D-05
                  0.504740D+03          -0.579640D-04
                  0.142870D+03          -0.794940D-03
                  0.463000D+02          -0.731250D-02
                  0.163370D+02          -0.405740D-01
                  0.598280D+01          -0.915940D-01
                  0.167180D+01           0.209400D+00
            S    1   1.00
                  0.646620D+00           0.100000D+01
            S    1   1.00
                  0.216690D+00           0.100000D+01
            P    4   1.00
                  0.604240D+02           0.689490D-02
                  0.139350D+02           0.490050D-01
                  0.415310D+01           0.182550D+00
                  0.141580D+01           0.376330D+00
            P    1   1.00
                  0.475490D+00           0.100000D+01
            P    1   1.00
                  0.145290D+00           0.100000D+01
            D    1   1.00
                  0.220000D+01           0.100000D+01
            D    1   1.00
                  0.650000D+00           0.100000D+01
            F    1   1.00
                  0.110000D+01           0.100000D+01
            ****
 Initial command:
 /public3/home/sc51754/softwares/g09e01/l1.exe "./Gau-2468.inp" -scrdir="./"
 Entering Link 1 = /public3/home/sc51754/softwares/g09e01/l1.exe PID=      2469.
  
 Copyright (c) 1988,1990,1992,1993,1995,1998,2003,2009,2015,
            Gaussian, Inc.  All Rights Reserved.
  
 This is part of the Gaussian(R) 09 program.  It is based on
 the Gaussian(R) 03 system (copyright 2003, Gaussian, Inc.),
 the Gaussian(R) 98 system (copyright 1998, Gaussian, Inc.),
 the Gaussian(R) 94 system (copyright 1995, Gaussian, Inc.),
 the Gaussian 92(TM) system (copyright 1992, Gaussian, Inc.),
 the Gaussian 90(TM) system (copyright 1990, Gaussian, Inc.),
 the Gaussian 88(TM) system (copyright 1988, Gaussian, Inc.),
 the Gaussian 86(TM) system (copyright 1986, Carnegie Mellon
 University), and the Gaussian 82(TM) system (copyright 1983,
 Carnegie Mellon University). Gaussian is a federally registered
 trademark of Gaussian, Inc.
  
 This software contains proprietary and confidential information,
 including trade secrets, belonging to Gaussian, Inc.
  
 This software is provided under written license and may be
 used, copied, transmitted, or stored only in accord with that
 written license.
  
 The following legend is applicable only to US Government
 contracts under FAR:
  
                    RESTRICTED RIGHTS LEGEND
  
 Use, reproduction and disclosure by the US Government is
 subject to restrictions as set forth in subparagraphs (a)
 and (c) of the Commercial Computer Software - Restricted
 Rights clause in FAR 52.227-19.
  
 Gaussian, Inc.
 340 Quinnipiac St., Bldg. 40, Wallingford CT 06492
  
  
 ---------------------------------------------------------------
 Warning -- This program may not be used in any manner that
 competes with the business of Gaussian, Inc. or will provide
 assistance to any competitor of Gaussian, Inc.  The licensee
 of this program is prohibited from giving any competitor of
 Gaussian, Inc. access to this program.  By using this program,
 the user acknowledges that Gaussian, Inc. is engaged in the
 business of creating and licensing software in the field of
 computational chemistry and represents and warrants to the
 licensee that it is not a competitor of Gaussian, Inc. and that
 it will not use this program in any manner prohibited above.
 ---------------------------------------------------------------
  

 Cite this work as:
 Gaussian 09, Revision E.01,
 M. J. Frisch, G. W. Trucks, H. B. Schlegel, G. E. Scuseria, 
 M. A. Robb, J. R. Cheeseman, G. Scalmani, V. Barone, B. Mennucci, 
 G. A. Petersson, H. Nakatsuji, M. Caricato, X. Li, H. P. Hratchian, 
 A. F. Izmaylov, J. Bloino, G. Zheng, J. L. Sonnenberg, M. Hada, 
 M. Ehara, K. Toyota, R. Fukuda, J. Hasegawa, M. Ishida, T. Nakajima, 
 Y. Honda, O. Kitao, H. Nakai, T. Vreven, J. A. Montgomery, Jr., 
 J. E. Peralta, F. Ogliaro, M. Bearpark, J. J. Heyd, E. Brothers, 
 K. N. Kudin, V. N. Staroverov, T. Keith, R. Kobayashi, J. Normand, 
 K. Raghavachari, A. Rendell, J. C. Burant, S. S. Iyengar, J. Tomasi, 
 M. Cossi, N. Rega, J. M. Millam, M. Klene, J. E. Knox, J. B. Cross, 
 V. Bakken, C. Adamo, J. Jaramillo, R. Gomperts, R. E. Stratmann, 
 O. Yazyev, A. J. Austin, R. Cammi, C. Pomelli, J. W. Ochterski, 
 R. L. Martin, K. Morokuma, V. G. Zakrzewski, G. A. Voth, 
 P. Salvador, J. J. Dannenberg, S. Dapprich, A. D. Daniels, 
 O. Farkas, J. B. Foresman, J. V. Ortiz, J. Cioslowski, 
 and D. J. Fox, Gaussian, Inc., Wallingford CT, 2013.
 
 ******************************************
 Gaussian 09:  EM64L-G09RevE.01 30-Nov-2015
                28-Aug-2021 
 ******************************************
 %nprocshared=64
 Will use up to   64 processors via shared memory.
 %mem=128GB
 %chk=TST_GAS_PBEPBE.chk
 -------------------------------------------------
 #p opt=(calcfc,qst3,MaxCycle=200) freq PBEPBE/gen
 -------------------------------------------------
 1/5=1,6=200,10=4,14=-1,18=20,26=3,27=203,38=1/1,3;
 2/9=110,12=2,17=6,18=5,40=1/2;
 3/5=7,11=2,16=1,25=1,30=1,71=2,74=1009,140=1/1,2,3;
 4//1;
 5/5=2,38=5/2;
 8/6=4,10=90,11=11/1;
 11/6=1,8=1,9=11,15=111,16=1/1,2,10;
 10/6=1,13=1/2;
 6/7=2,8=2,9=2,10=2,28=1/1;
 7/10=1,18=20,25=1/1,2,3,16;
 1/5=1,6=200,10=4,14=-1,18=20,26=3,27=203/3(2);
 2/9=110/2;
 99//99;
 2/9=110/2;
 3/5=7,6=1,11=2,16=1,25=1,30=1,71=1,74=1009,82=7/1,2,3;
 4/5=5,16=3,69=1/1;
 5/5=2,38=5/2;
 7//1,2,3,16;
 1/5=1,6=200,14=-1,18=20,26=3,27=203/3(-5);
 2/9=110/2;
 6/7=2,8=2,9=2,10=2,19=2,28=1/1;
 99/9=1/99;
 Leave Link    1 at Sat Aug 28 00:50:25 2021, MaxMem= 17179869184 cpu:         5.8
 (Enter /public3/home/sc51754/softwares/g09e01/l101.exe)
 ----------------------
 HY_PBEPBE_PC2_OPT_FREQ
 ----------------------
 Symbolic Z-matrix:
 Charge =  0 Multiplicity = 1
 O                    -0.00232   2.26325   0. 
 N                    -1.18491   0.2954    0. 
 C                     0.        0.90539   0. 
 C                     1.23157   0.23114   0. 
 C                    -1.19141  -1.04848   0. 
 C                     1.19931  -1.15691   0. 
 C                    -0.03386  -1.82089   0. 
 H                    -0.94481   2.51995   0. 
 H                     2.16371   0.79372   0. 
 H                    -2.178    -1.51849   0. 
 H                     2.13204  -1.72225   0. 
 H                    -0.09361  -2.90824   0. 
 
 ----------------------
 PY_PBEPBE_PC2_OPT_FREQ
 ----------------------
 Symbolic Z-matrix:
 Charge =  0 Multiplicity = 1
 O                    -0.14235   2.29415   0. 
 N                    -1.14163   0.22716   0. 
 C                     0.        1.07058   0. 
 C                     1.2452    0.32827   0. 
 C                    -1.12158  -1.13453   0. 
 C                     1.26939  -1.04163   0. 
 C                     0.06972  -1.80676   0. 
 H                    -2.02806   0.7273    0. 
 H                     2.15831   0.9211    0. 
 H                    -2.09075  -1.63192   0. 
 H                     2.22921  -1.56186   0. 
 H                     0.08512  -2.89351   0. 
 
 --------------
 TST_GAS_PBEPBE
 --------------
 Symbolic Z-matrix:
 Charge =  0 Multiplicity = 1
 O                     0.22359   2.60809   0. 
 N                    -0.959     0.64023   0. 
 C                     0.22592   1.25022   0. 
 C                     1.45748   0.57597   0. 
 C                    -0.96549  -0.70364   0. 
 C                     1.42523  -0.81208   0. 
 C                     0.19206  -1.47606   0. 
 H                    -1.17073   2.17512   0. 
 H                     2.38963   1.13855   0. 
 H                    -1.95209  -1.17366   0. 
 H                     2.35795  -1.37742   0. 
 H                     0.13231  -2.56341   0. 
 
 NAtoms=     12 NQM=       12 NQMF=       0 NMMI=      0 NMMIF=      0
                NMic=       0 NMicF=      0.
                    Isotopes and Nuclear Properties:
 (Nuclear quadrupole moments (NQMom) in fm**2, nuclear magnetic moments (NMagM)
  in nuclear magnetons)

  Atom         1           2           3           4           5           6           7           8           9          10
 IAtWgt=          16          14          12          12          12          12          12           1           1           1
 AtmWgt=  15.9949146  14.0030740  12.0000000  12.0000000  12.0000000  12.0000000  12.0000000   1.0078250   1.0078250   1.0078250
 NucSpn=           0           2           0           0           0           0           0           1           1           1
 AtZEff=   0.0000000   0.0000000   0.0000000   0.0000000   0.0000000   0.0000000   0.0000000   0.0000000   0.0000000   0.0000000
 NQMom=    0.0000000   2.0440000   0.0000000   0.0000000   0.0000000   0.0000000   0.0000000   0.0000000   0.0000000   0.0000000
 NMagM=    0.0000000   0.4037610   0.0000000   0.0000000   0.0000000   0.0000000   0.0000000   2.7928460   2.7928460   2.7928460
 AtZNuc=   8.0000000   7.0000000   6.0000000   6.0000000   6.0000000   6.0000000   6.0000000   1.0000000   1.0000000   1.0000000

  Atom        11          12
 IAtWgt=           1           1
 AtmWgt=   1.0078250   1.0078250
 NucSpn=           1           1
 AtZEff=   0.0000000   0.0000000
 NQMom=    0.0000000   0.0000000
 NMagM=    2.7928460   2.7928460
 AtZNuc=   1.0000000   1.0000000
 Leave Link  101 at Sat Aug 28 00:50:29 2021, MaxMem= 17179869184 cpu:        31.1
 (Enter /public3/home/sc51754/softwares/g09e01/l103.exe)

 GradGradGradGradGradGradGradGradGradGradGradGradGradGradGradGradGradGrad
 Berny optimization.
 Initialization pass.
                           ----------------------------
                           !    Initial Parameters    !
                           ! (Angstroms and Degrees)  !
 --------------------------                            --------------------------
 ! Name  Definition        TS        Reactant  Product Derivative Info.         !
 --------------------------------------------------------------------------------
 ! R1    R(1,3)             1.3579    1.3579    1.2318 calculate D2E/DX2 analyti!
 ! R2    R(1,8)             1.46      0.9768    2.4517 calculate D2E/DX2 analyti!
 ! R3    R(2,3)             1.3327    1.3327    1.4194 calculate D2E/DX2 analyti!
 ! R4    R(2,5)             1.3439    1.3439    1.3618 calculate D2E/DX2 analyti!
 ! R5    R(2,8)             1.5494    2.2375    1.0178 calculate D2E/DX2 analyti!
 ! R6    R(3,4)             1.4041    1.4041    1.4497 calculate D2E/DX2 analyti!
 ! R7    R(4,6)             1.3884    1.3884    1.3701 calculate D2E/DX2 analyti!
 ! R8    R(4,9)             1.0888    1.0888    1.0887 calculate D2E/DX2 analyti!
 ! R9    R(5,7)             1.3916    1.3916    1.3679 calculate D2E/DX2 analyti!
 ! R10   R(5,10)            1.0928    1.0928    1.0893 calculate D2E/DX2 analyti!
 ! R11   R(6,7)             1.4006    1.4006    1.4229 calculate D2E/DX2 analyti!
 ! R12   R(6,11)            1.0907    1.0907    1.0917 calculate D2E/DX2 analyti!
 ! R13   R(7,12)            1.089     1.089     1.0869 calculate D2E/DX2 analyti!
 ! A1    A(3,1,8)          72.8473  105.3335   56.9125 calculate D2E/DX2 analyti!
 ! A2    A(3,2,5)         117.5162  117.5162  125.6128 calculate D2E/DX2 analyti!
 ! A3    A(3,2,8)          70.615    56.6005  114.1109 calculate D2E/DX2 analyti!
 ! A4    A(5,2,8)         171.8689  174.1166  120.2763 calculate D2E/DX2 analyti!
 ! A5    A(1,3,2)         117.1412  117.1412  119.8204 calculate D2E/DX2 analyti!
 ! A6    A(1,3,4)         118.7978  118.7978  127.4365 calculate D2E/DX2 analyti!
 ! A7    A(2,3,4)         124.061   124.061   112.7431 calculate D2E/DX2 analyti!
 ! A8    A(3,4,6)         117.3684  117.3684  121.8125 calculate D2E/DX2 analyti!
 ! A9    A(3,4,9)         120.1875  120.1875  116.2064 calculate D2E/DX2 analyti!
 ! A10   A(6,4,9)         122.444   122.444   121.9811 calculate D2E/DX2 analyti!
 ! A11   A(2,5,7)         123.4378  123.4378  120.2785 calculate D2E/DX2 analyti!
 ! A12   A(2,5,10)        115.7502  115.7502  116.3236 calculate D2E/DX2 analyti!
 ! A13   A(7,5,10)        120.812   120.812   123.3979 calculate D2E/DX2 analyti!
 ! A14   A(4,6,7)         119.6308  119.6308  121.5172 calculate D2E/DX2 analyti!
 ! A15   A(4,6,11)        119.8894  119.8894  119.47   calculate D2E/DX2 analyti!
 ! A16   A(7,6,11)        120.4798  120.4798  119.0128 calculate D2E/DX2 analyti!
 ! A17   A(5,7,6)         117.9858  117.9858  118.036  calculate D2E/DX2 analyti!
 ! A18   A(5,7,12)        120.5694  120.5694  120.2465 calculate D2E/DX2 analyti!
 ! A19   A(6,7,12)        121.4449  121.4449  121.7176 calculate D2E/DX2 analyti!
 ! D1    D(8,1,3,2)         0.0       0.0       0.0    calculate D2E/DX2 analyti!
 ! D2    D(8,1,3,4)       180.0     180.0     180.0    calculate D2E/DX2 analyti!
 ! D3    D(5,2,3,1)       180.0     180.0     180.0    calculate D2E/DX2 analyti!
 ! D4    D(5,2,3,4)         0.0       0.0       0.0    calculate D2E/DX2 analyti!
 ! D5    D(8,2,3,1)         0.0       0.0       0.0    calculate D2E/DX2 analyti!
 ! D6    D(8,2,3,4)       180.0     180.0     180.0    calculate D2E/DX2 analyti!
 ! D7    D(3,2,5,7)         0.0       0.0       0.0    calculate D2E/DX2 analyti!
 ! D8    D(3,2,5,10)      180.0     180.0     180.0    calculate D2E/DX2 analyti!
 ! D9    D(8,2,5,7)       180.0       0.0     180.0    calculate D2E/DX2 analyti!
 ! D10   D(8,2,5,10)        0.0     180.0       0.0    calculate D2E/DX2 analyti!
 ! D11   D(1,3,4,6)       180.0     180.0     180.0    calculate D2E/DX2 analyti!
 ! D12   D(1,3,4,9)         0.0       0.0       0.0    calculate D2E/DX2 analyti!
 ! D13   D(2,3,4,6)         0.0       0.0       0.0    calculate D2E/DX2 analyti!
 ! D14   D(2,3,4,9)       180.0     180.0     180.0    calculate D2E/DX2 analyti!
 ! D15   D(3,4,6,7)         0.0       0.0       0.0    calculate D2E/DX2 analyti!
 ! D16   D(3,4,6,11)      180.0     180.0     180.0    calculate D2E/DX2 analyti!
 ! D17   D(9,4,6,7)       180.0     180.0     180.0    calculate D2E/DX2 analyti!
 ! D18   D(9,4,6,11)        0.0       0.0       0.0    calculate D2E/DX2 analyti!
 ! D19   D(2,5,7,6)         0.0       0.0       0.0    calculate D2E/DX2 analyti!
 ! D20   D(2,5,7,12)      180.0     180.0     180.0    calculate D2E/DX2 analyti!
 ! D21   D(10,5,7,6)      180.0     180.0     180.0    calculate D2E/DX2 analyti!
 ! D22   D(10,5,7,12)       0.0       0.0       0.0    calculate D2E/DX2 analyti!
 ! D23   D(4,6,7,5)         0.0       0.0       0.0    calculate D2E/DX2 analyti!
 ! D24   D(4,6,7,12)      180.0     180.0     180.0    calculate D2E/DX2 analyti!
 ! D25   D(11,6,7,5)      180.0     180.0     180.0    calculate D2E/DX2 analyti!
 ! D26   D(11,6,7,12)       0.0       0.0       0.0    calculate D2E/DX2 analyti!
 --------------------------------------------------------------------------------
 Trust Radius=3.00D-01 FncErr=1.00D-07 GrdErr=1.00D-06
 Number of steps in this run=    100 maximum allowed number of steps=    100.
 Search for a saddle point of order  1.
 GradGradGradGradGradGradGradGradGradGradGradGradGradGradGradGradGradGrad

 Leave Link  103 at Sat Aug 28 00:50:29 2021, MaxMem= 17179869184 cpu:         2.8
 (Enter /public3/home/sc51754/softwares/g09e01/l202.exe)
                          Input orientation:                          
 ---------------------------------------------------------------------
 Center     Atomic      Atomic             Coordinates (Angstroms)
 Number     Number       Type             X           Y           Z
 ---------------------------------------------------------------------
      1          8           0        0.223594    2.608085    0.000000
      2          7           0       -0.958995    0.640231    0.000000
      3          6           0        0.225918    1.250221    0.000000
      4          6           0        1.457485    0.575966    0.000000
      5          6           0       -0.965489   -0.703644    0.000000
      6          6           0        1.425228   -0.812080    0.000000
      7          6           0        0.192059   -1.476061    0.000000
      8          1           0       -1.170730    2.175117    0.000000
      9          1           0        2.389626    1.138553    0.000000
     10          1           0       -1.952086   -1.173663    0.000000
     11          1           0        2.357955   -1.377419    0.000000
     12          1           0        0.132308   -2.563410    0.000000
 ---------------------------------------------------------------------
                    Distance matrix (angstroms):
                    1          2          3          4          5
     1  O    0.000000
     2  N    2.295858   0.000000
     3  C    1.357866   1.332707   0.000000
     4  C    2.377392   2.417334   1.404057   0.000000
     5  C    3.518731   1.343891   2.288458   2.740110   0.000000
     6  C    3.625114   2.791725   2.385672   1.388421   2.393175
     7  C    4.084268   2.409070   2.726492   2.410833   1.391598
     8  H    1.460000   1.549421   1.675129   3.076491   2.886068
     9  H    2.617483   3.385497   2.166588   1.088757   3.827595
    10  H    4.362935   2.067956   3.258668   3.832281   1.092836
    11  H    4.521033   3.882405   3.383796   2.150944   3.391055
    12  H    5.172301   3.384414   3.814780   3.407606   2.159604
                    6          7          8          9         10
     6  C    0.000000
     7  C    1.400563   0.000000
     8  H    3.957568   3.897216   0.000000
     9  H    2.176013   3.415481   3.708180   0.000000
    10  H    3.396615   2.165364   3.438727   4.919025   0.000000
    11  H    1.090682   2.168141   5.007207   2.516171   4.314855
    12  H    2.176878   1.088989   4.914422   4.335898   2.505214
                   11         12
    11  H    0.000000
    12  H    2.521920   0.000000
 Stoichiometry    C5H5NO
 Framework group  CS[SG(C5H5NO)]
 Deg. of freedom    21
 Full point group                 CS      NOp   2
 Largest Abelian subgroup         CS      NOp   2
 Largest concise Abelian subgroup C1      NOp   1
                         Standard orientation:                         
 ---------------------------------------------------------------------
 Center     Atomic      Atomic             Coordinates (Angstroms)
 Number     Number       Type             X           Y           Z
 ---------------------------------------------------------------------
      1          8           0       -0.015673    2.277003   -0.000000
      2          7           0       -1.178859    0.297619   -0.000000
      3          6           0       -0.000000    0.919228   -0.000000
      4          6           0        1.238136    0.257112   -0.000000
      5          6           0       -1.172142   -1.046255    0.000000
      6          6           0        1.219526   -1.131184    0.000000
      7          6           0       -0.007056   -1.807255    0.000000
      8          1           0       -1.405673    1.830349   -0.000000
      9          1           0        2.164701    0.828836   -0.000000
     10          1           0       -2.154070   -1.525951    0.000000
     11          1           0        2.157766   -1.687326    0.000000
     12          1           0       -0.056115   -2.895139    0.000000
 ---------------------------------------------------------------------
 Rotational constants (GHZ):      5.7380735      2.7983669      1.8810223
 Leave Link  202 at Sat Aug 28 00:50:30 2021, MaxMem= 17179869184 cpu:        16.0
 (Enter /public3/home/sc51754/softwares/g09e01/l301.exe)
 General basis read from cards:  (5D, 7F)
 Centers:       8      9     10     11     12
 S 4 1.00
     Exponent=  7.5423000000D+01 Coefficients=  2.4065000000D-03
     Exponent=  1.1350000000D+01 Coefficients=  1.8487000000D-02
     Exponent=  2.5993000000D+00 Coefficients=  8.9742000000D-02
     Exponent=  7.3513000000D-01 Coefficients=  2.8111000000D-01
 S 1 1.00
     Exponent=  2.3167000000D-01 Coefficients=  1.0000000000D+00
 S 1 1.00
     Exponent=  7.4147000000D-02 Coefficients=  1.0000000000D+00
 P 1 1.00
     Exponent=  1.6000000000D+00 Coefficients=  1.0000000000D+00
 P 1 1.00
     Exponent=  4.5000000000D-01 Coefficients=  1.0000000000D+00
 D 1 1.00
     Exponent=  1.2500000000D+00 Coefficients=  1.0000000000D+00
 ****
 Centers:       3      4      5      6      7
 S 7 1.00
     Exponent=  7.8571000000D+03 Coefficients=  5.6825000000D-04
     Exponent=  1.1787000000D+03 Coefficients=  4.3915000000D-03
     Exponent=  2.6832000000D+02 Coefficients=  2.2504000000D-02
     Exponent=  7.5948000000D+01 Coefficients=  8.6653000000D-02
     Exponent=  2.4559000000D+01 Coefficients=  2.4405000000D-01
     Exponent=  8.6212000000D+00 Coefficients=  4.4148000000D-01
     Exponent=  3.1278000000D+00 Coefficients=  3.5332000000D-01
 S 7 1.00
     Exponent=  1.1787000000D+03 Coefficients= -5.9492000000D-07
     Exponent=  2.6832000000D+02 Coefficients= -6.2748000000D-05
     Exponent=  7.5948000000D+01 Coefficients= -7.5773000000D-04
     Exponent=  2.4559000000D+01 Coefficients= -7.3308000000D-03
     Exponent=  8.6212000000D+00 Coefficients= -3.8932000000D-02
     Exponent=  3.1278000000D+00 Coefficients= -8.8908000000D-02
     Exponent=  8.2202000000D-01 Coefficients=  2.1689000000D-01
 S 1 1.00
     Exponent=  3.3017000000D-01 Coefficients=  1.0000000000D+00
 S 1 1.00
     Exponent=  1.1463000000D-01 Coefficients=  1.0000000000D+00
 P 4 1.00
     Exponent=  3.3775000000D+01 Coefficients=  6.0294000000D-03
     Exponent=  7.6766000000D+00 Coefficients=  4.3228000000D-02
     Exponent=  2.2357000000D+00 Coefficients=  1.6301000000D-01
     Exponent=  7.6447000000D-01 Coefficients=  3.6504000000D-01
 P 1 1.00
     Exponent=  2.6232000000D-01 Coefficients=  1.0000000000D+00
 P 1 1.00
     Exponent=  8.4638000000D-02 Coefficients=  1.0000000000D+00
 D 1 1.00
     Exponent=  1.4000000000D+00 Coefficients=  1.0000000000D+00
 D 1 1.00
     Exponent=  4.5000000000D-01 Coefficients=  1.0000000000D+00
 F 1 1.00
     Exponent=  9.5000000000D-01 Coefficients=  1.0000000000D+00
 ****
 Centers:       2
 S 7 1.00
     Exponent=  1.1101000000D+04 Coefficients=  5.4570000000D-04
     Exponent=  1.6653000000D+03 Coefficients=  4.2181000000D-03
     Exponent=  3.7908000000D+02 Coefficients=  2.1645000000D-02
     Exponent=  1.0730000000D+02 Coefficients=  8.3776000000D-02
     Exponent=  3.4747000000D+01 Coefficients=  2.3881000000D-01
     Exponent=  1.2249000000D+01 Coefficients=  4.3994000000D-01
     Exponent=  4.4743000000D+00 Coefficients=  3.6364000000D-01
 S 7 1.00
     Exponent=  1.6653000000D+03 Coefficients= -1.5006000000D-06
     Exponent=  3.7908000000D+02 Coefficients= -5.8753000000D-05
     Exponent=  1.0730000000D+02 Coefficients= -7.7453000000D-04
     Exponent=  3.4747000000D+01 Coefficients= -7.2161000000D-03
     Exponent=  1.2249000000D+01 Coefficients= -3.9338000000D-02
     Exponent=  4.4743000000D+00 Coefficients= -9.0611000000D-02
     Exponent=  1.2404000000D+00 Coefficients=  1.9882000000D-01
 S 1 1.00
     Exponent=  4.8743000000D-01 Coefficients=  1.0000000000D+00
 S 1 1.00
     Exponent=  1.6484000000D-01 Coefficients=  1.0000000000D+00
 P 4 1.00
     Exponent=  4.7934000000D+01 Coefficients=  6.1706000000D-03
     Exponent=  1.0999000000D+01 Coefficients=  4.4260000000D-02
     Exponent=  3.2472000000D+00 Coefficients=  1.6825000000D-01
     Exponent=  1.1114000000D+00 Coefficients=  3.6848000000D-01
 P 1 1.00
     Exponent=  3.7988000000D-01 Coefficients=  1.0000000000D+00
 P 1 1.00
     Exponent=  1.2068000000D-01 Coefficients=  1.0000000000D+00
 D 1 1.00
     Exponent=  1.8000000000D+00 Coefficients=  1.0000000000D+00
 D 1 1.00
     Exponent=  5.5000000000D-01 Coefficients=  1.0000000000D+00
 F 1 1.00
     Exponent=  1.0200000000D+00 Coefficients=  1.0000000000D+00
 ****
 Centers:       1
 S 7 1.00
     Exponent=  1.4782000000D+04 Coefficients=  5.3519000000D-04
     Exponent=  2.2173000000D+03 Coefficients=  4.1375000000D-03
     Exponent=  5.0474000000D+02 Coefficients=  2.1245000000D-02
     Exponent=  1.4287000000D+02 Coefficients=  8.2453000000D-02
     Exponent=  4.6300000000D+01 Coefficients=  2.3671000000D-01
     Exponent=  1.6337000000D+01 Coefficients=  4.4039000000D-01
     Exponent=  5.9828000000D+00 Coefficients=  3.6465000000D-01
 S 7 1.00
     Exponent=  2.2173000000D+03 Coefficients= -1.9275000000D-06
     Exponent=  5.0474000000D+02 Coefficients= -5.7964000000D-05
     Exponent=  1.4287000000D+02 Coefficients= -7.9494000000D-04
     Exponent=  4.6300000000D+01 Coefficients= -7.3125000000D-03
     Exponent=  1.6337000000D+01 Coefficients= -4.0574000000D-02
     Exponent=  5.9828000000D+00 Coefficients= -9.1594000000D-02
     Exponent=  1.6718000000D+00 Coefficients=  2.0940000000D-01
 S 1 1.00
     Exponent=  6.4662000000D-01 Coefficients=  1.0000000000D+00
 S 1 1.00
     Exponent=  2.1669000000D-01 Coefficients=  1.0000000000D+00
 P 4 1.00
     Exponent=  6.0424000000D+01 Coefficients=  6.8949000000D-03
     Exponent=  1.3935000000D+01 Coefficients=  4.9005000000D-02
     Exponent=  4.1531000000D+00 Coefficients=  1.8255000000D-01
     Exponent=  1.4158000000D+00 Coefficients=  3.7633000000D-01
 P 1 1.00
     Exponent=  4.7549000000D-01 Coefficients=  1.0000000000D+00
 P 1 1.00
     Exponent=  1.4529000000D-01 Coefficients=  1.0000000000D+00
 D 1 1.00
     Exponent=  2.2000000000D+00 Coefficients=  1.0000000000D+00
 D 1 1.00
     Exponent=  6.5000000000D-01 Coefficients=  1.0000000000D+00
 F 1 1.00
     Exponent=  1.1000000000D+00 Coefficients=  1.0000000000D+00
 ****
 Ernie: Thresh=  0.10000D-02 Tol=  0.10000D-05 Strict=F.
 Ernie:  7 primitive shells out of 220 were deleted.
 There are   223 symmetry adapted cartesian basis functions of A'  symmetry.
 There are    97 symmetry adapted cartesian basis functions of A"  symmetry.
 There are   190 symmetry adapted basis functions of A'  symmetry.
 There are    90 symmetry adapted basis functions of A"  symmetry.
   280 basis functions,   475 primitive gaussians,   320 cartesian basis functions
    25 alpha electrons       25 beta electrons
       nuclear repulsion energy       274.7798106315 Hartrees.
 IExCor= 1009 DFT=T Ex=PBE Corr=PBE ExCW=0 ScaHFX=  0.000000
 ScaDFX=  1.000000  1.000000  1.000000  1.000000 ScalE2=  1.000000  1.000000
 IRadAn=      0 IRanWt=     -1 IRanGd=            0 ICorTp=0 IEmpDi=  4
 NAtoms=   12 NActive=   12 NUniq=   12 SFac= 1.00D+00 NAtFMM=   60 NAOKFM=F Big=F
 Integral buffers will be    131072 words long.
 Raffenetti 2 integral format.
 Two-electron integral symmetry is turned on.
 Leave Link  301 at Sat Aug 28 00:50:31 2021, MaxMem= 17179869184 cpu:        13.8
 (Enter /public3/home/sc51754/softwares/g09e01/l302.exe)
 NPDir=0 NMtPBC=     1 NCelOv=     1 NCel=       1 NClECP=     1 NCelD=      1
         NCelK=      1 NCelE2=     1 NClLst=     1 CellRange=     0.0.
 One-electron integrals computed using PRISM.
 NBasis=   280 RedAO= T EigKep=  2.31D-04  NBF=   190    90
 NBsUse=   280 1.00D-06 EigRej= -1.00D+00 NBFU=   190    90
 Precomputing XC quadrature grid using
 IXCGrd= 4 IRadAn=           0 IRanWt=          -1 IRanGd=           0 AccXCQ= 0.00D+00.
 Generated NRdTot=       0 NPtTot=           0 NUsed=           0 NTot=          32
 NSgBfM=   320   320   320   320   320 MxSgAt=    12 MxSgA2=    12.
 Leave Link  302 at Sat Aug 28 00:50:34 2021, MaxMem= 17179869184 cpu:        93.9
 (Enter /public3/home/sc51754/softwares/g09e01/l303.exe)
 DipDrv:  MaxL=1.
 Leave Link  303 at Sat Aug 28 00:50:35 2021, MaxMem= 17179869184 cpu:        42.0
 (Enter /public3/home/sc51754/softwares/g09e01/l401.exe)
 ExpMin= 7.41D-02 ExpMax= 1.48D+04 ExpMxC= 5.05D+02 IAcc=2 IRadAn=         4 AccDes= 0.00D+00
 Harris functional with IExCor= 1009 and IRadAn=       4 diagonalized for initial guess.
 HarFok:  IExCor= 1009 AccDes= 0.00D+00 IRadAn=         4 IDoV= 1 UseB2=F ITyADJ=14
 ICtDFT=  3500011 ScaDFX=  1.000000  1.000000  1.000000  1.000000
 FoFCou: FMM=F IPFlag=           0 FMFlag=      100000 FMFlg1=           0
         NFxFlg=           0 DoJE=T BraDBF=F KetDBF=T FulRan=T
         wScrn=  0.000000 ICntrl=     500 IOpCl=  0 I1Cent=   200000004 NGrid=           0
         NMat0=    1 NMatS0=      1 NMatT0=    0 NMatD0=    1 NMtDS0=    0 NMtDT0=    0
 Petite list used in FoFCou.
 Harris En= -323.293105316448    
 JPrj=0 DoOrth=F DoCkMO=F.
 Initial guess orbital symmetries:
       Occupied  (A') (A') (A') (A') (A') (A') (A') (A') (A') (A')
                 (A') (A') (A') (A') (A') (A') (A') (A') (A") (A')
                 (A") (A') (A') (A") (A")
       Virtual   (A") (A") (A') (A') (A") (A') (A') (A') (A') (A')
                 (A') (A') (A') (A") (A') (A") (A") (A') (A') (A')
                 (A') (A') (A') (A") (A") (A') (A') (A') (A') (A')
                 (A') (A') (A") (A") (A') (A') (A') (A') (A') (A')
                 (A') (A') (A') (A") (A') (A') (A") (A") (A') (A")
                 (A') (A') (A") (A') (A") (A') (A") (A') (A') (A')
                 (A') (A") (A') (A') (A") (A') (A') (A") (A') (A")
                 (A') (A") (A") (A') (A") (A') (A') (A") (A') (A")
                 (A') (A") (A') (A') (A") (A') (A") (A') (A') (A")
                 (A") (A') (A') (A') (A') (A') (A') (A") (A') (A')
                 (A') (A') (A") (A') (A') (A') (A") (A') (A') (A')
                 (A") (A') (A') (A') (A') (A') (A") (A') (A') (A')
                 (A') (A") (A') (A") (A') (A") (A') (A") (A") (A')
                 (A") (A") (A') (A') (A") (A') (A') (A') (A") (A')
                 (A') (A') (A') (A") (A') (A") (A") (A') (A') (A')
                 (A') (A') (A') (A") (A") (A") (A") (A') (A') (A")
                 (A") (A') (A') (A") (A') (A") (A') (A') (A") (A')
                 (A") (A') (A") (A') (A') (A") (A') (A") (A") (A")
                 (A') (A') (A") (A') (A") (A") (A') (A") (A') (A")
                 (A") (A') (A") (A') (A') (A') (A") (A") (A') (A")
                 (A') (A') (A") (A") (A') (A') (A') (A") (A') (A')
                 (A') (A") (A') (A") (A') (A') (A") (A') (A') (A')
                 (A") (A") (A') (A') (A") (A') (A') (A') (A") (A')
                 (A') (A') (A") (A') (A') (A') (A') (A') (A") (A')
                 (A') (A') (A") (A') (A') (A') (A') (A') (A') (A')
                 (A') (A') (A') (A') (A')
 The electronic state of the initial guess is 1-A'.
 Leave Link  401 at Sat Aug 28 00:50:37 2021, MaxMem= 17179869184 cpu:        60.1
 (Enter /public3/home/sc51754/softwares/g09e01/l502.exe)
 Closed shell SCF:
 Using DIIS extrapolation, IDIIS=  1040.
 Integral symmetry usage will be decided dynamically.
 Keep J ints in memory in symmetry-blocked form, NReq=1167802198.
 IVT=      348658 IEndB=      348658 NGot= 17179869184 MDV= 16785904737
 LenX= 16785904737 LenY= 16785801896
 Requested convergence on RMS density matrix=1.00D-08 within 128 cycles.
 Requested convergence on MAX density matrix=1.00D-06.
 Requested convergence on             energy=1.00D-06.
 No special actions if energy rises.
 FoFCou: FMM=F IPFlag=           0 FMFlag=           0 FMFlg1=           0
         NFxFlg=           0 DoJE=F BraDBF=F KetDBF=F FulRan=T
         wScrn=  0.000000 ICntrl=     600 IOpCl=  0 I1Cent=           0 NGrid=           0
         NMat0=    1 NMatS0=  39340 NMatT0=    0 NMatD0=    1 NMtDS0=    0 NMtDT0=    0
 Petite list used in FoFCou.
 Integral accuracy reduced to 1.0D-05 until final iterations.

 Cycle   1  Pass 0  IDiag  1:
 E= -323.050543811088    
 DIIS: error= 2.09D-02 at cycle   1 NSaved=   1.
 NSaved= 1 IEnMin= 1 EnMin= -323.050543811088     IErMin= 1 ErrMin= 2.09D-02
 ErrMax= 2.09D-02  0.00D+00 EMaxC= 1.00D-01 BMatC= 1.54D-01 BMatP= 1.54D-01
 IDIUse=3 WtCom= 7.91D-01 WtEn= 2.09D-01
 Coeff-Com:  0.100D+01
 Coeff-En:   0.100D+01
 Coeff:      0.100D+01
 Gap=     0.047 Goal=   None    Shift=    0.000
 GapD=    0.047 DampG=0.250 DampE=0.500 DampFc=0.2500 IDamp=-1.
 Damping current iteration by 2.50D-01
 RMSDP=3.56D-03 MaxDP=1.71D-01              OVMax= 3.17D-01

 Cycle   2  Pass 0  IDiag  1:
 E= -323.093901004648     Delta-E=       -0.043357193560 Rises=F Damp=T
 DIIS: error= 1.16D-02 at cycle   2 NSaved=   2.
 NSaved= 2 IEnMin= 2 EnMin= -323.093901004648     IErMin= 2 ErrMin= 1.16D-02
 ErrMax= 1.16D-02  0.00D+00 EMaxC= 1.00D-01 BMatC= 2.45D-02 BMatP= 1.54D-01
 IDIUse=3 WtCom= 8.84D-01 WtEn= 1.16D-01
 Coeff-Com: -0.159D+00 0.116D+01
 Coeff-En:   0.175D+00 0.825D+00
 Coeff:     -0.120D+00 0.112D+01
 Gap=     0.132 Goal=   None    Shift=    0.000
 RMSDP=1.33D-03 MaxDP=4.56D-02 DE=-4.34D-02 OVMax= 3.17D-01

 Cycle   3  Pass 0  IDiag  1:
 E= -323.077056121817     Delta-E=        0.016844882831 Rises=F Damp=F
 DIIS: error= 2.37D-02 at cycle   3 NSaved=   3.
 NSaved= 3 IEnMin= 2 EnMin= -323.093901004648     IErMin= 2 ErrMin= 1.16D-02
 ErrMax= 2.37D-02  0.00D+00 EMaxC= 1.00D-01 BMatC= 1.35D-01 BMatP= 2.45D-02
 IDIUse=2 WtCom= 0.00D+00 WtEn= 1.00D+00
 EnCoef did     3 forward-backward iterations
 Coeff-En:   0.624D-02 0.547D+00 0.447D+00
 Coeff:      0.624D-02 0.547D+00 0.447D+00
 Gap=     0.112 Goal=   None    Shift=    0.000
 RMSDP=2.03D-03 MaxDP=8.28D-02 DE= 1.68D-02 OVMax= 3.26D-01

 Cycle   4  Pass 0  IDiag  1:
 E= -322.964463520765     Delta-E=        0.112592601052 Rises=F Damp=F
 DIIS: error= 3.21D-02 at cycle   4 NSaved=   4.
 NSaved= 4 IEnMin= 2 EnMin= -323.093901004648     IErMin= 2 ErrMin= 1.16D-02
 ErrMax= 3.21D-02  0.00D+00 EMaxC= 1.00D-01 BMatC= 2.76D-01 BMatP= 2.45D-02
 IDIUse=2 WtCom= 0.00D+00 WtEn= 1.00D+00
 EnCoef did     2 forward-backward iterations
 Coeff-En:   0.859D-01 0.000D+00 0.543D+00 0.371D+00
 Coeff:      0.859D-01 0.000D+00 0.543D+00 0.371D+00
 Gap=     0.130 Goal=   None    Shift=    0.000
 RMSDP=1.20D-03 MaxDP=5.77D-02 DE= 1.13D-01 OVMax= 2.01D-01

 Cycle   5  Pass 0  IDiag  1:
 E= -323.194810106636     Delta-E=       -0.230346585871 Rises=F Damp=F
 DIIS: error= 6.29D-03 at cycle   5 NSaved=   5.
 NSaved= 5 IEnMin= 5 EnMin= -323.194810106636     IErMin= 5 ErrMin= 6.29D-03
 ErrMax= 6.29D-03  0.00D+00 EMaxC= 1.00D-01 BMatC= 8.76D-03 BMatP= 2.45D-02
 IDIUse=3 WtCom= 9.37D-01 WtEn= 6.29D-02
 Coeff-Com: -0.140D+00 0.333D+00 0.238D+00 0.574D-01 0.511D+00
 Coeff-En:   0.000D+00 0.000D+00 0.422D-01 0.000D+00 0.958D+00
 Coeff:     -0.131D+00 0.312D+00 0.226D+00 0.538D-01 0.539D+00
 Gap=     0.128 Goal=   None    Shift=    0.000
 RMSDP=3.57D-04 MaxDP=1.64D-02 DE=-2.30D-01 OVMax= 4.22D-02

 Cycle   6  Pass 0  IDiag  1:
 E= -323.200260581808     Delta-E=       -0.005450475172 Rises=F Damp=F
 DIIS: error= 4.47D-03 at cycle   6 NSaved=   6.
 NSaved= 6 IEnMin= 6 EnMin= -323.200260581808     IErMin= 6 ErrMin= 4.47D-03
 ErrMax= 4.47D-03  0.00D+00 EMaxC= 1.00D-01 BMatC= 3.13D-03 BMatP= 8.76D-03
 IDIUse=3 WtCom= 9.55D-01 WtEn= 4.47D-02
 Coeff-Com: -0.159D+00 0.236D+00 0.827D-01-0.329D-01 0.484D+00 0.389D+00
 Coeff-En:   0.000D+00 0.000D+00 0.000D+00 0.000D+00 0.263D+00 0.737D+00
 Coeff:     -0.152D+00 0.225D+00 0.790D-01-0.315D-01 0.474D+00 0.405D+00
 Gap=     0.131 Goal=   None    Shift=    0.000
 RMSDP=1.65D-04 MaxDP=6.00D-03 DE=-5.45D-03 OVMax= 2.71D-02

 Cycle   7  Pass 0  IDiag  1:
 E= -323.203502858341     Delta-E=       -0.003242276533 Rises=F Damp=F
 DIIS: error= 4.54D-04 at cycle   7 NSaved=   7.
 NSaved= 7 IEnMin= 7 EnMin= -323.203502858341     IErMin= 7 ErrMin= 4.54D-04
 ErrMax= 4.54D-04  0.00D+00 EMaxC= 1.00D-01 BMatC= 7.76D-05 BMatP= 3.13D-03
 IDIUse=3 WtCom= 9.95D-01 WtEn= 4.54D-03
 Coeff-Com: -0.716D-01 0.100D+00 0.311D-01-0.132D-01 0.228D+00 0.227D+00
 Coeff-Com:  0.498D+00
 Coeff-En:   0.000D+00 0.000D+00 0.000D+00 0.000D+00 0.000D+00 0.000D+00
 Coeff-En:   0.100D+01
 Coeff:     -0.712D-01 0.997D-01 0.310D-01-0.131D-01 0.227D+00 0.226D+00
 Coeff:      0.500D+00
 Gap=     0.130 Goal=   None    Shift=    0.000
 RMSDP=2.83D-05 MaxDP=9.61D-04 DE=-3.24D-03 OVMax= 5.58D-03

 Cycle   8  Pass 0  IDiag  1:
 E= -323.203575071883     Delta-E=       -0.000072213542 Rises=F Damp=F
 DIIS: error= 2.05D-04 at cycle   8 NSaved=   8.
 NSaved= 8 IEnMin= 8 EnMin= -323.203575071883     IErMin= 8 ErrMin= 2.05D-04
 ErrMax= 2.05D-04  0.00D+00 EMaxC= 1.00D-01 BMatC= 9.43D-06 BMatP= 7.76D-05
 IDIUse=3 WtCom= 9.98D-01 WtEn= 2.05D-03
 Coeff-Com: -0.763D-02 0.713D-02-0.122D-02 0.824D-03 0.267D-01 0.482D-01
 Coeff-Com:  0.329D+00 0.597D+00
 Coeff-En:   0.000D+00 0.000D+00 0.000D+00 0.000D+00 0.000D+00 0.000D+00
 Coeff-En:   0.000D+00 0.100D+01
 Coeff:     -0.761D-02 0.711D-02-0.122D-02 0.822D-03 0.267D-01 0.481D-01
 Coeff:      0.328D+00 0.598D+00
 Gap=     0.130 Goal=   None    Shift=    0.000
 RMSDP=8.70D-06 MaxDP=4.03D-04 DE=-7.22D-05 OVMax= 1.23D-03

 Initial convergence to 1.0D-05 achieved.  Increase integral accuracy.
 Cycle   9  Pass 1  IDiag  1:
 E= -323.203505284585     Delta-E=        0.000069787298 Rises=F Damp=F
 DIIS: error= 5.59D-05 at cycle   1 NSaved=   1.
 NSaved= 1 IEnMin= 1 EnMin= -323.203505284585     IErMin= 1 ErrMin= 5.59D-05
 ErrMax= 5.59D-05  0.00D+00 EMaxC= 1.00D-01 BMatC= 4.92D-07 BMatP= 4.92D-07
 IDIUse=1 WtCom= 1.00D+00 WtEn= 0.00D+00
 Coeff-Com:  0.100D+01
 Coeff:      0.100D+01
 Gap=     0.130 Goal=   None    Shift=    0.000
 RMSDP=8.70D-06 MaxDP=4.03D-04 DE= 6.98D-05 OVMax= 7.48D-04

 Cycle  10  Pass 1  IDiag  1:
 E= -323.203504279901     Delta-E=        0.000001004684 Rises=F Damp=F
 DIIS: error= 1.28D-04 at cycle   2 NSaved=   2.
 NSaved= 2 IEnMin= 1 EnMin= -323.203505284585     IErMin= 1 ErrMin= 5.59D-05
 ErrMax= 1.28D-04  0.00D+00 EMaxC= 1.00D-01 BMatC= 1.49D-06 BMatP= 4.92D-07
 IDIUse=3 WtCom= 4.70D-01 WtEn= 5.30D-01
 Coeff-Com:  0.656D+00 0.344D+00
 Coeff-En:   0.727D+00 0.273D+00
 Coeff:      0.694D+00 0.306D+00
 Gap=     0.130 Goal=   None    Shift=    0.000
 RMSDP=3.62D-06 MaxDP=1.67D-04 DE= 1.00D-06 OVMax= 6.54D-04

 Cycle  11  Pass 1  IDiag  1:
 E= -323.203505783546     Delta-E=       -0.000001503645 Rises=F Damp=F
 DIIS: error= 1.71D-05 at cycle   3 NSaved=   3.
 NSaved= 3 IEnMin= 3 EnMin= -323.203505783546     IErMin= 3 ErrMin= 1.71D-05
 ErrMax= 1.71D-05  0.00D+00 EMaxC= 1.00D-01 BMatC= 6.03D-08 BMatP= 4.92D-07
 IDIUse=1 WtCom= 1.00D+00 WtEn= 0.00D+00
 Coeff-Com:  0.210D+00 0.157D+00 0.633D+00
 Coeff:      0.210D+00 0.157D+00 0.633D+00
 Gap=     0.130 Goal=   None    Shift=    0.000
 RMSDP=1.36D-06 MaxDP=5.95D-05 DE=-1.50D-06 OVMax= 2.39D-04

 Cycle  12  Pass 1  IDiag  1:
 E= -323.203505734634     Delta-E=        0.000000048912 Rises=F Damp=F
 DIIS: error= 2.22D-05 at cycle   4 NSaved=   4.
 NSaved= 4 IEnMin= 3 EnMin= -323.203505783546     IErMin= 3 ErrMin= 1.71D-05
 ErrMax= 2.22D-05  0.00D+00 EMaxC= 1.00D-01 BMatC= 1.25D-07 BMatP= 6.03D-08
 IDIUse=1 WtCom= 1.00D+00 WtEn= 0.00D+00
 Coeff-Com:  0.545D-01 0.759D-01 0.556D+00 0.313D+00
 Coeff:      0.545D-01 0.759D-01 0.556D+00 0.313D+00
 Gap=     0.130 Goal=   None    Shift=    0.000
 RMSDP=9.73D-07 MaxDP=4.88D-05 DE= 4.89D-08 OVMax= 1.44D-04

 Cycle  13  Pass 1  IDiag  1:
 E= -323.203505836419     Delta-E=       -0.000000101785 Rises=F Damp=F
 DIIS: error= 5.79D-06 at cycle   5 NSaved=   5.
 NSaved= 5 IEnMin= 5 EnMin= -323.203505836419     IErMin= 5 ErrMin= 5.79D-06
 ErrMax= 5.79D-06  0.00D+00 EMaxC= 1.00D-01 BMatC= 1.03D-08 BMatP= 6.03D-08
 IDIUse=1 WtCom= 1.00D+00 WtEn= 0.00D+00
 Coeff-Com:  0.633D-02 0.312D-01 0.299D+00 0.241D+00 0.422D+00
 Coeff:      0.633D-02 0.312D-01 0.299D+00 0.241D+00 0.422D+00
 Gap=     0.130 Goal=   None    Shift=    0.000
 RMSDP=2.66D-07 MaxDP=1.07D-05 DE=-1.02D-07 OVMax= 3.08D-05

 Cycle  14  Pass 1  IDiag  1:
 E= -323.203505844038     Delta-E=       -0.000000007618 Rises=F Damp=F
 DIIS: error= 3.22D-06 at cycle   6 NSaved=   6.
 NSaved= 6 IEnMin= 6 EnMin= -323.203505844038     IErMin= 6 ErrMin= 3.22D-06
 ErrMax= 3.22D-06  0.00D+00 EMaxC= 1.00D-01 BMatC= 1.03D-09 BMatP= 1.03D-08
 IDIUse=1 WtCom= 1.00D+00 WtEn= 0.00D+00
 Coeff-Com: -0.254D-02 0.133D-01 0.136D+00 0.135D+00 0.291D+00 0.428D+00
 Coeff:     -0.254D-02 0.133D-01 0.136D+00 0.135D+00 0.291D+00 0.428D+00
 Gap=     0.130 Goal=   None    Shift=    0.000
 RMSDP=9.45D-08 MaxDP=3.87D-06 DE=-7.62D-09 OVMax= 1.33D-05

 Cycle  15  Pass 1  IDiag  1:
 E= -323.203505845154     Delta-E=       -0.000000001117 Rises=F Damp=F
 DIIS: error= 2.35D-07 at cycle   7 NSaved=   7.
 NSaved= 7 IEnMin= 7 EnMin= -323.203505845154     IErMin= 7 ErrMin= 2.35D-07
 ErrMax= 2.35D-07  0.00D+00 EMaxC= 1.00D-01 BMatC= 1.51D-11 BMatP= 1.03D-09
 IDIUse=1 WtCom= 1.00D+00 WtEn= 0.00D+00
 Coeff-Com: -0.135D-02 0.507D-02 0.517D-01 0.550D-01 0.116D+00 0.202D+00
 Coeff-Com:  0.572D+00
 Coeff:     -0.135D-02 0.507D-02 0.517D-01 0.550D-01 0.116D+00 0.202D+00
 Coeff:      0.572D+00
 Gap=     0.130 Goal=   None    Shift=    0.000
 RMSDP=1.30D-08 MaxDP=5.58D-07 DE=-1.12D-09 OVMax= 1.24D-06

 Cycle  16  Pass 1  IDiag  1:
 E= -323.203505845161     Delta-E=       -0.000000000007 Rises=F Damp=F
 DIIS: error= 8.43D-08 at cycle   8 NSaved=   8.
 NSaved= 8 IEnMin= 8 EnMin= -323.203505845161     IErMin= 8 ErrMin= 8.43D-08
 ErrMax= 8.43D-08  0.00D+00 EMaxC= 1.00D-01 BMatC= 1.73D-12 BMatP= 1.51D-11
 IDIUse=1 WtCom= 1.00D+00 WtEn= 0.00D+00
 Coeff-Com: -0.552D-03 0.196D-02 0.200D-01 0.217D-01 0.455D-01 0.855D-01
 Coeff-Com:  0.324D+00 0.502D+00
 Coeff:     -0.552D-03 0.196D-02 0.200D-01 0.217D-01 0.455D-01 0.855D-01
 Coeff:      0.324D+00 0.502D+00
 Gap=     0.130 Goal=   None    Shift=    0.000
 RMSDP=4.77D-09 MaxDP=3.12D-07 DE=-6.93D-12 OVMax= 8.98D-07

 SCF Done:  E(RPBE-PBE) =  -323.203505845     A.U. after   16 cycles
            NFock= 16  Conv=0.48D-08     -V/T= 2.0040
 KE= 3.219273612681D+02 PE=-1.304121038474D+03 EE= 3.842103607291D+02
 Leave Link  502 at Sat Aug 28 00:50:49 2021, MaxMem= 17179869184 cpu:       403.5
 (Enter /public3/home/sc51754/softwares/g09e01/l801.exe)
 Range of M.O.s used for correlation:     1   280
 NBasis=   280 NAE=    25 NBE=    25 NFC=     0 NFV=     0
 NROrb=    280 NOA=    25 NOB=    25 NVA=   255 NVB=   255

 **** Warning!!: The largest alpha MO coefficient is  0.19762069D+02

 Leave Link  801 at Sat Aug 28 00:50:49 2021, MaxMem= 17179869184 cpu:         1.2
 (Enter /public3/home/sc51754/softwares/g09e01/l1101.exe)
 Using compressed storage, NAtomX=    12.
 Will process     13 centers per pass.
 Leave Link 1101 at Sat Aug 28 00:50:51 2021, MaxMem= 17179869184 cpu:        51.1
 (Enter /public3/home/sc51754/softwares/g09e01/l1102.exe)
 Symmetrizing basis deriv contribution to polar:
 IMax=3 JMax=2 DiffMx= 0.00D+00
 Leave Link 1102 at Sat Aug 28 00:50:52 2021, MaxMem= 17179869184 cpu:        12.9
 (Enter /public3/home/sc51754/softwares/g09e01/l1110.exe)
 Forming Gx(P) for the SCF density, NAtomX=    12.
 Integral derivatives from FoFJK, PRISM(SPDF).
 Do as many integral derivatives as possible in FoFJK.
 G2DrvN: MDV=   17179868984.
 G2DrvN: will do    13 centers at a time, making    1 passes.
 Calling FoFCou, ICntrl=  3507 FMM=F I1Cent=   0 AccDes= 0.00D+00.
 FoFJK:  IHMeth= 1 ICntrl=    3507 DoSepK=F KAlg= 0 I1Cent=   0 FoldK=F
 IRaf=         0 NMat=   1 IRICut=       1 DoRegI=T DoRafI=F ISym2E= 1.
 FoFCou: FMM=F IPFlag=           0 FMFlag=      100000 FMFlg1=           0
         NFxFlg=           0 DoJE=F BraDBF=F KetDBF=F FulRan=T
         wScrn=  0.000000 ICntrl=    3507 IOpCl=  0 I1Cent=           0 NGrid=           0
         NMat0=    1 NMatS0=      1 NMatT0=    0 NMatD0=    1 NMtDS0=    0 NMtDT0=    0
 Petite list used in FoFCou.
 End of G2Drv F.D. properties file   721 does not exist.
 End of G2Drv F.D. properties file   722 does not exist.
 End of G2Drv F.D. properties file   788 does not exist.
 Leave Link 1110 at Sat Aug 28 00:50:57 2021, MaxMem= 17179869184 cpu:       274.7
 (Enter /public3/home/sc51754/softwares/g09e01/l1002.exe)
 Minotr:  Closed shell wavefunction.
          IDoAtm=111111111111
          Direct CPHF calculation.
          Differentiating once with respect to nuclear coordinates.
          Using symmetry in CPHF.
          Requested convergence is 1.0D-08 RMS, and 1.0D-07 maximum.
          Secondary convergence is 1.0D-12 RMS, and 1.0D-12 maximum.
          NewPWx=T KeepS1=F KeepF1=F KeepIn=T MapXYZ=F SortEE=F KeepMc=T.
          MDV=   17179868780 using IRadAn=       2.
 Generate precomputed XC quadrature information.
 Keep J ints in memory in symmetry-blocked form, NReq=1167458725.
 FoFCou: FMM=F IPFlag=           0 FMFlag=           0 FMFlg1=           0
         NFxFlg=           0 DoJE=F BraDBF=F KetDBF=F FulRan=T
         wScrn=  0.000000 ICntrl=     600 IOpCl=  0 I1Cent=           0 NGrid=           0
         NMat0=    1 NMatS0=  39340 NMatT0=    0 NMatD0=    1 NMtDS0=    0 NMtDT0=    0
 Petite list used in FoFCou.
          Solving linear equations simultaneously, MaxMat=       0.
          There are    39 degrees of freedom in the 1st order CPHF.  IDoFFX=6 NUNeed=     0.
     33 vectors produced by pass  0 Test12= 1.63D-14 2.56D-09 XBig12= 1.89D-01 2.03D-01.
 AX will form    33 AO Fock derivatives at one time.
     33 vectors produced by pass  1 Test12= 1.63D-14 2.56D-09 XBig12= 7.14D-02 1.02D-01.
     33 vectors produced by pass  2 Test12= 1.63D-14 2.56D-09 XBig12= 5.92D-04 5.45D-03.
     33 vectors produced by pass  3 Test12= 1.63D-14 2.56D-09 XBig12= 2.32D-06 1.62D-04.
     33 vectors produced by pass  4 Test12= 1.63D-14 2.56D-09 XBig12= 6.95D-09 8.45D-06.
     20 vectors produced by pass  5 Test12= 1.63D-14 2.56D-09 XBig12= 1.98D-12 1.16D-07.
      2 vectors produced by pass  6 Test12= 1.63D-14 2.56D-09 XBig12= 1.93D-15 4.96D-09.
 InvSVY:  IOpt=1 It=  1 EMax= 9.99D-16
 Solved reduced A of dimension   187 with    33 vectors.
 End of Minotr F.D. properties file   721 does not exist.
 End of Minotr F.D. properties file   722 does not exist.
 End of Minotr F.D. properties file   788 does not exist.
 Leave Link 1002 at Sat Aug 28 00:51:10 2021, MaxMem= 17179869184 cpu:       740.9
 (Enter /public3/home/sc51754/softwares/g09e01/l601.exe)
 Copying SCF densities to generalized density rwf, IOpCl= 0 IROHF=0.

 **********************************************************************

            Population analysis using the SCF density.

 **********************************************************************

 Orbital symmetries:
       Occupied  (A') (A') (A') (A') (A') (A') (A') (A') (A') (A')
                 (A') (A') (A') (A') (A') (A') (A") (A') (A') (A')
                 (A") (A') (A") (A') (A")
       Virtual   (A") (A') (A") (A') (A') (A') (A') (A") (A') (A')
                 (A") (A') (A') (A') (A") (A') (A") (A') (A') (A")
                 (A') (A') (A") (A') (A') (A') (A') (A') (A') (A')
                 (A') (A") (A') (A") (A') (A') (A') (A') (A') (A')
                 (A') (A') (A') (A") (A') (A') (A") (A') (A") (A")
                 (A') (A') (A") (A') (A") (A") (A') (A') (A') (A')
                 (A') (A') (A") (A') (A") (A') (A') (A') (A") (A')
                 (A") (A") (A') (A") (A") (A') (A') (A") (A') (A')
                 (A") (A") (A') (A') (A") (A') (A") (A') (A') (A")
                 (A') (A") (A') (A') (A') (A') (A') (A") (A') (A')
                 (A') (A') (A") (A') (A') (A') (A") (A') (A') (A')
                 (A") (A') (A') (A') (A') (A') (A') (A") (A') (A')
                 (A') (A") (A') (A") (A') (A") (A') (A") (A") (A")
                 (A') (A") (A') (A") (A') (A') (A') (A") (A') (A')
                 (A') (A') (A') (A") (A') (A") (A') (A") (A') (A')
                 (A') (A') (A') (A") (A") (A") (A") (A') (A') (A")
                 (A") (A') (A") (A') (A') (A") (A') (A') (A") (A')
                 (A') (A") (A') (A") (A") (A') (A') (A") (A") (A")
                 (A') (A') (A") (A') (A") (A") (A') (A") (A') (A")
                 (A") (A') (A") (A') (A') (A") (A') (A") (A') (A")
                 (A') (A') (A") (A") (A') (A') (A') (A") (A') (A')
                 (A') (A") (A') (A") (A') (A') (A") (A') (A') (A")
                 (A') (A") (A') (A') (A") (A') (A") (A') (A') (A')
                 (A') (A') (A") (A') (A') (A') (A') (A') (A") (A')
                 (A') (A') (A") (A') (A') (A') (A') (A') (A') (A')
                 (A') (A') (A') (A') (A')
 The electronic state is 1-A'.
 Alpha  occ. eigenvalues --  -18.76061 -14.02473  -9.98142  -9.94672  -9.91853
 Alpha  occ. eigenvalues --   -9.90607  -9.90328  -0.95090  -0.86762  -0.75002
 Alpha  occ. eigenvalues --   -0.69091  -0.60509  -0.56726  -0.48933  -0.46406
 Alpha  occ. eigenvalues --   -0.42466  -0.40147  -0.39206  -0.38585  -0.34466
 Alpha  occ. eigenvalues --   -0.30761  -0.30101  -0.28159  -0.27811  -0.21178
 Alpha virt. eigenvalues --   -0.08166  -0.04824  -0.04656   0.00143   0.02353
 Alpha virt. eigenvalues --    0.04005   0.06173   0.07686   0.09365   0.12098
 Alpha virt. eigenvalues --    0.13187   0.13188   0.14482   0.15209   0.17184
 Alpha virt. eigenvalues --    0.17470   0.18241   0.21328   0.21919   0.24275
 Alpha virt. eigenvalues --    0.24335   0.25467   0.26082   0.26602   0.27421
 Alpha virt. eigenvalues --    0.29221   0.30245   0.32242   0.32995   0.35422
 Alpha virt. eigenvalues --    0.38635   0.39354   0.39453   0.40689   0.41810
 Alpha virt. eigenvalues --    0.45365   0.48062   0.48800   0.51604   0.54298
 Alpha virt. eigenvalues --    0.55397   0.57645   0.59697   0.59731   0.61357
 Alpha virt. eigenvalues --    0.63930   0.65474   0.69481   0.71416   0.74417
 Alpha virt. eigenvalues --    0.76114   0.84254   0.84751   0.85002   0.88303
 Alpha virt. eigenvalues --    0.89270   0.90248   0.91071   0.92775   0.95068
 Alpha virt. eigenvalues --    0.95732   1.02459   1.02502   1.04428   1.07821
 Alpha virt. eigenvalues --    1.09756   1.10077   1.11598   1.13297   1.16046
 Alpha virt. eigenvalues --    1.16293   1.18967   1.20654   1.20826   1.23051
 Alpha virt. eigenvalues --    1.28684   1.34090   1.34510   1.34637   1.42305
 Alpha virt. eigenvalues --    1.42757   1.43786   1.45310   1.47764   1.49537
 Alpha virt. eigenvalues --    1.50929   1.52858   1.54595   1.58051   1.59538
 Alpha virt. eigenvalues --    1.59651   1.60914   1.63333   1.65657   1.69059
 Alpha virt. eigenvalues --    1.70504   1.73976   1.77124   1.78674   1.79466
 Alpha virt. eigenvalues --    1.82911   1.84635   1.89071   1.91533   1.92435
 Alpha virt. eigenvalues --    2.00211   2.01306   2.04035   2.08038   2.10773
 Alpha virt. eigenvalues --    2.12307   2.14933   2.15968   2.17827   2.20470
 Alpha virt. eigenvalues --    2.22975   2.29960   2.30140   2.52423   2.56225
 Alpha virt. eigenvalues --    2.73719   2.76304   2.83488   2.85130   2.92725
 Alpha virt. eigenvalues --    3.03681   3.05091   3.08800   3.13295   3.16424
 Alpha virt. eigenvalues --    3.16644   3.19923   3.25419   3.26762   3.27400
 Alpha virt. eigenvalues --    3.29725   3.30850   3.37772   3.38027   3.45981
 Alpha virt. eigenvalues --    3.47926   3.48950   3.50572   3.50872   3.53734
 Alpha virt. eigenvalues --    3.56612   3.62334   3.62746   3.66923   3.73802
 Alpha virt. eigenvalues --    3.77035   3.79741   3.80021   3.81202   3.84811
 Alpha virt. eigenvalues --    3.86591   3.92833   3.94498   3.96294   3.96990
 Alpha virt. eigenvalues --    3.99795   3.99967   4.03279   4.03965   4.06581
 Alpha virt. eigenvalues --    4.08414   4.08474   4.09604   4.10446   4.11941
 Alpha virt. eigenvalues --    4.16201   4.16623   4.18157   4.19036   4.19251
 Alpha virt. eigenvalues --    4.21587   4.22965   4.24471   4.26832   4.30338
 Alpha virt. eigenvalues --    4.30755   4.31414   4.33026   4.33287   4.36098
 Alpha virt. eigenvalues --    4.37101   4.37568   4.40287   4.44346   4.45693
 Alpha virt. eigenvalues --    4.48400   4.51073   4.51655   4.55131   4.58189
 Alpha virt. eigenvalues --    4.58678   4.59714   4.65684   4.67134   4.73213
 Alpha virt. eigenvalues --    4.73813   4.80764   4.81539   4.82557   4.87641
 Alpha virt. eigenvalues --    4.92168   4.96809   4.97889   5.04989   5.07307
 Alpha virt. eigenvalues --    5.08375   5.12037   5.14524   5.16002   5.19392
 Alpha virt. eigenvalues --    5.22512   5.23077   5.23442   5.25937   5.29342
 Alpha virt. eigenvalues --    5.30103   5.30123   5.34028   5.40773   5.41530
 Alpha virt. eigenvalues --    5.45677   5.52430   5.52531   5.54383   5.60229
 Alpha virt. eigenvalues --    5.63485   5.68549   5.68756   5.74891   5.86712
 Alpha virt. eigenvalues --    5.93012   5.98063   6.00456   6.09764   6.18306
 Alpha virt. eigenvalues --    6.26419   6.31192   6.37882   6.38477   6.49147
 Alpha virt. eigenvalues --    6.69217   6.90692   7.00413   9.12005  11.63539
 Alpha virt. eigenvalues --   12.35296  14.46226  17.24277  18.20343  21.90430
          Condensed to atoms (all electrons):
               1          2          3          4          5          6
     1  O    8.068897  -0.136200   0.391783  -0.062581   0.001256   0.006844
     2  N   -0.136200   6.639473   0.363791  -0.004036   0.510277  -0.031487
     3  C    0.391783   0.363791   4.522348   0.496991  -0.084187  -0.054069
     4  C   -0.062581  -0.004036   0.496991   4.834350  -0.041290   0.528693
     5  C    0.001256   0.510277  -0.084187  -0.041290   4.629128  -0.070777
     6  C    0.006844  -0.031487  -0.054069   0.528693  -0.070777   4.742241
     7  C    0.000012  -0.033929  -0.041568  -0.059759   0.533181   0.492989
     8  H    0.187199   0.092617  -0.058225   0.022410   0.000478  -0.006649
     9  H    0.004110   0.007603  -0.036879   0.430694  -0.002236  -0.033114
    10  H   -0.000837  -0.032990   0.004473  -0.001516   0.425076   0.007569
    11  H   -0.000429  -0.001310   0.008400  -0.031355   0.008197   0.419118
    12  H    0.000070   0.006394  -0.000339   0.007103  -0.027075  -0.033066
               7          8          9         10         11         12
     1  O    0.000012   0.187199   0.004110  -0.000837  -0.000429   0.000070
     2  N   -0.033929   0.092617   0.007603  -0.032990  -0.001310   0.006394
     3  C   -0.041568  -0.058225  -0.036879   0.004473   0.008400  -0.000339
     4  C   -0.059759   0.022410   0.430694  -0.001516  -0.031355   0.007103
     5  C    0.533181   0.000478  -0.002236   0.425076   0.008197  -0.027075
     6  C    0.492989  -0.006649  -0.033114   0.007569   0.419118  -0.033066
     7  C    4.907750   0.004767   0.008558  -0.052650  -0.039996   0.421098
     8  H    0.004767   0.544639  -0.001207  -0.004248   0.000285  -0.000184
     9  H    0.008558  -0.001207   0.568964   0.000301  -0.006337  -0.000278
    10  H   -0.052650  -0.004248   0.000301   0.590387  -0.000413  -0.003731
    11  H   -0.039996   0.000285  -0.006337  -0.000413   0.588440  -0.005795
    12  H    0.421098  -0.000184  -0.000278  -0.003731  -0.005795   0.580190
 Mulliken charges:
               1
     1  O   -0.460124
     2  N   -0.380203
     3  C    0.487480
     4  C   -0.119706
     5  C    0.117971
     6  C    0.031708
     7  C   -0.140455
     8  H    0.218119
     9  H    0.059820
    10  H    0.068580
    11  H    0.061197
    12  H    0.055614
 Sum of Mulliken charges =  -0.00000
 Mulliken charges with hydrogens summed into heavy atoms:
               1
     1  O   -0.242005
     2  N   -0.380203
     3  C    0.487480
     4  C   -0.059886
     5  C    0.186551
     6  C    0.092905
     7  C   -0.084841
 APT charges:
               1
     1  O   -0.217139
     2  N   -0.391913
     3  C    0.125777
     4  C   -0.523461
     5  C   -0.377086
     6  C   -0.374309
     7  C   -0.502902
     8  H    0.270735
     9  H    0.441107
    10  H    0.495598
    11  H    0.505473
    12  H    0.548122
 Sum of APT charges =  -0.00000
 APT charges with hydrogens summed into heavy atoms:
               1
     1  O    0.053596
     2  N   -0.391913
     3  C    0.125777
     4  C   -0.082354
     5  C    0.118511
     6  C    0.131163
     7  C    0.045220
 Electronic spatial extent (au):  <R**2>=            630.5563
 Charge=             -0.0000 electrons
 Dipole moment (field-independent basis, Debye):
    X=              0.0772    Y=             -3.0919    Z=              0.0000  Tot=              3.0929
 Quadrupole moment (field-independent basis, Debye-Ang):
   XX=            -35.7987   YY=            -43.3916   ZZ=            -43.3694
   XY=             -0.6887   XZ=              0.0000   YZ=              0.0000
 Traceless Quadrupole moment (field-independent basis, Debye-Ang):
   XX=              5.0546   YY=             -2.5384   ZZ=             -2.5162
   XY=             -0.6887   XZ=              0.0000   YZ=              0.0000
 Octapole moment (field-independent basis, Debye-Ang**2):
  XXX=              2.7197  YYY=            -20.4987  ZZZ=              0.0000  XYY=             -4.0532
  XXY=              0.6412  XXZ=              0.0000  XZZ=             -1.2958  YZZ=              4.4453
  YYZ=              0.0000  XYZ=              0.0000
 Hexadecapole moment (field-independent basis, Debye-Ang**3):
 XXXX=           -267.4791 YYYY=           -524.1762 ZZZZ=            -47.2550 XXXY=              9.9615
 XXXZ=              0.0000 YYYX=             -2.3530 YYYZ=              0.0000 ZZZX=              0.0000
 ZZZY=              0.0000 XXYY=           -114.1613 XXZZ=            -61.4606 YYZZ=            -99.1499
 XXYZ=              0.0000 YYXZ=              0.0000 ZZXY=              2.2419
 N-N= 2.747798106315D+02 E-N=-1.304121040319D+03  KE= 3.219273612681D+02
 Symmetry A'   KE= 3.101970481580D+02
 Symmetry A"   KE= 1.173031311012D+01
  Exact polarizability:   0.000   0.000   0.000   0.000   0.000   0.000
 Approx polarizability: 168.907   9.174 211.957  -0.000  -0.000  64.697
 No NMR shielding tensors so no spin-rotation constants.
 Leave Link  601 at Sat Aug 28 00:51:12 2021, MaxMem= 17179869184 cpu:       100.7
 (Enter /public3/home/sc51754/softwares/g09e01/l701.exe)
 Compute integral second derivatives.
 ... and contract with generalized density number  0.
 Leave Link  701 at Sat Aug 28 00:51:13 2021, MaxMem= 17179869184 cpu:        86.6
 (Enter /public3/home/sc51754/softwares/g09e01/l702.exe)
 L702 exits ... SP integral derivatives will be done elsewhere.
 Leave Link  702 at Sat Aug 28 00:51:14 2021, MaxMem= 17179869184 cpu:         0.7
 (Enter /public3/home/sc51754/softwares/g09e01/l703.exe)
 Compute integral second derivatives, UseDBF=F ICtDFT=           0.
 Integral derivatives from FoFJK, PRISM(SPDF).
 Calling FoFJK, ICntrl=    100547 FMM=F ISym2X=1 I1Cent= 0 IOpClX= 0 NMat=1 NMatS=1 NMatT=0.
 FoFJK:  IHMeth= 1 ICntrl=  100547 DoSepK=F KAlg= 0 I1Cent=   0 FoldK=F
 IRaf=         0 NMat=   1 IRICut=       1 DoRegI=T DoRafI=F ISym2E= 1.
 FoFCou: FMM=F IPFlag=           0 FMFlag=      100000 FMFlg1=         800
         NFxFlg=           0 DoJE=F BraDBF=F KetDBF=F FulRan=T
         wScrn=  0.000000 ICntrl=  100547 IOpCl=  0 I1Cent=           0 NGrid=           0
         NMat0=    1 NMatS0=      1 NMatT0=    0 NMatD0=    1 NMtDS0=    0 NMtDT0=    0
 Petite list used in FoFCou.
 Leave Link  703 at Sat Aug 28 00:51:21 2021, MaxMem= 17179869184 cpu:       482.2
 (Enter /public3/home/sc51754/softwares/g09e01/l716.exe)
 Dipole        = 3.03881418D-02-1.21646328D+00 9.99880393D-32
 Polarizability= 0.00000000D+00 0.00000000D+00 0.00000000D+00
                 0.00000000D+00 0.00000000D+00 0.00000000D+00
 ***** Axes restored to original set *****
 -------------------------------------------------------------------
 Center     Atomic                   Forces (Hartrees/Bohr)
 Number     Number              X              Y              Z
 -------------------------------------------------------------------
      1        8          -0.075281083   -0.055238860   -0.000000000
      2        7           0.007347385    0.017135355   -0.000000000
      3        6           0.046462253    0.042829536    0.000000000
      4        6           0.003784535   -0.016688626    0.000000000
      5        6          -0.014735081   -0.013997205   -0.000000000
      6        6           0.005528118    0.006085897   -0.000000000
      7        6          -0.005784238    0.003816722   -0.000000000
      8        1           0.034972151    0.015285683    0.000000000
      9        1          -0.001458627    0.000246921   -0.000000000
     10        1           0.000839809    0.000135973    0.000000000
     11        1          -0.000033547   -0.000656546    0.000000000
     12        1          -0.001641673    0.001045150   -0.000000000
 -------------------------------------------------------------------
 Cartesian Forces:  Max     0.075281083 RMS     0.020645570
 Force constants in Cartesian coordinates: 
                1             2             3             4             5 
      1  0.576675D-01
      2  0.900481D-02  0.382717D+00
      3  0.000000D+00  0.000000D+00  0.706878D-01
      4 -0.168493D-01 -0.234255D-01  0.000000D+00  0.483542D+00
      5 -0.898798D-01 -0.453476D-01  0.000000D+00  0.131931D+00  0.588167D+00
      6  0.000000D+00  0.000000D+00  0.166942D-01  0.000000D+00  0.000000D+00
      7 -0.856058D-01  0.501024D-02  0.000000D+00 -0.310090D+00 -0.719833D-01
      8 -0.181811D-01 -0.258492D+00  0.000000D+00 -0.105179D+00 -0.182797D+00
      9  0.000000D+00  0.000000D+00 -0.683089D-01  0.000000D+00  0.000000D+00
     10 -0.305215D-02  0.183096D-01  0.000000D+00 -0.525458D-01 -0.236023D-01
     11  0.506101D-01 -0.461145D-01  0.000000D+00  0.924476D-02  0.554372D-01
     12  0.000000D+00  0.000000D+00  0.127625D-01  0.000000D+00  0.000000D+00
     13  0.664671D-02 -0.230144D-02  0.000000D+00 -0.111931D+00 -0.358761D-02
     14  0.187405D-01 -0.203244D-02  0.000000D+00  0.129791D-02 -0.324823D+00
     15  0.000000D+00  0.000000D+00  0.636711D-02  0.000000D+00  0.000000D+00
     16 -0.136849D-01  0.523879D-02  0.000000D+00 -0.129961D-01 -0.369179D-01
     17 -0.896527D-02  0.928179D-02  0.000000D+00 -0.219040D-01 -0.444810D-01
     18  0.000000D+00  0.000000D+00  0.489813D-02  0.000000D+00  0.000000D+00
     19  0.113198D-01 -0.599868D-02  0.000000D+00  0.292356D-01  0.711851D-01
     20 -0.632566D-02 -0.497939D-02  0.000000D+00  0.228365D-01 -0.516950D-01
     21  0.000000D+00  0.000000D+00 -0.243649D-02  0.000000D+00  0.000000D+00
     22  0.399001D-01 -0.507303D-02  0.000000D+00 -0.520754D-02  0.193974D-01
     23  0.451704D-01 -0.342001D-01  0.000000D+00  0.100429D-01  0.285405D-01
     24  0.000000D+00  0.000000D+00 -0.380891D-01  0.000000D+00  0.000000D+00
     25  0.235518D-02 -0.536414D-03  0.000000D+00 -0.367379D-02  0.381794D-02
     26 -0.600313D-03  0.762150D-03  0.000000D+00  0.489442D-02 -0.936366D-03
     27  0.000000D+00  0.000000D+00 -0.185333D-02  0.000000D+00  0.000000D+00
     28 -0.583272D-03  0.677010D-04  0.000000D+00  0.380508D-02 -0.414958D-02
     29 -0.642782D-03 -0.126763D-02  0.000000D+00 -0.321379D-01 -0.214834D-01
     30  0.000000D+00  0.000000D+00  0.861886D-03  0.000000D+00  0.000000D+00
     31 -0.425317D-04  0.673971D-04  0.000000D+00  0.601383D-03 -0.701780D-03
     32  0.172607D-02 -0.664934D-03  0.000000D+00 -0.373404D-03 -0.381712D-03
     33  0.000000D+00  0.000000D+00 -0.834923D-03  0.000000D+00  0.000000D+00
     34  0.192849D-02 -0.363489D-03  0.000000D+00 -0.389058D-02  0.449097D-02
     35 -0.656930D-03  0.337394D-03  0.000000D+00  0.277231D-02 -0.200452D-03
     36  0.000000D+00  0.000000D+00 -0.748879D-03  0.000000D+00  0.000000D+00
                6             7             8             9            10 
      6  0.833287D-01
      7  0.000000D+00  0.718003D+00
      8  0.000000D+00 -0.285942D-01  0.600627D+00
      9 -0.660321D-01  0.000000D+00  0.000000D+00  0.172589D+00
     10  0.000000D+00 -0.263301D+00  0.880029D-01  0.000000D+00  0.684926D+00
     11  0.000000D+00  0.494914D-01 -0.129047D+00  0.000000D+00  0.439359D-01
     12  0.105112D-01  0.000000D+00  0.000000D+00 -0.705805D-01  0.000000D+00
     13  0.000000D+00  0.178123D-01 -0.319249D-01  0.000000D+00 -0.121178D-01
     14  0.000000D+00 -0.890632D-01 -0.347267D-01  0.000000D+00  0.270604D-01
     15 -0.482325D-01  0.000000D+00  0.000000D+00  0.180076D-02  0.000000D+00
     16  0.000000D+00  0.389027D-01  0.274052D-01  0.000000D+00 -0.122185D+00
     17  0.000000D+00  0.637780D-01 -0.357843D-01  0.000000D+00 -0.271932D-01
     18 -0.546728D-02  0.000000D+00  0.000000D+00  0.200436D-02  0.000000D+00
     19  0.000000D+00 -0.610950D-01  0.374885D-02  0.000000D+00  0.236556D-01
     20  0.000000D+00  0.130291D-01  0.260739D-03  0.000000D+00 -0.330161D-01
     21  0.165152D-01  0.000000D+00  0.000000D+00 -0.826255D-02  0.000000D+00
     22  0.000000D+00 -0.414730D-01  0.797488D-01  0.000000D+00  0.277318D-02
     23  0.000000D+00  0.463814D-01  0.380660D-01  0.000000D+00  0.417575D-02
     24 -0.160241D-01  0.000000D+00  0.000000D+00  0.163904D-01  0.000000D+00
     25  0.000000D+00 -0.158777D-01 -0.162845D-01  0.000000D+00 -0.257871D+00
     26  0.000000D+00  0.124368D-01  0.997251D-02  0.000000D+00 -0.122289D+00
     27  0.486178D-02  0.000000D+00  0.000000D+00  0.157390D-02  0.000000D+00
     28  0.000000D+00  0.305969D-02  0.111396D-02  0.000000D+00  0.283173D-03
     29  0.000000D+00  0.127667D-02 -0.344049D-02  0.000000D+00  0.352134D-04
     30 -0.151798D-02  0.000000D+00  0.000000D+00  0.873758D-02  0.000000D+00
     31  0.000000D+00  0.178589D-02 -0.104301D-02  0.000000D+00  0.380911D-02
     32  0.000000D+00 -0.171878D-02 -0.478285D-02  0.000000D+00  0.270056D-01
     33 -0.186420D-02  0.000000D+00  0.000000D+00  0.103054D-01  0.000000D+00
     34  0.000000D+00 -0.212087D-02  0.118660D-02  0.000000D+00 -0.437336D-02
     35  0.000000D+00 -0.440706D-04  0.143715D-03  0.000000D+00 -0.242546D-02
     36  0.722709D-02  0.000000D+00  0.000000D+00 -0.217655D-03  0.000000D+00
               11            12            13            14            15 
     11  0.685952D+00
     12  0.000000D+00  0.110559D+00
     13  0.188993D-01  0.000000D+00  0.707195D+00
     14 -0.407627D-01  0.000000D+00  0.313985D-01  0.643793D+00
     15  0.000000D+00 -0.158676D-02  0.000000D+00  0.000000D+00  0.132203D+00
     16  0.188389D-01  0.000000D+00 -0.582497D-01  0.272276D-01  0.000000D+00
     17 -0.350004D+00  0.000000D+00 -0.144229D-01  0.555091D-01  0.000000D+00
     18  0.000000D+00 -0.537152D-01  0.000000D+00  0.000000D+00  0.654187D-02
     19 -0.610862D-01  0.000000D+00 -0.267298D+00  0.633801D-01  0.000000D+00
     20 -0.245539D-01  0.000000D+00  0.118246D+00 -0.170346D+00  0.000000D+00
     21  0.000000D+00  0.760736D-02  0.000000D+00  0.000000D+00 -0.597812D-01
     22 -0.619858D-02  0.000000D+00 -0.996707D-02 -0.604749D-02  0.000000D+00
     23 -0.156785D-01  0.000000D+00 -0.146843D-01 -0.176662D-01  0.000000D+00
     24  0.000000D+00  0.609033D-02  0.000000D+00  0.000000D+00 -0.400936D-02
     25 -0.120908D+00  0.000000D+00  0.466275D-04  0.205670D-02  0.000000D+00
     26 -0.124545D+00  0.000000D+00  0.340657D-03 -0.121018D-02  0.000000D+00
     27  0.000000D+00 -0.306682D-01  0.000000D+00  0.000000D+00 -0.351352D-03
     28  0.821250D-03  0.000000D+00 -0.273322D+00 -0.975418D-01  0.000000D+00
     29 -0.552103D-03  0.000000D+00 -0.944634D-01 -0.952438D-01  0.000000D+00
     30  0.000000D+00 -0.881474D-03  0.000000D+00  0.000000D+00 -0.376088D-01
     31 -0.172803D-02  0.000000D+00 -0.387722D-02 -0.365693D-02  0.000000D+00
     32 -0.108598D-01  0.000000D+00 -0.324432D-02 -0.781711D-03  0.000000D+00
     33  0.000000D+00  0.497119D-02  0.000000D+00  0.000000D+00  0.617855D-02
     34 -0.192090D-02  0.000000D+00  0.506291D-02  0.251477D-01  0.000000D+00
     35  0.728955D-03  0.000000D+00 -0.425508D-02 -0.117090D-01  0.000000D+00
     36  0.000000D+00  0.493052D-02  0.000000D+00  0.000000D+00 -0.152168D-02
               16            17            18            19            20 
     16  0.686422D+00
     17 -0.347469D-01  0.664253D+00
     18  0.000000D+00  0.000000D+00  0.131169D+00
     19 -0.272892D+00 -0.572290D-01  0.000000D+00  0.623362D+00
     20 -0.110687D+00 -0.159624D+00  0.000000D+00  0.625196D-02  0.716962D+00
     21  0.000000D+00  0.000000D+00 -0.557948D-01  0.000000D+00  0.000000D+00
     22  0.163446D-02  0.391136D-02  0.000000D+00 -0.217859D-02  0.103849D-02
     23  0.713365D-02  0.791355D-02  0.000000D+00 -0.880361D-02  0.493613D-02
     24  0.000000D+00  0.000000D+00 -0.372999D-03  0.000000D+00  0.000000D+00
     25  0.430813D-02  0.199329D-02  0.000000D+00  0.217417D-02  0.679016D-03
     26 -0.262663D-01 -0.101332D-01  0.000000D+00  0.166259D-02 -0.494547D-02
     27  0.000000D+00  0.000000D+00  0.169565D-02  0.000000D+00  0.000000D+00
     28 -0.300906D-02  0.393183D-02  0.000000D+00 -0.163913D-01 -0.126676D-01
     29  0.297825D-02 -0.154222D-02  0.000000D+00  0.147289D-01  0.106497D-01
     30  0.000000D+00  0.000000D+00  0.736153D-02  0.000000D+00  0.000000D+00
     31 -0.250979D+00  0.118226D+00  0.000000D+00 -0.166603D-01  0.157631D-01
     32  0.118054D+00 -0.126305D+00  0.000000D+00 -0.130939D-01  0.108095D-01
     33  0.000000D+00  0.000000D+00 -0.387826D-01  0.000000D+00  0.000000D+00
     34  0.272799D-02 -0.273796D-01  0.000000D+00 -0.532325D-01 -0.151477D-01
     35  0.174127D-02 -0.908401D-02  0.000000D+00 -0.147462D-01 -0.327475D+00
     36  0.000000D+00  0.000000D+00  0.462429D-03  0.000000D+00  0.000000D+00
               21            22            23            24            25 
     21  0.108141D+00
     22  0.000000D+00  0.165545D-01
     23  0.000000D+00 -0.872161D-01 -0.127894D-01
     24  0.280770D-02  0.000000D+00  0.000000D+00  0.354931D-01
     25  0.000000D+00 -0.140968D-02 -0.135990D-02  0.000000D+00  0.269184D+00
     26  0.000000D+00  0.153514D-03  0.763648D-03  0.000000D+00  0.130807D+00
     27  0.830323D-02  0.000000D+00  0.000000D+00 -0.342975D-03  0.000000D+00
     28  0.000000D+00  0.460590D-03  0.758594D-03  0.000000D+00 -0.419944D-04
     29  0.000000D+00 -0.236350D-03 -0.120623D-03  0.000000D+00 -0.159353D-03
     30  0.567086D-02  0.000000D+00  0.000000D+00 -0.153288D-02  0.000000D+00
     31  0.000000D+00 -0.352269D-04  0.153469D-04  0.000000D+00  0.689645D-03
     32  0.000000D+00  0.716887D-04 -0.672586D-03  0.000000D+00 -0.373784D-03
     33  0.394165D-02  0.000000D+00  0.000000D+00 -0.101028D-02  0.000000D+00
     34  0.000000D+00 -0.105168D-02 -0.161396D-02  0.000000D+00  0.116081D-03
     35  0.000000D+00  0.450269D-03  0.907597D-03  0.000000D+00  0.267931D-03
     36 -0.267121D-01  0.000000D+00  0.000000D+00  0.600127D-03  0.000000D+00
               26            27            28            29            30 
     26  0.129466D+00
     27  0.000000D+00  0.220378D-01
     28 -0.626279D-04  0.000000D+00  0.285965D+00
     29  0.109044D-03  0.000000D+00  0.108224D+00  0.111923D+00
     30  0.000000D+00 -0.147322D-02  0.000000D+00  0.000000D+00  0.243510D-01
     31  0.237374D-03  0.000000D+00 -0.934439D-03  0.859306D-03  0.000000D+00
     32  0.114100D-02  0.000000D+00 -0.750523D-03  0.442482D-03  0.000000D+00
     33  0.000000D+00 -0.433904D-02  0.000000D+00  0.000000D+00 -0.351941D-03
     34 -0.131442D-02  0.000000D+00  0.709174D-03 -0.462832D-03  0.000000D+00
     35 -0.444311D-03  0.000000D+00  0.254578D-03  0.525793D-03  0.000000D+00
     36  0.000000D+00  0.555739D-03  0.000000D+00  0.000000D+00 -0.361654D-02
               31            32            33            34            35 
     31  0.264662D+00
     32 -0.127894D+00  0.131403D+00
     33  0.000000D+00  0.000000D+00  0.246595D-01
     34  0.980340D-03  0.590754D-03  0.000000D+00  0.531440D-01
     35 -0.145606D-03  0.652607D-03  0.000000D+00  0.167869D-01  0.345616D+00
     36  0.000000D+00  0.000000D+00 -0.287335D-02  0.000000D+00  0.000000D+00
               36 
     36  0.219143D-01
 FormGI is forming the generalized inverse of G from B-inverse, IUseBI=4.
 Leave Link  716 at Sat Aug 28 00:51:22 2021, MaxMem= 17179869184 cpu:         7.4
 (Enter /public3/home/sc51754/softwares/g09e01/l103.exe)

 GradGradGradGradGradGradGradGradGradGradGradGradGradGradGradGradGradGrad
 Berny optimization.
 Red2BG is reusing G-inverse.
 Internal  Forces:  Max     0.046262679 RMS     0.010593887
 Search for a saddle point.
 Step number   1 out of a maximum of  100
 All quantities printed in internal units (Hartrees-Bohrs-Radians)
 Second derivative matrix not updated -- analytic derivatives used.
 ITU=  0
 LST/QST climbing along tangent vector
     Eigenvalues ---   -0.05464   0.00132   0.00598   0.01464   0.01615
     Eigenvalues ---    0.01922   0.02169   0.02601   0.02851   0.04031
     Eigenvalues ---    0.04476   0.09800   0.10141   0.11328   0.12254
     Eigenvalues ---    0.13907   0.18644   0.18811   0.22281   0.29099
     Eigenvalues ---    0.30438   0.33617   0.34277   0.34757   0.34871
     Eigenvalues ---    0.39380   0.40473   0.44390   0.46642   0.51587
     Eigenvalues --- 1000.000001000.000001000.000001000.000001000.00000
     Eigenvalues --- 1000.000001000.000001000.000001000.000001000.00000
     Eigenvalues --- 1000.000001000.000001000.000001000.000001000.00000
     Eigenvalues --- 1000.000001000.000001000.000001000.000001000.00000
     Eigenvalues --- 1000.000001000.000001000.000001000.000001000.00000
     Eigenvalues --- 1000.000001000.000001000.00000
 Eigenvectors required to have negative eigenvalues:
                          R2        R5        A4        A3        D22
   1                    0.65492  -0.52410  -0.22179   0.18666   0.17451
                          D8        D21       D10       A1        D19
   1                   -0.15960   0.15843  -0.14646  -0.14542  -0.13206
 QST in optimization variable space.
                        Tangent   TS vect  // Eig F  Eigenval
   1         R1        -0.04777  -0.04777  -0.02233  -0.05464
   2         R2         0.65492   0.65492  -0.00059   0.00132
   3         R3         0.02714   0.02714   0.00439   0.00598
   4         R4         0.00827   0.00827  -0.00052   0.01464
   5         R5        -0.52410  -0.52410   0.00068   0.01615
   6         R6         0.02031   0.02031   0.00009   0.01922
   7         R7        -0.00842  -0.00842   0.00044   0.02169
   8         R8        -0.00003  -0.00003   0.00016   0.02601
   9         R9        -0.01039  -0.01039   0.00035   0.02851
  10         R10       -0.00158  -0.00158   0.00023   0.04031
  11         R11        0.01038   0.01038  -0.01859   0.04476
  12         R12        0.00048   0.00048  -0.00280   0.09800
  13         R13       -0.00097  -0.00097   0.00518   0.10141
  14         A1        -0.14542  -0.14542  -0.00071   0.11328
  15         A2         0.03514   0.03514   0.00192   0.12254
  16         A3         0.18666   0.18666  -0.02197   0.13907
  17         A4        -0.22179  -0.22179   0.00650   0.18644
  18         A5         0.00714   0.00714   0.00464   0.18811
  19         A6         0.03925   0.03925  -0.01031   0.22281
  20         A7        -0.04639  -0.04639  -0.01932   0.29099
  21         A8         0.01737   0.01737  -0.00700   0.30438
  22         A9        -0.01606  -0.01606  -0.00022   0.33617
  23         A10       -0.00132  -0.00132  -0.00055   0.34277
  24         A11       -0.01351  -0.01351  -0.00160   0.34757
  25         A12        0.00254   0.00254  -0.00000   0.34871
  26         A13        0.01097   0.01097   0.00103   0.39380
  27         A14        0.00729   0.00729  -0.00187   0.40473
  28         A15       -0.00145  -0.00145  -0.00189   0.44390
  29         A16       -0.00584  -0.00584  -0.00137   0.46642
  30         A17        0.00010   0.00010   0.00313   0.51587
  31         A18       -0.00130  -0.00130   0.000001000.00000
  32         A19        0.00120   0.00120   0.000001000.00000
  33         D1         0.02078   0.02078  -0.000001000.00000
  34         D2         0.03170   0.03170   0.000001000.00000
  35         D3        -0.01786  -0.01786   0.000001000.00000
  36         D4        -0.02942  -0.02942  -0.000001000.00000
[...]
   R12        2.06226   0.00000   0.00000   0.00000   0.00000   2.06226
   R13        2.05539   0.00000   0.00000   0.00000   0.00000   2.05539
    A1        1.30203   0.00000   0.00000  -0.00001  -0.00001   1.30202
    A2        2.15235  -0.00000   0.00000  -0.00002  -0.00002   2.15233
    A3        1.30718  -0.00000   0.00000  -0.00001  -0.00001   1.30717
    A4        2.82366   0.00001   0.00000   0.00002   0.00002   2.82369
    A5        1.84469  -0.00000   0.00000  -0.00002  -0.00002   1.84467
    A6        2.34367   0.00000   0.00000   0.00002   0.00002   2.34369
    A7        2.09483   0.00000   0.00000   0.00000   0.00000   2.09483
    A8        2.03698  -0.00000   0.00000  -0.00000  -0.00000   2.03698
    A9        2.10818   0.00000   0.00000  -0.00000  -0.00000   2.10817
   A10        2.13803   0.00000   0.00000   0.00000   0.00000   2.13803
   A11        2.08093   0.00000   0.00000   0.00000   0.00000   2.08094
   A12        2.05209  -0.00000   0.00000  -0.00000  -0.00000   2.05209
   A13        2.15016  -0.00000   0.00000  -0.00000  -0.00000   2.15016
   A14        2.13003   0.00000   0.00000   0.00000   0.00000   2.13003
   A15        2.07725  -0.00000   0.00000  -0.00000  -0.00000   2.07725
   A16        2.07591  -0.00000   0.00000  -0.00000  -0.00000   2.07591
   A17        2.07126   0.00000   0.00000   0.00001   0.00001   2.07127
   A18        2.09808  -0.00000   0.00000  -0.00000  -0.00000   2.09807
   A19        2.11385  -0.00000   0.00000  -0.00000  -0.00000   2.11385
    D1       -0.00002  -0.00000   0.00000   0.00002   0.00002   0.00000
    D2        3.14147   0.00000   0.00000   0.00012   0.00012   3.14159
    D3        3.14147   0.00000   0.00000   0.00013   0.00013   3.14159
    D4       -0.00004  -0.00000   0.00000   0.00004   0.00004   0.00000
    D5        0.00002   0.00000   0.00000  -0.00002  -0.00002  -0.00000
    D6       -3.14149  -0.00000   0.00000  -0.00010  -0.00010  -3.14159
    D7        0.00008  -0.00000   0.00000  -0.00008  -0.00008  -0.00000
    D8       -3.14159   0.00000   0.00000  -0.00000  -0.00000  -3.14159
    D9        3.14123  -0.00000   0.00000   0.00037   0.00037   3.14159
   D10       -0.00044   0.00000   0.00000   0.00044   0.00044   0.00000
   D11       -3.14149  -0.00000   0.00000  -0.00010  -0.00010  -3.14159
   D12        0.00009  -0.00000   0.00000  -0.00009  -0.00009  -0.00000
   D13       -0.00002   0.00000   0.00000   0.00002   0.00002   0.00000
   D14        3.14156   0.00000   0.00000   0.00003   0.00003   3.14159
   D15        0.00003  -0.00000   0.00000  -0.00003  -0.00003  -0.00000
   D16       -3.14159  -0.00000   0.00000  -0.00000  -0.00000   3.14159
   D17       -3.14154  -0.00000   0.00000  -0.00005  -0.00005  -3.14159
   D18        0.00002  -0.00000   0.00000  -0.00002  -0.00002   0.00000
   D19       -0.00005   0.00000   0.00000   0.00005   0.00005   0.00000
   D20        3.14155   0.00000   0.00000   0.00004   0.00004  -3.14159
   D21       -3.14157  -0.00000   0.00000  -0.00002  -0.00002   3.14159
   D22        0.00004  -0.00000   0.00000  -0.00004  -0.00004   0.00000
   D23        0.00000  -0.00000   0.00000  -0.00000  -0.00000   0.00000
   D24        3.14158   0.00000   0.00000   0.00001   0.00001   3.14159
   D25       -3.14156  -0.00000   0.00000  -0.00003  -0.00003  -3.14159
   D26        0.00002  -0.00000   0.00000  -0.00002  -0.00002   0.00000
         Item               Value     Threshold  Converged?
 Maximum Force            0.000010     0.000450     YES
 RMS     Force            0.000002     0.000300     YES
 Maximum Displacement     0.000107     0.001800     YES
 RMS     Displacement     0.000026     0.001200     YES
 Predicted change in Energy=-1.288529D-09
 Optimization completed.
    -- Stationary point found.
                           ----------------------------
                           !   Optimized Parameters   !
                           ! (Angstroms and Degrees)  !
 --------------------------                            --------------------------
 ! Name  Definition              Value          Derivative Info.                !
 --------------------------------------------------------------------------------
 ! R1    R(1,3)                  1.2951         -DE/DX =    0.0                 !
 ! R2    R(1,8)                  1.3808         -DE/DX =    0.0                 !
 ! R3    R(2,3)                  1.369          -DE/DX =    0.0                 !
 ! R4    R(2,5)                  1.3404         -DE/DX =    0.0                 !
 ! R5    R(2,8)                  1.2987         -DE/DX =    0.0                 !
 ! R6    R(3,4)                  1.4115         -DE/DX =    0.0                 !
 ! R7    R(4,6)                  1.3888         -DE/DX =    0.0                 !
 ! R8    R(4,9)                  1.0877         -DE/DX =    0.0                 !
 ! R9    R(5,7)                  1.3896         -DE/DX =    0.0                 !
 ! R10   R(5,10)                 1.09           -DE/DX =    0.0                 !
 ! R11   R(6,7)                  1.4095         -DE/DX =    0.0                 !
 ! R12   R(6,11)                 1.0913         -DE/DX =    0.0                 !
 ! R13   R(7,12)                 1.0877         -DE/DX =    0.0                 !
 ! A1    A(3,1,8)               74.6008         -DE/DX =    0.0                 !
 ! A2    A(3,2,5)              123.3204         -DE/DX =    0.0                 !
 ! A3    A(3,2,8)               74.8957         -DE/DX =    0.0                 !
 ! A4    A(5,2,8)              161.7839         -DE/DX =    0.0                 !
 ! A5    A(1,3,2)              105.6928         -DE/DX =    0.0                 !
 ! A6    A(1,3,4)              134.2825         -DE/DX =    0.0                 !
 ! A7    A(2,3,4)              120.0247         -DE/DX =    0.0                 !
 ! A8    A(3,4,6)              116.7104         -DE/DX =    0.0                 !
 ! A9    A(3,4,9)              120.7896         -DE/DX =    0.0                 !
 ! A10   A(6,4,9)              122.5001         -DE/DX =    0.0                 !
 ! A11   A(2,5,7)              119.2286         -DE/DX =    0.0                 !
 ! A12   A(2,5,10)             117.5761         -DE/DX =    0.0                 !
 ! A13   A(7,5,10)             123.1953         -DE/DX =    0.0                 !
 ! A14   A(4,6,7)              122.0415         -DE/DX =    0.0                 !
 ! A15   A(4,6,11)             119.0174         -DE/DX =    0.0                 !
 ! A16   A(7,6,11)             118.941          -DE/DX =    0.0                 !
 ! A17   A(5,7,6)              118.6744         -DE/DX =    0.0                 !
 ! A18   A(5,7,12)             120.2111         -DE/DX =    0.0                 !
 ! A19   A(6,7,12)             121.1145         -DE/DX =    0.0                 !
 ! D1    D(8,1,3,2)             -0.0009         -DE/DX =    0.0                 !
 ! D2    D(8,1,3,4)            179.9931         -DE/DX =    0.0                 !
 ! D3    D(5,2,3,1)            179.9928         -DE/DX =    0.0                 !
 ! D4    D(5,2,3,4)             -0.0023         -DE/DX =    0.0                 !
 ! D5    D(8,2,3,1)              0.0009         -DE/DX =    0.0                 !
 ! D6    D(8,2,3,4)           -179.9941         -DE/DX =    0.0                 !
 ! D7    D(3,2,5,7)              0.0043         -DE/DX =    0.0                 !
 ! D8    D(3,2,5,10)          -179.9999         -DE/DX =    0.0                 !
 ! D9    D(8,2,5,7)            179.979          -DE/DX =    0.0                 !
 ! D10   D(8,2,5,10)            -0.0252         -DE/DX =    0.0                 !
 ! D11   D(1,3,4,6)           -179.9942         -DE/DX =    0.0                 !
 ! D12   D(1,3,4,9)              0.0049         -DE/DX =    0.0                 !
 ! D13   D(2,3,4,6)             -0.0009         -DE/DX =    0.0                 !
 ! D14   D(2,3,4,9)            179.9983         -DE/DX =    0.0                 !
 ! D15   D(3,4,6,7)              0.0019         -DE/DX =    0.0                 !
 ! D16   D(3,4,6,11)           180.0003         -DE/DX =    0.0                 !
 ! D17   D(9,4,6,7)           -179.9972         -DE/DX =    0.0                 !
 ! D18   D(9,4,6,11)             0.0011         -DE/DX =    0.0                 !
 ! D19   D(2,5,7,6)             -0.0031         -DE/DX =    0.0                 !
 ! D20   D(2,5,7,12)          -180.0024         -DE/DX =    0.0                 !
 ! D21   D(10,5,7,6)           180.0014         -DE/DX =    0.0                 !
 ! D22   D(10,5,7,12)            0.002          -DE/DX =    0.0                 !
 ! D23   D(4,6,7,5)              0.0            -DE/DX =    0.0                 !
 ! D24   D(4,6,7,12)           179.9994         -DE/DX =    0.0                 !
 ! D25   D(11,6,7,5)          -179.9983         -DE/DX =    0.0                 !
 ! D26   D(11,6,7,12)            0.001          -DE/DX =    0.0                 !
 --------------------------------------------------------------------------------
 GradGradGradGradGradGradGradGradGradGradGradGradGradGradGradGradGradGrad

 Leave Link  103 at Sat Aug 28 00:56:15 2021, MaxMem= 17179869184 cpu:        47.7
 (Enter /public3/home/sc51754/softwares/g09e01/l9999.exe)
 1\1\GINC-T1514\Freq\RPBEPBE\Gen\C5H5N1O1\SC51754\28-Aug-2021\0\\#P Geo
 m=AllCheck Guess=TCheck SCRF=Check GenChk RPBEPBE/ChkBas Freq\\HY_PBEP
 BE_PC2_OPT_FREQ\\0,1\O,0.031165035,2.5866539885,0.0009549149\N,-0.8775
 912878,0.6671689701,0.0004847394\C,0.3229997267,1.3249075596,0.0005216
 084\C,1.5295464598,0.5924879083,0.0000193118\C,-0.9851923673,-0.668895
 806,-0.0000573542\C,1.4194010732,-0.79191054,-0.0004775362\C,0.1690804
 927,-1.442579013,-0.0005240928\H,-1.1832331713,1.9294181567,0.00089943
 96\H,2.4903206515,1.1022890923,0.0000141716\H,-1.9887151526,-1.0942798
 794,-0.0000372493\H,2.3287209136,-1.3952933711,-0.000870993\H,0.100369
 0265,-2.5280700659,-0.0009269602\\Version=EM64L-G09RevE.01\State=1-A\H
 F=-323.2227919\RMSD=3.968e-09\RMSF=6.521e-06\ZeroPoint=0.0858783\Therm
 al=0.0910405\Dipole=-0.01486,-1.3092452,-0.0004998\DipoleDeriv=-0.4509
 569,-0.0050619,0.0000186,0.1785522,-1.5119497,-0.0004477,0.0000734,-0.
 0003809,-0.346705,-0.3089499,-0.3775017,-0.0000931,0.1375142,-0.887705
 7,-0.0002748,0.0001371,-0.0001623,-0.1814194,0.1662165,-0.3635239,-0.0
 001428,-0.242819,1.5166479,0.0005092,-0.0000772,0.0004858,0.175625,-0.
 0149711,0.4642708,0.0001352,-0.0682609,-0.5321559,-0.0001334,-0.000064
 9,-0.0002149,-0.1563828,0.4391557,0.1232749,-0.0000271,-0.4381484,0.38
 34739,0.0002268,-0.000287,0.0001147,0.0090048,0.3228529,0.1214952,-0.0
 000195,0.1834579,0.423122,0.0001651,0.0000077,0.0001712,-0.0798745,-0.
 5265951,-0.1413298,0.0000053,0.0653785,-0.1600636,0.0000003,0.0000811,
 0.0000367,-0.1831753,0.3556758,0.2043017,0.0000426,0.2090981,0.6917438
 ,0.0001311,0.000021,0.000128,0.2078183,-0.0046832,-0.0365862,0.0000151
 ,-0.0412905,0.0453464,-0.0000313,0.0000199,-0.000028,0.150332,-0.02261
 85,-0.0606879,-0.0000007,-0.0390229,0.0528538,-0.0000223,0.0000337,-0.
 0000131,0.1259205,-0.0244056,0.075426,0.0000548,0.075759,0.0361019,-0.
 0000448,0.0000522,-0.0000547,0.1226125,0.0692794,-0.0040772,0.0000114,
 -0.0202183,-0.0574149,-0.0000783,0.0000031,-0.0000827,0.1562438\Polar=
 77.2378137,-0.0877497,92.7531936,-0.0063428,0.0200799,38.245255\PG=C01
  [X(C5H5N1O1)]\NImag=1\\0.08041892,-0.01868595,0.57114429,-0.00001321,
 0.00016759,0.04858721,-0.01105332,-0.04732132,-0.00000876,0.44796586,-
 0.13440351,-0.11685376,-0.00002831,0.11618078,0.67398689,-0.00003950,-
 0.00004112,0.03343493,-0.00001268,0.00020542,0.08264220,-0.09678567,0.
 05926475,0.00002447,-0.23814303,-0.02742990,0.00001758,0.66520220,0.03
 296930,-0.39949133,-0.00011100,-0.06944748,-0.16895659,-0.00002310,-0.
 11835202,0.68967213,0.00001530,-0.00011620,-0.06524535,0.00000541,-0.0
 0002825,-0.07156993,-0.00012285,0.00019505,0.17214851,-0.00455292,0.01
 687710,0.00000839,-0.04714353,-0.01758757,0.00000217,-0.25146340,0.079
 29593,0.00006475,0.68184497,0.05366370,-0.02302616,-0.00002013,0.01003
 303,0.05579918,0.00001610,0.04695369,-0.13857860,-0.00003582,0.0553074
 7,0.66137836,0.00002003,-0.00001175,0.01112407,0.00001356,0.00002038,0
 .00565454,0.00005348,-0.00004333,-0.06656024,-0.00008941,0.00019353,0.
 10737707,0.00971371,-0.00332696,-0.00000168,-0.13097707,-0.01978591,0.
 00000151,0.02386367,-0.02264783,-0.00001420,-0.00849621,0.01796744,0.0
 0000803,0.73029556,0.02029259,0.00020538,-0.00000394,-0.01663896,-0.33
 389212,-0.00011661,-0.08192472,-0.02364250,0.00000243,0.02248370,-0.04
 103813,-0.00001926,0.03252236,0.64124254,0.00001065,-0.00000060,0.0062
 8479,0.00000293,-0.00011404,-0.04573646,-0.00003558,-0.00000373,-0.000
 46058,0.00001042,-0.00001884,-0.00045134,-0.00008487,0.00019547,0.1316
 6707,-0.01743635,0.00058087,0.00000393,-0.01478953,-0.03649061,-0.0000
 1322,0.03979765,0.02807556,0.00000313,-0.11938549,0.00455112,0.0000157
 7,-0.05557633,0.02938771,0.00002234,0.65999073,-0.01529714,0.00547779,
 0.00000178,-0.01729692,-0.04320287,-0.00001228,0.06214826,-0.03703300,
 -0.00002369,-0.04180010,-0.34867682,-0.00010353,-0.01073194,0.05283319
 ,0.00002027,-0.03523555,0.66655119,-0.00000152,0.00000019,0.00504552,-
 0.00000494,-0.00000786,-0.00534769,0.00001659,-0.00001924,0.00064661,-
 0.00000263,-0.00011281,-0.05062784,0.00000543,0.00001287,0.00564220,-0
 .00010432,0.00020942,0.13264166,0.01707541,-0.00175747,-0.00000280,0.0
 2799013,0.07076077,0.00002719,-0.06115706,0.00491097,0.00001019,0.0196
 6279,-0.06168940,-0.00002600,-0.27343669,0.06959688,0.00005790,-0.2577
 2086,-0.04659163,0.00001527,0.61259638,-0.00656208,-0.00638139,0.00000
 009,0.02764492,-0.05811847,-0.00003291,0.01012531,0.00018822,0.0000012
 4,-0.03188366,-0.02097917,-0.00000526,0.12176169,-0.17236448,-0.000061
 71,-0.10044946,-0.15326758,-0.00002073,-0.00917009,0.71766794,-0.00000
 628,-0.00000126,-0.00252963,0.00000991,-0.00004167,0.01618038,0.000012
 04,0.00000096,-0.00794209,-0.00001420,0.00000005,0.00722376,0.00007820
 ,-0.00005267,-0.05839756,-0.00000601,-0.00002997,-0.05689296,-0.000083
 16,0.00023469,0.10579288,0.01870793,-0.00600401,-0.00000921,-0.0285348
 4,0.04638357,0.00001350,-0.06766408,0.07948926,0.00003730,0.00141038,-
 0.00991699,-0.00000229,-0.00824558,-0.00689308,-0.00000310,0.00290388,
 0.00462367,0.00000103,-0.00297660,0.00089307,0.00000163,0.08644107,0.0
 6898490,-0.02941886,-0.00000705,0.02332414,0.00914917,0.00001123,0.034
 37787,0.07347160,0.00001424,0.00782646,-0.02067467,-0.00001032,-0.0187
 8161,-0.01820492,-0.00000581,0.00914997,0.01211731,0.00000283,-0.01302
 159,0.00569640,0.00000372,-0.10942289,-0.03297551,0.00001613,0.0000036
 4,-0.03333394,0.00000362,0.00000709,-0.02670434,0.00002118,0.00000694,
 0.01931629,0.00000380,-0.00000756,0.00653694,-0.00000310,-0.00000443,-
 0.00601716,0.00000256,0.00000387,-0.00062679,-0.00000427,-0.00000056,0
 .00452459,-0.00003903,-0.00001016,0.03906481,0.00211065,0.00051406,-0.
 00000056,-0.00302385,0.00348397,0.00000279,-0.01650855,-0.01559783,-0.
 00000221,-0.27235818,-0.11334370,0.00000686,-0.00026218,0.00214387,0.0
 0000085,0.00280447,0.00095081,-0.00000014,0.00259406,0.00051058,0.0000
 0158,-0.00162418,-0.00121155,-0.00000022,0.28553009,-0.00174344,0.0004
 2740,0.00000112,0.00459068,-0.00106457,-0.00000313,0.01385441,0.011180
 48,0.00000082,-0.11397151,-0.11180500,-0.00000772,0.00040580,-0.001378
 41,-0.00000048,-0.02693866,-0.00904255,0.00000145,0.00140651,-0.004571
 64,-0.00000496,0.00068799,0.00071523,0.00000027,0.12284469,0.11462913,
 -0.00000138,0.00000056,-0.00196140,0.00000288,-0.00000340,0.00569820,0
 .00000954,0.00000655,0.00137510,0.00000622,-0.00000691,-0.02933175,0.0
 0000009,-0.00000060,-0.00036452,-0.00001052,-0.00000450,0.00095412,0.0
 0000165,-0.00000492,0.00823141,0.00000051,0.00000058,-0.00032317,-0.00
 000749,0.00001014,0.02124671,-0.00065057,-0.00030349,0.00000005,0.0019
 5597,-0.00448957,-0.00000202,0.00312753,0.00139674,0.00000164,0.000144
 87,0.00057172,0.00000011,-0.28828377,-0.09351940,0.00000892,-0.0024894
 8,0.00379628,0.00000301,-0.01424417,-0.01179971,-0.00000095,0.00053115
 ,0.00074282,-0.00000033,-0.00005982,-0.00005268,-0.00000030,0.30016548
 ,0.00003856,-0.00198044,-0.00000066,-0.03448175,-0.01621383,-0.0000005
 1,0.00291041,-0.00129722,-0.00000483,-0.00019044,-0.00067137,0.,-0.089
 89381,-0.09053874,-0.00000489,0.00301181,-0.00181576,-0.00000395,0.014
 57172,0.01118879,-0.00000014,-0.00022109,-0.00067827,0.00000075,-0.000
 19454,0.00016861,0.00000080,0.10412184,0.10087551,0.00000016,-0.000001
 25,0.00036210,-0.00001562,-0.00000673,-0.00058537,0.00000345,-0.000003
 76,0.00900438,-0.00000026,0.00000013,-0.00055548,0.00001241,-0.0000026
 8,-0.03649599,0.00000240,-0.00000388,0.00725475,0.00000829,0.00000399,
 0.00525185,-0.00000057,-0.00000003,-0.00240611,-0.00000047,0.00000071,
 -0.00171261,-0.00000930,0.00001166,0.02368005,0.00008793,0.00007556,-0
 .00000017,0.00053238,-0.00122630,-0.00000071,0.00164419,-0.00147579,0.
 00000088,0.00463385,-0.00248091,-0.00000106,-0.00420550,-0.00306337,0.
 00000062,-0.24006545,0.12287157,0.00008310,-0.01704877,0.01628166,0.00
 000992,0.00000315,0.00003797,-0.00000014,0.00073849,0.00020570,-0.0000
 0084,-0.00089030,0.00087414,0.00000032,0.25358383,0.00184515,-0.000254
 06,0.,-0.00030750,-0.00013406,0.00000027,-0.00167451,-0.00531868,-0.00
 000524,0.02568258,-0.01257490,-0.00001158,-0.00313690,-0.00069783,-0.0
 0000203,0.12267442,-0.13541116,-0.00005878,-0.01253834,0.01044294,0.00
 000465,-0.00011138,-0.00066195,0.00000023,-0.00029559,0.00114837,0.000
 00212,-0.00069883,0.00046668,0.00000041,-0.13193544,0.14235513,0.00000
 096,-0.00000017,-0.00099628,-0.00000031,0.00000105,-0.00083956,0.00000
 027,-0.00000485,0.00974817,0.00001016,-0.00000661,0.00480945,0.0000007
 0,-0.00000243,0.00581356,0.00008375,-0.00005858,-0.03839592,-0.0000021
 3,-0.00000041,0.00390997,-0.00000038,-0.00000021,-0.00102946,-0.000001
 21,0.00000203,-0.00445439,-0.00000018,0.00000017,-0.00038493,-0.000091
 17,0.00006860,0.02480824,0.00236427,0.00008687,-0.00000046,-0.00477917
 ,0.00460427,0.00000339,-0.00191344,0.00138320,0.00000065,-0.00429712,-
 0.00161718,0.00000091,0.00561038,0.02561241,0.00000891,0.00196676,-0.0
 2743731,-0.00001088,-0.05333463,-0.01735222,-0.00000267,-0.00095229,-0
 .00200650,-0.00000019,0.00005900,-0.00128947,-0.00000038,0.00069310,-0
 .00054683,-0.00000081,0.00098619,0.00049634,-0.00000046,0.05359695,-0.
 00110209,0.00015114,0.00000051,0.00372039,-0.00049898,-0.00000334,-0.0
 0025355,-0.00019451,0.00000024,-0.00203996,0.00084728,-0.00000116,-0.0
 0435233,-0.01252398,-0.00000361,0.00168283,-0.00852975,-0.00000340,-0.
 01647833,-0.32950156,-0.00011340,0.00049188,0.00146447,-0.00000008,0.0
 0019523,-0.00040705,-0.00000043,0.00023429,0.00049604,0.00000142,-0.00
 016477,0.00063951,0.00000140,0.01806642,0.34805739,-0.00000134,0.00000
 037,-0.00077202,0.00000398,-0.00000369,0.00717310,-0.00000017,-0.00000
 049,-0.00046086,0.00000060,-0.00000112,0.00480081,-0.00000253,-0.00000
 814,-0.00148401,0.00000019,0.00000108,-0.00029365,-0.00000212,-0.00011
 351,-0.02535260,0.00000062,0.00000097,0.00099835,0.00000022,-0.0000002
 6,0.00064231,-0.00000066,0.00000160,-0.00341265,-0.00000076,0.00000135
 ,-0.00298884,0.00000198,0.00012185,0.02115006\\0.00001484,0.00000949,-
 0.00000207,0.00001991,0.00000351,0.00000302,-0.00000595,-0.00001013,0.
 00000834,0.00000041,-0.00000380,-0.00000384,-0.00000507,0.00000677,-0.
 00000725,-0.00000317,-0.00000452,0.00000130,-0.00000546,0.00000031,0.0
 0000100,-0.00000116,0.00000477,-0.00000211,0.00000401,-0.00000813,-0.0
 0000069,-0.00000371,0.00000851,0.00000202,-0.00000528,-0.00000753,-0.0
 0000005,-0.00000936,0.00000074,0.00000034\\\@


 HE THAT RISETH LATE MUST TROT ALL DAY.

                  -- BENJAMIN FRANKLIN
 Job cpu time:       0 days  0 hours 38 minutes 24.0 seconds.
 File lengths (MBytes):  RWF=     81 Int=      0 D2E=      0 Chk=      7 Scr=      1
 Normal termination of Gaussian 09 at Sat Aug 28 00:56:16 2021.
