 Entering Gaussian System, Link 0=/home/tmcstu/local/programs/gaussian09/g09/g09
 Input=/home/tmcstu/shy/works/2PO_2HP/new_data_Gaussian09_20210826/XYG3/calc/PY/.script427405/Job_PY_XYG3_PC2.com
 Output=/home/tmcstu/shy/works/2PO_2HP/new_data_Gaussian09_20210826/XYG3/calc/PY/.script427405/Job_PY_XYG3_PC2.log
 AtFile(1): pc-2.gbs
            -H     0
            S    4   1.00
                  0.754230D+02           0.240650D-02
                  0.113500D+02           0.184870D-01
                  0.259930D+01           0.897420D-01
                  0.735130D+00           0.281110D+00
            S    1   1.00
                  0.231670D+00           0.100000D+01
            S    1   1.00
                  0.741470D-01           0.100000D+01
            P    1   1.00
                  0.160000D+01           0.100000D+01
            P    1   1.00
                  0.450000D+00           0.100000D+01
            D    1   1.00
                  0.125000D+01           0.100000D+01
            ****
            -C     0
            S    7   1.00
                  0.785710D+04           0.568250D-03
                  0.117870D+04           0.439150D-02
                  0.268320D+03           0.225040D-01
                  0.759480D+02           0.866530D-01
                  0.245590D+02           0.244050D+00
                  0.862120D+01           0.441480D+00
                  0.312780D+01           0.353320D+00
            S    7   1.00
                  0.117870D+04          -0.594920D-06
                  0.268320D+03          -0.627480D-04
                  0.759480D+02          -0.757730D-03
                  0.245590D+02          -0.733080D-02
                  0.862120D+01          -0.389320D-01
                  0.312780D+01          -0.889080D-01
                  0.822020D+00           0.216890D+00
            S    1   1.00
                  0.330170D+00           0.100000D+01
            S    1   1.00
                  0.114630D+00           0.100000D+01
            P    4   1.00
                  0.337750D+02           0.602940D-02
                  0.767660D+01           0.432280D-01
                  0.223570D+01           0.163010D+00
                  0.764470D+00           0.365040D+00
            P    1   1.00
                  0.262320D+00           0.100000D+01
            P    1   1.00
                  0.846380D-01           0.100000D+01
            D    1   1.00
                  0.140000D+01           0.100000D+01
            D    1   1.00
                  0.450000D+00           0.100000D+01
            F    1   1.00
                  0.950000D+00           0.100000D+01
            ****
            -N     0
            S    7   1.00
                  0.111010D+05           0.545700D-03
                  0.166530D+04           0.421810D-02
                  0.379080D+03           0.216450D-01
                  0.107300D+03           0.837760D-01
                  0.347470D+02           0.238810D+00
                  0.122490D+02           0.439940D+00
                  0.447430D+01           0.363640D+00
            S    7   1.00
                  0.166530D+04          -0.150060D-05
                  0.379080D+03          -0.587530D-04
                  0.107300D+03          -0.774530D-03
                  0.347470D+02          -0.721610D-02
                  0.122490D+02          -0.393380D-01
                  0.447430D+01          -0.906110D-01
                  0.124040D+01           0.198820D+00
            S    1   1.00
                  0.487430D+00           0.100000D+01
            S    1   1.00
                  0.164840D+00           0.100000D+01
            P    4   1.00
                  0.479340D+02           0.617060D-02
                  0.109990D+02           0.442600D-01
                  0.324720D+01           0.168250D+00
                  0.111140D+01           0.368480D+00
            P    1   1.00
                  0.379880D+00           0.100000D+01
            P    1   1.00
                  0.120680D+00           0.100000D+01
            D    1   1.00
                  0.180000D+01           0.100000D+01
            D    1   1.00
                  0.550000D+00           0.100000D+01
            F    1   1.00
                  0.102000D+01           0.100000D+01
            ****
            -O     0
            S    7   1.00
                  0.147820D+05           0.535190D-03
                  0.221730D+04           0.413750D-02
                  0.504740D+03           0.212450D-01
                  0.142870D+03           0.824530D-01
                  0.463000D+02           0.236710D+00
                  0.163370D+02           0.440390D+00
                  0.598280D+01           0.364650D+00
            S    7   1.00
                  0.221730D+04          -0.192750D-05
                  0.504740D+03          -0.579640D-04
                  0.142870D+03          -0.794940D-03
                  0.463000D+02          -0.731250D-02
                  0.163370D+02          -0.405740D-01
                  0.598280D+01          -0.915940D-01
                  0.167180D+01           0.209400D+00
            S    1   1.00
                  0.646620D+00           0.100000D+01
            S    1   1.00
                  0.216690D+00           0.100000D+01
            P    4   1.00
                  0.604240D+02           0.689490D-02
                  0.139350D+02           0.490050D-01
                  0.415310D+01           0.182550D+00
                  0.141580D+01           0.376330D+00
            P    1   1.00
                  0.475490D+00           0.100000D+01
            P    1   1.00
                  0.145290D+00           0.100000D+01
            D    1   1.00
                  0.220000D+01           0.100000D+01
            D    1   1.00
                  0.650000D+00           0.100000D+01
            F    1   1.00
                  0.110000D+01           0.100000D+01
            ****
 Initial command:
 /home/tmcstu/local/programs/gaussian09/g09/l1.exe "./tmp/Gau-427433.inp" -scrdir="./tmp/"
 Entering Link 1 = /home/tmcstu/local/programs/gaussian09/g09/l1.exe PID=    427434.
  
 Copyright (c) 1988,1990,1992,1993,1995,1998,2003,2009,2015,
            Gaussian, Inc.  All Rights Reserved.
  
 This is part of the Gaussian(R) 09 program.  It is based on
 the Gaussian(R) 03 system (copyright 2003, Gaussian, Inc.),
 the Gaussian(R) 98 system (copyright 1998, Gaussian, Inc.),
 the Gaussian(R) 94 system (copyright 1995, Gaussian, Inc.),
 the Gaussian 92(TM) system (copyright 1992, Gaussian, Inc.),
 the Gaussian 90(TM) system (copyright 1990, Gaussian, Inc.),
 the Gaussian 88(TM) system (copyright 1988, Gaussian, Inc.),
 the Gaussian 86(TM) system (copyright 1986, Carnegie Mellon
 University), and the Gaussian 82(TM) system (copyright 1983,
 Carnegie Mellon University). Gaussian is a federally registered
 trademark of Gaussian, Inc.
  
 This software contains proprietary and confidential information,
 including trade secrets, belonging to Gaussian, Inc.
  
 This software is provided under written license and may be
 used, copied, transmitted, or stored only in accord with that
 written license.
  
 The following legend is applicable only to US Government
 contracts under FAR:
  
                    RESTRICTED RIGHTS LEGEND
  
 Use, reproduction and disclosure by the US Government is
 subject to restrictions as set forth in subparagraphs (a)
 and (c) of the Commercial Computer Software - Restricted
 Rights clause in FAR 52.227-19.
  
 Gaussian, Inc.
 340 Quinnipiac St., Bldg. 40, Wallingford CT 06492
  
  
 ---------------------------------------------------------------
 Warning -- This program may not be used in any manner that
 competes with the business of Gaussian, Inc. or will provide
 assistance to any competitor of Gaussian, Inc.  The licensee
 of this program is prohibited from giving any competitor of
 Gaussian, Inc. access to this program.  By using this program,
 the user acknowledges that Gaussian, Inc. is engaged in the
 business of creating and licensing software in the field of
 computational chemistry and represents and warrants to the
 licensee that it is not a competitor of Gaussian, Inc. and that
 it will not use this program in any manner prohibited above.
 ---------------------------------------------------------------
  

 Cite this work as:
 Gaussian 09, Revision E.01,
 M. J. Frisch, G. W. Trucks, H. B. Schlegel, G. E. Scuseria, 
 M. A. Robb, J. R. Cheeseman, G. Scalmani, V. Barone, B. Mennucci, 
 G. A. Petersson, H. Nakatsuji, M. Caricato, X. Li, H. P. Hratchian, 
 A. F. Izmaylov, J. Bloino, G. Zheng, J. L. Sonnenberg, M. Hada, 
 M. Ehara, K. Toyota, R. Fukuda, J. Hasegawa, M. Ishida, T. Nakajima, 
 Y. Honda, O. Kitao, H. Nakai, T. Vreven, J. A. Montgomery, Jr., 
 J. E. Peralta, F. Ogliaro, M. Bearpark, J. J. Heyd, E. Brothers, 
 K. N. Kudin, V. N. Staroverov, T. Keith, R. Kobayashi, J. Normand, 
 K. Raghavachari, A. Rendell, J. C. Burant, S. S. Iyengar, J. Tomasi, 
 M. Cossi, N. Rega, J. M. Millam, M. Klene, J. E. Knox, J. B. Cross, 
 V. Bakken, C. Adamo, J. Jaramillo, R. Gomperts, R. E. Stratmann, 
 O. Yazyev, A. J. Austin, R. Cammi, C. Pomelli, J. W. Ochterski, 
 R. L. Martin, K. Morokuma, V. G. Zakrzewski, G. A. Voth, 
 P. Salvador, J. J. Dannenberg, S. Dapprich, A. D. Daniels, 
 O. Farkas, J. B. Foresman, J. V. Ortiz, J. Cioslowski, 
 and D. J. Fox, Gaussian, Inc., Wallingford CT, 2013.
 
 ******************************************
 Gaussian 09:  EM64L-G09RevE.01 30-Nov-2015
                29-Aug-2021 
 ******************************************
 %nprocshared=4
 Will use up to    4 processors via shared memory.
 %mem=4GB
 %oldchk=PY_B3LYP_PC2_OPT_FREQ.chk
 %chk=./tmp/PY_XYG3_PC2.chk
 Copying data from "PY_B3LYP_PC2_OPT_FREQ.chk" to current chk file "./tmp/PY_XYG3_PC2.chk".
 ------------------------------------------------------------
 #p gen geom=checkpoint b3lyp iop(5/33=1) nosymm extraoverlay
 ------------------------------------------------------------
 Additional overlay cards (at end):
 ------------------------------
 8/7=1,10=4/1; 9/16=-3/6; 6//8;
 ------------------------------
 1/29=2,38=1/1;
 2/12=2,15=1,40=1/2;
 3/5=7,11=2,14=-4,16=1,25=1,30=1,74=-5/1,2,3;
 4//1;
 5/5=2,33=1,38=5/2;
 6/7=2,8=2,9=2,10=2,28=1/1;
 8/7=1,10=4/1;
 9/16=-3/6;
 6//8;
 99/5=1,9=1/99;
 Leave Link    1 at Sun Aug 29 12:35:38 2021, MaxMem=   536870912 cpu:         0.1
 (Enter /home/tmcstu/local/programs/gaussian09/g09/l101.exe)
 -----------
 PY_XYG3_PC2
 -----------
 Structure from the checkpoint file:  "./tmp/PY_XYG3_PC2.chk"
 Charge =  0 Multiplicity = 1
 Redundant internal coordinates found in file.
 O,0,-0.1312886691,2.2796823329,0.
 N,0,-1.1369717448,0.2351601283,0.
 C,0,-0.0002000124,1.064979243,0.
 C,0,1.2429814093,0.3233073688,0.
 C,0,-1.1189690004,-1.1240799651,0.
 C,0,1.2616040268,-1.0360412483,0.
 C,0,0.0598226526,-1.7961152552,0.
 H,0,-2.0155043091,0.7316295599,0.
 H,0,2.1497256099,0.9092756959,0.
 H,0,-2.081648064,-1.6140323048,0.
 H,0,2.2111439992,-1.5560842874,0.
 H,0,0.073407102,-2.8740732681,0.
 Recover connectivity data from disk.
 NAtoms=     12 NQM=       12 NQMF=       0 NMMI=      0 NMMIF=      0
                NMic=       0 NMicF=      0.
                    Isotopes and Nuclear Properties:
 (Nuclear quadrupole moments (NQMom) in fm**2, nuclear magnetic moments (NMagM)
  in nuclear magnetons)

  Atom         1           2           3           4           5           6           7           8           9          10
 IAtWgt=          16          14          12          12          12          12          12           1           1           1
 AtmWgt=  15.9949146  14.0030740  12.0000000  12.0000000  12.0000000  12.0000000  12.0000000   1.0078250   1.0078250   1.0078250
 NucSpn=           0           2           0           0           0           0           0           1           1           1
 AtZEff=  -5.6000000  -4.5500000  -3.6000000  -3.6000000  -3.6000000  -3.6000000  -3.6000000  -1.0000000  -1.0000000  -1.0000000
 NQMom=    0.0000000   2.0440000   0.0000000   0.0000000   0.0000000   0.0000000   0.0000000   0.0000000   0.0000000   0.0000000
 NMagM=    0.0000000   0.4037610   0.0000000   0.0000000   0.0000000   0.0000000   0.0000000   2.7928460   2.7928460   2.7928460
 AtZNuc=   8.0000000   7.0000000   6.0000000   6.0000000   6.0000000   6.0000000   6.0000000   1.0000000   1.0000000   1.0000000

  Atom        11          12
 IAtWgt=           1           1
 AtmWgt=   1.0078250   1.0078250
 NucSpn=           1           1
 AtZEff=  -1.0000000  -1.0000000
 NQMom=    0.0000000   0.0000000
 NMagM=    2.7928460   2.7928460
 AtZNuc=   1.0000000   1.0000000
 Leave Link  101 at Sun Aug 29 12:35:38 2021, MaxMem=   536870912 cpu:         0.4
 (Enter /home/tmcstu/local/programs/gaussian09/g09/l202.exe)
                          Input orientation:                          
 ---------------------------------------------------------------------
 Center     Atomic      Atomic             Coordinates (Angstroms)
 Number     Number       Type             X           Y           Z
 ---------------------------------------------------------------------
      1          8           0       -0.131289    2.279682   -0.000000
      2          7           0       -1.136972    0.235160   -0.000000
      3          6           0       -0.000200    1.064979   -0.000000
      4          6           0        1.242981    0.323307    0.000000
      5          6           0       -1.118969   -1.124080   -0.000000
      6          6           0        1.261604   -1.036041    0.000000
      7          6           0        0.059823   -1.796115    0.000000
      8          1           0       -2.015504    0.731630   -0.000000
      9          1           0        2.149726    0.909276    0.000000
     10          1           0       -2.081648   -1.614032   -0.000000
     11          1           0        2.211144   -1.556084    0.000000
     12          1           0        0.073407   -2.874073    0.000000
 ---------------------------------------------------------------------
                    Distance matrix (angstroms):
                    1          2          3          4          5
     1  O    0.000000
     2  N    2.278480   0.000000
     3  C    1.221756   1.407427   0.000000
     4  C    2.390820   2.381585   1.447611   0.000000
     5  C    3.544166   1.359359   2.458378   2.770152   0.000000
     6  C    3.596411   2.714612   2.450803   1.359476   2.382200
     7  C    4.080276   2.357625   2.861724   2.427307   1.356901
     8  H    2.438593   1.009109   2.042688   3.283970   2.060930
     9  H    2.661022   3.355117   2.155556   1.079604   3.849532
    10  H    4.354873   2.076518   3.392570   3.847915   1.080187
    11  H    4.494452   3.797162   3.429288   2.114108   3.358017
    12  H    5.157819   3.336518   3.939740   3.404577   2.117602
                    6          7          8          9         10
     6  C    0.000000
     7  C    1.421967   0.000000
     8  H    3.723453   3.270547   0.000000
     9  H    2.138462   3.418601   4.169016   0.000000
    10  H    3.392847   2.149198   2.346594   4.926622   0.000000
    11  H    1.082622   2.164671   4.806058   2.466125   4.293183
    12  H    2.188647   1.078044   4.167091   4.315649   2.496391
                   11         12
    11  H    0.000000
    12  H    2.511377   0.000000
 Symmetry turned off by external request.
 Stoichiometry    C5H5NO
 Framework group  CS[SG(C5H5NO)]
 Deg. of freedom    21
 Full point group                 CS      NOp   2
 Rotational constants (GHZ):      5.6900667      2.8016327      1.8773011
 Leave Link  202 at Sun Aug 29 12:35:38 2021, MaxMem=   536870912 cpu:         0.0
 (Enter /home/tmcstu/local/programs/gaussian09/g09/l301.exe)
 General basis read from cards:  (5D, 7F)
 Centers:       8      9     10     11     12
 S 4 1.00
     Exponent=  7.5423000000D+01 Coefficients=  2.4065000000D-03
     Exponent=  1.1350000000D+01 Coefficients=  1.8487000000D-02
     Exponent=  2.5993000000D+00 Coefficients=  8.9742000000D-02
     Exponent=  7.3513000000D-01 Coefficients=  2.8111000000D-01
 S 1 1.00
     Exponent=  2.3167000000D-01 Coefficients=  1.0000000000D+00
 S 1 1.00
     Exponent=  7.4147000000D-02 Coefficients=  1.0000000000D+00
 P 1 1.00
     Exponent=  1.6000000000D+00 Coefficients=  1.0000000000D+00
 P 1 1.00
     Exponent=  4.5000000000D-01 Coefficients=  1.0000000000D+00
 D 1 1.00
     Exponent=  1.2500000000D+00 Coefficients=  1.0000000000D+00
 ****
 Centers:       3      4      5      6      7
 S 7 1.00
     Exponent=  7.8571000000D+03 Coefficients=  5.6825000000D-04
     Exponent=  1.1787000000D+03 Coefficients=  4.3915000000D-03
     Exponent=  2.6832000000D+02 Coefficients=  2.2504000000D-02
     Exponent=  7.5948000000D+01 Coefficients=  8.6653000000D-02
     Exponent=  2.4559000000D+01 Coefficients=  2.4405000000D-01
     Exponent=  8.6212000000D+00 Coefficients=  4.4148000000D-01
     Exponent=  3.1278000000D+00 Coefficients=  3.5332000000D-01
 S 7 1.00
     Exponent=  1.1787000000D+03 Coefficients= -5.9492000000D-07
     Exponent=  2.6832000000D+02 Coefficients= -6.2748000000D-05
     Exponent=  7.5948000000D+01 Coefficients= -7.5773000000D-04
     Exponent=  2.4559000000D+01 Coefficients= -7.3308000000D-03
     Exponent=  8.6212000000D+00 Coefficients= -3.8932000000D-02
     Exponent=  3.1278000000D+00 Coefficients= -8.8908000000D-02
     Exponent=  8.2202000000D-01 Coefficients=  2.1689000000D-01
 S 1 1.00
     Exponent=  3.3017000000D-01 Coefficients=  1.0000000000D+00
 S 1 1.00
     Exponent=  1.1463000000D-01 Coefficients=  1.0000000000D+00
 P 4 1.00
     Exponent=  3.3775000000D+01 Coefficients=  6.0294000000D-03
     Exponent=  7.6766000000D+00 Coefficients=  4.3228000000D-02
     Exponent=  2.2357000000D+00 Coefficients=  1.6301000000D-01
     Exponent=  7.6447000000D-01 Coefficients=  3.6504000000D-01
 P 1 1.00
     Exponent=  2.6232000000D-01 Coefficients=  1.0000000000D+00
 P 1 1.00
     Exponent=  8.4638000000D-02 Coefficients=  1.0000000000D+00
 D 1 1.00
     Exponent=  1.4000000000D+00 Coefficients=  1.0000000000D+00
 D 1 1.00
     Exponent=  4.5000000000D-01 Coefficients=  1.0000000000D+00
 F 1 1.00
     Exponent=  9.5000000000D-01 Coefficients=  1.0000000000D+00
 ****
 Centers:       2
 S 7 1.00
     Exponent=  1.1101000000D+04 Coefficients=  5.4570000000D-04
     Exponent=  1.6653000000D+03 Coefficients=  4.2181000000D-03
     Exponent=  3.7908000000D+02 Coefficients=  2.1645000000D-02
     Exponent=  1.0730000000D+02 Coefficients=  8.3776000000D-02
     Exponent=  3.4747000000D+01 Coefficients=  2.3881000000D-01
     Exponent=  1.2249000000D+01 Coefficients=  4.3994000000D-01
     Exponent=  4.4743000000D+00 Coefficients=  3.6364000000D-01
 S 7 1.00
     Exponent=  1.6653000000D+03 Coefficients= -1.5006000000D-06
     Exponent=  3.7908000000D+02 Coefficients= -5.8753000000D-05
     Exponent=  1.0730000000D+02 Coefficients= -7.7453000000D-04
     Exponent=  3.4747000000D+01 Coefficients= -7.2161000000D-03
     Exponent=  1.2249000000D+01 Coefficients= -3.9338000000D-02
     Exponent=  4.4743000000D+00 Coefficients= -9.0611000000D-02
     Exponent=  1.2404000000D+00 Coefficients=  1.9882000000D-01
 S 1 1.00
     Exponent=  4.8743000000D-01 Coefficients=  1.0000000000D+00
 S 1 1.00
     Exponent=  1.6484000000D-01 Coefficients=  1.0000000000D+00
 P 4 1.00
     Exponent=  4.7934000000D+01 Coefficients=  6.1706000000D-03
     Exponent=  1.0999000000D+01 Coefficients=  4.4260000000D-02
     Exponent=  3.2472000000D+00 Coefficients=  1.6825000000D-01
     Exponent=  1.1114000000D+00 Coefficients=  3.6848000000D-01
 P 1 1.00
     Exponent=  3.7988000000D-01 Coefficients=  1.0000000000D+00
 P 1 1.00
     Exponent=  1.2068000000D-01 Coefficients=  1.0000000000D+00
 D 1 1.00
     Exponent=  1.8000000000D+00 Coefficients=  1.0000000000D+00
 D 1 1.00
     Exponent=  5.5000000000D-01 Coefficients=  1.0000000000D+00
 F 1 1.00
     Exponent=  1.0200000000D+00 Coefficients=  1.0000000000D+00
 ****
 Centers:       1
 S 7 1.00
     Exponent=  1.4782000000D+04 Coefficients=  5.3519000000D-04
     Exponent=  2.2173000000D+03 Coefficients=  4.1375000000D-03
     Exponent=  5.0474000000D+02 Coefficients=  2.1245000000D-02
     Exponent=  1.4287000000D+02 Coefficients=  8.2453000000D-02
     Exponent=  4.6300000000D+01 Coefficients=  2.3671000000D-01
     Exponent=  1.6337000000D+01 Coefficients=  4.4039000000D-01
     Exponent=  5.9828000000D+00 Coefficients=  3.6465000000D-01
 S 7 1.00
     Exponent=  2.2173000000D+03 Coefficients= -1.9275000000D-06
     Exponent=  5.0474000000D+02 Coefficients= -5.7964000000D-05
     Exponent=  1.4287000000D+02 Coefficients= -7.9494000000D-04
     Exponent=  4.6300000000D+01 Coefficients= -7.3125000000D-03
     Exponent=  1.6337000000D+01 Coefficients= -4.0574000000D-02
     Exponent=  5.9828000000D+00 Coefficients= -9.1594000000D-02
     Exponent=  1.6718000000D+00 Coefficients=  2.0940000000D-01
 S 1 1.00
     Exponent=  6.4662000000D-01 Coefficients=  1.0000000000D+00
 S 1 1.00
     Exponent=  2.1669000000D-01 Coefficients=  1.0000000000D+00
 P 4 1.00
     Exponent=  6.0424000000D+01 Coefficients=  6.8949000000D-03
     Exponent=  1.3935000000D+01 Coefficients=  4.9005000000D-02
     Exponent=  4.1531000000D+00 Coefficients=  1.8255000000D-01
     Exponent=  1.4158000000D+00 Coefficients=  3.7633000000D-01
 P 1 1.00
     Exponent=  4.7549000000D-01 Coefficients=  1.0000000000D+00
 P 1 1.00
     Exponent=  1.4529000000D-01 Coefficients=  1.0000000000D+00
 D 1 1.00
     Exponent=  2.2000000000D+00 Coefficients=  1.0000000000D+00
 D 1 1.00
     Exponent=  6.5000000000D-01 Coefficients=  1.0000000000D+00
 F 1 1.00
     Exponent=  1.1000000000D+00 Coefficients=  1.0000000000D+00
 ****
 Ernie: Thresh=  0.10000D-02 Tol=  0.10000D-05 Strict=F.
 Ernie:  7 primitive shells out of 220 were deleted.
   280 basis functions,   475 primitive gaussians,   320 cartesian basis functions
    25 alpha electrons       25 beta electrons
       nuclear repulsion energy       275.8183676852 Hartrees.
 IExCor=  402 DFT=T Ex+Corr=B3LYP ExCW=0 ScaHFX=  0.200000
 ScaDFX=  0.800000  0.720000  1.000000  0.810000 ScalE2=  1.000000  1.000000
 IRadAn=      0 IRanWt=     -1 IRanGd=            0 ICorTp=0 IEmpDi=  4
 NAtoms=   12 NActive=   12 NUniq=   12 SFac= 1.00D+00 NAtFMM=   60 NAOKFM=F Big=F
 Integral buffers will be    131072 words long.
 Raffenetti 2 integral format.
 Two-electron integral symmetry is turned off.
 Leave Link  301 at Sun Aug 29 12:35:38 2021, MaxMem=   536870912 cpu:         0.1
 (Enter /home/tmcstu/local/programs/gaussian09/g09/l302.exe)
 NPDir=0 NMtPBC=     1 NCelOv=     1 NCel=       1 NClECP=     1 NCelD=      1
         NCelK=      1 NCelE2=     1 NClLst=     1 CellRange=     0.0.
 One-electron integrals computed using PRISM.
 NBasis=   280 RedAO= T EigKep=  1.65D-04  NBF=   280
 NBsUse=   280 1.00D-06 EigRej= -1.00D+00 NBFU=   280
 Precomputing XC quadrature grid using
 IXCGrd= 4 IRadAn=           0 IRanWt=          -1 IRanGd=           0 AccXCQ= 0.00D+00.
 Generated NRdTot=       0 NPtTot=           0 NUsed=           0 NTot=          32
 NSgBfM=   320   320   320   320   320 MxSgAt=    12 MxSgA2=    12.
 Leave Link  302 at Sun Aug 29 12:35:39 2021, MaxMem=   536870912 cpu:         0.5
 (Enter /home/tmcstu/local/programs/gaussian09/g09/l303.exe)
 DipDrv:  MaxL=1.
 Leave Link  303 at Sun Aug 29 12:35:39 2021, MaxMem=   536870912 cpu:         0.1
 (Enter /home/tmcstu/local/programs/gaussian09/g09/l401.exe)
 ExpMin= 7.41D-02 ExpMax= 1.48D+04 ExpMxC= 5.05D+02 IAcc=2 IRadAn=         4 AccDes= 0.00D+00
 Harris functional with IExCor=  402 and IRadAn=       4 diagonalized for initial guess.
 HarFok:  IExCor=  402 AccDes= 0.00D+00 IRadAn=         4 IDoV= 1 UseB2=F ITyADJ=14
 ICtDFT=  3500011 ScaDFX=  1.000000  1.000000  1.000000  1.000000
 FoFCou: FMM=F IPFlag=           0 FMFlag=      100000 FMFlg1=           0
         NFxFlg=           0 DoJE=T BraDBF=F KetDBF=T FulRan=T
         wScrn=  0.000000 ICntrl=     500 IOpCl=  0 I1Cent=   200000004 NGrid=           0
         NMat0=    1 NMatS0=      1 NMatT0=    0 NMatD0=    1 NMtDS0=    0 NMtDT0=    0
 Symmetry not used in FoFCou.
 Harris En= -323.701553744847    
 JPrj=0 DoOrth=F DoCkMO=F.
 Leave Link  401 at Sun Aug 29 12:35:39 2021, MaxMem=   536870912 cpu:         2.4
 (Enter /home/tmcstu/local/programs/gaussian09/g09/l502.exe)
 A Direct SCF calculation will be performed.
 Closed shell SCF:
 Using DIIS extrapolation, IDIIS=  1040.
 Two-electron integral symmetry not used.
 ReadGW:  IGet=1 IStart=      210254 Next=      210254 LGW=           0.
 NBasis=      280 NAllTT=    51360 NAllSq=   102400 NWIIB=         0
 INEq=        438 LenNEq=        0 IIJ=         825 ID=         1209
 IDD=      103609 IDA=        1209 IDB=       52569 IF=       104448
 IFF=      206848 IFA=      104448 IFB=      155808 IScr2=    207687
 IV=       210254 IBuf2E=   210254 IMin1=    329614 IMin=     329614
 IV=       329614 IOpCl=         0
 IVT=      329614 IEndB=      329614 NGot=   536870912 MDV=   536660659
 LenX=   536660659 LenY=   536557818
 Requested convergence on RMS density matrix=1.00D-08 within 128 cycles.
 Requested convergence on MAX density matrix=1.00D-06.
 Requested convergence on             energy=1.00D-06.
 No special actions if energy rises.
 Fock matrices will be formed incrementally for  20 cycles.
 Selected VarAcc= 4.
 Integral accuracy reduced to 1.0D-05 until final iterations.

 Cycle   1  Pass 0  IDiag  1:
 One-electron energy=-0.990271700256D+03
 FoFJK:  IHMeth= 1 ICntrl=       0 DoSepK=F KAlg= 0 I1Cent=   0 FoldK=F
 IRaf= 970000000 NMat=   1 IRICut=       1 DoRegI=T DoRafI=F ISym2E= 0.
 FoFCou: FMM=F IPFlag=           0 FMFlag=      100000 FMFlg1=           0
         NFxFlg=           0 DoJE=F BraDBF=F KetDBF=F FulRan=T
         wScrn=  0.000000 ICntrl=       0 IOpCl=  0 I1Cent=           0 NGrid=           0
         NMat0=    1 NMatS0=      1 NMatT0=    0 NMatD0=    1 NMtDS0=    0 NMtDT0=    0
 Symmetry not used in FoFCou.
 Calling FoFDFT with Acc= 0.00D+00 ICntrl=  400011 IRadAn=       1.
 IMat=  1 1/2 <PG(P)>=         427.626682906702
 Remaining memory in FofDFT      511.74 Mw
 CkSvGd:  ISavGI=        -1 IRadAn=       1 IRASav=       0 ISavGd=        -1.
 CalDSu:  NPrtUS=   4 ThrOK=T IAlg=1 NPAlg=2 DoDPD=T LenP=       51360 LenD1P=             0.
 IPart=  0 IRanGd=          0 ScrnBf=T ScrnGd=T RCrit=4.00D+00 DoMicB=T.
 IPart=  0         8007 of         9076 points in      37 batches and       81 microbatches, Max-NSigAt=      12 Max-NSgAt2=      12
 IPart=  1         8391 of         9228 points in      37 batches and       72 microbatches, Max-NSigAt=      12 Max-NSgAt2=      12
 IPart=  3         8723 of         9906 points in      45 batches and       77 microbatches, Max-NSigAt=      12 Max-NSgAt2=      12
 IPart=  2         8326 of         9350 points in      35 batches and       69 microbatches, Max-NSigAt=      12 Max-NSgAt2=      12
 IMat=  1 Ex=         -34.400401505572 Ec=          -2.220882851763
 1/2 <PJ(P)> + E(ex) + E(corr)=         391.005398549367
 IMat=  1 EOne=-0.990271700256D+03 ETwo= 0.391005398549D+03 Energy=-0.599266301706D+03
 1/2 <PG(P)>=         427.626682906702
 Ex=         -34.400401505572 Ec=          -2.220882851763
 1/2 <PG(P)> + E(ex) + E(corr)=         391.005398549367
 E= -323.447934021054    
 DIIS: error= 3.25D-02 at cycle   1 NSaved=   1.
 NSaved= 1 IEnMin= 1 EnMin= -323.447934021054     IErMin= 1 ErrMin= 3.25D-02
 ErrMax= 3.25D-02  0.00D+00 EMaxC= 1.00D-01 BMatC= 2.44D-01 BMatP= 2.44D-01
 IDIUse=3 WtCom= 6.75D-01 WtEn= 3.25D-01
 Coeff-Com:  0.100D+01
 Coeff-En:   0.100D+01
 Coeff:      0.100D+01
 Gap=     0.149 Goal=   None    Shift=    0.000
 GapD=    0.149 DampG=1.000 DampE=0.500 DampFc=0.5000 IDamp=-1.
 Damping current iteration by 5.00D-01
 RMSDP=4.34D-03 MaxDP=1.46D-01              OVMax= 3.75D-01

 Cycle   2  Pass 0  IDiag  1:
 One-electron energy=-0.983700209614D+03
 RMSU=  2.16D-03    CP:  9.80D-01
 Calling FoFDFT with Acc= 0.00D+00 ICntrl=  100011 IRadAn=       1.
 IMat=  1 1/2 <PG(P)>=         420.399808246735
 Remaining memory in FofDFT      511.75 Mw
 CkSvGd:  ISavGI=        -1 IRadAn=       1 IRASav=       0 ISavGd=        -1.
 CalDSu:  NPrtUS=   4 ThrOK=T IAlg=1 NPAlg=2 DoDPD=T LenP=       51360 LenD1P=             0.
 IPart=  0 IRanGd=          0 ScrnBf=T ScrnGd=T RCrit=4.00D+00 DoMicB=T.
 IPart=  1         8555 of         9536 points in      38 batches and       73 microbatches, Max-NSigAt=      12 Max-NSgAt2=      12
 IPart=  2         8398 of         9782 points in      45 batches and       86 microbatches, Max-NSigAt=      12 Max-NSgAt2=      12
 IPart=  0         8365 of         9512 points in      42 batches and       79 microbatches, Max-NSigAt=      12 Max-NSgAt2=      12
 IPart=  3         8129 of         8730 points in      29 batches and       61 microbatches, Max-NSigAt=      12 Max-NSgAt2=      12
 IMat=  1 Ex=         -33.805518933336 Ec=          -2.197341938804
 1/2 <PJ(P)> + E(ex) + E(corr)=         384.396947374595
 IMat=  1 EOne=-0.983700209614D+03 ETwo= 0.384396947375D+03 Energy=-0.599303262239D+03
 1/2 <PG(P)>=         420.399808246735
 Ex=         -33.805518933336 Ec=          -2.197341938804
 1/2 <PG(P)> + E(ex) + E(corr)=         384.396947374595
 E= -323.484894554192     Delta-E=       -0.036960533138 Rises=F Damp=T
 DIIS: error= 1.16D-02 at cycle   2 NSaved=   2.
 NSaved= 2 IEnMin= 2 EnMin= -323.484894554192     IErMin= 2 ErrMin= 1.16D-02
 ErrMax= 1.16D-02  0.00D+00 EMaxC= 1.00D-01 BMatC= 5.18D-02 BMatP= 2.44D-01
 IDIUse=3 WtCom= 8.84D-01 WtEn= 1.16D-01
 Coeff-Com:  0.257D+00 0.743D+00
 Coeff-En:   0.413D+00 0.587D+00
 Coeff:      0.275D+00 0.725D+00
 Gap=     0.278 Goal=   None    Shift=    0.000
 RMSDP=1.54D-03 MaxDP=5.07D-02 DE=-3.70D-02 OVMax= 2.92D-01

 Cycle   3  Pass 0  IDiag  1:
 One-electron energy=-0.982828136288D+03
 RMSU=  1.08D-03    CP:  9.74D-01  4.92D-01
 Calling FoFDFT with Acc= 0.00D+00 ICntrl=  400011 IRadAn=       1.
 IMat=  1 1/2 <PG(P)>=         419.392318856756
 Remaining memory in FofDFT      511.74 Mw
 CkSvGd:  ISavGI=        -1 IRadAn=       1 IRASav=       0 ISavGd=        -1.
 CalDSu:  NPrtUS=   4 ThrOK=T IAlg=1 NPAlg=2 DoDPD=T LenP=       51360 LenD1P=             0.
 IPart=  0 IRanGd=          0 ScrnBf=T ScrnGd=T RCrit=4.00D+00 DoMicB=T.
 IPart=  3         8342 of         9528 points in      40 batches and       80 microbatches, Max-NSigAt=      12 Max-NSgAt2=      12
 IPart=  2         8306 of         9296 points in      39 batches and       78 microbatches, Max-NSigAt=      12 Max-NSgAt2=      12
 IPart=  1         8511 of         9434 points in      39 batches and       68 microbatches, Max-NSigAt=      12 Max-NSgAt2=      12
 IPart=  0         8288 of         9302 points in      36 batches and       73 microbatches, Max-NSigAt=      12 Max-NSgAt2=      12
 IMat=  1 Ex=         -33.806990303166 Ec=          -2.195249781538
 1/2 <PJ(P)> + E(ex) + E(corr)=         383.390078772053
 IMat=  1 EOne=-0.982828136288D+03 ETwo= 0.383390078772D+03 Energy=-0.599438057516D+03
 1/2 <PG(P)>=         419.392318856756
 Ex=         -33.806990303166 Ec=          -2.195249781538
 1/2 <PG(P)> + E(ex) + E(corr)=         383.390078772053
 E= -323.619689830973     Delta-E=       -0.134795276781 Rises=F Damp=F
 DIIS: error= 1.37D-02 at cycle   3 NSaved=   3.
 NSaved= 3 IEnMin= 3 EnMin= -323.619689830973     IErMin= 2 ErrMin= 1.16D-02
 ErrMax= 1.37D-02  0.00D+00 EMaxC= 1.00D-01 BMatC= 4.62D-02 BMatP= 5.18D-02
 IDIUse=3 WtCom= 8.63D-01 WtEn= 1.37D-01
 Coeff-Com:  0.763D-01 0.477D+00 0.447D+00
 Coeff-En:   0.000D+00 0.000D+00 0.100D+01
 Coeff:      0.659D-01 0.412D+00 0.522D+00
 Gap=     0.174 Goal=   None    Shift=    0.000
 RMSDP=7.56D-04 MaxDP=3.44D-02 DE=-1.35D-01 OVMax= 1.23D-01

 Cycle   4  Pass 0  IDiag  1:
 One-electron energy=-0.984825286072D+03
 RMSU=  5.09D-04    CP:  9.80D-01  6.16D-01  5.52D-01
 Calling FoFDFT with Acc= 0.00D+00 ICntrl=  400011 IRadAn=       1.
 IMat=  1 1/2 <PG(P)>=         421.427705665356
 Remaining memory in FofDFT      511.74 Mw
 CkSvGd:  ISavGI=        -1 IRadAn=       1 IRASav=       0 ISavGd=        -1.
 CalDSu:  NPrtUS=   4 ThrOK=T IAlg=1 NPAlg=2 DoDPD=T LenP=       51360 LenD1P=             0.
 IPart=  0 IRanGd=          0 ScrnBf=T ScrnGd=T RCrit=4.00D+00 DoMicB=T.
 IPart=  0         8209 of         9340 points in      39 batches and       80 microbatches, Max-NSigAt=      12 Max-NSgAt2=      12
 IPart=  3         8280 of         9326 points in      37 batches and       79 microbatches, Max-NSigAt=      12 Max-NSgAt2=      12
 IPart=  2         8413 of         9276 points in      38 batches and       66 microbatches, Max-NSigAt=      12 Max-NSgAt2=      12
 IPart=  1         8545 of         9618 points in      40 batches and       74 microbatches, Max-NSigAt=      12 Max-NSgAt2=      12
 IMat=  1 Ex=         -33.872942410856 Ec=          -2.200362494464
 1/2 <PJ(P)> + E(ex) + E(corr)=         385.354400760036
 IMat=  1 EOne=-0.984825286072D+03 ETwo= 0.385354400760D+03 Energy=-0.599470885312D+03
 1/2 <PG(P)>=         421.427705665356
 Ex=         -33.872942410856 Ec=          -2.200362494464
 1/2 <PG(P)> + E(ex) + E(corr)=         385.354400760036
 E= -323.652517626507     Delta-E=       -0.032827795534 Rises=F Damp=F
 DIIS: error= 5.83D-03 at cycle   4 NSaved=   4.
 NSaved= 4 IEnMin= 4 EnMin= -323.652517626507     IErMin= 4 ErrMin= 5.83D-03
 ErrMax= 5.83D-03  0.00D+00 EMaxC= 1.00D-01 BMatC= 8.80D-03 BMatP= 4.62D-02
 IDIUse=3 WtCom= 9.42D-01 WtEn= 5.83D-02
 Coeff-Com:  0.820D-02 0.101D+00 0.321D+00 0.569D+00
 Coeff-En:   0.000D+00 0.000D+00 0.198D+00 0.802D+00
 Coeff:      0.773D-02 0.955D-01 0.314D+00 0.583D+00
 Gap=     0.177 Goal=   None    Shift=    0.000
 RMSDP=2.71D-04 MaxDP=1.08D-02 DE=-3.28D-02 OVMax= 4.02D-02

 Cycle   5  Pass 0  IDiag  1:
 One-electron energy=-0.984325121775D+03
 RMSU=  1.08D-04    CP:  9.79D-01  5.63D-01  6.87D-01  6.80D-01
 Calling FoFDFT with Acc= 0.00D+00 ICntrl=  400011 IRadAn=       1.
 IMat=  1 1/2 <PG(P)>=         420.911244185654
 Remaining memory in FofDFT      511.74 Mw
 CkSvGd:  ISavGI=        -1 IRadAn=       1 IRASav=       0 ISavGd=        -1.
 CalDSu:  NPrtUS=   4 ThrOK=T IAlg=1 NPAlg=2 DoDPD=T LenP=       51360 LenD1P=             0.
 IPart=  0 IRanGd=          0 ScrnBf=T ScrnGd=T RCrit=4.00D+00 DoMicB=T.
 IPart=  2         8504 of         9662 points in      42 batches and       84 microbatches, Max-NSigAt=      12 Max-NSgAt2=      12
 IPart=  3         8373 of         9498 points in      38 batches and       73 microbatches, Max-NSigAt=      12 Max-NSgAt2=      12
 IPart=  0         8412 of         9518 points in      43 batches and       81 microbatches, Max-NSigAt=      12 Max-NSgAt2=      12
 IPart=  1         8158 of         8882 points in      31 batches and       61 microbatches, Max-NSigAt=      12 Max-NSgAt2=      12
 IMat=  1 Ex=         -33.865163950578 Ec=          -2.199201155182
 1/2 <PJ(P)> + E(ex) + E(corr)=         384.846879079894
 IMat=  1 EOne=-0.984325121775D+03 ETwo= 0.384846879080D+03 Energy=-0.599478242695D+03
 1/2 <PG(P)>=         420.911244185654
 Ex=         -33.865163950578 Ec=          -2.199201155182
 1/2 <PG(P)> + E(ex) + E(corr)=         384.846879079894
 E= -323.659875009525     Delta-E=       -0.007357383018 Rises=F Damp=F
 DIIS: error= 1.20D-03 at cycle   5 NSaved=   5.
 NSaved= 5 IEnMin= 5 EnMin= -323.659875009525     IErMin= 5 ErrMin= 1.20D-03
 ErrMax= 1.20D-03  0.00D+00 EMaxC= 1.00D-01 BMatC= 3.05D-04 BMatP= 8.80D-03
 IDIUse=3 WtCom= 9.88D-01 WtEn= 1.20D-02
 Coeff-Com: -0.283D-02 0.169D-01 0.123D+00 0.295D+00 0.568D+00
 Coeff-En:   0.000D+00 0.000D+00 0.000D+00 0.000D+00 0.100D+01
 Coeff:     -0.280D-02 0.167D-01 0.122D+00 0.291D+00 0.573D+00
 Gap=     0.175 Goal=   None    Shift=    0.000
 RMSDP=7.20D-05 MaxDP=2.51D-03 DE=-7.36D-03 OVMax= 1.16D-02

 Cycle   6  Pass 0  IDiag  1:
 One-electron energy=-0.984208659915D+03
 RMSU=  4.51D-05    CP:  9.78D-01  5.73D-01  6.82D-01  7.19D-01  5.55D-01
 Calling FoFDFT with Acc= 0.00D+00 ICntrl=  400011 IRadAn=       1.
 IMat=  1 1/2 <PG(P)>=         420.785950044947
 Remaining memory in FofDFT      511.74 Mw
 CkSvGd:  ISavGI=        -1 IRadAn=       1 IRASav=       0 ISavGd=        -1.
 CalDSu:  NPrtUS=   4 ThrOK=T IAlg=1 NPAlg=2 DoDPD=T LenP=       51360 LenD1P=             0.
 IPart=  0 IRanGd=          0 ScrnBf=T ScrnGd=T RCrit=4.00D+00 DoMicB=T.
 IPart=  2         8252 of         9196 points in      38 batches and       78 microbatches, Max-NSigAt=      12 Max-NSgAt2=      12
 IPart=  0         8345 of         9568 points in      43 batches and       86 microbatches, Max-NSigAt=      12 Max-NSgAt2=      12
 IPart=  3         8125 of         8904 points in      32 batches and       62 microbatches, Max-NSigAt=      12 Max-NSgAt2=      12
 IPart=  1         8725 of         9892 points in      41 batches and       73 microbatches, Max-NSigAt=      12 Max-NSgAt2=      12
 IMat=  1 Ex=         -33.856867416779 Ec=          -2.198893927633
 1/2 <PJ(P)> + E(ex) + E(corr)=         384.730188700535
 IMat=  1 EOne=-0.984208659915D+03 ETwo= 0.384730188701D+03 Energy=-0.599478471214D+03
 1/2 <PG(P)>=         420.785950044947
 Ex=         -33.856867416779 Ec=          -2.198893927633
 1/2 <PG(P)> + E(ex) + E(corr)=         384.730188700535
 E= -323.660103529294     Delta-E=       -0.000228519769 Rises=F Damp=F
 DIIS: error= 5.89D-04 at cycle   6 NSaved=   6.
 NSaved= 6 IEnMin= 6 EnMin= -323.660103529294     IErMin= 6 ErrMin= 5.89D-04
 ErrMax= 5.89D-04  0.00D+00 EMaxC= 1.00D-01 BMatC= 8.06D-05 BMatP= 3.05D-04
 IDIUse=3 WtCom= 9.94D-01 WtEn= 5.89D-03
 Coeff-Com: -0.249D-02-0.197D-02 0.314D-01 0.984D-01 0.377D+00 0.498D+00
 Coeff-En:   0.000D+00 0.000D+00 0.000D+00 0.000D+00 0.240D+00 0.760D+00
 Coeff:     -0.248D-02-0.196D-02 0.312D-01 0.978D-01 0.376D+00 0.500D+00
 Gap=     0.176 Goal=   None    Shift=    0.000
 RMSDP=2.64D-05 MaxDP=1.04D-03 DE=-2.29D-04 OVMax= 4.17D-03

 Cycle   7  Pass 0  IDiag  1:
 One-electron energy=-0.984246562203D+03
 RMSU=  1.04D-05    CP:  9.78D-01  5.70D-01  6.86D-01  7.14D-01  6.89D-01
                    CP:  5.96D-01
 Calling FoFDFT with Acc= 0.00D+00 ICntrl=  400011 IRadAn=       1.
 IMat=  1 1/2 <PG(P)>=         420.825648964412
 Remaining memory in FofDFT      511.74 Mw
 CkSvGd:  ISavGI=        -1 IRadAn=       1 IRASav=       0 ISavGd=        -1.
 CalDSu:  NPrtUS=   4 ThrOK=T IAlg=1 NPAlg=2 DoDPD=T LenP=       51360 LenD1P=             0.
 IPart=  0 IRanGd=          0 ScrnBf=T ScrnGd=T RCrit=4.00D+00 DoMicB=T.
 IPart=  0         8334 of         9520 points in      41 batches and       76 microbatches, Max-NSigAt=      12 Max-NSgAt2=      12
 IPart=  2         8291 of         9336 points in      39 batches and       72 microbatches, Max-NSigAt=      12 Max-NSgAt2=      12
 IPart=  1         8228 of         8988 points in      31 batches and       77 microbatches, Max-NSigAt=      12 Max-NSgAt2=      12
 IPart=  3         8594 of         9716 points in      43 batches and       74 microbatches, Max-NSigAt=      12 Max-NSgAt2=      12
 IMat=  1 Ex=         -33.858688808762 Ec=          -2.198952839910
 1/2 <PJ(P)> + E(ex) + E(corr)=         384.768007315740
 IMat=  1 EOne=-0.984246562203D+03 ETwo= 0.384768007316D+03 Energy=-0.599478554887D+03
 1/2 <PG(P)>=         420.825648964412
 Ex=         -33.858688808762 Ec=          -2.198952839910
 1/2 <PG(P)> + E(ex) + E(corr)=         384.768007315740
 E= -323.660187201968     Delta-E=       -0.000083672674 Rises=F Damp=F
 DIIS: error= 9.82D-05 at cycle   7 NSaved=   7.
 NSaved= 7 IEnMin= 7 EnMin= -323.660187201968     IErMin= 7 ErrMin= 9.82D-05
 ErrMax= 9.82D-05  0.00D+00 EMaxC= 1.00D-01 BMatC= 2.57D-06 BMatP= 8.06D-05
 IDIUse=1 WtCom= 1.00D+00 WtEn= 0.00D+00
 Coeff-Com: -0.958D-03-0.232D-02 0.896D-02 0.321D-01 0.160D+00 0.248D+00
 Coeff-Com:  0.554D+00
 Coeff:     -0.958D-03-0.232D-02 0.896D-02 0.321D-01 0.160D+00 0.248D+00
 Coeff:      0.554D+00
 Gap=     0.176 Goal=   None    Shift=    0.000
 RMSDP=4.37D-06 MaxDP=3.15D-04 DE=-8.37D-05 OVMax= 5.22D-04

 Initial convergence to 1.0D-05 achieved.  Increase integral accuracy.
 Cycle   8  Pass 1  IDiag  1:
 One-electron energy=-0.984249120284D+03
 Calling FoFDFT with Acc= 0.00D+00 ICntrl=  400011 IRadAn=       0.
 IMat=  1 1/2 <PG(P)>=         420.828053144726
 Remaining memory in FofDFT      511.74 Mw
 CkSvGd:  ISavGI=        -1 IRadAn=       4 IRASav=       0 ISavGd=        -1.
 CalDSu:  NPrtUS=   4 ThrOK=T IAlg=1 NPAlg=2 DoDPD=T LenP=       51360 LenD1P=             0.
 IPart=  0 IRanGd=          0 ScrnBf=T ScrnGd=T RCrit=4.00D+00 DoMicB=T.
 IPart=  2        21678 of        24274 points in      51 batches and      168 microbatches, Max-NSigAt=      12 Max-NSgAt2=      12
 IPart=  0        21446 of        23944 points in      50 batches and      155 microbatches, Max-NSigAt=      12 Max-NSgAt2=      12
 IPart=  3        21786 of        24592 points in      53 batches and      152 microbatches, Max-NSigAt=      12 Max-NSgAt2=      12
 IPart=  1        21710 of        24206 points in      50 batches and      161 microbatches, Max-NSigAt=      12 Max-NSgAt2=      12
 IMat=  1 Ex=         -33.858517121181 Ec=          -2.198952270038
 1/2 <PJ(P)> + E(ex) + E(corr)=         384.770583753507
 IMat=  1 EOne=-0.984249120284D+03 ETwo= 0.384770583754D+03 Energy=-0.599478536531D+03
 1/2 <PG(P)>=         420.828053144726
 Ex=         -33.858517121181 Ec=          -2.198952270038
 1/2 <PG(P)> + E(ex) + E(corr)=         384.770583753507
 E= -323.660168845317     Delta-E=        0.000018356651 Rises=F Damp=F
 DIIS: error= 3.65D-05 at cycle   1 NSaved=   1.
 NSaved= 1 IEnMin= 1 EnMin= -323.660168845317     IErMin= 1 ErrMin= 3.65D-05
 ErrMax= 3.65D-05  0.00D+00 EMaxC= 1.00D-01 BMatC= 5.52D-07 BMatP= 5.52D-07
 IDIUse=1 WtCom= 1.00D+00 WtEn= 0.00D+00
 Coeff-Com:  0.100D+01
 Coeff:      0.100D+01
 Gap=     0.176 Goal=   None    Shift=    0.000
 RMSDP=4.37D-06 MaxDP=3.15D-04 DE= 1.84D-05 OVMax= 4.01D-04

 Cycle   9  Pass 1  IDiag  1:
 One-electron energy=-0.984250293896D+03
 RMSU=  1.05D-05    CP:  1.00D+00
 Calling FoFDFT with Acc= 0.00D+00 ICntrl=  400011 IRadAn=       0.
 IMat=  1 1/2 <PG(P)>=         420.829811679475
 Remaining memory in FofDFT      511.74 Mw
 CkSvGd:  ISavGI=        -1 IRadAn=       4 IRASav=       0 ISavGd=        -1.
 CalDSu:  NPrtUS=   4 ThrOK=T IAlg=1 NPAlg=2 DoDPD=T LenP=       51360 LenD1P=             0.
 IPart=  0 IRanGd=          0 ScrnBf=T ScrnGd=T RCrit=4.00D+00 DoMicB=T.
 IPart=  3        22510 of        25802 points in      56 batches and      165 microbatches, Max-NSigAt=      12 Max-NSgAt2=      12
 IPart=  2        20628 of        22810 points in      47 batches and      162 microbatches, Max-NSigAt=      12 Max-NSgAt2=      12
 IPart=  1        21748 of        24278 points in      53 batches and      172 microbatches, Max-NSigAt=      12 Max-NSgAt2=      12
 IPart=  0        21734 of        24126 points in      48 batches and      137 microbatches, Max-NSigAt=      12 Max-NSgAt2=      12
 IMat=  1 Ex=         -33.859093895230 Ec=          -2.198960149409
 1/2 <PJ(P)> + E(ex) + E(corr)=         384.771757634836
 IMat=  1 EOne=-0.984250293896D+03 ETwo= 0.384771757635D+03 Energy=-0.599478536261D+03
 1/2 <PG(P)>=         420.829811679475
 Ex=         -33.859093895230 Ec=          -2.198960149409
 1/2 <PG(P)> + E(ex) + E(corr)=         384.771757634836
 E= -323.660168575959     Delta-E=        0.000000269358 Rises=F Damp=F
 DIIS: error= 4.96D-05 at cycle   2 NSaved=   2.
 NSaved= 2 IEnMin= 1 EnMin= -323.660168845317     IErMin= 1 ErrMin= 3.65D-05
 ErrMax= 4.96D-05  0.00D+00 EMaxC= 1.00D-01 BMatC= 9.80D-07 BMatP= 5.52D-07
 IDIUse=1 WtCom= 1.00D+00 WtEn= 0.00D+00
 Coeff-Com:  0.582D+00 0.418D+00
 Coeff:      0.582D+00 0.418D+00
 Gap=     0.176 Goal=   None    Shift=    0.000
 RMSDP=2.91D-06 MaxDP=1.34D-04 DE= 2.69D-07 OVMax= 3.27D-04

 Cycle  10  Pass 1  IDiag  1:
 One-electron energy=-0.984248839048D+03
 RMSU=  2.76D-06    CP:  1.00D+00  9.13D-01
 Calling FoFDFT with Acc= 0.00D+00 ICntrl=  400011 IRadAn=       0.
 IMat=  1 1/2 <PG(P)>=         420.827909369586
 Remaining memory in FofDFT      511.74 Mw
 CkSvGd:  ISavGI=        -1 IRadAn=       4 IRASav=       0 ISavGd=        -1.
 CalDSu:  NPrtUS=   4 ThrOK=T IAlg=1 NPAlg=2 DoDPD=T LenP=       51360 LenD1P=             0.
 IPart=  0 IRanGd=          0 ScrnBf=T ScrnGd=T RCrit=4.00D+00 DoMicB=T.
 IPart=  2        22314 of        25258 points in      53 batches and      148 microbatches, Max-NSigAt=      12 Max-NSgAt2=      12
 IPart=  3        21301 of        24068 points in      52 batches and      166 microbatches, Max-NSigAt=      12 Max-NSgAt2=      12
 IPart=  1        21176 of        23306 points in      49 batches and      165 microbatches, Max-NSigAt=      12 Max-NSgAt2=      12
 IPart=  0        21829 of        24384 points in      50 batches and      157 microbatches, Max-NSigAt=      12 Max-NSgAt2=      12
 IMat=  1 Ex=         -33.858654328927 Ec=          -2.198952990060
 1/2 <PJ(P)> + E(ex) + E(corr)=         384.770302050599
 IMat=  1 EOne=-0.984248839048D+03 ETwo= 0.384770302051D+03 Energy=-0.599478536997D+03
 1/2 <PG(P)>=         420.827909369586
 Ex=         -33.858654328927 Ec=          -2.198952990060
 1/2 <PG(P)> + E(ex) + E(corr)=         384.770302050599
 E= -323.660169312108     Delta-E=       -0.000000736150 Rises=F Damp=F
 DIIS: error= 1.58D-05 at cycle   3 NSaved=   3.
 NSaved= 3 IEnMin= 3 EnMin= -323.660169312108     IErMin= 3 ErrMin= 1.58D-05
 ErrMax= 1.58D-05  0.00D+00 EMaxC= 1.00D-01 BMatC= 5.96D-08 BMatP= 5.52D-07
 IDIUse=1 WtCom= 1.00D+00 WtEn= 0.00D+00
 Coeff-Com:  0.121D+00 0.206D+00 0.673D+00
 Coeff:      0.121D+00 0.206D+00 0.673D+00
 Gap=     0.176 Goal=   None    Shift=    0.000
 RMSDP=1.06D-06 MaxDP=5.23D-05 DE=-7.36D-07 OVMax= 1.41D-04

 Cycle  11  Pass 1  IDiag  1:
 One-electron energy=-0.984249590081D+03
 RMSU=  6.77D-07    CP:  1.00D+00  9.50D-01  7.42D-01
 Calling FoFDFT with Acc= 0.00D+00 ICntrl=  400011 IRadAn=       0.
 IMat=  1 1/2 <PG(P)>=         420.828782148474
 Remaining memory in FofDFT      511.74 Mw
 CkSvGd:  ISavGI=        -1 IRadAn=       4 IRASav=       0 ISavGd=        -1.
 CalDSu:  NPrtUS=   4 ThrOK=T IAlg=1 NPAlg=2 DoDPD=T LenP=       51360 LenD1P=             0.
 IPart=  0 IRanGd=          0 ScrnBf=T ScrnGd=T RCrit=4.00D+00 DoMicB=T.
 IPart=  3        21348 of        24052 points in      52 batches and      174 microbatches, Max-NSigAt=      12 Max-NSgAt2=      12
 IPart=  2        21566 of        24112 points in      49 batches and      158 microbatches, Max-NSigAt=      12 Max-NSgAt2=      12
 IPart=  0        21903 of        24636 points in      53 batches and      145 microbatches, Max-NSigAt=      12 Max-NSgAt2=      12
 IPart=  1        21803 of        24216 points in      50 batches and      159 microbatches, Max-NSigAt=      12 Max-NSgAt2=      12
 IMat=  1 Ex=         -33.858773338031 Ec=          -2.198955751396
 1/2 <PJ(P)> + E(ex) + E(corr)=         384.771053059046
 IMat=  1 EOne=-0.984249590081D+03 ETwo= 0.384771053059D+03 Energy=-0.599478537022D+03
 1/2 <PG(P)>=         420.828782148474
 Ex=         -33.858773338031 Ec=          -2.198955751396
 1/2 <PG(P)> + E(ex) + E(corr)=         384.771053059046
 E= -323.660169337192     Delta-E=       -0.000000025084 Rises=F Damp=F
 DIIS: error= 9.96D-06 at cycle   4 NSaved=   4.
 NSaved= 4 IEnMin= 4 EnMin= -323.660169337192     IErMin= 4 ErrMin= 9.96D-06
 ErrMax= 9.96D-06  0.00D+00 EMaxC= 1.00D-01 BMatC= 2.87D-08 BMatP= 5.96D-08
 IDIUse=1 WtCom= 1.00D+00 WtEn= 0.00D+00
 Coeff-Com: -0.235D-02 0.794D-01 0.473D+00 0.450D+00
 Coeff:     -0.235D-02 0.794D-01 0.473D+00 0.450D+00
 Gap=     0.176 Goal=   None    Shift=    0.000
 RMSDP=4.45D-07 MaxDP=2.12D-05 DE=-2.51D-08 OVMax= 6.62D-05

 Cycle  12  Pass 1  IDiag  1:
 One-electron energy=-0.984249507480D+03
 RMSU=  1.55D-07    CP:  1.00D+00  9.50D-01  8.20D-01  4.75D-01
 Calling FoFDFT with Acc= 0.00D+00 ICntrl=  400011 IRadAn=       0.
 IMat=  1 1/2 <PG(P)>=         420.828668942920
 Remaining memory in FofDFT      511.74 Mw
 CkSvGd:  ISavGI=        -1 IRadAn=       4 IRASav=       0 ISavGd=        -1.
 CalDSu:  NPrtUS=   4 ThrOK=T IAlg=1 NPAlg=2 DoDPD=T LenP=       51360 LenD1P=             0.
 IPart=  0 IRanGd=          0 ScrnBf=T ScrnGd=T RCrit=4.00D+00 DoMicB=T.
 IPart=  0        21930 of        24448 points in      51 batches and      153 microbatches, Max-NSigAt=      12 Max-NSgAt2=      12
 IPart=  1        21580 of        24154 points in      51 batches and      178 microbatches, Max-NSigAt=      12 Max-NSgAt2=      12
 IPart=  3        21670 of        24418 points in      52 batches and      153 microbatches, Max-NSigAt=      12 Max-NSgAt2=      12
 IPart=  2        21440 of        23996 points in      50 batches and      152 microbatches, Max-NSigAt=      12 Max-NSgAt2=      12
 IMat=  1 Ex=         -33.858743554163 Ec=          -2.198954953903
 1/2 <PJ(P)> + E(ex) + E(corr)=         384.770970434854
 IMat=  1 EOne=-0.984249507480D+03 ETwo= 0.384770970435D+03 Energy=-0.599478537045D+03
 1/2 <PG(P)>=         420.828668942920
 Ex=         -33.858743554163 Ec=          -2.198954953903
 1/2 <PG(P)> + E(ex) + E(corr)=         384.770970434854
 E= -323.660169359899     Delta-E=       -0.000000022707 Rises=F Damp=F
 DIIS: error= 1.49D-06 at cycle   5 NSaved=   5.
 NSaved= 5 IEnMin= 5 EnMin= -323.660169359899     IErMin= 5 ErrMin= 1.49D-06
 ErrMax= 1.49D-06  0.00D+00 EMaxC= 1.00D-01 BMatC= 7.47D-10 BMatP= 2.87D-08
 IDIUse=1 WtCom= 1.00D+00 WtEn= 0.00D+00
 Coeff-Com: -0.680D-02 0.305D-01 0.213D+00 0.243D+00 0.521D+00
 Coeff:     -0.680D-02 0.305D-01 0.213D+00 0.243D+00 0.521D+00
 Gap=     0.176 Goal=   None    Shift=    0.000
 RMSDP=7.92D-08 MaxDP=3.87D-06 DE=-2.27D-08 OVMax= 1.30D-05

 Cycle  13  Pass 1  IDiag  1:
 One-electron energy=-0.984249289218D+03
 RMSU=  6.59D-08    CP:  1.00D+00  9.51D-01  8.23D-01  4.94D-01  7.51D-01
 Calling FoFDFT with Acc= 0.00D+00 ICntrl=  400011 IRadAn=       0.
 IMat=  1 1/2 <PG(P)>=         420.828443671381
 Remaining memory in FofDFT      511.74 Mw
 CkSvGd:  ISavGI=        -1 IRadAn=       4 IRASav=       0 ISavGd=        -1.
 CalDSu:  NPrtUS=   4 ThrOK=T IAlg=1 NPAlg=2 DoDPD=T LenP=       51360 LenD1P=             0.
 IPart=  0 IRanGd=          0 ScrnBf=T ScrnGd=T RCrit=4.00D+00 DoMicB=T.
 IPart=  1        22016 of        24872 points in      52 batches and      166 microbatches, Max-NSigAt=      12 Max-NSgAt2=      12
 IPart=  0        20842 of        23316 points in      49 batches and      163 microbatches, Max-NSigAt=      12 Max-NSgAt2=      12
 IPart=  2        21962 of        24742 points in      53 batches and      156 microbatches, Max-NSigAt=      12 Max-NSgAt2=      12
 IPart=  3        21800 of        24086 points in      50 batches and      151 microbatches, Max-NSigAt=      12 Max-NSgAt2=      12
 IMat=  1 Ex=         -33.858736947957 Ec=          -2.198954550825
 1/2 <PJ(P)> + E(ex) + E(corr)=         384.770752172600
 IMat=  1 EOne=-0.984249289218D+03 ETwo= 0.384770752173D+03 Energy=-0.599478537046D+03
 1/2 <PG(P)>=         420.828443671381
 Ex=         -33.858736947957 Ec=          -2.198954550825
 1/2 <PG(P)> + E(ex) + E(corr)=         384.770752172600
 E= -323.660169360444     Delta-E=       -0.000000000545 Rises=F Damp=F
 DIIS: error= 8.57D-07 at cycle   6 NSaved=   6.
 NSaved= 6 IEnMin= 6 EnMin= -323.660169360444     IErMin= 6 ErrMin= 8.57D-07
 ErrMax= 8.57D-07  0.00D+00 EMaxC= 1.00D-01 BMatC= 1.03D-10 BMatP= 7.47D-10
 IDIUse=1 WtCom= 1.00D+00 WtEn= 0.00D+00
 Coeff-Com: -0.398D-02 0.117D-01 0.893D-01 0.113D+00 0.321D+00 0.469D+00
 Coeff:     -0.398D-02 0.117D-01 0.893D-01 0.113D+00 0.321D+00 0.469D+00
 Gap=     0.176 Goal=   None    Shift=    0.000
 RMSDP=3.11D-08 MaxDP=1.91D-06 DE=-5.45D-10 OVMax= 5.76D-06

 Cycle  14  Pass 1  IDiag  1:
 One-electron energy=-0.984249340977D+03
 RMSU=  1.80D-08    CP:  1.00D+00  9.51D-01  8.22D-01  5.02D-01  8.19D-01
                    CP:  6.65D-01
 Calling FoFDFT with Acc= 0.00D+00 ICntrl=  400011 IRadAn=       0.
 IMat=  1 1/2 <PG(P)>=         420.828498242756
 Remaining memory in FofDFT      511.74 Mw
 CkSvGd:  ISavGI=        -1 IRadAn=       4 IRASav=       0 ISavGd=        -1.
 CalDSu:  NPrtUS=   4 ThrOK=T IAlg=1 NPAlg=2 DoDPD=T LenP=       51360 LenD1P=             0.
 IPart=  0 IRanGd=          0 ScrnBf=T ScrnGd=T RCrit=4.00D+00 DoMicB=T.
 IPart=  0        21437 of        23968 points in      50 batches and      149 microbatches, Max-NSigAt=      12 Max-NSgAt2=      12
 IPart=  1        21698 of        24474 points in      51 batches and      158 microbatches, Max-NSigAt=      12 Max-NSgAt2=      12
 IPart=  2        21798 of        24360 points in      51 batches and      151 microbatches, Max-NSigAt=      12 Max-NSgAt2=      12
 IPart=  3        21687 of        24214 points in      52 batches and      178 microbatches, Max-NSigAt=      12 Max-NSgAt2=      12
 IMat=  1 Ex=         -33.858739635076 Ec=          -2.198954676705
 1/2 <PJ(P)> + E(ex) + E(corr)=         384.770803930975
 IMat=  1 EOne=-0.984249340977D+03 ETwo= 0.384770803931D+03 Energy=-0.599478537046D+03
 1/2 <PG(P)>=         420.828498242756
 Ex=         -33.858739635076 Ec=          -2.198954676705
 1/2 <PG(P)> + E(ex) + E(corr)=         384.770803930975
 E= -323.660169360544     Delta-E=       -0.000000000100 Rises=F Damp=F
 DIIS: error= 1.53D-07 at cycle   7 NSaved=   7.
 NSaved= 7 IEnMin= 7 EnMin= -323.660169360544     IErMin= 7 ErrMin= 1.53D-07
 ErrMax= 1.53D-07  0.00D+00 EMaxC= 1.00D-01 BMatC= 6.17D-12 BMatP= 1.03D-10
 IDIUse=1 WtCom= 1.00D+00 WtEn= 0.00D+00
 Coeff-Com: -0.914D-03 0.983D-03 0.109D-01 0.208D-01 0.716D-01 0.219D+00
 Coeff-Com:  0.677D+00
 Coeff:     -0.914D-03 0.983D-03 0.109D-01 0.208D-01 0.716D-01 0.219D+00
 Coeff:      0.677D+00
 Gap=     0.176 Goal=   None    Shift=    0.000
 RMSDP=9.51D-09 MaxDP=4.89D-07 DE=-9.97D-11 OVMax= 1.01D-06

 SCF Done:  E(RB3LYP) =  -323.660169361     A.U. after   14 cycles
            NFock= 14  Conv=0.95D-08     -V/T= 2.0039
 KE= 3.224173316747D+02 PE=-1.306666672651D+03 EE= 3.847708039310D+02
 Leave Link  502 at Sun Aug 29 12:36:39 2021, MaxMem=   536870912 cpu:       238.7
 (Enter /home/tmcstu/local/programs/gaussian09/g09/l601.exe)
 Copying SCF densities to generalized density rwf, IOpCl= 0 IROHF=0.

 **********************************************************************

            Population analysis using the SCF density.

 **********************************************************************

 Alpha  occ. eigenvalues --  -19.08352 -14.37992 -10.27802 -10.24455 -10.20620
 Alpha  occ. eigenvalues --  -10.19032 -10.18679  -1.04251  -0.96676  -0.83036
 Alpha  occ. eigenvalues --   -0.76881  -0.66407  -0.64732  -0.57266  -0.51702
 Alpha  occ. eigenvalues --   -0.49791  -0.47218  -0.45035  -0.43492  -0.40039
 Alpha  occ. eigenvalues --   -0.38666  -0.35569  -0.32026  -0.26376  -0.23276
 Alpha virt. eigenvalues --   -0.05711  -0.00333   0.00057   0.02606   0.04034
 Alpha virt. eigenvalues --    0.06609   0.07581   0.11436   0.12335   0.14237
 Alpha virt. eigenvalues --    0.14592   0.15320   0.17236   0.18618   0.18772
 Alpha virt. eigenvalues --    0.20147   0.22402   0.22904   0.26381   0.26532
 Alpha virt. eigenvalues --    0.26914   0.28038   0.28532   0.29161   0.30632
 Alpha virt. eigenvalues --    0.31623   0.33738   0.34541   0.37565   0.39741
 Alpha virt. eigenvalues --    0.40093   0.41744   0.44179   0.45769   0.47576
 Alpha virt. eigenvalues --    0.48498   0.50226   0.51783   0.55065   0.58783
 Alpha virt. eigenvalues --    0.60126   0.61207   0.63482   0.63821   0.66217
 Alpha virt. eigenvalues --    0.69959   0.74555   0.74889   0.77749   0.79582
 Alpha virt. eigenvalues --    0.80631   0.82992   0.89266   0.90985   0.91488
 Alpha virt. eigenvalues --    0.93884   0.95686   0.97636   0.99055   1.05356
 Alpha virt. eigenvalues --    1.07211   1.09447   1.10221   1.12863   1.13023
 Alpha virt. eigenvalues --    1.13856   1.16697   1.17968   1.19065   1.23216
 Alpha virt. eigenvalues --    1.23999   1.24332   1.25241   1.27116   1.27498
 Alpha virt. eigenvalues --    1.33048   1.36692   1.39241   1.40220   1.43249
 Alpha virt. eigenvalues --    1.44191   1.46595   1.48014   1.49092   1.54193
 Alpha virt. eigenvalues --    1.55904   1.58060   1.61380   1.64668   1.65603
 Alpha virt. eigenvalues --    1.65659   1.67583   1.70301   1.71139   1.74207
 Alpha virt. eigenvalues --    1.78077   1.79402   1.84354   1.84759   1.88812
 Alpha virt. eigenvalues --    1.90559   1.95033   1.98945   1.99867   2.00145
 Alpha virt. eigenvalues --    2.05916   2.06093   2.12647   2.14223   2.19425
 Alpha virt. eigenvalues --    2.20888   2.22654   2.25100   2.26707   2.29685
 Alpha virt. eigenvalues --    2.35356   2.49823   2.59828   2.62601   2.85282
 Alpha virt. eigenvalues --    2.85660   2.89102   2.91773   2.93412   3.14482
 Alpha virt. eigenvalues --    3.16206   3.19521   3.20990   3.22723   3.23062
 Alpha virt. eigenvalues --    3.25787   3.30275   3.31119   3.33703   3.37209
 Alpha virt. eigenvalues --    3.41098   3.45884   3.48484   3.52990   3.55024
 Alpha virt. eigenvalues --    3.57646   3.61142   3.64784   3.65571   3.66448
 Alpha virt. eigenvalues --    3.67601   3.69793   3.76261   3.84133   3.86106
 Alpha virt. eigenvalues --    3.89586   3.92802   3.94097   3.95031   3.98117
 Alpha virt. eigenvalues --    3.99934   4.01166   4.02162   4.06271   4.06993
 Alpha virt. eigenvalues --    4.07778   4.11540   4.12948   4.13333   4.16505
 Alpha virt. eigenvalues --    4.18912   4.19911   4.21165   4.22576   4.23080
 Alpha virt. eigenvalues --    4.25291   4.25661   4.26138   4.28325   4.30736
 Alpha virt. eigenvalues --    4.30938   4.31928   4.32844   4.34313   4.38954
 Alpha virt. eigenvalues --    4.39679   4.44082   4.44766   4.46158   4.47003
 Alpha virt. eigenvalues --    4.48414   4.50349   4.50493   4.55029   4.56813
 Alpha virt. eigenvalues --    4.57330   4.58186   4.61704   4.62119   4.67261
 Alpha virt. eigenvalues --    4.71566   4.73679   4.76059   4.83256   4.84264
 Alpha virt. eigenvalues --    4.86235   4.90601   4.91430   4.95600   4.96301
 Alpha virt. eigenvalues --    5.01145   5.07172   5.10826   5.15297   5.16788
 Alpha virt. eigenvalues --    5.21485   5.23867   5.30141   5.30394   5.32523
 Alpha virt. eigenvalues --    5.33808   5.38457   5.38596   5.40449   5.44699
 Alpha virt. eigenvalues --    5.47001   5.52695   5.56470   5.56616   5.57679
 Alpha virt. eigenvalues --    5.62499   5.68412   5.70952   5.71285   5.76785
 Alpha virt. eigenvalues --    5.82107   5.89514   5.95157   5.95514   6.06069
 Alpha virt. eigenvalues --    6.07125   6.09217   6.15902   6.20360   6.26308
 Alpha virt. eigenvalues --    6.35206   6.48973   6.52112   6.55952   6.78986
 Alpha virt. eigenvalues --    6.95611   6.96496   7.22262   9.45338  12.19228
 Alpha virt. eigenvalues --   13.09552  14.62349  17.75648  18.21142  22.64679
          Condensed to atoms (all electrons):
               1          2          3          4          5          6
     1  O    8.038362  -0.122386   0.605249  -0.071807   0.005743   0.006689
     2  N   -0.122386   6.438027   0.344691  -0.048654   0.374223  -0.015882
     3  C    0.605249   0.344691   4.368885   0.414064  -0.039130  -0.032583
     4  C   -0.071807  -0.048654   0.414064   4.992279  -0.041029   0.523560
     5  C    0.005743   0.374223  -0.039130  -0.041029   4.623240  -0.081156
     6  C    0.006689  -0.015882  -0.032583   0.523560  -0.081156   4.766311
     7  C    0.000937  -0.065667  -0.019371  -0.069314   0.609593   0.441249
     8  H    0.015255   0.385784  -0.025154   0.014814  -0.030706  -0.004216
     9  H    0.005714   0.006496  -0.044007   0.443993  -0.000150  -0.037446
    10  H   -0.001184  -0.036692   0.001726  -0.004444   0.423632   0.009147
    11  H   -0.000514  -0.001967   0.005559  -0.033123   0.008809   0.422814
    12  H    0.000023   0.005068  -0.000471   0.006971  -0.033979  -0.032844
               7          8          9         10         11         12
     1  O    0.000937   0.015255   0.005714  -0.001184  -0.000514   0.000023
     2  N   -0.065667   0.385784   0.006496  -0.036692  -0.001967   0.005068
     3  C   -0.019371  -0.025154  -0.044007   0.001726   0.005559  -0.000471
     4  C   -0.069314   0.014814   0.443993  -0.004444  -0.033123   0.006971
     5  C    0.609593  -0.030706  -0.000150   0.423632   0.008809  -0.033979
     6  C    0.441249  -0.004216  -0.037446   0.009147   0.422814  -0.032844
     7  C    4.858126   0.007903   0.006963  -0.036580  -0.040296   0.437947
     8  H    0.007903   0.493713  -0.000547  -0.012861   0.000342  -0.000342
     9  H    0.006963  -0.000547   0.573365   0.000332  -0.008601  -0.000042
    10  H   -0.036580  -0.012861   0.000332   0.604255  -0.000487  -0.004261
    11  H   -0.040296   0.000342  -0.008601  -0.000487   0.599438  -0.006620
    12  H    0.437947  -0.000342  -0.000042  -0.004261  -0.006620   0.582442
 Mulliken charges:
               1
     1  O   -0.482080
     2  N   -0.263041
     3  C    0.420541
     4  C   -0.127310
     5  C    0.180909
     6  C    0.034357
     7  C   -0.131489
     8  H    0.156016
     9  H    0.053931
    10  H    0.057415
    11  H    0.054645
    12  H    0.046107
 Sum of Mulliken charges =  -0.00000
 Mulliken charges with hydrogens summed into heavy atoms:
               1
     1  O   -0.482080
     2  N   -0.107025
     3  C    0.420541
     4  C   -0.073379
     5  C    0.238324
     6  C    0.089002
     7  C   -0.085382
 Electronic spatial extent (au):  <R**2>=            630.3011
 Charge=             -0.0000 electrons
 Dipole moment (field-independent basis, Debye):
    X=             -1.1892    Y=             -4.2548    Z=              0.0000  Tot=              4.4179
 Quadrupole moment (field-independent basis, Debye-Ang):
   XX=            -31.7338   YY=            -48.1952   ZZ=            -43.1702
   XY=              0.1746   XZ=             -0.0000   YZ=              0.0000
 Traceless Quadrupole moment (field-independent basis, Debye-Ang):
   XX=              9.2993   YY=             -7.1621   ZZ=             -2.1372
   XY=              0.1746   XZ=             -0.0000   YZ=              0.0000
 Octapole moment (field-independent basis, Debye-Ang**2):
  XXX=            -11.5339  YYY=            -30.9826  ZZZ=              0.0000  XYY=              0.0356
  XXY=              1.0324  XXZ=              0.0000  XZZ=             -2.1513  YZZ=              5.3499
  YYZ=              0.0000  XYZ=              0.0000
 Hexadecapole moment (field-independent basis, Debye-Ang**3):
 XXXX=           -240.6023 YYYY=           -547.6984 ZZZZ=            -47.8963 XXXY=              2.6841
 XXXZ=             -0.0000 YYYX=              7.9920 YYYZ=              0.0000 ZZZX=             -0.0000
 ZZZY=              0.0000 XXYY=           -118.3388 XXZZ=            -61.5845 YYZZ=            -97.2886
 XXYZ=              0.0000 YYXZ=             -0.0000 ZZXY=              1.2607
 N-N= 2.758183676852D+02 E-N=-1.306666698402D+03  KE= 3.224173316747D+02
 No NMR shielding tensors so no spin-rotation constants.
 Leave Link  601 at Sun Aug 29 12:36:39 2021, MaxMem=   536870912 cpu:         0.3
 (Enter /home/tmcstu/local/programs/gaussian09/g09/l801.exe)
 DoSCS=F DFT=T ScalE2(SS,OS)=  1.000000  1.000000
 ExpMin= 7.41D-02 ExpMax= 1.48D+04 ExpMxC= 5.05D+02 IAcc=3 IRadAn=         5 AccDes= 0.00D+00
 HarFok:  IExCor=  205 AccDes= 0.00D+00 IRadAn=         5 IDoV=-2 UseB2=F ITyADJ=14
 ICtDFT= 12500011 ScaDFX=  1.000000  1.000000  1.000000  1.000000
 Largest valence mixing into a core orbital is  2.43D-05
 Largest core mixing into a valence orbital is  1.27D-05
 Range of M.O.s used for correlation:     8   280
 NBasis=   280 NAE=    25 NBE=    25 NFC=     7 NFV=     0
 NROrb=    273 NOA=    18 NOB=    18 NVA=   255 NVB=   255

 **** Warning!!: The largest alpha MO coefficient is  0.14844258D+02

 Leave Link  801 at Sun Aug 29 12:36:39 2021, MaxMem=   536870912 cpu:         0.3
 (Enter /home/tmcstu/local/programs/gaussian09/g09/l906.exe)
 DoSCS=F DFT=T ScalE2(SS,OS)=  1.000000  1.000000
 FulOut=F Deriv=F AODrv=F NAtomX=    12
   MMem=         349  MDisk=          18 MDiskD=          18
  W3Min=     1468800 MinDsk=     2091010 NBas6D=         320
 NBas2D=       52053    NTT=       51360    LW2=     2000000
    MDV=   536378709 MDiskM=        8349 NBas2p=       50126
 Fully direct method using O(OVN) memory.
 IMap=   1   2   3   4   5   6   7   8   9  10  11  12  13  14  15  16  17  18
 JobTyp=1 Pass  1:  I=   1 to  18 NPSUse=  4 ParTrn=T ParDer=T DoDerP=F.
 Spin components of T(2) and E(2):
     alpha-alpha T2 =       0.1231011493D+00 E2=     -0.2292187494D+00
     alpha-beta  T2 =       0.6594252115D+00 E2=     -0.1278078696D+01
     beta-beta   T2 =       0.1231011493D+00 E2=     -0.2292187494D+00
 The integrals were generated   1 times.
 E2(B3LYP) =    -0.1736516195D+01 E(B3LYP) =    -0.32539668555520D+03
 Leave Link  906 at Sun Aug 29 12:37:12 2021, MaxMem=   536870912 cpu:       131.2
 (Enter /home/tmcstu/local/programs/gaussian09/g09/l608.exe)
 IExCor=  100 DFT=F Ex=HF Corr=None ExCW=0 ScaHFX=  1.000000
 ScaDFX=  1.000000  1.000000  1.000000  1.000000 ScalE2=  1.000000  1.000000
 IRadAn=      4 IRanWt=     -1 IRanGd=            0 ICorTp=0 IEmpDi=  4
 IExCor=  205 DFT=T Ex=S Corr=VWN ExCW=0 ScaHFX=  0.000000
 ScaDFX=  1.000000  1.000000  1.000000  1.000000 ScalE2=  1.000000  1.000000
 IRadAn=      4 IRanWt=     -1 IRanGd=            0 ICorTp=0 IEmpDi=  4
 IExCor=  402 DFT=T Ex=B Corr=LYP ExCW=0 ScaHFX=  0.000000
 ScaDFX=  1.000000  1.000000  1.000000  1.000000 ScalE2=  1.000000  1.000000
 IRadAn=      4 IRanWt=     -1 IRanGd=            0 ICorTp=0 IEmpDi=  4
 A total of   3 models will be applied.

 Results using SCF density:
 FoFJK:  IHMeth= 0 ICntrl=     500 DoSepK=F KAlg= 0 I1Cent=   0 FoldK=F
 IRaf=         0 NMat=   1 IRICut=       1 DoRegI=T DoRafI=F ISym2E= 0.
 FoFCou: FMM=F IPFlag=           0 FMFlag=           0 FMFlg1=           0
         NFxFlg=           0 DoJE=F BraDBF=F KetDBF=F FulRan=T
         wScrn=  0.000000 ICntrl=     500 IOpCl=  1 I1Cent=           0 NGrid=           0
         NMat0=    1 NMatS0=      1 NMatT0=    0 NMatD0=    1 NMtDS0=    0 NMtDT0=    0
 Symmetry not used in FoFCou.
 ET=  322.417332 EV=-1306.666698 EJ=  429.335293 EK=  -42.533835 ENuc=  275.818368

 A=0 I=   1 IExCor=  100 IRadAn=       4 ScaHFX=  1.000000
            ScaDFX=  1.000000  1.000000  1.000000  1.000000
 HFx=  0.000000  0.000000  1.000000  0.000000  0.000000
 DFx=  0.000000  0.000000  1.000000  0.000000  0.000000
 DFc=  0.000000  0.000000  1.000000  0.000000  0.000000
            ENTVJ= -279.095706 Ex=  -42.533835 Ec=    0.000000 ETotM2e= -708.4309990422  ETot= -321.6295412879

 A=0 I=   2 IExCor=  205 IRadAn=       4 ScaHFX=  0.000000
            ScaDFX=  1.000000  1.000000  1.000000  1.000000
 HFx=  0.000000  0.000000  1.000000  0.000000  0.000000
 DFx=  0.000000  0.000000  1.000000  0.000000  0.000000
 DFc=  0.000000  0.000000  1.000000  0.000000  0.000000
            ENTVJ= -279.095706 Ex=  -38.536022 Ec=   -4.255462 ETotM2e= -751.2224824758  ETot= -321.8871898082

 A=0 I=   3 IExCor=  402 IRadAn=       4 ScaHFX=  0.000000
            ScaDFX=  1.000000  1.000000  1.000000  1.000000
 HFx=  0.000000  0.000000  1.000000  0.000000  0.000000
 DFx=  0.000000  0.000000  1.000000  0.000000  0.000000
 DFc=  0.000000  0.000000  1.000000  0.000000  0.000000
            ENTVJ= -279.095706 Ex=  -42.744249 Ec=   -1.716564 ETotM2e= -752.8918125853  ETot= -323.5565199178
 Leave Link  608 at Sun Aug 29 12:37:18 2021, MaxMem=   536870912 cpu:        23.4
 (Enter /home/tmcstu/local/programs/gaussian09/g09/l9999.exe)

 This type of calculation cannot be archived.


 ALL MEN WHO EXPLORE
 DEPLORE
 THAT FRUSTRATING HURDLE
 THE GIRDLE.

         -- COLIN FLETCHER
 Job cpu time:       0 days  0 hours  6 minutes 37.7 seconds.
 File lengths (MBytes):  RWF=     44 Int=      0 D2E=      0 Chk=      6 Scr=      1
 Normal termination of Gaussian 09 at Sun Aug 29 12:37:18 2021.
