 Entering Gaussian System, Link 0=g09
 AtFile(1): pc-2.gbs
            -H     0
            S    4   1.00
                  0.754230D+02           0.240650D-02
                  0.113500D+02           0.184870D-01
                  0.259930D+01           0.897420D-01
                  0.735130D+00           0.281110D+00
            S    1   1.00
                  0.231670D+00           0.100000D+01
            S    1   1.00
                  0.741470D-01           0.100000D+01
            P    1   1.00
                  0.160000D+01           0.100000D+01
            P    1   1.00
                  0.450000D+00           0.100000D+01
            D    1   1.00
                  0.125000D+01           0.100000D+01
            ****
            -C     0
            S    7   1.00
                  0.785710D+04           0.568250D-03
                  0.117870D+04           0.439150D-02
                  0.268320D+03           0.225040D-01
                  0.759480D+02           0.866530D-01
                  0.245590D+02           0.244050D+00
                  0.862120D+01           0.441480D+00
                  0.312780D+01           0.353320D+00
            S    7   1.00
                  0.117870D+04          -0.594920D-06
                  0.268320D+03          -0.627480D-04
                  0.759480D+02          -0.757730D-03
                  0.245590D+02          -0.733080D-02
                  0.862120D+01          -0.389320D-01
                  0.312780D+01          -0.889080D-01
                  0.822020D+00           0.216890D+00
            S    1   1.00
                  0.330170D+00           0.100000D+01
            S    1   1.00
                  0.114630D+00           0.100000D+01
            P    4   1.00
                  0.337750D+02           0.602940D-02
                  0.767660D+01           0.432280D-01
                  0.223570D+01           0.163010D+00
                  0.764470D+00           0.365040D+00
            P    1   1.00
                  0.262320D+00           0.100000D+01
            P    1   1.00
                  0.846380D-01           0.100000D+01
            D    1   1.00
                  0.140000D+01           0.100000D+01
            D    1   1.00
                  0.450000D+00           0.100000D+01
            F    1   1.00
                  0.950000D+00           0.100000D+01
            ****
            -N     0
            S    7   1.00
                  0.111010D+05           0.545700D-03
                  0.166530D+04           0.421810D-02
                  0.379080D+03           0.216450D-01
                  0.107300D+03           0.837760D-01
                  0.347470D+02           0.238810D+00
                  0.122490D+02           0.439940D+00
                  0.447430D+01           0.363640D+00
            S    7   1.00
                  0.166530D+04          -0.150060D-05
                  0.379080D+03          -0.587530D-04
                  0.107300D+03          -0.774530D-03
                  0.347470D+02          -0.721610D-02
                  0.122490D+02          -0.393380D-01
                  0.447430D+01          -0.906110D-01
                  0.124040D+01           0.198820D+00
            S    1   1.00
                  0.487430D+00           0.100000D+01
            S    1   1.00
                  0.164840D+00           0.100000D+01
            P    4   1.00
                  0.479340D+02           0.617060D-02
                  0.109990D+02           0.442600D-01
                  0.324720D+01           0.168250D+00
                  0.111140D+01           0.368480D+00
            P    1   1.00
                  0.379880D+00           0.100000D+01
            P    1   1.00
                  0.120680D+00           0.100000D+01
            D    1   1.00
                  0.180000D+01           0.100000D+01
            D    1   1.00
                  0.550000D+00           0.100000D+01
            F    1   1.00
                  0.102000D+01           0.100000D+01
            ****
            -O     0
            S    7   1.00
                  0.147820D+05           0.535190D-03
                  0.221730D+04           0.413750D-02
                  0.504740D+03           0.212450D-01
                  0.142870D+03           0.824530D-01
                  0.463000D+02           0.236710D+00
                  0.163370D+02           0.440390D+00
                  0.598280D+01           0.364650D+00
            S    7   1.00
                  0.221730D+04          -0.192750D-05
                  0.504740D+03          -0.579640D-04
                  0.142870D+03          -0.794940D-03
                  0.463000D+02          -0.731250D-02
                  0.163370D+02          -0.405740D-01
                  0.598280D+01          -0.915940D-01
                  0.167180D+01           0.209400D+00
            S    1   1.00
                  0.646620D+00           0.100000D+01
            S    1   1.00
                  0.216690D+00           0.100000D+01
            P    4   1.00
                  0.604240D+02           0.689490D-02
                  0.139350D+02           0.490050D-01
                  0.415310D+01           0.182550D+00
                  0.141580D+01           0.376330D+00
            P    1   1.00
                  0.475490D+00           0.100000D+01
            P    1   1.00
                  0.145290D+00           0.100000D+01
            D    1   1.00
                  0.220000D+01           0.100000D+01
            D    1   1.00
                  0.650000D+00           0.100000D+01
            F    1   1.00
                  0.110000D+01           0.100000D+01
            ****
 Initial command:
 /public3/home/sc51754/softwares/g09e01/l1.exe "./Gau-42640.inp" -scrdir="./"
 Entering Link 1 = /public3/home/sc51754/softwares/g09e01/l1.exe PID=     42641.
  
 Copyright (c) 1988,1990,1992,1993,1995,1998,2003,2009,2015,
            Gaussian, Inc.  All Rights Reserved.
  
 This is part of the Gaussian(R) 09 program.  It is based on
 the Gaussian(R) 03 system (copyright 2003, Gaussian, Inc.),
 the Gaussian(R) 98 system (copyright 1998, Gaussian, Inc.),
 the Gaussian(R) 94 system (copyright 1995, Gaussian, Inc.),
 the Gaussian 92(TM) system (copyright 1992, Gaussian, Inc.),
 the Gaussian 90(TM) system (copyright 1990, Gaussian, Inc.),
 the Gaussian 88(TM) system (copyright 1988, Gaussian, Inc.),
 the Gaussian 86(TM) system (copyright 1986, Carnegie Mellon
 University), and the Gaussian 82(TM) system (copyright 1983,
 Carnegie Mellon University). Gaussian is a federally registered
 trademark of Gaussian, Inc.
  
 This software contains proprietary and confidential information,
 including trade secrets, belonging to Gaussian, Inc.
  
 This software is provided under written license and may be
 used, copied, transmitted, or stored only in accord with that
 written license.
  
 The following legend is applicable only to US Government
 contracts under FAR:
  
                    RESTRICTED RIGHTS LEGEND
  
 Use, reproduction and disclosure by the US Government is
 subject to restrictions as set forth in subparagraphs (a)
 and (c) of the Commercial Computer Software - Restricted
 Rights clause in FAR 52.227-19.
  
 Gaussian, Inc.
 340 Quinnipiac St., Bldg. 40, Wallingford CT 06492
  
  
 ---------------------------------------------------------------
 Warning -- This program may not be used in any manner that
 competes with the business of Gaussian, Inc. or will provide
 assistance to any competitor of Gaussian, Inc.  The licensee
 of this program is prohibited from giving any competitor of
 Gaussian, Inc. access to this program.  By using this program,
 the user acknowledges that Gaussian, Inc. is engaged in the
 business of creating and licensing software in the field of
 computational chemistry and represents and warrants to the
 licensee that it is not a competitor of Gaussian, Inc. and that
 it will not use this program in any manner prohibited above.
 ---------------------------------------------------------------
  

 Cite this work as:
 Gaussian 09, Revision E.01,
 M. J. Frisch, G. W. Trucks, H. B. Schlegel, G. E. Scuseria, 
 M. A. Robb, J. R. Cheeseman, G. Scalmani, V. Barone, B. Mennucci, 
 G. A. Petersson, H. Nakatsuji, M. Caricato, X. Li, H. P. Hratchian, 
 A. F. Izmaylov, J. Bloino, G. Zheng, J. L. Sonnenberg, M. Hada, 
 M. Ehara, K. Toyota, R. Fukuda, J. Hasegawa, M. Ishida, T. Nakajima, 
 Y. Honda, O. Kitao, H. Nakai, T. Vreven, J. A. Montgomery, Jr., 
 J. E. Peralta, F. Ogliaro, M. Bearpark, J. J. Heyd, E. Brothers, 
 K. N. Kudin, V. N. Staroverov, T. Keith, R. Kobayashi, J. Normand, 
 K. Raghavachari, A. Rendell, J. C. Burant, S. S. Iyengar, J. Tomasi, 
 M. Cossi, N. Rega, J. M. Millam, M. Klene, J. E. Knox, J. B. Cross, 
 V. Bakken, C. Adamo, J. Jaramillo, R. Gomperts, R. E. Stratmann, 
 O. Yazyev, A. J. Austin, R. Cammi, C. Pomelli, J. W. Ochterski, 
 R. L. Martin, K. Morokuma, V. G. Zakrzewski, G. A. Voth, 
 P. Salvador, J. J. Dannenberg, S. Dapprich, A. D. Daniels, 
 O. Farkas, J. B. Foresman, J. V. Ortiz, J. Cioslowski, 
 and D. J. Fox, Gaussian, Inc., Wallingford CT, 2013.
 
 ******************************************
 Gaussian 09:  EM64L-G09RevE.01 30-Nov-2015
                27-Aug-2021 
 ******************************************
 %nprocshared=64
 Will use up to   64 processors via shared memory.
 %mem=128GB
 %chk=HY_H2O_B3LYP_PC2_OPT_FREQ.chk
 ---------------------
 #p opt freq B3LYP/gen
 ---------------------
 1/14=-1,18=20,19=15,26=3,38=1/1,3;
 2/9=110,12=2,17=6,18=5,40=1/2;
 3/5=7,11=2,16=1,25=1,30=1,71=1,74=-5/1,2,3;
 4//1;
 5/5=2,38=5/2;
 6/7=2,8=2,9=2,10=2,28=1/1;
 7//1,2,3,16;
 1/14=-1,18=20,19=15,26=3/3(2);
 2/9=110/2;
 99//99;
 2/9=110/2;
 3/5=7,6=1,11=2,16=1,25=1,30=1,71=1,74=-5,82=7/1,2,3;
 4/5=5,16=3,69=1/1;
 5/5=2,38=5/2;
 7//1,2,3,16;
 1/14=-1,18=20,19=15,26=3/3(-5);
 2/9=110/2;
 6/7=2,8=2,9=2,10=2,19=2,28=1/1;
 99/9=1/99;
 Leave Link    1 at Fri Aug 27 00:31:08 2021, MaxMem= 17179869184 cpu:       317.9
 (Enter /public3/home/sc51754/softwares/g09e01/l101.exe)
 -------------------------
 HY_H2O_B3LYP_PC2_OPT_FREQ
 -------------------------
 Symbolic Z-matrix:
 Charge =  0 Multiplicity = 1
 O                     1.216     1.44855  -0.00262 
 N                     0.30594  -0.66619  -0.00547 
 C                     0.13701   0.65516  -0.00009 
 C                    -1.12976   1.25518   0.00826 
 C                    -0.78318  -1.4465   -0.00563 
 C                    -2.23812   0.43549   0.00911 
 C                    -2.07199  -0.951     0.00173 
 H                     2.03022   0.90023  -0.0153 
 H                    -1.20631   2.3321    0.01208 
 H                    -0.59906  -2.51382  -0.01294 
 H                    -3.22982   0.86768   0.01456 
 H                    -2.91795  -1.62195   0.00074 
 O                     3.09571  -0.58722  -0.08503 
 H                     3.59397  -0.87925   0.68253 
 H                     2.20982  -1.00228  -0.02248 
 
 Add virtual bond connecting atoms O13        and H8         Dist= 3.46D+00.
 Add virtual bond connecting atoms H15        and N2         Dist= 3.65D+00.
 Add virtual bond connecting atoms H15        and H8         Dist= 3.61D+00.
 Add atom     13 valence  3 ND=      2 dihedral       8     13     14     15
 NAtoms=     15 NQM=       15 NQMF=       0 NMMI=      0 NMMIF=      0
                NMic=       0 NMicF=      0.
                    Isotopes and Nuclear Properties:
 (Nuclear quadrupole moments (NQMom) in fm**2, nuclear magnetic moments (NMagM)
  in nuclear magnetons)

  Atom         1           2           3           4           5           6           7           8           9          10
 IAtWgt=          16          14          12          12          12          12          12           1           1           1
 AtmWgt=  15.9949146  14.0030740  12.0000000  12.0000000  12.0000000  12.0000000  12.0000000   1.0078250   1.0078250   1.0078250
 NucSpn=           0           2           0           0           0           0           0           1           1           1
 AtZEff=   0.0000000   0.0000000   0.0000000   0.0000000   0.0000000   0.0000000   0.0000000   0.0000000   0.0000000   0.0000000
 NQMom=    0.0000000   2.0440000   0.0000000   0.0000000   0.0000000   0.0000000   0.0000000   0.0000000   0.0000000   0.0000000
 NMagM=    0.0000000   0.4037610   0.0000000   0.0000000   0.0000000   0.0000000   0.0000000   2.7928460   2.7928460   2.7928460
 AtZNuc=   8.0000000   7.0000000   6.0000000   6.0000000   6.0000000   6.0000000   6.0000000   1.0000000   1.0000000   1.0000000

  Atom        11          12          13          14          15
 IAtWgt=           1           1          16           1           1
 AtmWgt=   1.0078250   1.0078250  15.9949146   1.0078250   1.0078250
 NucSpn=           1           1           0           1           1
 AtZEff=   0.0000000   0.0000000   0.0000000   0.0000000   0.0000000
 NQMom=    0.0000000   0.0000000   0.0000000   0.0000000   0.0000000
 NMagM=    2.7928460   2.7928460   0.0000000   2.7928460   2.7928460
 AtZNuc=   1.0000000   1.0000000   8.0000000   1.0000000   1.0000000
 Leave Link  101 at Fri Aug 27 00:31:08 2021, MaxMem= 17179869184 cpu:         6.4
 (Enter /public3/home/sc51754/softwares/g09e01/l103.exe)

 GradGradGradGradGradGradGradGradGradGradGradGradGradGradGradGradGradGrad
 Berny optimization.
 Initialization pass.
                           ----------------------------
                           !    Initial Parameters    !
                           ! (Angstroms and Degrees)  !
 --------------------------                            --------------------------
 ! Name  Definition              Value          Derivative Info.                !
 --------------------------------------------------------------------------------
 ! R1    R(1,3)                  1.3393         estimate D2E/DX2                !
 ! R2    R(1,8)                  0.9817         estimate D2E/DX2                !
 ! R3    R(2,3)                  1.3321         estimate D2E/DX2                !
 ! R4    R(2,5)                  1.3398         estimate D2E/DX2                !
 ! R5    R(2,15)                 1.9334         estimate D2E/DX2                !
 ! R6    R(3,4)                  1.4017         estimate D2E/DX2                !
 ! R7    R(4,6)                  1.3785         estimate D2E/DX2                !
 ! R8    R(4,9)                  1.0796         estimate D2E/DX2                !
 ! R9    R(5,7)                  1.3808         estimate D2E/DX2                !
 ! R10   R(5,10)                 1.0831         estimate D2E/DX2                !
 ! R11   R(6,7)                  1.3964         estimate D2E/DX2                !
 ! R12   R(6,11)                 1.0818         estimate D2E/DX2                !
 ! R13   R(7,12)                 1.0797         estimate D2E/DX2                !
 ! R14   R(8,13)                 1.831          estimate D2E/DX2                !
 ! R15   R(8,15)                 1.911          estimate D2E/DX2                !
 ! R16   R(13,14)                0.9606         estimate D2E/DX2                !
 ! R17   R(13,15)                0.9803         estimate D2E/DX2                !
 ! A1    A(3,1,8)              109.7141         estimate D2E/DX2                !
 ! A2    A(3,2,5)              118.3342         estimate D2E/DX2                !
 ! A3    A(3,2,15)             107.2978         estimate D2E/DX2                !
 ! A4    A(5,2,15)             134.3668         estimate D2E/DX2                !
 ! A5    A(1,3,2)              119.0414         estimate D2E/DX2                !
 ! A6    A(1,3,4)              118.3271         estimate D2E/DX2                !
 ! A7    A(2,3,4)              122.6315         estimate D2E/DX2                !
 ! A8    A(3,4,6)              118.1694         estimate D2E/DX2                !
 ! A9    A(3,4,9)              119.4119         estimate D2E/DX2                !
 ! A10   A(6,4,9)              122.4186         estimate D2E/DX2                !
 ! A11   A(2,5,7)              123.3496         estimate D2E/DX2                !
 ! A12   A(2,5,10)             115.832          estimate D2E/DX2                !
 ! A13   A(7,5,10)             120.8184         estimate D2E/DX2                !
 ! A14   A(4,6,7)              119.6513         estimate D2E/DX2                !
 ! A15   A(4,6,11)             119.9667         estimate D2E/DX2                !
 ! A16   A(7,6,11)             120.382          estimate D2E/DX2                !
 ! A17   A(5,7,6)              117.8639         estimate D2E/DX2                !
 ! A18   A(5,7,12)             120.5506         estimate D2E/DX2                !
 ! A19   A(6,7,12)             121.5855         estimate D2E/DX2                !
 ! A20   A(1,8,13)             159.5294         estimate D2E/DX2                !
 ! A21   A(1,8,15)             129.3503         estimate D2E/DX2                !
 ! A22   A(8,13,14)            121.2243         estimate D2E/DX2                !
 ! A23   A(14,13,15)           106.8012         estimate D2E/DX2                !
 ! A24   A(2,15,8)              74.5948         estimate D2E/DX2                !
 ! A25   A(2,15,13)            144.7717         estimate D2E/DX2                !
 ! D1    D(8,1,3,2)              0.4232         estimate D2E/DX2                !
 ! D2    D(8,1,3,4)           -179.5823         estimate D2E/DX2                !
 ! D3    D(3,1,8,13)             4.1107         estimate D2E/DX2                !
 ! D4    D(3,1,8,15)            -0.4785         estimate D2E/DX2                !
 ! D5    D(5,2,3,1)           -179.8646         estimate D2E/DX2                !
 ! D6    D(5,2,3,4)              0.1411         estimate D2E/DX2                !
 ! D7    D(15,2,3,1)            -0.2046         estimate D2E/DX2                !
 ! D8    D(15,2,3,4)           179.8011         estimate D2E/DX2                !
 ! D9    D(3,2,5,7)             -0.1121         estimate D2E/DX2                !
 ! D10   D(3,2,5,10)           179.8324         estimate D2E/DX2                !
 ! D11   D(15,2,5,7)          -179.6581         estimate D2E/DX2                !
 ! D12   D(15,2,5,10)            0.2865         estimate D2E/DX2                !
 ! D13   D(3,2,15,8)            -0.0003         estimate D2E/DX2                !
 ! D14   D(3,2,15,13)           -5.7168         estimate D2E/DX2                !
 ! D15   D(5,2,15,8)           179.5811         estimate D2E/DX2                !
 ! D16   D(5,2,15,13)          173.8646         estimate D2E/DX2                !
 ! D17   D(1,3,4,6)            179.9187         estimate D2E/DX2                !
 ! D18   D(1,3,4,9)              0.0211         estimate D2E/DX2                !
 ! D19   D(2,3,4,6)             -0.0869         estimate D2E/DX2                !
 ! D20   D(2,3,4,9)           -179.9845         estimate D2E/DX2                !
 ! D21   D(3,4,6,7)             -0.0001         estimate D2E/DX2                !
 ! D22   D(3,4,6,11)          -179.9445         estimate D2E/DX2                !
 ! D23   D(9,4,6,7)            179.8942         estimate D2E/DX2                !
 ! D24   D(9,4,6,11)            -0.0502         estimate D2E/DX2                !
 ! D25   D(2,5,7,6)              0.0291         estimate D2E/DX2                !
 ! D26   D(2,5,7,12)           179.968          estimate D2E/DX2                !
 ! D27   D(10,5,7,6)          -179.9128         estimate D2E/DX2                !
 ! D28   D(10,5,7,12)            0.0261         estimate D2E/DX2                !
 ! D29   D(4,6,7,5)              0.0272         estimate D2E/DX2                !
 ! D30   D(4,6,7,12)          -179.911          estimate D2E/DX2                !
 ! D31   D(11,6,7,5)           179.9714         estimate D2E/DX2                !
 ! D32   D(11,6,7,12)            0.0332         estimate D2E/DX2                !
 ! D33   D(1,8,13,14)         -110.3582         estimate D2E/DX2                !
 ! D34   D(1,8,15,2)             0.3164         estimate D2E/DX2                !
 ! D35   D(8,13,14,15)          87.5843         estimate D2E/DX2                !
 ! D36   D(14,13,15,2)         125.4771         estimate D2E/DX2                !
 --------------------------------------------------------------------------------
 Trust Radius=3.00D-01 FncErr=1.00D-07 GrdErr=1.00D-06
 Number of steps in this run=     88 maximum allowed number of steps=    100.
 GradGradGradGradGradGradGradGradGradGradGradGradGradGradGradGradGradGrad

 Leave Link  103 at Fri Aug 27 00:31:08 2021, MaxMem= 17179869184 cpu:         0.1
 (Enter /public3/home/sc51754/softwares/g09e01/l202.exe)
                          Input orientation:                          
 ---------------------------------------------------------------------
 Center     Atomic      Atomic             Coordinates (Angstroms)
 Number     Number       Type             X           Y           Z
 ---------------------------------------------------------------------
      1          8           0        1.216003    1.448553   -0.002617
      2          7           0        0.305942   -0.666194   -0.005465
      3          6           0        0.137014    0.655155   -0.000094
      4          6           0       -1.129757    1.255183    0.008257
      5          6           0       -0.783175   -1.446498   -0.005634
      6          6           0       -2.238124    0.435485    0.009108
      7          6           0       -2.071986   -0.950998    0.001732
      8          1           0        2.030216    0.900227   -0.015295
      9          1           0       -1.206308    2.332099    0.012077
     10          1           0       -0.599059   -2.513820   -0.012944
     11          1           0       -3.229823    0.867678    0.014558
     12          1           0       -2.917952   -1.621952    0.000735
     13          8           0        3.095711   -0.587217   -0.085025
     14          1           0        3.593966   -0.879251    0.682533
     15          1           0        2.209819   -1.002278   -0.022484
 ---------------------------------------------------------------------
                    Distance matrix (angstroms):
                    1          2          3          4          5
     1  O    0.000000
     2  N    2.302254   0.000000
     3  C    1.339292   1.332114   0.000000
     4  C    2.353742   2.398564   1.401718   0.000000
     5  C    3.518244   1.339795   2.294281   2.723856   0.000000
     6  C    3.599644   2.772396   2.385292   1.378544   2.378856
     7  C    4.070471   2.394934   2.731192   2.398973   1.380800
     8  H    0.981715   2.329569   1.909059   3.179934   3.663657
     9  H    2.578461   3.358120   2.148675   1.079640   3.802256
    10  H    4.358320   2.057378   3.253363   3.806241   1.083111
    11  H    4.483646   3.854192   3.373570   2.135527   3.367774
    12  H    5.149524   3.362589   3.810254   3.387566   2.141984
    13  O    2.772085   2.792020   3.210076   4.610609   3.973717
    14  H    3.397471   3.365982   3.843293   5.227238   4.467069
    15  H    2.644738   1.933388   2.654073   4.031109   3.025827
                    6          7          8          9         10
     6  C    0.000000
     7  C    1.396421   0.000000
     8  H    4.293636   4.500598   0.000000
     9  H    2.159120   3.395325   3.539222   0.000000
    10  H    3.374229   2.147590   4.309154   4.883883   0.000000
    11  H    1.081798   2.155999   5.260224   2.497829   4.284414
    12  H    2.166860   1.079740   5.553918   4.308639   2.484528
    13  O    5.431812   5.181212   1.831019   5.199923   4.167532
    14  H    6.016253   5.707158   2.469579   5.814199   4.553786
    15  H    4.674651   4.282181   1.910977   4.773802   3.189772
                   11         12         13         14         15
    11  H    0.000000
    12  H    2.509126   0.000000
    13  O    6.491457   6.102637   0.000000
    14  H    7.075454   6.589501   0.960566   0.000000
    15  H    5.752201   5.165130   0.980302   1.558219   0.000000
 Stoichiometry    C5H7NO2
 Framework group  C1[X(C5H7NO2)]
 Deg. of freedom    39
 Full point group                 C1      NOp   1
 Largest Abelian subgroup         C1      NOp   1
 Largest concise Abelian subgroup C1      NOp   1
                         Standard orientation:                         
 ---------------------------------------------------------------------
 Center     Atomic      Atomic             Coordinates (Angstroms)
 Number     Number       Type             X           Y           Z
 ---------------------------------------------------------------------
      1          8           0        1.216003    1.448553   -0.002617
      2          7           0        0.305942   -0.666194   -0.005465
      3          6           0        0.137014    0.655155   -0.000094
      4          6           0       -1.129757    1.255183    0.008257
      5          6           0       -0.783175   -1.446498   -0.005634
      6          6           0       -2.238124    0.435485    0.009108
      7          6           0       -2.071986   -0.950998    0.001732
      8          1           0        2.030216    0.900227   -0.015295
      9          1           0       -1.206308    2.332099    0.012077
     10          1           0       -0.599059   -2.513820   -0.012944
     11          1           0       -3.229823    0.867678    0.014558
     12          1           0       -2.917952   -1.621952    0.000735
     13          8           0        3.095711   -0.587217   -0.085025
     14          1           0        3.593966   -0.879251    0.682533
     15          1           0        2.209819   -1.002278   -0.022484
 ---------------------------------------------------------------------
 Rotational constants (GHZ):      4.0123302      1.4179596      1.0501753
 Leave Link  202 at Fri Aug 27 00:31:09 2021, MaxMem= 17179869184 cpu:         4.7
 (Enter /public3/home/sc51754/softwares/g09e01/l301.exe)
 General basis read from cards:  (5D, 7F)
 Centers:       8      9     10     11     12     14     15
 S 4 1.00
     Exponent=  7.5423000000D+01 Coefficients=  2.4065000000D-03
     Exponent=  1.1350000000D+01 Coefficients=  1.8487000000D-02
     Exponent=  2.5993000000D+00 Coefficients=  8.9742000000D-02
     Exponent=  7.3513000000D-01 Coefficients=  2.8111000000D-01
 S 1 1.00
     Exponent=  2.3167000000D-01 Coefficients=  1.0000000000D+00
 S 1 1.00
     Exponent=  7.4147000000D-02 Coefficients=  1.0000000000D+00
 P 1 1.00
     Exponent=  1.6000000000D+00 Coefficients=  1.0000000000D+00
 P 1 1.00
     Exponent=  4.5000000000D-01 Coefficients=  1.0000000000D+00
 D 1 1.00
     Exponent=  1.2500000000D+00 Coefficients=  1.0000000000D+00
 ****
 Centers:       3      4      5      6      7
 S 7 1.00
     Exponent=  7.8571000000D+03 Coefficients=  5.6825000000D-04
     Exponent=  1.1787000000D+03 Coefficients=  4.3915000000D-03
     Exponent=  2.6832000000D+02 Coefficients=  2.2504000000D-02
     Exponent=  7.5948000000D+01 Coefficients=  8.6653000000D-02
     Exponent=  2.4559000000D+01 Coefficients=  2.4405000000D-01
     Exponent=  8.6212000000D+00 Coefficients=  4.4148000000D-01
     Exponent=  3.1278000000D+00 Coefficients=  3.5332000000D-01
 S 7 1.00
     Exponent=  1.1787000000D+03 Coefficients= -5.9492000000D-07
     Exponent=  2.6832000000D+02 Coefficients= -6.2748000000D-05
     Exponent=  7.5948000000D+01 Coefficients= -7.5773000000D-04
     Exponent=  2.4559000000D+01 Coefficients= -7.3308000000D-03
     Exponent=  8.6212000000D+00 Coefficients= -3.8932000000D-02
     Exponent=  3.1278000000D+00 Coefficients= -8.8908000000D-02
     Exponent=  8.2202000000D-01 Coefficients=  2.1689000000D-01
 S 1 1.00
     Exponent=  3.3017000000D-01 Coefficients=  1.0000000000D+00
 S 1 1.00
     Exponent=  1.1463000000D-01 Coefficients=  1.0000000000D+00
 P 4 1.00
     Exponent=  3.3775000000D+01 Coefficients=  6.0294000000D-03
     Exponent=  7.6766000000D+00 Coefficients=  4.3228000000D-02
     Exponent=  2.2357000000D+00 Coefficients=  1.6301000000D-01
     Exponent=  7.6447000000D-01 Coefficients=  3.6504000000D-01
 P 1 1.00
     Exponent=  2.6232000000D-01 Coefficients=  1.0000000000D+00
 P 1 1.00
     Exponent=  8.4638000000D-02 Coefficients=  1.0000000000D+00
 D 1 1.00
     Exponent=  1.4000000000D+00 Coefficients=  1.0000000000D+00
 D 1 1.00
     Exponent=  4.5000000000D-01 Coefficients=  1.0000000000D+00
 F 1 1.00
     Exponent=  9.5000000000D-01 Coefficients=  1.0000000000D+00
 ****
 Centers:       2
 S 7 1.00
     Exponent=  1.1101000000D+04 Coefficients=  5.4570000000D-04
     Exponent=  1.6653000000D+03 Coefficients=  4.2181000000D-03
     Exponent=  3.7908000000D+02 Coefficients=  2.1645000000D-02
     Exponent=  1.0730000000D+02 Coefficients=  8.3776000000D-02
     Exponent=  3.4747000000D+01 Coefficients=  2.3881000000D-01
     Exponent=  1.2249000000D+01 Coefficients=  4.3994000000D-01
     Exponent=  4.4743000000D+00 Coefficients=  3.6364000000D-01
 S 7 1.00
     Exponent=  1.6653000000D+03 Coefficients= -1.5006000000D-06
     Exponent=  3.7908000000D+02 Coefficients= -5.8753000000D-05
     Exponent=  1.0730000000D+02 Coefficients= -7.7453000000D-04
     Exponent=  3.4747000000D+01 Coefficients= -7.2161000000D-03
     Exponent=  1.2249000000D+01 Coefficients= -3.9338000000D-02
     Exponent=  4.4743000000D+00 Coefficients= -9.0611000000D-02
     Exponent=  1.2404000000D+00 Coefficients=  1.9882000000D-01
 S 1 1.00
     Exponent=  4.8743000000D-01 Coefficients=  1.0000000000D+00
 S 1 1.00
     Exponent=  1.6484000000D-01 Coefficients=  1.0000000000D+00
 P 4 1.00
     Exponent=  4.7934000000D+01 Coefficients=  6.1706000000D-03
     Exponent=  1.0999000000D+01 Coefficients=  4.4260000000D-02
     Exponent=  3.2472000000D+00 Coefficients=  1.6825000000D-01
     Exponent=  1.1114000000D+00 Coefficients=  3.6848000000D-01
 P 1 1.00
     Exponent=  3.7988000000D-01 Coefficients=  1.0000000000D+00
 P 1 1.00
     Exponent=  1.2068000000D-01 Coefficients=  1.0000000000D+00
 D 1 1.00
     Exponent=  1.8000000000D+00 Coefficients=  1.0000000000D+00
 D 1 1.00
     Exponent=  5.5000000000D-01 Coefficients=  1.0000000000D+00
 F 1 1.00
     Exponent=  1.0200000000D+00 Coefficients=  1.0000000000D+00
 ****
 Centers:       1     13
 S 7 1.00
     Exponent=  1.4782000000D+04 Coefficients=  5.3519000000D-04
     Exponent=  2.2173000000D+03 Coefficients=  4.1375000000D-03
     Exponent=  5.0474000000D+02 Coefficients=  2.1245000000D-02
     Exponent=  1.4287000000D+02 Coefficients=  8.2453000000D-02
     Exponent=  4.6300000000D+01 Coefficients=  2.3671000000D-01
     Exponent=  1.6337000000D+01 Coefficients=  4.4039000000D-01
     Exponent=  5.9828000000D+00 Coefficients=  3.6465000000D-01
 S 7 1.00
     Exponent=  2.2173000000D+03 Coefficients= -1.9275000000D-06
     Exponent=  5.0474000000D+02 Coefficients= -5.7964000000D-05
     Exponent=  1.4287000000D+02 Coefficients= -7.9494000000D-04
     Exponent=  4.6300000000D+01 Coefficients= -7.3125000000D-03
     Exponent=  1.6337000000D+01 Coefficients= -4.0574000000D-02
     Exponent=  5.9828000000D+00 Coefficients= -9.1594000000D-02
     Exponent=  1.6718000000D+00 Coefficients=  2.0940000000D-01
 S 1 1.00
     Exponent=  6.4662000000D-01 Coefficients=  1.0000000000D+00
 S 1 1.00
     Exponent=  2.1669000000D-01 Coefficients=  1.0000000000D+00
 P 4 1.00
     Exponent=  6.0424000000D+01 Coefficients=  6.8949000000D-03
     Exponent=  1.3935000000D+01 Coefficients=  4.9005000000D-02
     Exponent=  4.1531000000D+00 Coefficients=  1.8255000000D-01
     Exponent=  1.4158000000D+00 Coefficients=  3.7633000000D-01
 P 1 1.00
     Exponent=  4.7549000000D-01 Coefficients=  1.0000000000D+00
 P 1 1.00
     Exponent=  1.4529000000D-01 Coefficients=  1.0000000000D+00
 D 1 1.00
     Exponent=  2.2000000000D+00 Coefficients=  1.0000000000D+00
 D 1 1.00
     Exponent=  6.5000000000D-01 Coefficients=  1.0000000000D+00
 F 1 1.00
     Exponent=  1.1000000000D+00 Coefficients=  1.0000000000D+00
 ****
 Ernie: Thresh=  0.10000D-02 Tol=  0.10000D-05 Strict=F.
 Ernie:  8 primitive shells out of 263 were deleted.
 There are   385 symmetry adapted cartesian basis functions of A   symmetry.
 There are   338 symmetry adapted basis functions of A   symmetry.
   338 basis functions,   566 primitive gaussians,   385 cartesian basis functions
    30 alpha electrons       30 beta electrons
       nuclear repulsion energy       357.6226221683 Hartrees.
 IExCor=  402 DFT=T Ex+Corr=B3LYP ExCW=0 ScaHFX=  0.200000
 ScaDFX=  0.800000  0.720000  1.000000  0.810000 ScalE2=  1.000000  1.000000
 IRadAn=      0 IRanWt=     -1 IRanGd=            0 ICorTp=0 IEmpDi=  4
 NAtoms=   15 NActive=   15 NUniq=   15 SFac= 1.00D+00 NAtFMM=   60 NAOKFM=F Big=F
 Integral buffers will be    131072 words long.
 Raffenetti 2 integral format.
 Two-electron integral symmetry is turned on.
 Leave Link  301 at Fri Aug 27 00:31:09 2021, MaxMem= 17179869184 cpu:         2.5
 (Enter /public3/home/sc51754/softwares/g09e01/l302.exe)
 NPDir=0 NMtPBC=     1 NCelOv=     1 NCel=       1 NClECP=     1 NCelD=      1
         NCelK=      1 NCelE2=     1 NClLst=     1 CellRange=     0.0.
 One-electron integrals computed using PRISM.
 NBasis=   338 RedAO= T EigKep=  1.46D-04  NBF=   338
 NBsUse=   338 1.00D-06 EigRej= -1.00D+00 NBFU=   338
 Precomputing XC quadrature grid using
 IXCGrd= 4 IRadAn=           0 IRanWt=          -1 IRanGd=           0 AccXCQ= 0.00D+00.
 Generated NRdTot=       0 NPtTot=           0 NUsed=           0 NTot=          32
 NSgBfM=   384   384   384   384   385 MxSgAt=    15 MxSgA2=    15.
 Leave Link  302 at Fri Aug 27 00:31:09 2021, MaxMem= 17179869184 cpu:        41.1
 (Enter /public3/home/sc51754/softwares/g09e01/l303.exe)
 DipDrv:  MaxL=1.
 Leave Link  303 at Fri Aug 27 00:31:10 2021, MaxMem= 17179869184 cpu:        10.6
 (Enter /public3/home/sc51754/softwares/g09e01/l401.exe)
 ExpMin= 7.41D-02 ExpMax= 1.48D+04 ExpMxC= 5.05D+02 IAcc=2 IRadAn=         4 AccDes= 0.00D+00
 Harris functional with IExCor=  402 and IRadAn=       4 diagonalized for initial guess.
 HarFok:  IExCor=  402 AccDes= 0.00D+00 IRadAn=         4 IDoV= 1 UseB2=F ITyADJ=14
 ICtDFT=  3500011 ScaDFX=  1.000000  1.000000  1.000000  1.000000
 FoFCou: FMM=F IPFlag=           0 FMFlag=      100000 FMFlg1=           0
         NFxFlg=           0 DoJE=T BraDBF=F KetDBF=T FulRan=T
         wScrn=  0.000000 ICntrl=     500 IOpCl=  0 I1Cent=   200000004 NGrid=           0
         NMat0=    1 NMatS0=      1 NMatT0=    0 NMatD0=    1 NMtDS0=    0 NMtDT0=    0
 Petite list used in FoFCou.
 Harris En= -400.184772173998    
 JPrj=0 DoOrth=F DoCkMO=F.
 Leave Link  401 at Fri Aug 27 00:31:11 2021, MaxMem= 17179869184 cpu:        51.2
 (Enter /public3/home/sc51754/softwares/g09e01/l502.exe)
 Closed shell SCF:
 Using DIIS extrapolation, IDIIS=  1040.
 Integral symmetry usage will be decided dynamically.
 Keep R1 ints in memory in canonical form, NReq=1670404686.
 IVT=      490665 IEndB=      490665 NGot= 17179869184 MDV= 15538220534
 LenX= 15538220534 LenY= 15538071868
 Requested convergence on RMS density matrix=1.00D-08 within 128 cycles.
 Requested convergence on MAX density matrix=1.00D-06.
 Requested convergence on             energy=1.00D-06.
 No special actions if energy rises.
 FoFCou: FMM=F IPFlag=           0 FMFlag=           0 FMFlg1=           0
         NFxFlg=           0 DoJE=F BraDBF=F KetDBF=F FulRan=T
         wScrn=  0.000000 ICntrl=     600 IOpCl=  0 I1Cent=           0 NGrid=           0
         NMat0=    1 NMatS0=  57291 NMatT0=    0 NMatD0=    1 NMtDS0=    0 NMtDT0=    0
 Symmetry not used in FoFCou.
 Integral accuracy reduced to 1.0D-05 until final iterations.

 Cycle   1  Pass 0  IDiag  1:
 E= -399.901371786518    
 DIIS: error= 2.71D-02 at cycle   1 NSaved=   1.
 NSaved= 1 IEnMin= 1 EnMin= -399.901371786518     IErMin= 1 ErrMin= 2.71D-02
 ErrMax= 2.71D-02  0.00D+00 EMaxC= 1.00D-01 BMatC= 3.02D-01 BMatP= 3.02D-01
 IDIUse=3 WtCom= 7.29D-01 WtEn= 2.71D-01
 Coeff-Com:  0.100D+01
 Coeff-En:   0.100D+01
 Coeff:      0.100D+01
 Gap=     0.203 Goal=   None    Shift=    0.000
 GapD=    0.203 DampG=1.000 DampE=0.500 DampFc=0.5000 IDamp=-1.
 Damping current iteration by 5.00D-01
 RMSDP=2.58D-03 MaxDP=1.28D-01              OVMax= 2.01D-01

 Cycle   2  Pass 0  IDiag  1:
 E= -399.990052630761     Delta-E=       -0.088680844243 Rises=F Damp=T
 DIIS: error= 5.13D-03 at cycle   2 NSaved=   2.
 NSaved= 2 IEnMin= 2 EnMin= -399.990052630761     IErMin= 2 ErrMin= 5.13D-03
 ErrMax= 5.13D-03  0.00D+00 EMaxC= 1.00D-01 BMatC= 2.23D-02 BMatP= 3.02D-01
 IDIUse=3 WtCom= 9.49D-01 WtEn= 5.13D-02
 Coeff-Com:  0.144D+00 0.856D+00
 Coeff-En:   0.252D+00 0.748D+00
 Coeff:      0.150D+00 0.850D+00
 Gap=     0.246 Goal=   None    Shift=    0.000
 RMSDP=6.16D-04 MaxDP=3.45D-02 DE=-8.87D-02 OVMax= 1.35D-01

 Cycle   3  Pass 0  IDiag  1:
 E= -400.134407015113     Delta-E=       -0.144354384353 Rises=F Damp=F
 DIIS: error= 5.14D-03 at cycle   3 NSaved=   3.
 NSaved= 3 IEnMin= 3 EnMin= -400.134407015113     IErMin= 2 ErrMin= 5.13D-03
 ErrMax= 5.14D-03  0.00D+00 EMaxC= 1.00D-01 BMatC= 1.09D-02 BMatP= 2.23D-02
 IDIUse=3 WtCom= 9.49D-01 WtEn= 5.14D-02
 Coeff-Com:  0.235D-01 0.409D+00 0.567D+00
 Coeff-En:   0.000D+00 0.000D+00 0.100D+01
 Coeff:      0.223D-01 0.388D+00 0.590D+00
 Gap=     0.206 Goal=   None    Shift=    0.000
 RMSDP=3.08D-04 MaxDP=1.62D-02 DE=-1.44D-01 OVMax= 4.18D-02

 Cycle   4  Pass 0  IDiag  1:
 E= -400.141066576626     Delta-E=       -0.006659561512 Rises=F Damp=F
 DIIS: error= 3.58D-03 at cycle   4 NSaved=   4.
 NSaved= 4 IEnMin= 4 EnMin= -400.141066576626     IErMin= 4 ErrMin= 3.58D-03
 ErrMax= 3.58D-03  0.00D+00 EMaxC= 1.00D-01 BMatC= 2.76D-03 BMatP= 1.09D-02
 IDIUse=3 WtCom= 9.64D-01 WtEn= 3.58D-02
 Coeff-Com: -0.774D-02 0.119D+00 0.360D+00 0.528D+00
 Coeff-En:   0.000D+00 0.000D+00 0.231D+00 0.769D+00
 Coeff:     -0.747D-02 0.115D+00 0.356D+00 0.537D+00
 Gap=     0.205 Goal=   None    Shift=    0.000
 RMSDP=1.29D-04 MaxDP=8.30D-03 DE=-6.66D-03 OVMax= 2.51D-02

 Cycle   5  Pass 0  IDiag  1:
 E= -400.143363034230     Delta-E=       -0.002296457604 Rises=F Damp=F
 DIIS: error= 1.01D-03 at cycle   5 NSaved=   5.
 NSaved= 5 IEnMin= 5 EnMin= -400.143363034230     IErMin= 5 ErrMin= 1.01D-03
 ErrMax= 1.01D-03  0.00D+00 EMaxC= 1.00D-01 BMatC= 2.71D-04 BMatP= 2.76D-03
 IDIUse=3 WtCom= 9.90D-01 WtEn= 1.01D-02
 Coeff-Com: -0.646D-02 0.326D-01 0.157D+00 0.317D+00 0.500D+00
 Coeff-En:   0.000D+00 0.000D+00 0.000D+00 0.396D-01 0.960D+00
 Coeff:     -0.639D-02 0.323D-01 0.155D+00 0.314D+00 0.505D+00
 Gap=     0.205 Goal=   None    Shift=    0.000
 RMSDP=4.15D-05 MaxDP=2.27D-03 DE=-2.30D-03 OVMax= 7.54D-03

 Cycle   6  Pass 0  IDiag  1:
 E= -400.143597939177     Delta-E=       -0.000234904948 Rises=F Damp=F
 DIIS: error= 2.48D-04 at cycle   6 NSaved=   6.
 NSaved= 6 IEnMin= 6 EnMin= -400.143597939177     IErMin= 6 ErrMin= 2.48D-04
 ErrMax= 2.48D-04  0.00D+00 EMaxC= 1.00D-01 BMatC= 2.67D-05 BMatP= 2.71D-04
 IDIUse=3 WtCom= 9.98D-01 WtEn= 2.48D-03
 Coeff-Com: -0.261D-02 0.248D-02 0.407D-01 0.107D+00 0.290D+00 0.562D+00
 Coeff-En:   0.000D+00 0.000D+00 0.000D+00 0.000D+00 0.575D-01 0.943D+00
 Coeff:     -0.260D-02 0.247D-02 0.406D-01 0.107D+00 0.290D+00 0.563D+00
 Gap=     0.205 Goal=   None    Shift=    0.000
 RMSDP=1.07D-05 MaxDP=4.68D-04 DE=-2.35D-04 OVMax= 1.62D-03

 Cycle   7  Pass 0  IDiag  1:
 E= -400.143620703745     Delta-E=       -0.000022764568 Rises=F Damp=F
 DIIS: error= 5.21D-05 at cycle   7 NSaved=   7.
 NSaved= 7 IEnMin= 7 EnMin= -400.143620703745     IErMin= 7 ErrMin= 5.21D-05
 ErrMax= 5.21D-05  0.00D+00 EMaxC= 1.00D-01 BMatC= 8.39D-07 BMatP= 2.67D-05
 IDIUse=1 WtCom= 1.00D+00 WtEn= 0.00D+00
 Coeff-Com: -0.103D-02 0.339D-03 0.164D-01 0.447D-01 0.132D+00 0.283D+00
 Coeff-Com:  0.525D+00
 Coeff:     -0.103D-02 0.339D-03 0.164D-01 0.447D-01 0.132D+00 0.283D+00
 Coeff:      0.525D+00
 Gap=     0.205 Goal=   None    Shift=    0.000
 RMSDP=2.57D-06 MaxDP=1.46D-04 DE=-2.28D-05 OVMax= 4.54D-04

 Initial convergence to 1.0D-05 achieved.  Increase integral accuracy.
 Cycle   8  Pass 1  IDiag  1:
 E= -400.143649941112     Delta-E=       -0.000029237366 Rises=F Damp=F
 DIIS: error= 2.65D-05 at cycle   1 NSaved=   1.
 NSaved= 1 IEnMin= 1 EnMin= -400.143649941112     IErMin= 1 ErrMin= 2.65D-05
 ErrMax= 2.65D-05  0.00D+00 EMaxC= 1.00D-01 BMatC= 3.03D-07 BMatP= 3.03D-07
 IDIUse=1 WtCom= 1.00D+00 WtEn= 0.00D+00
 Coeff-Com:  0.100D+01
 Coeff:      0.100D+01
 Gap=     0.205 Goal=   None    Shift=    0.000
 RMSDP=2.57D-06 MaxDP=1.46D-04 DE=-2.92D-05 OVMax= 4.90D-04

 Cycle   9  Pass 1  IDiag  1:
 E= -400.143649739481     Delta-E=        0.000000201631 Rises=F Damp=F
 DIIS: error= 4.94D-05 at cycle   2 NSaved=   2.
 NSaved= 2 IEnMin= 1 EnMin= -400.143649941112     IErMin= 1 ErrMin= 2.65D-05
 ErrMax= 4.94D-05  0.00D+00 EMaxC= 1.00D-01 BMatC= 5.70D-07 BMatP= 3.03D-07
 IDIUse=1 WtCom= 1.00D+00 WtEn= 0.00D+00
 Coeff-Com:  0.592D+00 0.408D+00
 Coeff:      0.592D+00 0.408D+00
 Gap=     0.205 Goal=   None    Shift=    0.000
 RMSDP=1.91D-06 MaxDP=8.61D-05 DE= 2.02D-07 OVMax= 3.95D-04

 Cycle  10  Pass 1  IDiag  1:
 E= -400.143650239591     Delta-E=       -0.000000500110 Rises=F Damp=F
 DIIS: error= 1.13D-05 at cycle   3 NSaved=   3.
 NSaved= 3 IEnMin= 3 EnMin= -400.143650239591     IErMin= 3 ErrMin= 1.13D-05
 ErrMax= 1.13D-05  0.00D+00 EMaxC= 1.00D-01 BMatC= 3.22D-08 BMatP= 3.03D-07
 IDIUse=1 WtCom= 1.00D+00 WtEn= 0.00D+00
 Coeff-Com:  0.294D-01 0.190D+00 0.781D+00
 Coeff:      0.294D-01 0.190D+00 0.781D+00
 Gap=     0.205 Goal=   None    Shift=    0.000
 RMSDP=5.17D-07 MaxDP=2.30D-05 DE=-5.00D-07 OVMax= 1.01D-04

 Cycle  11  Pass 1  IDiag  1:
 E= -400.143650265165     Delta-E=       -0.000000025574 Rises=F Damp=F
 DIIS: error= 4.08D-06 at cycle   4 NSaved=   4.
 NSaved= 4 IEnMin= 4 EnMin= -400.143650265165     IErMin= 4 ErrMin= 4.08D-06
 ErrMax= 4.08D-06  0.00D+00 EMaxC= 1.00D-01 BMatC= 7.13D-09 BMatP= 3.22D-08
 IDIUse=1 WtCom= 1.00D+00 WtEn= 0.00D+00
 Coeff-Com: -0.155D-01 0.944D-01 0.489D+00 0.432D+00
 Coeff:     -0.155D-01 0.944D-01 0.489D+00 0.432D+00
 Gap=     0.205 Goal=   None    Shift=    0.000
 RMSDP=1.67D-07 MaxDP=1.15D-05 DE=-2.56D-08 OVMax= 2.14D-05

 Cycle  12  Pass 1  IDiag  1:
 E= -400.143650271035     Delta-E=       -0.000000005870 Rises=F Damp=F
 DIIS: error= 7.31D-07 at cycle   5 NSaved=   5.
 NSaved= 5 IEnMin= 5 EnMin= -400.143650271035     IErMin= 5 ErrMin= 7.31D-07
 ErrMax= 7.31D-07  0.00D+00 EMaxC= 1.00D-01 BMatC= 1.18D-10 BMatP= 7.13D-09
 IDIUse=1 WtCom= 1.00D+00 WtEn= 0.00D+00
 Coeff-Com: -0.828D-02 0.372D-01 0.206D+00 0.210D+00 0.554D+00
 Coeff:     -0.828D-02 0.372D-01 0.206D+00 0.210D+00 0.554D+00
 Gap=     0.205 Goal=   None    Shift=    0.000
 RMSDP=3.33D-08 MaxDP=1.48D-06 DE=-5.87D-09 OVMax= 5.70D-06

 Cycle  13  Pass 1  IDiag  1:
 E= -400.143650271108     Delta-E=       -0.000000000073 Rises=F Damp=F
 DIIS: error= 3.87D-07 at cycle   6 NSaved=   6.
 NSaved= 6 IEnMin= 6 EnMin= -400.143650271108     IErMin= 6 ErrMin= 3.87D-07
 ErrMax= 3.87D-07  0.00D+00 EMaxC= 1.00D-01 BMatC= 2.74D-11 BMatP= 1.18D-10
 IDIUse=1 WtCom= 1.00D+00 WtEn= 0.00D+00
 Coeff-Com: -0.278D-02 0.907D-02 0.570D-01 0.677D-01 0.348D+00 0.521D+00
 Coeff:     -0.278D-02 0.907D-02 0.570D-01 0.677D-01 0.348D+00 0.521D+00
 Gap=     0.205 Goal=   None    Shift=    0.000
 RMSDP=1.36D-08 MaxDP=8.01D-07 DE=-7.33D-11 OVMax= 2.66D-06

 Cycle  14  Pass 1  IDiag  1:
 E= -400.143650271140     Delta-E=       -0.000000000031 Rises=F Damp=F
 DIIS: error= 8.10D-08 at cycle   7 NSaved=   7.
 NSaved= 7 IEnMin= 7 EnMin= -400.143650271140     IErMin= 7 ErrMin= 8.10D-08
 ErrMax= 8.10D-08  0.00D+00 EMaxC= 1.00D-01 BMatC= 1.89D-12 BMatP= 2.74D-11
 IDIUse=1 WtCom= 1.00D+00 WtEn= 0.00D+00
 Coeff-Com: -0.398D-03-0.377D-05 0.399D-02 0.986D-02 0.124D+00 0.276D+00
 Coeff-Com:  0.587D+00
 Coeff:     -0.398D-03-0.377D-05 0.399D-02 0.986D-02 0.124D+00 0.276D+00
 Coeff:      0.587D+00
 Gap=     0.205 Goal=   None    Shift=    0.000
 RMSDP=3.50D-09 MaxDP=1.95D-07 DE=-3.14D-11 OVMax= 5.98D-07

 SCF Done:  E(RB3LYP) =  -400.143650271     A.U. after   14 cycles
            NFock= 14  Conv=0.35D-08     -V/T= 2.0038
 KE= 3.986298561878D+02 PE=-1.651259524554D+03 EE= 4.948633959271D+02
 Leave Link  502 at Fri Aug 27 00:31:33 2021, MaxMem= 17179869184 cpu:       333.9
 (Enter /public3/home/sc51754/softwares/g09e01/l601.exe)
 Copying SCF densities to generalized density rwf, IOpCl= 0 IROHF=0.

 **********************************************************************

            Population analysis using the SCF density.

 **********************************************************************

 Orbital symmetries:
       Occupied  (A) (A) (A) (A) (A) (A) (A) (A) (A) (A) (A) (A)
                 (A) (A) (A) (A) (A) (A) (A) (A) (A) (A) (A) (A)
                 (A) (A) (A) (A) (A) (A)
       Virtual   (A) (A) (A) (A) (A) (A) (A) (A) (A) (A) (A) (A)
                 (A) (A) (A) (A) (A) (A) (A) (A) (A) (A) (A) (A)
                 (A) (A) (A) (A) (A) (A) (A) (A) (A) (A) (A) (A)
                 (A) (A) (A) (A) (A) (A) (A) (A) (A) (A) (A) (A)
                 (A) (A) (A) (A) (A) (A) (A) (A) (A) (A) (A) (A)
                 (A) (A) (A) (A) (A) (A) (A) (A) (A) (A) (A) (A)
                 (A) (A) (A) (A) (A) (A) (A) (A) (A) (A) (A) (A)
                 (A) (A) (A) (A) (A) (A) (A) (A) (A) (A) (A) (A)
                 (A) (A) (A) (A) (A) (A) (A) (A) (A) (A) (A) (A)
                 (A) (A) (A) (A) (A) (A) (A) (A) (A) (A) (A) (A)
                 (A) (A) (A) (A) (A) (A) (A) (A) (A) (A) (A) (A)
                 (A) (A) (A) (A) (A) (A) (A) (A) (A) (A) (A) (A)
                 (A) (A) (A) (A) (A) (A) (A) (A) (A) (A) (A) (A)
                 (A) (A) (A) (A) (A) (A) (A) (A) (A) (A) (A) (A)
                 (A) (A) (A) (A) (A) (A) (A) (A) (A) (A) (A) (A)
                 (A) (A) (A) (A) (A) (A) (A) (A) (A) (A) (A) (A)
                 (A) (A) (A) (A) (A) (A) (A) (A) (A) (A) (A) (A)
                 (A) (A) (A) (A) (A) (A) (A) (A) (A) (A) (A) (A)
                 (A) (A) (A) (A) (A) (A) (A) (A) (A) (A) (A) (A)
                 (A) (A) (A) (A) (A) (A) (A) (A) (A) (A) (A) (A)
                 (A) (A) (A) (A) (A) (A) (A) (A) (A) (A) (A) (A)
                 (A) (A) (A) (A) (A) (A) (A) (A) (A) (A) (A) (A)
                 (A) (A) (A) (A) (A) (A) (A) (A) (A) (A) (A) (A)
                 (A) (A) (A) (A) (A) (A) (A) (A) (A) (A) (A) (A)
                 (A) (A) (A) (A) (A) (A) (A) (A) (A) (A) (A) (A)
                 (A) (A) (A) (A) (A) (A) (A) (A)
 The electronic state is 1-A.
 Alpha  occ. eigenvalues --  -19.15008 -19.12877 -14.32562 -10.27791 -10.22281
 Alpha  occ. eigenvalues --  -10.20286 -10.18790 -10.18543  -1.07746  -1.01465
 Alpha  occ. eigenvalues --   -0.95070  -0.81847  -0.76717  -0.65808  -0.63991
 Alpha  occ. eigenvalues --   -0.56426  -0.54591  -0.52078  -0.49352  -0.45770
 Alpha  occ. eigenvalues --   -0.44656  -0.42345  -0.41063  -0.39627  -0.37632
 Alpha  occ. eigenvalues --   -0.36310  -0.32635  -0.30411  -0.29112  -0.24890
 Alpha virt. eigenvalues --   -0.04381  -0.01520   0.00973   0.02141   0.03952
 Alpha virt. eigenvalues --    0.05728   0.07167   0.09534   0.11511   0.12338
 Alpha virt. eigenvalues --    0.13978   0.15149   0.16322   0.18165   0.18528
 Alpha virt. eigenvalues --    0.18961   0.19890   0.20670   0.22880   0.24380
 Alpha virt. eigenvalues --    0.25576   0.26320   0.27791   0.28111   0.28408
 Alpha virt. eigenvalues --    0.29708   0.30189   0.31145   0.32123   0.32714
 Alpha virt. eigenvalues --    0.34702   0.35875   0.36396   0.37076   0.38364
 Alpha virt. eigenvalues --    0.41167   0.41904   0.43428   0.44116   0.46693
 Alpha virt. eigenvalues --    0.49295   0.51198   0.52036   0.53148   0.54026
 Alpha virt. eigenvalues --    0.58290   0.60922   0.61858   0.62709   0.64186
 Alpha virt. eigenvalues --    0.65405   0.66622   0.68565   0.72175   0.73534
 Alpha virt. eigenvalues --    0.76645   0.78219   0.80949   0.81095   0.84439
 Alpha virt. eigenvalues --    0.88199   0.89785   0.90980   0.92013   0.93646
 Alpha virt. eigenvalues --    0.94937   0.97045   0.97542   0.98831   1.01547
 Alpha virt. eigenvalues --    1.02750   1.07814   1.08833   1.09296   1.11860
 Alpha virt. eigenvalues --    1.13448   1.14165   1.14596   1.16494   1.16918
 Alpha virt. eigenvalues --    1.19376   1.20839   1.22975   1.25365   1.25462
 Alpha virt. eigenvalues --    1.27749   1.27840   1.30920   1.31652   1.33318
 Alpha virt. eigenvalues --    1.40739   1.40944   1.43605   1.43828   1.48646
 Alpha virt. eigenvalues --    1.49166   1.50589   1.51703   1.53995   1.55555
 Alpha virt. eigenvalues --    1.57390   1.58312   1.60641   1.61714   1.64698
 Alpha virt. eigenvalues --    1.66095   1.67038   1.69466   1.69849   1.73268
 Alpha virt. eigenvalues --    1.76480   1.80099   1.81533   1.84486   1.85949
 Alpha virt. eigenvalues --    1.86603   1.87809   1.89106   1.90280   1.95078
 Alpha virt. eigenvalues --    1.97505   1.98110   2.00610   2.03877   2.07726
 Alpha virt. eigenvalues --    2.11220   2.13262   2.14339   2.16306   2.17691
 Alpha virt. eigenvalues --    2.18674   2.22792   2.24008   2.25317   2.27449
 Alpha virt. eigenvalues --    2.31158   2.38399   2.41329   2.49834   2.62301
 Alpha virt. eigenvalues --    2.69237   2.78960   2.86499   2.94973   2.95300
 Alpha virt. eigenvalues --    2.98128   3.02459   3.14951   3.17694   3.20196
 Alpha virt. eigenvalues --    3.23173   3.25318   3.26178   3.30492   3.34574
 Alpha virt. eigenvalues --    3.36958   3.37533   3.38086   3.41084   3.41937
 Alpha virt. eigenvalues --    3.44880   3.47076   3.49183   3.52029   3.56645
 Alpha virt. eigenvalues --    3.57744   3.59530   3.60892   3.61835   3.63202
 Alpha virt. eigenvalues --    3.67724   3.68350   3.69729   3.72660   3.74006
 Alpha virt. eigenvalues --    3.77617   3.79241   3.80241   3.82805   3.86845
 Alpha virt. eigenvalues --    3.89712   3.91366   3.92965   3.94035   3.96376
 Alpha virt. eigenvalues --    3.99141   4.00487   4.03872   4.04949   4.05353
 Alpha virt. eigenvalues --    4.07037   4.08072   4.09191   4.12385   4.15957
 Alpha virt. eigenvalues --    4.16610   4.17097   4.17648   4.19653   4.21487
 Alpha virt. eigenvalues --    4.22063   4.24598   4.27228   4.28600   4.30051
 Alpha virt. eigenvalues --    4.30721   4.31345   4.32447   4.33618   4.37856
 Alpha virt. eigenvalues --    4.38605   4.39736   4.40449   4.42816   4.43323
 Alpha virt. eigenvalues --    4.44478   4.44758   4.46318   4.47282   4.49914
 Alpha virt. eigenvalues --    4.50618   4.51350   4.52919   4.55359   4.57592
 Alpha virt. eigenvalues --    4.59181   4.61114   4.63918   4.64927   4.65370
 Alpha virt. eigenvalues --    4.67924   4.72245   4.75559   4.76314   4.81072
 Alpha virt. eigenvalues --    4.83350   4.87184   4.88150   4.88660   4.90165
 Alpha virt. eigenvalues --    4.91149   4.95974   4.96447   5.00186   5.01861
 Alpha virt. eigenvalues --    5.04866   5.09142   5.09915   5.13432   5.18905
 Alpha virt. eigenvalues --    5.19079   5.22777   5.22926   5.28154   5.32300
 Alpha virt. eigenvalues --    5.33928   5.34401   5.38050   5.40432   5.41791
 Alpha virt. eigenvalues --    5.42708   5.45656   5.46212   5.53456   5.55114
 Alpha virt. eigenvalues --    5.61272   5.63198   5.66060   5.68082   5.76905
 Alpha virt. eigenvalues --    5.78219   5.81642   5.84083   5.91987   5.96648
 Alpha virt. eigenvalues --    6.01434   6.03915   6.05391   6.05868   6.10192
 Alpha virt. eigenvalues --    6.19542   6.22436   6.23789   6.25348   6.28724
 Alpha virt. eigenvalues --    6.29555   6.31468   6.36842   6.41717   6.49741
 Alpha virt. eigenvalues --    6.51092   6.60357   6.63135   6.70887   6.89358
 Alpha virt. eigenvalues --    6.93613   6.96234   7.13947   7.33527   7.43027
 Alpha virt. eigenvalues --    9.29985  12.16485  12.72273  15.50698  15.53439
 Alpha virt. eigenvalues --   17.40873  18.67628  22.34680
          Condensed to atoms (all electrons):
               1          2          3          4          5          6
     1  O    7.898184  -0.088684   0.318036  -0.066352   0.004987   0.009054
     2  N   -0.088684   6.744172   0.457649  -0.025157   0.494613  -0.032053
     3  C    0.318036   0.457649   4.425597   0.515287  -0.073442  -0.052904
     4  C   -0.066352  -0.025157   0.515287   4.859973  -0.038277   0.517075
     5  C    0.004987   0.494613  -0.073442  -0.038277   4.601224  -0.072737
     6  C    0.009054  -0.032053  -0.052904   0.517075  -0.072737   4.733494
     7  C   -0.000508  -0.037629  -0.050878  -0.050610   0.519723   0.486418
     8  H    0.350316   0.004241  -0.024279   0.006311  -0.000312  -0.001054
     9  H    0.004581   0.006543  -0.037282   0.436007  -0.001963  -0.035903
    10  H   -0.000473  -0.043052   0.006443  -0.003815   0.448582   0.009052
    11  H   -0.000344  -0.001720   0.008045  -0.038707   0.008319   0.435489
    12  H    0.000050   0.006621  -0.000715   0.007140  -0.029925  -0.037921
    13  O   -0.027410  -0.042371  -0.004253   0.000865  -0.001314   0.000169
    14  H    0.001253   0.003253   0.000265   0.000131   0.000146  -0.000021
    15  H   -0.000111   0.030473  -0.004372   0.000994   0.002086  -0.000426
               7          8          9         10         11         12
     1  O   -0.000508   0.350316   0.004581  -0.000473  -0.000344   0.000050
     2  N   -0.037629   0.004241   0.006543  -0.043052  -0.001720   0.006621
     3  C   -0.050878  -0.024279  -0.037282   0.006443   0.008045  -0.000715
     4  C   -0.050610   0.006311   0.436007  -0.003815  -0.038707   0.007140
     5  C    0.519723  -0.000312  -0.001963   0.448582   0.008319  -0.029925
     6  C    0.486418  -0.001054  -0.035903   0.009052   0.435489  -0.037921
     7  C    4.930515   0.000306   0.008259  -0.067366  -0.043457   0.431525
     8  H    0.000306   0.397941  -0.000000  -0.000070   0.000010  -0.000006
     9  H    0.008259  -0.000000   0.575018   0.000190  -0.007738  -0.000052
    10  H   -0.067366  -0.000070   0.000190   0.606868  -0.000191  -0.004148
    11  H   -0.043457   0.000010  -0.007738  -0.000191   0.594721  -0.007294
    12  H    0.431525  -0.000006  -0.000052  -0.004148  -0.007294   0.592478
    13  O   -0.000423   0.053924   0.000006   0.000319  -0.000005   0.000010
    14  H    0.000074  -0.003650  -0.000002  -0.000019   0.000000  -0.000001
    15  H    0.001450  -0.008345  -0.000053  -0.001038   0.000024  -0.000039
              13         14         15
     1  O   -0.027410   0.001253  -0.000111
     2  N   -0.042371   0.003253   0.030473
     3  C   -0.004253   0.000265  -0.004372
     4  C    0.000865   0.000131   0.000994
     5  C   -0.001314   0.000146   0.002086
     6  C    0.000169  -0.000021  -0.000426
     7  C   -0.000423   0.000074   0.001450
     8  H    0.053924  -0.003650  -0.008345
     9  H    0.000006  -0.000002  -0.000053
    10  H    0.000319  -0.000019  -0.001038
    11  H   -0.000005   0.000000   0.000024
    12  H    0.000010  -0.000001  -0.000039
    13  O    7.765229   0.353802   0.342812
    14  H    0.353802   0.454043  -0.021788
    15  H    0.342812  -0.021788   0.420000
 Mulliken charges:
               1
     1  O   -0.402578
     2  N   -0.476900
     3  C    0.516802
     4  C   -0.120866
     5  C    0.138289
     6  C    0.042267
     7  C   -0.127398
     8  H    0.224666
     9  H    0.052391
    10  H    0.048717
    11  H    0.052848
    12  H    0.042276
    13  O   -0.441361
    14  H    0.212513
    15  H    0.238334
 Sum of Mulliken charges =  -0.00000
 Mulliken charges with hydrogens summed into heavy atoms:
               1
     1  O   -0.177912
     2  N   -0.476900
     3  C    0.516802
     4  C   -0.068475
     5  C    0.187006
     6  C    0.095114
     7  C   -0.085121
    13  O    0.009486
 Electronic spatial extent (au):  <R**2>=           1070.4363
 Charge=             -0.0000 electrons
 Dipole moment (field-independent basis, Debye):
    X=             -1.8627    Y=             -1.3235    Z=              1.3514  Tot=              2.6548
 Quadrupole moment (field-independent basis, Debye-Ang):
   XX=            -42.5719   YY=            -45.2563   ZZ=            -49.5415
   XY=             -2.8165   XZ=              5.3723   YZ=             -1.3520
 Traceless Quadrupole moment (field-independent basis, Debye-Ang):
   XX=              3.2180   YY=              0.5336   ZZ=             -3.7516
   XY=             -2.8165   XZ=              5.3723   YZ=             -1.3520
 Octapole moment (field-independent basis, Debye-Ang**2):
  XXX=             11.4700  YYY=             -7.7540  ZZZ=              1.0847  XYY=             -0.5773
  XXY=             -4.2229  XXZ=             20.3412  XZZ=             12.6578  YZZ=              0.3567
  YYZ=              1.2947  XYZ=             -5.1928
 Hexadecapole moment (field-independent basis, Debye-Ang**3):
 XXXX=           -845.9211 YYYY=           -359.4315 ZZZZ=            -55.0582 XXXY=            -21.4673
 XXXZ=             76.7813 YYYX=            -13.5006 YYYZ=             -1.5695 ZZZX=              5.0831
 ZZZY=             -1.4194 XXYY=           -203.3341 XXZZ=           -168.6054 YYZZ=            -77.6064
 XXYZ=            -18.7557 YYXZ=              5.3231 ZZXY=             -3.9236
 N-N= 3.576226221683D+02 E-N=-1.651259534906D+03  KE= 3.986298561878D+02
 No NMR shielding tensors so no spin-rotation constants.
 Leave Link  601 at Fri Aug 27 00:31:34 2021, MaxMem= 17179869184 cpu:        50.0
 (Enter /public3/home/sc51754/softwares/g09e01/l701.exe)
 Compute integral first derivatives.
 ... and contract with generalized density number  0.
 Leave Link  701 at Fri Aug 27 00:31:36 2021, MaxMem= 17179869184 cpu:        76.7
 (Enter /public3/home/sc51754/softwares/g09e01/l702.exe)
 L702 exits ... SP integral derivatives will be done elsewhere.
 Leave Link  702 at Fri Aug 27 00:31:36 2021, MaxMem= 17179869184 cpu:         0.4
 (Enter /public3/home/sc51754/softwares/g09e01/l703.exe)
 Compute integral first derivatives, UseDBF=F ICtDFT=           0.
 Integral derivatives from FoFJK, PRISM(SPDF).
 Calling FoFJK, ICntrl=      2127 FMM=F ISym2X=0 I1Cent= 0 IOpClX= 0 NMat=1 NMatS=1 NMatT=0.
 FoFJK:  IHMeth= 1 ICntrl=    2127 DoSepK=F KAlg= 0 I1Cent=   0 FoldK=F
 IRaf=         0 NMat=   1 IRICut=       1 DoRegI=T DoRafI=F ISym2E= 0.
 FoFCou: FMM=F IPFlag=           0 FMFlag=      100000 FMFlg1=         800
         NFxFlg=           0 DoJE=F BraDBF=F KetDBF=F FulRan=T
         wScrn=  0.000000 ICntrl=    2127 IOpCl=  0 I1Cent=           0 NGrid=           0
         NMat0=    1 NMatS0=      1 NMatT0=    0 NMatD0=    1 NMtDS0=    0 NMtDT0=    0
 Symmetry not used in FoFCou.
 Leave Link  703 at Fri Aug 27 00:31:39 2021, MaxMem= 17179869184 cpu:       189.6
 (Enter /public3/home/sc51754/softwares/g09e01/l716.exe)
 Dipole        =-7.32858310D-01-5.20717729D-01 5.31695174D-01
 ***** Axes restored to original set *****
 -------------------------------------------------------------------
 Center     Atomic                   Forces (Hartrees/Bohr)
 Number     Number              X              Y              Z
 -------------------------------------------------------------------
      1        8          -0.000223386   -0.000165881    0.000062460
      2        7          -0.000099688   -0.000149171    0.000140977
      3        6           0.000365929    0.000324692   -0.000000193
      4        6          -0.000160830   -0.000111513   -0.000035660
      5        6          -0.000117989    0.000194681   -0.000009104
      6        6           0.000167853   -0.000007774    0.000014152
      7        6           0.000103081   -0.000046896   -0.000022456
      8        1           0.000057898   -0.000159098   -0.000151311
      9        1           0.000043953   -0.000032536   -0.000003742
     10        1           0.000021351    0.000010707    0.000005127
     11        1           0.000015129    0.000008039   -0.000000588
     12        1          -0.000021694   -0.000002759   -0.000000099
     13        8          -0.000502036    0.000045374    0.000516514
     14        1          -0.000051182    0.000040683   -0.000245498
     15        1           0.000401611    0.000051453   -0.000270579
 -------------------------------------------------------------------
 Cartesian Forces:  Max     0.000516514 RMS     0.000175402
 Leave Link  716 at Fri Aug 27 00:31:39 2021, MaxMem= 17179869184 cpu:         1.4
 (Enter /public3/home/sc51754/softwares/g09e01/l103.exe)

 GradGradGradGradGradGradGradGradGradGradGradGradGradGradGradGradGradGrad
 Berny optimization.
 FormGI is forming the generalized inverse of G from B-inverse, IUseBI=4.
 Internal  Forces:  Max     0.000380316 RMS     0.000082246
 Search for a local minimum.
 Step number   1 out of a maximum of   88
 All quantities printed in internal units (Hartrees-Bohrs-Radians)
 RMS Force = .82246D-04 SwitMx=.10000D-02 MixMth= 2
 Mixed Optimization -- En-DIIS/RFO-DIIS
 Second derivative matrix not updated -- first step.
 ITU=  0
     Eigenvalues ---    0.00525   0.00832   0.01684   0.02094   0.02184
     Eigenvalues ---    0.02225   0.02239   0.02286   0.02319   0.02409
     Eigenvalues ---    0.02460   0.05224   0.06028   0.06507   0.08515
     Eigenvalues ---    0.13089   0.16000   0.16000   0.16000   0.16000
     Eigenvalues ---    0.19207   0.20418   0.22000   0.22270   0.23481
     Eigenvalues ---    0.35621   0.35778   0.36026   0.36038   0.41939
     Eigenvalues ---    0.43696   0.46841   0.47322   0.48462   0.48884
     Eigenvalues ---    0.52273   0.55339   0.55352   0.56565
 RFO step:  Lambda=-3.74360314D-06 EMin= 5.24515301D-03
 Linear search not attempted -- first point.
 Iteration  1 RMS(Cart)=  0.00102354 RMS(Int)=  0.00000399
 Iteration  2 RMS(Cart)=  0.00000309 RMS(Int)=  0.00000215
 Iteration  3 RMS(Cart)=  0.00000000 RMS(Int)=  0.00000215
 ITry= 1 IFail=0 DXMaxC= 5.03D-03 DCOld= 1.00D+10 DXMaxT= 3.00D-01 DXLimC= 3.00D+00 Rises=F
 Variable       Old X    -DE/DX   Delta X   Delta X   Delta X     New X
                                 (Linear)    (Quad)   (Total)
    R1        2.53090  -0.00033   0.00000  -0.00055  -0.00055   2.53035
    R2        1.85517  -0.00005   0.00000  -0.00011  -0.00011   1.85507
    R3        2.51733   0.00006   0.00000   0.00013   0.00014   2.51747
    R4        2.53185  -0.00009   0.00000  -0.00015  -0.00015   2.53169
    R5        3.65357  -0.00002   0.00000  -0.00061  -0.00061   3.65296
    R6        2.64886  -0.00005   0.00000  -0.00009  -0.00009   2.64877
    R7        2.60507  -0.00014   0.00000  -0.00028  -0.00028   2.60479
    R8        2.04022  -0.00004   0.00000  -0.00010  -0.00010   2.04012
    R9        2.60933  -0.00017   0.00000  -0.00035  -0.00035   2.60898
   R10        2.04678  -0.00001   0.00000  -0.00002  -0.00002   2.04676
   R11        2.63885  -0.00006   0.00000  -0.00015  -0.00015   2.63870
   R12        2.04430  -0.00001   0.00000  -0.00003  -0.00003   2.04427
   R13        2.04041   0.00002   0.00000   0.00005   0.00005   2.04047
   R14        3.46012  -0.00018   0.00000  -0.00342  -0.00341   3.45671
   R15        3.61122  -0.00004   0.00000  -0.00033  -0.00034   3.61088
   R16        1.81521  -0.00024   0.00000  -0.00043  -0.00043   1.81478
   R17        1.85250  -0.00038   0.00000  -0.00087  -0.00087   1.85163
    A1        1.91487  -0.00004   0.00000  -0.00017  -0.00017   1.91470
    A2        2.06532   0.00001   0.00000   0.00008   0.00008   2.06540
    A3        1.87270  -0.00005   0.00000  -0.00033  -0.00033   1.87237
    A4        2.34514   0.00004   0.00000   0.00024   0.00024   2.34539
    A5        2.07766   0.00008   0.00000   0.00037   0.00037   2.07803
    A6        2.06520   0.00002   0.00000   0.00001   0.00001   2.06521
    A7        2.14032  -0.00010   0.00000  -0.00038  -0.00038   2.13995
    A8        2.06244   0.00003   0.00000   0.00016   0.00016   2.06260
    A9        2.08413  -0.00006   0.00000  -0.00034  -0.00034   2.08380
   A10        2.13661   0.00003   0.00000   0.00018   0.00018   2.13679
   A11        2.15286   0.00005   0.00000   0.00023   0.00023   2.15308
   A12        2.02165  -0.00005   0.00000  -0.00027  -0.00027   2.02138
   A13        2.10868  -0.00000   0.00000   0.00004   0.00004   2.10872
   A14        2.08831   0.00005   0.00000   0.00019   0.00019   2.08850
   A15        2.09381  -0.00004   0.00000  -0.00017  -0.00017   2.09364
   A16        2.10106  -0.00001   0.00000  -0.00002  -0.00002   2.10105
   A17        2.05711  -0.00005   0.00000  -0.00027  -0.00027   2.05684
   A18        2.10400   0.00003   0.00000   0.00020   0.00020   2.10420
   A19        2.12207   0.00001   0.00000   0.00007   0.00007   2.12214
   A20        2.78431  -0.00003   0.00000   0.00010   0.00010   2.78441
   A21        2.25759   0.00007   0.00000  -0.00004  -0.00004   2.25755
   A22        2.11576   0.00007   0.00000   0.00135   0.00135   2.11711
   A23        1.86403  -0.00000   0.00000   0.00053   0.00053   1.86456
   A24        1.30192  -0.00006   0.00000   0.00018   0.00018   1.30211
   A25        2.52674  -0.00009   0.00000  -0.00097  -0.00098   2.52576
    D1        0.00739  -0.00000   0.00000  -0.00019  -0.00019   0.00720
    D2       -3.13430   0.00002   0.00000   0.00014   0.00013  -3.13417
    D3        0.07175  -0.00005   0.00000  -0.00253  -0.00254   0.06921
    D4       -0.00835   0.00001   0.00000   0.00172   0.00173  -0.00662
    D5       -3.13923   0.00002   0.00000   0.00036   0.00036  -3.13887
    D6        0.00246   0.00000   0.00000   0.00002   0.00002   0.00248
    D7       -0.00357  -0.00001   0.00000  -0.00112  -0.00112  -0.00469
    D8        3.13812  -0.00003   0.00000  -0.00146  -0.00146   3.13667
    D9       -0.00196  -0.00001   0.00000  -0.00023  -0.00023  -0.00219
   D10        3.13867  -0.00001   0.00000  -0.00049  -0.00049   3.13817
   D11       -3.13562   0.00003   0.00000   0.00174   0.00174  -3.13388
   D12        0.00500   0.00003   0.00000   0.00148   0.00148   0.00648
   D13       -0.00000   0.00001   0.00000   0.00125   0.00125   0.00125
   D14       -0.09978   0.00009   0.00000   0.00952   0.00952  -0.09026
   D15        3.13428  -0.00003   0.00000  -0.00057  -0.00057   3.13371
   D16        3.03451   0.00005   0.00000   0.00770   0.00770   3.04221
   D17        3.14017  -0.00001   0.00000  -0.00005  -0.00005   3.14012
   D18        0.00037  -0.00001   0.00000  -0.00017  -0.00017   0.00019
   D19       -0.00152   0.00001   0.00000   0.00029   0.00029  -0.00123
   D20       -3.14132   0.00001   0.00000   0.00016   0.00016  -3.14116
   D21       -0.00000  -0.00001   0.00000  -0.00039  -0.00039  -0.00039
   D22       -3.14062  -0.00000   0.00000  -0.00008  -0.00008  -3.14071
   D23        3.13975  -0.00001   0.00000  -0.00026  -0.00026   3.13948
   D24       -0.00088  -0.00000   0.00000   0.00004   0.00004  -0.00083
   D25        0.00051   0.00000   0.00000   0.00012   0.00012   0.00063
   D26        3.14103   0.00000   0.00000  -0.00001  -0.00001   3.14103
   D27       -3.14007   0.00001   0.00000   0.00040   0.00040  -3.13967
   D28        0.00046   0.00000   0.00000   0.00027   0.00027   0.00072
   D29        0.00048   0.00001   0.00000   0.00020   0.00020   0.00067
   D30       -3.14004   0.00001   0.00000   0.00033   0.00033  -3.13971
   D31        3.14109  -0.00000   0.00000  -0.00011  -0.00011   3.14099
   D32        0.00058  -0.00000   0.00000   0.00002   0.00002   0.00060
   D33       -1.92611   0.00000   0.00000   0.00503   0.00503  -1.92108
   D34        0.00552  -0.00001   0.00000  -0.00197  -0.00198   0.00355
   D35        1.52863   0.00018   0.00000   0.00269   0.00269   1.53133
   D36        2.18999   0.00002   0.00000  -0.00661  -0.00661   2.18338
         Item               Value     Threshold  Converged?
 Maximum Force            0.000380     0.000450     YES
 RMS     Force            0.000082     0.000300     YES
 Maximum Displacement     0.005034     0.001800     NO 
 RMS     Displacement     0.001025     0.001200     YES
 Predicted change in Energy=-1.869508D-06
 Lowest energy point so far.  Saving SCF results.
 GradGradGradGradGradGradGradGradGradGradGradGradGradGradGradGradGradGrad

 Leave Link  103 at Fri Aug 27 00:31:40 2021, MaxMem= 17179869184 cpu:        22.4
 (Enter /public3/home/sc51754/softwares/g09e01/l202.exe)
                          Input orientation:                          
 ---------------------------------------------------------------------
 Center     Atomic      Atomic             Coordinates (Angstroms)
 Number     Number       Type             X           Y           Z
 ---------------------------------------------------------------------
      1          8           0        1.216116    1.448456   -0.003060
      2          7           0        0.306099   -0.666374   -0.005430
      3          6           0        0.137469    0.655085   -0.000101
      4          6           0       -1.129345    1.254908    0.008246
      5          6           0       -0.783071   -1.446464   -0.005585
      6          6           0       -2.237600    0.435307    0.009487
      7          6           0       -2.071745   -0.951129    0.002021
      8          1           0        2.030261    0.900132   -0.015804
      9          1           0       -1.205688    2.331786    0.011878
     10          1           0       -0.598838   -2.513753   -0.013344
     11          1           0       -3.229206    0.867673    0.015024
     12          1           0       -2.917817   -1.621994    0.001020
     13          8           0        3.094736   -0.585901   -0.083748
     14          1           0        3.591450   -0.879360    0.683984
     15          1           0        2.209668   -1.002201   -0.025148
 ---------------------------------------------------------------------
                    Distance matrix (angstroms):
                    1          2          3          4          5
     1  O    0.000000
     2  N    2.302313   0.000000
     3  C    1.339002   1.332186   0.000000
     4  C    2.353461   2.398335   1.401668   0.000000
     5  C    3.518142   1.339713   2.294327   2.723510   0.000000
     6  C    3.599276   2.772062   2.385235   1.378396   2.378433
     7  C    4.070389   2.394845   2.731402   2.398907   1.380615
     8  H    0.981658   2.329546   1.908654   3.179553   3.663531
     9  H    2.577913   3.357792   2.148381   1.079587   3.801853
    10  H    4.358127   2.057130   3.253284   3.805878   1.083101
    11  H    4.483138   3.853842   3.373414   2.135278   3.367377
    12  H    5.149475   3.362571   3.810494   3.387513   2.141961
    13  O    2.770259   2.790898   3.208189   4.608677   3.972917
    14  H    3.396023   3.363657   3.840896   5.224714   4.464700
    15  H    2.644495   1.933066   2.653532   4.030467   3.025598
                    6          7          8          9         10
     6  C    0.000000
     7  C    1.396341   0.000000
     8  H    4.293174   4.500438   0.000000
     9  H    2.159047   3.395244   3.538611   0.000000
    10  H    3.373873   2.147437   4.308919   4.883457   0.000000
    11  H    1.081782   2.155904   5.259658   2.497651   4.284119
    12  H    2.166853   1.079768   5.553817   4.308582   2.484574
    13  O    5.430043   5.180085   1.829213   5.197663   4.167021
    14  H    6.013412   5.704560   2.468524   5.811689   4.551486
    15  H    4.673951   4.281804   1.910797   4.772997   3.189457
                   11         12         13         14         15
    11  H    0.000000
    12  H    2.509103   0.000000
    13  O    6.489598   6.101760   0.000000
    14  H    7.072551   6.586995   0.960341   0.000000
    15  H    5.751468   5.164875   0.979840   1.557973   0.000000
 Stoichiometry    C5H7NO2
 Framework group  C1[X(C5H7NO2)]
 Deg. of freedom    39
 Full point group                 C1      NOp   1
 RotChk:  IX=0 Diff= 5.52D-04
 Largest Abelian subgroup         C1      NOp   1
 Largest concise Abelian subgroup C1      NOp   1
                         Standard orientation:                         
 ---------------------------------------------------------------------
 Center     Atomic      Atomic             Coordinates (Angstroms)
 Number     Number       Type             X           Y           Z
 ---------------------------------------------------------------------
      1          8           0        1.216622    1.447909   -0.003219
      2          7           0        0.305779   -0.666566   -0.005590
      3          6           0        0.137664    0.654959   -0.000260
      4          6           0       -1.128916    1.255276    0.008087
      5          6           0       -0.783695   -1.446231   -0.005744
      6          6           0       -2.237490    0.436107    0.009328
      7          6           0       -2.072176   -0.950393    0.001862
      8          1           0        2.030552    0.899268   -0.015963
      9          1           0       -1.204838    2.332184    0.011719
     10          1           0       -0.599878   -2.513592   -0.013503
     11          1           0       -3.228927    0.868860    0.014865
     12          1           0       -2.918510   -1.620928    0.000861
     13          8           0        3.094448   -0.587181   -0.083907
     14          1           0        3.591047   -0.880834    0.683825
     15          1           0        2.209217   -1.003135   -0.025307
 ---------------------------------------------------------------------
 Rotational constants (GHZ):      4.0136159      1.4186203      1.0506245
 Leave Link  202 at Fri Aug 27 00:31:40 2021, MaxMem= 17179869184 cpu:         2.6
 (Enter /public3/home/sc51754/softwares/g09e01/l301.exe)
 Basis read from rwf:  (5D, 7F)
 No pseudopotential information found on rwf file.
 There are   385 symmetry adapted cartesian basis functions of A   symmetry.
 There are   338 symmetry adapted basis functions of A   symmetry.
   338 basis functions,   566 primitive gaussians,   385 cartesian basis functions
    30 alpha electrons       30 beta electrons
       nuclear repulsion energy       357.6744479918 Hartrees.
 IExCor=  402 DFT=T Ex+Corr=B3LYP ExCW=0 ScaHFX=  0.200000
 ScaDFX=  0.800000  0.720000  1.000000  0.810000 ScalE2=  1.000000  1.000000
 IRadAn=      0 IRanWt=     -1 IRanGd=            0 ICorTp=0 IEmpDi=  4
 NAtoms=   15 NActive=   15 NUniq=   15 SFac= 1.00D+00 NAtFMM=   60 NAOKFM=F Big=F
 Integral buffers will be    131072 words long.
 Raffenetti 2 integral format.
 Two-electron integral symmetry is turned on.
 No density basis found on file   724.
 Leave Link  301 at Fri Aug 27 00:31:40 2021, MaxMem= 17179869184 cpu:         1.6
 (Enter /public3/home/sc51754/softwares/g09e01/l302.exe)
 NPDir=0 NMtPBC=     1 NCelOv=     1 NCel=       1 NClECP=     1 NCelD=      1
         NCelK=      1 NCelE2=     1 NClLst=     1 CellRange=     0.0.
 One-electron integrals computed using PRISM.
 NBasis=   338 RedAO= T EigKep=  1.46D-04  NBF=   338
 NBsUse=   338 1.00D-06 EigRej= -1.00D+00 NBFU=   338
 Precomputing XC quadrature grid using
 IXCGrd= 4 IRadAn=           0 IRanWt=          -1 IRanGd=           0 AccXCQ= 0.00D+00.
 Generated NRdTot=       0 NPtTot=           0 NUsed=           0 NTot=          32
 NSgBfM=   384   384   384   384   385 MxSgAt=    15 MxSgA2=    15.
 Leave Link  302 at Fri Aug 27 00:31:41 2021, MaxMem= 17179869184 cpu:        45.9
 (Enter /public3/home/sc51754/softwares/g09e01/l303.exe)
 DipDrv:  MaxL=1.
 Leave Link  303 at Fri Aug 27 00:31:41 2021, MaxMem= 17179869184 cpu:        11.2
 (Enter /public3/home/sc51754/softwares/g09e01/l401.exe)
 Initial guess from the checkpoint file:  "HY_H2O_B3LYP_PC2_OPT_FREQ.chk"
 B after Tr=     0.000000    0.000000    0.000000
         Rot=    1.000000    0.000070    0.000040    0.000150 Ang=   0.02 deg.
 Guess basis will be translated and rotated to current coordinates.
 JPrj=2 DoOrth=T DoCkMO=T.
 Leave Link  401 at Fri Aug 27 00:31:42 2021, MaxMem= 17179869184 cpu:        44.4
 (Enter /public3/home/sc51754/softwares/g09e01/l502.exe)
 Closed shell SCF:
 Using DIIS extrapolation, IDIIS=  1040.
 Integral symmetry usage will be decided dynamically.
 Keep R1 ints in memory in canonical form, NReq=1670404686.
 IVT=      490665 IEndB=      490665 NGot= 17179869184 MDV= 15538220534
 LenX= 15538220534 LenY= 15538071868
 Requested convergence on RMS density matrix=1.00D-08 within 128 cycles.
 Requested convergence on MAX density matrix=1.00D-06.
 Requested convergence on             energy=1.00D-06.
 No special actions if energy rises.
 FoFCou: FMM=F IPFlag=           0 FMFlag=           0 FMFlg1=           0
         NFxFlg=           0 DoJE=F BraDBF=F KetDBF=F FulRan=T
         wScrn=  0.000000 ICntrl=     600 IOpCl=  0 I1Cent=           0 NGrid=           0
         NMat0=    1 NMatS0=  57291 NMatT0=    0 NMatD0=    1 NMtDS0=    0 NMtDT0=    0
 Symmetry not used in FoFCou.

 Cycle   1  Pass 1  IDiag  1:
 E= -400.143649901413    
 DIIS: error= 8.26D-05 at cycle   1 NSaved=   1.
 NSaved= 1 IEnMin= 1 EnMin= -400.143649901413     IErMin= 1 ErrMin= 8.26D-05
 ErrMax= 8.26D-05  0.00D+00 EMaxC= 1.00D-01 BMatC= 3.05D-06 BMatP= 3.05D-06
 IDIUse=1 WtCom= 1.00D+00 WtEn= 0.00D+00
 Coeff-Com:  0.100D+01
 Coeff:      0.100D+01
 Gap=     0.611 Goal=   None    Shift=    0.000
 RMSDP=7.35D-06 MaxDP=4.56D-04              OVMax= 6.79D-04

 Cycle   2  Pass 1  IDiag  1:
 E= -400.143652975781     Delta-E=       -0.000003074369 Rises=F Damp=F
 DIIS: error= 1.91D-05 at cycle   2 NSaved=   2.
 NSaved= 2 IEnMin= 2 EnMin= -400.143652975781     IErMin= 2 ErrMin= 1.91D-05
 ErrMax= 1.91D-05  0.00D+00 EMaxC= 1.00D-01 BMatC= 1.69D-07 BMatP= 3.05D-06
 IDIUse=1 WtCom= 1.00D+00 WtEn= 0.00D+00
 Coeff-Com:  0.336D-01 0.966D+00
 Coeff:      0.336D-01 0.966D+00
 Gap=     0.205 Goal=   None    Shift=    0.000
 RMSDP=1.66D-06 MaxDP=1.24D-04 DE=-3.07D-06 OVMax= 2.08D-04

 Cycle   3  Pass 1  IDiag  1:
 E= -400.143652863460     Delta-E=        0.000000112321 Rises=F Damp=F
 DIIS: error= 2.77D-05 at cycle   3 NSaved=   3.
 NSaved= 3 IEnMin= 2 EnMin= -400.143652975781     IErMin= 2 ErrMin= 1.91D-05
 ErrMax= 2.77D-05  0.00D+00 EMaxC= 1.00D-01 BMatC= 3.35D-07 BMatP= 1.69D-07
 IDIUse=1 WtCom= 1.00D+00 WtEn= 0.00D+00
 Coeff-Com: -0.276D-01 0.603D+00 0.424D+00
 Coeff:     -0.276D-01 0.603D+00 0.424D+00
 Gap=     0.205 Goal=   None    Shift=    0.000
 RMSDP=1.02D-06 MaxDP=7.21D-05 DE= 1.12D-07 OVMax= 1.22D-04

 Cycle   4  Pass 1  IDiag  1:
 E= -400.143653098408     Delta-E=       -0.000000234948 Rises=F Damp=F
 DIIS: error= 4.74D-06 at cycle   4 NSaved=   4.
 NSaved= 4 IEnMin= 4 EnMin= -400.143653098408     IErMin= 4 ErrMin= 4.74D-06
 ErrMax= 4.74D-06  0.00D+00 EMaxC= 1.00D-01 BMatC= 5.48D-09 BMatP= 1.69D-07
 IDIUse=1 WtCom= 1.00D+00 WtEn= 0.00D+00
 Coeff-Com: -0.115D-01 0.208D+00 0.184D+00 0.619D+00
 Coeff:     -0.115D-01 0.208D+00 0.184D+00 0.619D+00
 Gap=     0.205 Goal=   None    Shift=    0.000
 RMSDP=2.34D-07 MaxDP=1.45D-05 DE=-2.35D-07 OVMax= 4.36D-05

 Cycle   5  Pass 1  IDiag  1:
 E= -400.143653101445     Delta-E=       -0.000000003037 Rises=F Damp=F
 DIIS: error= 3.37D-06 at cycle   5 NSaved=   5.
 NSaved= 5 IEnMin= 5 EnMin= -400.143653101445     IErMin= 5 ErrMin= 3.37D-06
 ErrMax= 3.37D-06  0.00D+00 EMaxC= 1.00D-01 BMatC= 2.04D-09 BMatP= 5.48D-09
 IDIUse=1 WtCom= 1.00D+00 WtEn= 0.00D+00
 Coeff-Com: -0.433D-02 0.698D-01 0.743D-01 0.413D+00 0.447D+00
 Coeff:     -0.433D-02 0.698D-01 0.743D-01 0.413D+00 0.447D+00
 Gap=     0.205 Goal=   None    Shift=    0.000
 RMSDP=1.06D-07 MaxDP=5.85D-06 DE=-3.04D-09 OVMax= 1.97D-05

 Cycle   6  Pass 1  IDiag  1:
 E= -400.143653103365     Delta-E=       -0.000000001920 Rises=F Damp=F
 DIIS: error= 3.69D-07 at cycle   6 NSaved=   6.
 NSaved= 6 IEnMin= 6 EnMin= -400.143653103365     IErMin= 6 ErrMin= 3.69D-07
 ErrMax= 3.69D-07  0.00D+00 EMaxC= 1.00D-01 BMatC= 5.62D-11 BMatP= 2.04D-09
 IDIUse=1 WtCom= 1.00D+00 WtEn= 0.00D+00
 Coeff-Com: -0.495D-03 0.228D-02 0.843D-02 0.106D+00 0.193D+00 0.690D+00
 Coeff:     -0.495D-03 0.228D-02 0.843D-02 0.106D+00 0.193D+00 0.690D+00
 Gap=     0.205 Goal=   None    Shift=    0.000
 RMSDP=2.08D-08 MaxDP=8.80D-07 DE=-1.92D-09 OVMax= 3.10D-06

 Cycle   7  Pass 1  IDiag  1:
[...]
   A11        2.15335  -0.00000   0.00000   0.00001   0.00001   2.15336
   A12        2.02127   0.00000   0.00000   0.00001   0.00001   2.02128
   A13        2.10857  -0.00000   0.00000  -0.00002  -0.00002   2.10855
   A14        2.08848  -0.00000   0.00000  -0.00002  -0.00002   2.08846
   A15        2.09360   0.00000   0.00000   0.00002   0.00002   2.09362
   A16        2.10110   0.00000   0.00000   0.00001   0.00001   2.10111
   A17        2.05673   0.00000   0.00000   0.00001   0.00001   2.05673
   A18        2.10431  -0.00000   0.00000  -0.00002  -0.00002   2.10429
   A19        2.12215   0.00000   0.00000   0.00001   0.00001   2.12216
   A20        2.78815  -0.00001   0.00000  -0.00043  -0.00043   2.78772
   A21        2.25991  -0.00001   0.00000  -0.00020  -0.00020   2.25971
   A22        2.12834   0.00001   0.00000   0.00218   0.00218   2.13052
   A23        1.86591  -0.00001   0.00000  -0.00006  -0.00006   1.86585
   A24        1.30158   0.00000   0.00000  -0.00036  -0.00036   1.30122
   A25        2.51608  -0.00000   0.00000  -0.00046  -0.00046   2.51562
    D1        0.00957  -0.00000   0.00000  -0.00020  -0.00020   0.00937
    D2       -3.13194  -0.00000   0.00000  -0.00018  -0.00018  -3.13212
    D3        0.07675   0.00000   0.00000  -0.00043  -0.00043   0.07633
    D4       -0.00394   0.00000   0.00000   0.00017   0.00017  -0.00378
    D5       -3.13891   0.00000   0.00000   0.00001   0.00001  -3.13890
    D6        0.00260   0.00000   0.00000  -0.00001  -0.00001   0.00260
    D7       -0.01013  -0.00000   0.00000   0.00015   0.00015  -0.00998
    D8        3.13138  -0.00000   0.00000   0.00013   0.00013   3.13151
    D9       -0.00218  -0.00000   0.00000   0.00002   0.00002  -0.00216
   D10        3.13847   0.00000   0.00000   0.00006   0.00006   3.13854
   D11       -3.12662   0.00000   0.00000  -0.00017  -0.00017  -3.12679
   D12        0.01403   0.00000   0.00000  -0.00012  -0.00012   0.01391
   D13        0.00569   0.00000   0.00000  -0.00005  -0.00005   0.00564
   D14       -0.08093   0.00000   0.00000   0.00064   0.00064  -0.08029
   D15        3.13148  -0.00000   0.00000   0.00012   0.00012   3.13160
   D16        3.04486   0.00000   0.00000   0.00081   0.00081   3.04567
   D17        3.14009  -0.00000   0.00000  -0.00005  -0.00005   3.14004
   D18        0.00034  -0.00000   0.00000  -0.00005  -0.00005   0.00029
   D19       -0.00142  -0.00000   0.00000  -0.00003  -0.00003  -0.00145
   D20       -3.14117  -0.00000   0.00000  -0.00003  -0.00003  -3.14121
   D21       -0.00026   0.00000   0.00000   0.00006   0.00006  -0.00020
   D22       -3.14059  -0.00000   0.00000  -0.00000  -0.00000  -3.14059
   D23        3.13943   0.00000   0.00000   0.00007   0.00007   3.13949
   D24       -0.00090  -0.00000   0.00000   0.00000   0.00000  -0.00090
   D25        0.00056   0.00000   0.00000   0.00002   0.00002   0.00058
   D26        3.14112   0.00000   0.00000   0.00001   0.00001   3.14113
   D27       -3.14004  -0.00000   0.00000  -0.00003  -0.00003  -3.14008
   D28        0.00052  -0.00000   0.00000  -0.00004  -0.00004   0.00047
   D29        0.00067  -0.00000   0.00000  -0.00005  -0.00005   0.00061
   D30       -3.13988  -0.00000   0.00000  -0.00005  -0.00005  -3.13993
   D31        3.14099  -0.00000   0.00000   0.00001   0.00001   3.14100
   D32        0.00044   0.00000   0.00000   0.00002   0.00002   0.00046
   D33       -1.93376   0.00001   0.00000   0.00074   0.00074  -1.93302
   D34       -0.00119  -0.00000   0.00000  -0.00008  -0.00008  -0.00127
   D35        1.54476   0.00000   0.00000   0.00107   0.00107   1.54583
   D36        2.19227   0.00001   0.00000   0.00166   0.00166   2.19393
         Item               Value     Threshold  Converged?
 Maximum Force            0.000013     0.000450     YES
 RMS     Force            0.000005     0.000300     YES
 Maximum Displacement     0.002602     0.001800     NO 
 RMS     Displacement     0.000443     0.001200     YES
 Predicted change in Energy=-5.865252D-08
 GradGradGradGradGradGradGradGradGradGradGradGradGradGradGradGradGradGrad

 Leave Link  103 at Fri Aug 27 00:35:36 2021, MaxMem= 17179869184 cpu:        98.9
 (Enter /public3/home/sc51754/softwares/g09e01/l9999.exe)
 1\1\GINC-S1512\Freq\RB3LYP\Gen\C5H7N1O2\SC51754\27-Aug-2021\0\\#P Geom
 =AllCheck Guess=TCheck SCRF=Check GenChk RB3LYP/ChkBas Freq\\HY_H2O_B3
 LYP_PC2_OPT_FREQ\\0,1\O,1.2166543159,1.4458059834,0.0013261498\N,0.305
 0247904,-0.6681871767,-0.0013446908\C,0.1375966686,0.6536923373,0.0025
 771544\C,-1.1290109827,1.2543248654,0.0078960684\C,-0.7849212011,-1.44
 71717279,-0.0031952964\C,-2.2379132229,0.435739948,0.0073444962\C,-2.0
 732310472,-0.9508761551,0.0012640644\H,2.0306496272,0.8962697181,-0.01
 14307829\H,-1.2043965684,2.3312926422,0.0105149724\H,-0.6016206515,-2.
 5146657991,-0.0094243101\H,-3.2291479351,0.8690221712,0.0104262331\H,-
 2.919862351,-1.621022244,-0.0009172139\O,3.0926026378,-0.5774019335,-0
 .084118767\H,3.5979404339,-0.8774533522,0.6752887274\H,2.2121224862,-1
 .0031972773,-0.0267648051\\Version=EM64L-G09RevE.01\State=1-A\HF=-400.
 1436575\RMSD=2.430e-09\RMSF=1.030e-05\ZeroPoint=0.1185662\Thermal=0.12
 64466\Dipole=-0.7121805,-0.5330565,0.5224951\DipoleDeriv=-1.5275736,-0
 .502796,-0.0050018,-0.4237664,-0.6571834,0.0017095,-0.0061957,0.002622
 7,-0.3453551,-0.8796231,0.1090247,-0.0023839,-0.3559649,-0.5687403,-0.
 0004514,-0.009745,0.0034446,-0.2431689,1.5116275,0.7310227,0.0009315,0
 .5824665,0.6291481,-0.001279,-0.0033799,-0.0016752,0.1990992,-0.525955
 ,-0.3788425,-0.0015917,0.1054299,0.0114441,-0.0000553,0.0036725,-0.000
 7999,-0.1493027,0.4900605,-0.2409019,-0.0007969,0.2083957,0.3286598,0.
 0058073,-0.0015018,0.0044043,-0.0163806,0.245675,0.0904623,-0.0001359,
 0.044378,0.4092932,0.001788,-0.0001068,0.001655,-0.0886481,-0.2036669,
 0.2935526,0.0006608,0.0584827,-0.3549815,-0.0009992,0.0026015,-0.00054
 71,-0.1601384,0.7498677,-0.135751,0.0018207,-0.3169297,0.3681547,-0.00
 84086,0.000116,-0.0094791,0.2728141,0.0707077,0.0063842,-0.0000642,0.0
 090788,-0.0398386,-0.0005562,0.0005305,-0.0000931,0.1492034,0.059465,0
 .026651,-0.0002376,-0.015906,-0.0996732,-0.0009233,-0.0007727,-0.00075
 93,0.1091835,-0.0518164,0.0596022,0.0003904,0.0617627,0.0578254,-0.000
 3587,-0.0000628,-0.0003999,0.1243474,-0.022009,-0.0724517,-0.0003748,-
 0.0712252,0.0059657,-0.0004428,-0.0002844,-0.0007557,0.1522169,-1.1570
 889,0.1513422,0.0028731,0.1559527,-0.5825375,-0.1167472,0.0475617,-0.1
 000534,-0.4117735,0.3212946,-0.0136238,-0.0132169,0.012704,0.2727208,0
 .0727155,-0.0390418,0.0594471,0.1995132,0.919035,-0.1236751,0.0171271,
 -0.0548588,0.2197426,0.0482015,0.0066086,0.0429889,0.2083897\Polar=98.
 6680785,2.2807024,84.6423241,1.025192,-0.1758305,44.6085739\PG=C01 [X(
 C5H7N1O2)]\NImag=0\\0.61168664,-0.05078860,0.41136188,-0.00582588,0.00
 340269,0.03969860,0.01373475,-0.05166762,0.00000738,0.48153256,-0.0236
 7198,-0.06274500,-0.00025053,0.11160419,0.61279873,0.00006643,-0.00002
 529,0.00691392,0.00005855,0.00177016,0.09243039,-0.25405692,-0.0724889
 0,0.00132824,-0.15796834,0.02165010,-0.00000814,0.73549943,-0.11117031
 ,-0.17401032,0.00028140,0.05103859,-0.29936789,-0.00083080,0.01262573,
 0.67552885,0.00031565,-0.00056592,-0.05210720,0.00030670,-0.00058847,-
 0.07177879,-0.00172025,0.00152357,0.18850935,-0.06690419,0.00598378,0.
 00012546,0.02940058,0.07956535,0.00033021,-0.24190021,0.03766588,0.000
 57532,0.66710546,-0.03074729,0.01735283,0.00017832,0.03291578,-0.02941
 513,-0.00021727,0.10432414,-0.16370903,-0.00059466,0.03140459,0.765860
 27,0.00030242,0.00018258,0.00978964,-0.00006924,-0.00023332,0.01886230
 ,0.00074777,-0.00061499,-0.07702371,-0.00115239,0.00170387,0.12353911,
 -0.00908426,0.00883732,-0.00002190,-0.26418288,-0.08695444,0.00012411,
 0.05016165,-0.08352308,-0.00039709,-0.06928087,-0.00148176,0.00011695,
 0.66811880,0.00138903,0.00089036,-0.00004173,-0.11089869,-0.19262827,-
 0.00035253,-0.02825998,-0.07241380,-0.00013375,-0.01108819,-0.00055060
 ,0.00000386,-0.03279743,0.75532100,0.00004841,-0.00002281,0.01005913,-
 0.00020166,-0.00057295,-0.06286202,-0.00023241,-0.00008858,-0.00330196
 ,0.00005795,0.00005089,-0.00485497,-0.00094106,0.00303214,0.15678064,0
 .00328953,0.00373367,0.00008307,-0.00925174,-0.02379328,-0.00011483,-0
 .05850461,0.00636520,0.00017519,-0.28493568,-0.14045813,-0.00004688,0.
 01997475,0.03879281,0.00018036,0.74611711,0.01665621,-0.00521478,0.000
 00284,-0.03235268,-0.06255907,-0.00018526,-0.04508667,0.07339719,0.000
 32765,-0.08191544,-0.21597221,-0.00026467,0.08902171,-0.01333306,-0.00
 024224,-0.01937052,0.66837551,0.00004506,-0.00001761,0.00436735,-0.000
 07262,-0.00016704,-0.00729415,-0.00003778,0.00026568,0.00219637,0.0001
 0544,-0.00024218,-0.05847311,0.00029963,-0.00012820,0.00821274,-0.0011
 4336,0.00200459,0.14443489,0.00322892,-0.00619871,-0.00000372,-0.07070
 980,-0.05482920,-0.00010621,-0.03015413,0.04868356,0.00016828,0.045195
 72,-0.02638642,-0.00012221,-0.30686008,0.10838665,0.00087589,-0.132832
 24,-0.00843635,0.00006822,0.72640037,-0.01207267,-0.00005886,-0.000042
 80,0.00420679,0.06008754,0.00020465,0.03661921,-0.04385801,-0.00021859
 ,-0.06426524,-0.03663596,-0.00002542,0.04257866,-0.16619451,-0.0005749
 5,0.05355253,-0.31585085,-0.00116497,0.05038972,0.68377912,-0.00002262
 ,0.00002463,-0.00132284,0.00004939,0.00023307,0.02149238,0.00016703,-0
 .00024013,-0.00844761,-0.00026883,-0.00015887,0.00740055,0.00059271,-0
 .00064105,-0.06810146,0.00027598,-0.00113126,-0.06349080,-0.00062957,0
 .00252709,0.12294684,-0.28538900,0.15527024,0.00413761,0.00196935,0.00
 920859,-0.00011085,-0.05178255,0.00554278,0.00044385,0.00309968,-0.002
 76703,-0.00002362,0.00030695,0.00020652,-0.00003090,-0.00158887,-0.000
 76370,0.00001871,0.00051690,0.00172712,0.00001911,0.32650443,0.1935275
 0,-0.18234776,-0.00374922,0.00235474,-0.00217382,0.00003857,-0.0195679
 2,0.02594539,0.00046320,-0.00799205,-0.00413251,0.00002312,-0.00187329
 ,-0.00156721,-0.00002084,0.00034585,0.00335939,-0.00002105,0.00113644,
 -0.00213006,-0.00000029,-0.15774637,0.16854187,0.00551731,-0.00368391,
 -0.01743495,-0.00013684,0.00004853,-0.00265901,-0.00029453,-0.00010220
 ,-0.00108624,0.00005469,-0.00003507,0.00367229,0.00003466,-0.00000634,
 -0.00064627,-0.00005052,-0.00004093,0.00154312,-0.00002042,0.00003511,
 0.00038054,-0.00470125,0.00476882,0.02320409,0.00178633,-0.00072551,-0
 .00001349,-0.00600369,0.00487615,0.00002885,0.00467163,0.02860005,0.00
 005752,-0.06094170,0.02178445,0.00012859,-0.00197512,-0.00129587,-0.00
 000127,0.00725545,-0.02674811,-0.00007416,-0.00373641,-0.00266815,0.00
 001577,-0.00014799,0.00010138,-0.00000713,0.05706053,-0.00060752,0.001
 16073,0.00001374,0.00281120,-0.00002778,-0.00002284,-0.00326915,-0.010
 78177,-0.00001413,0.02385434,-0.34138587,-0.00076995,0.00046394,0.0010
 1653,0.00000863,0.00307082,-0.01256785,-0.00004449,-0.00340198,0.00095
 774,-0.00000442,0.00024711,-0.00003492,0.00000168,-0.02312714,0.361308
 97,-0.00001190,-0.00000723,-0.00192949,0.00005000,-0.00006070,0.005585
 06,-0.00005323,-0.00008848,0.00228870,0.00015942,-0.00068064,-0.034168
 36,0.00002879,0.00001726,-0.00034723,-0.00001527,-0.00002994,0.0021146
 0,-0.00000493,-0.00001795,0.00862992,-0.00000589,0.00000788,-0.0006651
 4,-0.00012375,0.00083132,0.02422104,-0.00029615,-0.00122727,0.00000242
 ,0.00230997,-0.03383054,-0.00017958,-0.00254627,-0.00379243,0.00000917
 ,-0.00062769,-0.00071996,-0.00000266,-0.06944735,0.05766126,0.00031468
 ,-0.00562289,0.00150192,0.00002725,0.00087318,0.02895177,0.00015846,0.
 00040107,-0.00014778,-0.00000195,0.00017430,-0.00001352,-0.00000375,0.
 07416353,-0.00030843,-0.00111749,0.00000020,-0.00716158,-0.02145830,-0
 .00008848,-0.00227366,0.00171642,-0.00007820,0.00004533,0.00047593,0.0
 0000909,0.05606766,-0.31815867,-0.00157904,0.00247261,0.00072767,-0.00
 005076,-0.00037580,-0.00690569,-0.00007434,0.00035956,-0.00001202,-0.0
 0000454,0.00009571,-0.00009751,0.00000985,-0.04917649,0.34491519,-0.00
 000896,-0.00000102,0.00035455,0.00001755,0.00004774,-0.00321285,0.0000
 4122,-0.00003272,0.00985312,-0.00001635,0.00001115,-0.00064021,0.00026
 739,-0.00174652,-0.04158153,0.00002328,-0.00000638,0.00748589,0.000033
 59,-0.00009854,0.00703649,-0.00000507,-0.00000499,-0.00018402,-0.00000
 583,0.00000254,-0.00158565,-0.00029153,0.00182325,0.02660887,-0.001639
 40,0.00074961,0.00001385,0.00019743,-0.00064776,-0.00000685,-0.0012315
 3,-0.00386129,0.00000121,-0.01881318,0.01221945,0.00007434,0.00182355,
 0.00059515,0.00000574,-0.29245981,0.10123804,0.00075371,0.00088364,-0.
 00036277,0.00000166,0.00001602,-0.00038550,-0.00000652,0.00112099,-0.0
 0018286,-0.00001167,-0.00008601,-0.00014519,-0.00000127,0.30963459,-0.
 00090192,0.00064618,0.00001174,-0.00078903,-0.00034077,0.00000981,-0.0
 0354386,-0.00180036,-0.00003031,-0.01809175,0.01195970,0.00004230,-0.0
 0014571,-0.00645766,-0.00005809,0.10187368,-0.10520792,-0.00038101,0.0
 2998867,-0.00633987,-0.00008501,-0.00018734,-0.00021444,-0.00000055,0.
 00060456,0.00085196,0.00001640,0.00153597,-0.00043990,0.00000022,-0.10
 969044,0.10611550,-0.00001614,-0.00001079,-0.00041021,0.00000085,0.000
 01145,-0.00299254,0.00001913,-0.00001749,0.00994090,-0.00000871,0.0000
 2651,0.00538607,0.00000467,-0.00006720,0.00727622,0.00071918,-0.000368
 53,-0.04204754,0.00013333,-0.00005927,0.00499110,-0.00000074,-0.000002
 17,-0.00042817,-0.00001104,0.00000937,-0.00470603,0.00000488,-0.000000
 36,-0.00044889,-0.00082979,0.00045346,0.02697669,0.00031475,-0.0003719
 2,-0.00000082,-0.00524701,0.00253688,0.00002834,-0.00035801,0.00205744
 ,0.00000523,0.00117645,0.00155502,0.00000709,-0.01643886,-0.02204476,-
 0.00009100,0.00793971,0.00478498,0.00001700,-0.23374373,-0.13712776,-0
 .00039880,0.00006664,0.00021413,-0.00000365,0.00027031,0.00036131,-0.0
 0000023,0.00071255,0.00037921,-0.00000158,0.00062742,-0.00059900,-0.00
 000595,0.24457497,-0.00030823,0.00041715,0.00000732,0.00332529,0.00060
 687,-0.00004491,0.00137239,-0.00134973,-0.00000798,0.00230881,-0.00486
 625,-0.00005463,0.01037973,0.01140874,0.00004416,-0.02619586,-0.013792
 32,-0.00004012,-0.13785297,-0.16734915,-0.00047755,0.00002761,-0.00011
 686,0.00000112,-0.00126629,-0.00052880,-0.00000041,-0.00061428,0.00051
 072,0.00002151,0.00036954,0.00117742,0.00002150,0.14848038,0.17377072,
 -0.00001247,-0.00000150,-0.00127588,0.00004047,-0.00004111,0.00824081,
 0.00001021,-0.00000332,0.00029312,0.00002220,-0.00004170,0.00633377,0.
 00006912,0.00009445,-0.00053476,-0.00011570,-0.00005735,0.00103054,-0.
 00043506,-0.00052423,-0.03196034,0.00000476,-0.00000145,-0.00002323,-0
 .00000762,-0.00000364,0.00054744,-0.00000890,0.00002729,-0.00353439,-0
 .00000234,0.00002192,-0.00350059,0.00043844,0.00052855,0.02432406,-0.0
 0793857,0.01063876,0.00009337,-0.01857580,-0.00292644,-0.00069055,0.00
 006444,-0.00161894,0.00012820,-0.00058367,0.00060784,0.00009861,-0.000
 11656,0.00574323,0.00002262,-0.00018039,-0.00021117,-0.00001589,-0.001
 91486,-0.00076597,0.00008649,-0.00160059,-0.00681123,-0.00005179,-0.00
 029550,0.00019675,0.,-0.00019054,-0.00062546,-0.00004701,-0.00017995,0
 .00001589,-0.00001351,-0.00057488,0.00010867,0.00000672,0.54562506,0.0
 2015441,-0.00502263,0.00168529,-0.00150748,0.00726481,-0.00038259,-0.0
 1095982,-0.00984324,-0.00009312,0.00340428,0.00191666,-0.00011052,0.00
 118372,0.00038016,-0.00001922,-0.00053308,-0.00160654,-0.00001928,-0.0
 0045641,0.00130319,0.00002414,-0.00992907,0.00323392,-0.00514012,-0.00
 046400,0.00018409,-0.00000565,0.00029699,0.00012335,-0.00001408,0.0001
 3540,0.00007957,0.00001480,-0.00004578,0.00008036,0.00000303,0.0943593
 1,0.18054673,-0.00150474,0.00223189,0.00488179,-0.00160080,0.00009517,
 0.00596456,-0.00007063,-0.00049081,-0.00065081,0.00006295,0.00005029,-
 0.00066488,0.00003900,-0.00004400,0.00016035,-0.00002856,-0.00008906,0
 .00006853,-0.00003497,0.00008320,-0.00053348,0.00095956,-0.00294692,-0
 .00898353,0.00000033,0.00000208,0.00000747,0.00003125,0.00000970,0.000
 17126,0.00000820,0.00000436,0.00007911,-0.00000792,-0.00000359,-0.0000
 6390,0.18788475,-0.16549411,0.37239412,0.00109517,0.00032218,0.0004933
 6,-0.00175310,-0.00061241,0.00171399,-0.00072986,-0.00046962,-0.000258
 97,0.00017292,0.00005037,-0.00018024,-0.00051145,0.00022710,0.00001725
 ,-0.00000859,-0.00004748,0.00002536,-0.00000844,-0.00011264,-0.0001582
 5,-0.00160082,0.00062686,-0.00095060,0.00000541,0.00001121,-0.00000199
 ,-0.00005541,-0.00003852,0.00005297,0.00002009,-0.00000414,0.00002364,
 -0.00001676,0.00001743,-0.00001487,-0.16608789,0.05348439,-0.18628700,
 0.18574382,0.00203657,-0.00198830,-0.00139908,-0.00122647,0.00030161,0
 .00034368,-0.00016918,-0.00058786,0.00007071,0.00009670,0.00009558,0.0
 0006375,0.00007937,0.00037646,-0.00000689,0.00001485,-0.00002520,0.000
 01220,-0.00008910,-0.00005543,-0.00001027,-0.00110025,0.00282411,0.003
 87686,-0.00001993,0.00001122,0.00000515,-0.00005279,-0.00006995,-0.000
 01468,0.00000969,0.00000054,-0.00001012,-0.00003076,0.00000505,0.00000
 108,0.08119468,-0.07123371,0.14483605,-0.07032388,0.06476343,0.0021525
 0,-0.00182739,-0.00024333,0.00122471,0.00002260,-0.00012540,-0.0004847
 8,-0.00010252,0.00004836,0.00012202,-0.00000323,0.00000238,-0.00002396
 ,-0.00006343,0.00000661,0.00001440,-0.00000153,-0.00000612,0.00007446,
 0.00000679,-0.00000141,-0.00170940,0.00266971,0.00043402,0.00000193,-0
 .00000030,0.00001014,-0.00002388,0.00001653,0.00001819,0.00000736,-0.0
 0000227,0.00000483,0.00002067,0.00000455,0.00000852,-0.22700395,0.1280
 5490,-0.33148454,0.22085965,-0.13081839,0.33182913,-0.00982759,-0.0020
 6703,-0.00041895,0.00454771,-0.00217520,-0.00113348,0.00883528,0.01185
 643,0.00018996,-0.00216364,-0.00230104,0.00012148,-0.00248828,-0.00661
 683,-0.00002459,0.00080827,0.00172925,-0.00001656,0.00286097,-0.000650
 59,0.00011149,0.00922878,-0.00378277,0.00061855,0.00075545,-0.00041451
 ,-0.00000560,0.00023770,0.00068505,-0.00005840,0.00008614,-0.00006558,
 -0.00001979,0.00069644,-0.00015223,0.00000504,-0.34745031,-0.14912287,
 0.00054857,-0.01626508,-0.01041951,0.00476829,0.35013817,-0.00318677,0
 .00067601,-0.00010019,-0.00265305,-0.01034353,-0.00021688,0.00902757,0
 .00113416,-0.00006001,-0.00097640,-0.00099342,0.00004493,-0.00183640,0
 .00191052,0.00004979,0.00012887,0.00027003,-0.00000575,-0.00055811,-0.
 00074922,0.00001428,-0.00009576,-0.01117507,0.00028153,0.00025269,-0.0
 0006676,0.00000313,-0.00037286,-0.00020976,0.00001254,-0.00004106,-0.0
 0002995,-0.00000118,-0.00014937,0.00002609,-0.00000203,-0.17990593,-0.
 10740673,0.02175575,0.01686914,0.00558244,0.00204397,0.16349744,0.1213
 7517,-0.00104506,0.00032167,-0.00134108,0.00032556,-0.00031460,-0.0085
 6464,0.00058816,0.00054140,0.00126639,-0.00016938,-0.00004743,0.000839
 13,-0.00019301,0.00007705,-0.00026551,0.00004368,0.00008207,-0.0001422
 9,0.00000332,-0.00013013,0.00098011,0.00100412,-0.00122436,0.00287651,
 0.00001129,-0.00000957,-0.00000244,-0.00003585,-0.00002019,-0.00034082
 ,-0.00000765,-0.00000299,-0.00012095,-0.00000682,0.00000048,0.00011482
 ,0.03950194,0.04149653,-0.04134604,-0.03533429,-0.01695004,-0.00050137
 ,-0.00468601,-0.02381990,0.04654820\\0.00000287,0.00001289,-0.00000233
 ,0.00001089,-0.00001461,-0.00000310,0.00000718,0.00002268,-0.00000183,
 -0.00000954,-0.00000730,-0.00000139,-0.00000459,0.00000382,0.00000433,
 0.00000697,0.00000065,0.00000575,0.00000512,-0.00000514,-0.00000381,-0
 .00000989,-0.00003540,0.00001422,0.00000181,-0.00000066,-0.00000096,0.
 00000230,-0.00000042,-0.00000264,0.00000002,-0.00000027,-0.00000068,-0
 .00000023,-0.00000021,-0.00000076,-0.00000933,-0.00002274,0.00000039,-
 0.00000316,0.00002089,-0.00000659,-0.00000041,0.00002583,-0.00000060\\
 \@


 THERE IS NOTHING NOBLE IN BEING SUPERIOR TO SOME OTHER MAN.
 TRUE NOBILITY IS BEING SUPERIOR TO YOUR FORMER SELF.

                                                   -- HINDU PROVERB
 Job cpu time:       0 days  1 hours  3 minutes  1.3 seconds.
 File lengths (MBytes):  RWF=    137 Int=      0 D2E=      0 Chk=      9 Scr=      1
 Normal termination of Gaussian 09 at Fri Aug 27 00:35:36 2021.
