 Entering Gaussian System, Link 0=g09
 AtFile(1): aug-pc-3.gbs
            -H     0
            S    5   1.00
                  0.774690D+03           0.131630D-02
                  0.116160D+03           0.102260D-01
                  0.264490D+02           0.536290D-01
                  0.750150D+01           0.222850D+00
                  0.245680D+01           0.753740D+00
            S    1   1.00
                  0.887740D+00           0.100000D+01
            S    1   1.00
                  0.340850D+00           0.100000D+01
            S    1   1.00
                  0.134770D+00           0.100000D+01
            S    1   1.00
                  0.522630D-01           0.100000D+01
            S    1   1.00
                  0.188000D-01           0.100000D+01
            P    1   1.00
                  0.650000D+01           0.100000D+01
            P    1   1.00
                  0.155000D+01           0.100000D+01
            P    1   1.00
                  0.550000D+00           0.100000D+01
            P    1   1.00
                  0.200000D+00           0.100000D+01
            P    1   1.00
                  0.563990D-01           0.100000D+01
            D    1   1.00
                  0.195000D+01           0.100000D+01
            D    1   1.00
                  0.650000D+00           0.100000D+01
            D    1   1.00
                  0.751990D-01           0.100000D+01
            F    1   1.00
                  0.220000D+01           0.100000D+01
            F    1   1.00
                  0.939990D-01           0.100000D+01
            ****
            -C     0
            S    9   1.00
                  0.871410D+05           0.281830D-04
                  0.130520D+05           0.218190D-03
                  0.297060D+04           0.115110D-02
                  0.841460D+03           0.478590D-02
                  0.274590D+03           0.171340D-01
                  0.992150D+02           0.511200D-01
                  0.386940D+02           0.128050D+00
                  0.159110D+02           0.227730D+00
                  0.676680D+01           0.247580D+00
            S    9   1.00
                  0.130520D+05           0.259300D-05
                  0.297060D+04          -0.309070D-05
                  0.841460D+03           0.122470D-03
                  0.274590D+03           0.254940D-03
                  0.992150D+02           0.512540D-02
                  0.386940D+02           0.219550D-01
                  0.159110D+02           0.141120D+00
                  0.676680D+01           0.413030D+00
                  0.289840D+01           0.827140D+00
            S    1   1.00
                  0.112460D+01           0.100000D+01
            S    1   1.00
                  0.514460D+00           0.100000D+01
            S    1   1.00
                  0.211760D+00           0.100000D+01
            S    1   1.00
                  0.850170D-01           0.100000D+01
            S    1   1.00
                  0.316050D-01           0.100000D+01
            P    5   1.00
                  0.148240D+03           0.507560D-03
                  0.349120D+02           0.421260D-02
                  0.108940D+02           0.213350D-01
                  0.419340D+01           0.623290D-01
                  0.171340D+01           0.166420D+00
            P    1   1.00
                  0.735660D+00           0.100000D+01
            P    1   1.00
                  0.316370D+00           0.100000D+01
            P    1   1.00
                  0.132420D+00           0.100000D+01
            P    1   1.00
                  0.519010D-01           0.100000D+01
            P    1   1.00
                  0.188730D-01           0.100000D+01
            D    1   1.00
                  0.520000D+01           0.100000D+01
            D    1   1.00
                  0.135000D+01           0.100000D+01
            D    1   1.00
                  0.520000D+00           0.100000D+01
            D    1   1.00
                  0.200000D+00           0.100000D+01
            D    1   1.00
                  0.566190D-01           0.100000D+01
            F    1   1.00
                  0.150000D+01           0.100000D+01
            F    1   1.00
                  0.650000D+00           0.100000D+01
            F    1   1.00
                  0.754920D-01           0.100000D+01
            G    1   1.00
                  0.140000D+01           0.100000D+01
            G    1   1.00
                  0.943650D-01           0.100000D+01
            ****
            -N     0
            S    9   1.00
                  0.124550D+06           0.266720D-04
                  0.186560D+05           0.206840D-03
                  0.424510D+04           0.108930D-02
                  0.120210D+04           0.454630D-02
                  0.392140D+03           0.162370D-01
                  0.141580D+03           0.489570D-01
                  0.551360D+02           0.123170D+00
                  0.226430D+02           0.224250D+00
                  0.965660D+01           0.238760D+00
            S    8   1.00
                  0.186560D+05           0.140880D-05
                  0.120210D+04           0.814390D-04
                  0.392140D+03           0.324390D-03
                  0.141580D+03           0.436210D-02
                  0.551360D+02           0.228380D-01
                  0.226430D+02           0.134620D+00
                  0.965660D+01           0.425010D+00
                  0.416850D+01           0.825170D+00
            S    1   1.00
                  0.166780D+01           0.100000D+01
            S    1   1.00
                  0.745740D+00           0.100000D+01
            S    1   1.00
                  0.305160D+00           0.100000D+01
            S    1   1.00
                  0.120890D+00           0.100000D+01
            S    1   1.00
                  0.444440D-01           0.100000D+01
            P    5   1.00
                  0.218290D+03           0.482810D-03
                  0.514880D+02           0.404200D-02
                  0.161300D+02           0.209460D-01
                  0.613070D+01           0.647570D-01
                  0.250520D+01           0.170420D+00
            P    1   1.00
                  0.107300D+01           0.100000D+01
            P    1   1.00
                  0.458380D+00           0.100000D+01
            P    1   1.00
                  0.189480D+00           0.100000D+01
            P    1   1.00
                  0.733590D-01           0.100000D+01
            P    1   1.00
                  0.263880D-01           0.100000D+01
            D    1   1.00
                  0.600000D+01           0.100000D+01
            D    1   1.00
                  0.165000D+01           0.100000D+01
            D    1   1.00
                  0.650000D+00           0.100000D+01
            D    1   1.00
                  0.250000D+00           0.100000D+01
            D    1   1.00
                  0.791640D-01           0.100000D+01
            F    1   1.00
                  0.180000D+01           0.100000D+01
            F    1   1.00
                  0.770000D+00           0.100000D+01
            F    1   1.00
                  0.105550D+00           0.100000D+01
            G    1   1.00
                  0.150000D+01           0.100000D+01
            G    1   1.00
                  0.131940D+00           0.100000D+01
            ****
            -O     0
            S    9   1.00
                  0.164030D+06           0.265210D-04
                  0.245670D+05           0.205710D-03
                  0.559100D+04           0.108270D-02
                  0.158360D+04           0.451900D-02
                  0.516670D+03           0.161350D-01
                  0.186560D+03           0.487160D-01
                  0.726960D+02           0.122680D+00
                  0.299920D+02           0.221890D+00
                  0.128990D+02           0.239040D+00
            S    8   1.00
                  0.245670D+05           0.133220D-05
                  0.158360D+04           0.802520D-04
                  0.516670D+03           0.345120D-03
                  0.186560D+03           0.444840D-02
                  0.726960D+02           0.236010D-01
                  0.299920D+02           0.138610D+00
                  0.128990D+02           0.428720D+00
                  0.561350D+01           0.848730D+00
            S    1   1.00
                  0.229860D+01           0.100000D+01
            S    1   1.00
                  0.999800D+00           0.100000D+01
            S    1   1.00
                  0.407460D+00           0.100000D+01
            S    1   1.00
                  0.159220D+00           0.100000D+01
            S    1   1.00
                  0.576900D-01           0.100000D+01
            P    5   1.00
                  0.272020D+03           0.549410D-03
                  0.642430D+02           0.458340D-02
                  0.202490D+02           0.235730D-01
                  0.764380D+01           0.743380D-01
                  0.312320D+01           0.187550D+00
            P    1   1.00
                  0.132510D+01           0.100000D+01
            P    1   1.00
                  0.555510D+00           0.100000D+01
            P    1   1.00
                  0.222290D+00           0.100000D+01
            P    1   1.00
                  0.840100D-01           0.100000D+01
            P    1   1.00
                  0.294770D-01           0.100000D+01
            D    1   1.00
                  0.700000D+01           0.100000D+01
            D    1   1.00
                  0.200000D+01           0.100000D+01
            D    1   1.00
                  0.800000D+00           0.100000D+01
            D    1   1.00
                  0.300000D+00           0.100000D+01
            D    1   1.00
                  0.884310D-01           0.100000D+01
            F    1   1.00
                  0.210000D+01           0.100000D+01
            F    1   1.00
                  0.900000D+00           0.100000D+01
            F    1   1.00
                  0.117910D+00           0.100000D+01
            G    1   1.00
                  0.160000D+01           0.100000D+01
            G    1   1.00
                  0.147390D+00           0.100000D+01
            ****
 Initial command:
 /public3/home/sc51754/softwares/g09e01/l1.exe "./Gau-37621.inp" -scrdir="./"
 Entering Link 1 = /public3/home/sc51754/softwares/g09e01/l1.exe PID=     37623.
  
 Copyright (c) 1988,1990,1992,1993,1995,1998,2003,2009,2015,
            Gaussian, Inc.  All Rights Reserved.
  
 This is part of the Gaussian(R) 09 program.  It is based on
 the Gaussian(R) 03 system (copyright 2003, Gaussian, Inc.),
 the Gaussian(R) 98 system (copyright 1998, Gaussian, Inc.),
 the Gaussian(R) 94 system (copyright 1995, Gaussian, Inc.),
 the Gaussian 92(TM) system (copyright 1992, Gaussian, Inc.),
 the Gaussian 90(TM) system (copyright 1990, Gaussian, Inc.),
 the Gaussian 88(TM) system (copyright 1988, Gaussian, Inc.),
 the Gaussian 86(TM) system (copyright 1986, Carnegie Mellon
 University), and the Gaussian 82(TM) system (copyright 1983,
 Carnegie Mellon University). Gaussian is a federally registered
 trademark of Gaussian, Inc.
  
 This software contains proprietary and confidential information,
 including trade secrets, belonging to Gaussian, Inc.
  
 This software is provided under written license and may be
 used, copied, transmitted, or stored only in accord with that
 written license.
  
 The following legend is applicable only to US Government
 contracts under FAR:
  
                    RESTRICTED RIGHTS LEGEND
  
 Use, reproduction and disclosure by the US Government is
 subject to restrictions as set forth in subparagraphs (a)
 and (c) of the Commercial Computer Software - Restricted
 Rights clause in FAR 52.227-19.
  
 Gaussian, Inc.
 340 Quinnipiac St., Bldg. 40, Wallingford CT 06492
  
  
 ---------------------------------------------------------------
 Warning -- This program may not be used in any manner that
 competes with the business of Gaussian, Inc. or will provide
 assistance to any competitor of Gaussian, Inc.  The licensee
 of this program is prohibited from giving any competitor of
 Gaussian, Inc. access to this program.  By using this program,
 the user acknowledges that Gaussian, Inc. is engaged in the
 business of creating and licensing software in the field of
 computational chemistry and represents and warrants to the
 licensee that it is not a competitor of Gaussian, Inc. and that
 it will not use this program in any manner prohibited above.
 ---------------------------------------------------------------
  

 Cite this work as:
 Gaussian 09, Revision E.01,
 M. J. Frisch, G. W. Trucks, H. B. Schlegel, G. E. Scuseria, 
 M. A. Robb, J. R. Cheeseman, G. Scalmani, V. Barone, B. Mennucci, 
 G. A. Petersson, H. Nakatsuji, M. Caricato, X. Li, H. P. Hratchian, 
 A. F. Izmaylov, J. Bloino, G. Zheng, J. L. Sonnenberg, M. Hada, 
 M. Ehara, K. Toyota, R. Fukuda, J. Hasegawa, M. Ishida, T. Nakajima, 
 Y. Honda, O. Kitao, H. Nakai, T. Vreven, J. A. Montgomery, Jr., 
 J. E. Peralta, F. Ogliaro, M. Bearpark, J. J. Heyd, E. Brothers, 
 K. N. Kudin, V. N. Staroverov, T. Keith, R. Kobayashi, J. Normand, 
 K. Raghavachari, A. Rendell, J. C. Burant, S. S. Iyengar, J. Tomasi, 
 M. Cossi, N. Rega, J. M. Millam, M. Klene, J. E. Knox, J. B. Cross, 
 V. Bakken, C. Adamo, J. Jaramillo, R. Gomperts, R. E. Stratmann, 
 O. Yazyev, A. J. Austin, R. Cammi, C. Pomelli, J. W. Ochterski, 
 R. L. Martin, K. Morokuma, V. G. Zakrzewski, G. A. Voth, 
 P. Salvador, J. J. Dannenberg, S. Dapprich, A. D. Daniels, 
 O. Farkas, J. B. Foresman, J. V. Ortiz, J. Cioslowski, 
 and D. J. Fox, Gaussian, Inc., Wallingford CT, 2013.
 
 ******************************************
 Gaussian 09:  EM64L-G09RevE.01 30-Nov-2015
                26-Aug-2021 
 ******************************************
 %nprocshared=64
 Will use up to   64 processors via shared memory.
 %mem=128GB
 %chk=PY_aug-pc-3_B3LYP_OPT_FREQ.chk
 ----------------------------------------------------------
 #p opt freq b3lyp/gen SCF(novaracc,noincfock) int=acc2e=12
 ----------------------------------------------------------
 1/14=-1,18=20,19=15,26=3,38=1/1,3;
 2/9=110,12=2,17=6,18=5,40=1/2;
 3/5=7,11=2,16=1,25=1,30=1,71=1,74=-5/1,2,3;
 4//1;
 5/5=100002,38=1,87=12/2;
 6/7=2,8=2,9=2,10=2,28=1/1;
 7/87=12/1,2,3,16;
 1/14=-1,18=20,19=15,26=3/3(2);
 2/9=110/2;
 99//99;
 2/9=110/2;
 3/5=7,6=1,11=2,16=1,25=1,30=1,71=1,74=-5,82=7/1,2,3;
 4/5=5,16=3,69=1/1;
 5/5=100002,38=1,87=12/2;
 7/87=12/1,2,3,16;
 1/14=-1,18=20,19=15,26=3/3(-5);
 2/9=110/2;
 6/7=2,8=2,9=2,10=2,19=2,28=1/1;
 99/9=1/99;
 Leave Link    1 at Thu Aug 26 21:29:46 2021, MaxMem= 17179869184 cpu:         3.3
 (Enter /public3/home/sc51754/softwares/g09e01/l101.exe)
 --------------------------
 PY_aug-pc-3_B3LYP_OPT_FREQ
 --------------------------
 Symbolic Z-matrix:
 Charge =  0 Multiplicity = 1
 O                     2.282    -0.023     0. 
 N                     0.285    -1.189     0. 
 C                     1.054    -0.034     0. 
 C                     0.288     1.248     0. 
 C                    -1.088    -1.185     0. 
 C                    -1.052     1.217     0. 
 C                    -1.77     -0.034     0. 
 H                     0.753    -2.09      0. 
 H                     0.841     2.179     0. 
 H                    -1.569    -2.154     0. 
 H                    -1.628     2.135     0. 
 H                    -2.853    -0.016     0. 
 
 NAtoms=     12 NQM=       12 NQMF=       0 NMMI=      0 NMMIF=      0
                NMic=       0 NMicF=      0.
                    Isotopes and Nuclear Properties:
 (Nuclear quadrupole moments (NQMom) in fm**2, nuclear magnetic moments (NMagM)
  in nuclear magnetons)

  Atom         1           2           3           4           5           6           7           8           9          10
 IAtWgt=          16          14          12          12          12          12          12           1           1           1
 AtmWgt=  15.9949146  14.0030740  12.0000000  12.0000000  12.0000000  12.0000000  12.0000000   1.0078250   1.0078250   1.0078250
 NucSpn=           0           2           0           0           0           0           0           1           1           1
 AtZEff=   0.0000000   0.0000000   0.0000000   0.0000000   0.0000000   0.0000000   0.0000000   0.0000000   0.0000000   0.0000000
 NQMom=    0.0000000   2.0440000   0.0000000   0.0000000   0.0000000   0.0000000   0.0000000   0.0000000   0.0000000   0.0000000
 NMagM=    0.0000000   0.4037610   0.0000000   0.0000000   0.0000000   0.0000000   0.0000000   2.7928460   2.7928460   2.7928460
 AtZNuc=   8.0000000   7.0000000   6.0000000   6.0000000   6.0000000   6.0000000   6.0000000   1.0000000   1.0000000   1.0000000

  Atom        11          12
 IAtWgt=           1           1
 AtmWgt=   1.0078250   1.0078250
 NucSpn=           1           1
 AtZEff=   0.0000000   0.0000000
 NQMom=    0.0000000   0.0000000
 NMagM=    2.7928460   2.7928460
 AtZNuc=   1.0000000   1.0000000
 Leave Link  101 at Thu Aug 26 21:29:46 2021, MaxMem= 17179869184 cpu:         8.0
 (Enter /public3/home/sc51754/softwares/g09e01/l103.exe)

 GradGradGradGradGradGradGradGradGradGradGradGradGradGradGradGradGradGrad
 Berny optimization.
 Initialization pass.
                           ----------------------------
                           !    Initial Parameters    !
                           ! (Angstroms and Degrees)  !
 --------------------------                            --------------------------
 ! Name  Definition              Value          Derivative Info.                !
 --------------------------------------------------------------------------------
 ! R1    R(1,3)                  1.228          estimate D2E/DX2                !
 ! R2    R(2,3)                  1.3876         estimate D2E/DX2                !
 ! R3    R(2,5)                  1.373          estimate D2E/DX2                !
 ! R4    R(2,8)                  1.0153         estimate D2E/DX2                !
 ! R5    R(3,4)                  1.4934         estimate D2E/DX2                !
 ! R6    R(4,6)                  1.3404         estimate D2E/DX2                !
 ! R7    R(4,9)                  1.0829         estimate D2E/DX2                !
 ! R8    R(5,7)                  1.3379         estimate D2E/DX2                !
 ! R9    R(5,10)                 1.0818         estimate D2E/DX2                !
 ! R10   R(6,7)                  1.4424         estimate D2E/DX2                !
 ! R11   R(6,11)                 1.0837         estimate D2E/DX2                !
 ! R12   R(7,12)                 1.0831         estimate D2E/DX2                !
 ! A1    A(3,2,5)              123.4888         estimate D2E/DX2                !
 ! A2    A(3,2,8)              118.8959         estimate D2E/DX2                !
 ! A3    A(5,2,8)              117.6153         estimate D2E/DX2                !
 ! A4    A(1,3,2)              124.1689         estimate D2E/DX2                !
 ! A5    A(1,3,4)              120.3453         estimate D2E/DX2                !
 ! A6    A(2,3,4)              115.4858         estimate D2E/DX2                !
 ! A7    A(3,4,6)              119.5332         estimate D2E/DX2                !
 ! A8    A(3,4,9)              118.4318         estimate D2E/DX2                !
 ! A9    A(6,4,9)              122.0349         estimate D2E/DX2                !
 ! A10   A(2,5,7)              120.8149         estimate D2E/DX2                !
 ! A11   A(2,5,10)             116.2323         estimate D2E/DX2                !
 ! A12   A(7,5,10)             122.9528         estimate D2E/DX2                !
 ! A13   A(4,6,7)              121.1785         estimate D2E/DX2                !
 ! A14   A(4,6,11)             120.781          estimate D2E/DX2                !
 ! A15   A(7,6,11)             118.0405         estimate D2E/DX2                !
 ! A16   A(5,7,6)              119.4988         estimate D2E/DX2                !
 ! A17   A(5,7,12)             121.6001         estimate D2E/DX2                !
 ! A18   A(6,7,12)             118.9011         estimate D2E/DX2                !
 ! D1    D(5,2,3,1)            180.0            estimate D2E/DX2                !
 ! D2    D(5,2,3,4)              0.0            estimate D2E/DX2                !
 ! D3    D(8,2,3,1)              0.0            estimate D2E/DX2                !
 ! D4    D(8,2,3,4)            180.0            estimate D2E/DX2                !
 ! D5    D(3,2,5,7)              0.0            estimate D2E/DX2                !
 ! D6    D(3,2,5,10)           180.0            estimate D2E/DX2                !
 ! D7    D(8,2,5,7)            180.0            estimate D2E/DX2                !
 ! D8    D(8,2,5,10)             0.0            estimate D2E/DX2                !
 ! D9    D(1,3,4,6)            180.0            estimate D2E/DX2                !
 ! D10   D(1,3,4,9)              0.0            estimate D2E/DX2                !
 ! D11   D(2,3,4,6)              0.0            estimate D2E/DX2                !
 ! D12   D(2,3,4,9)            180.0            estimate D2E/DX2                !
 ! D13   D(3,4,6,7)              0.0            estimate D2E/DX2                !
 ! D14   D(3,4,6,11)           180.0            estimate D2E/DX2                !
 ! D15   D(9,4,6,7)            180.0            estimate D2E/DX2                !
 ! D16   D(9,4,6,11)             0.0            estimate D2E/DX2                !
 ! D17   D(2,5,7,6)              0.0            estimate D2E/DX2                !
 ! D18   D(2,5,7,12)           180.0            estimate D2E/DX2                !
 ! D19   D(10,5,7,6)           180.0            estimate D2E/DX2                !
 ! D20   D(10,5,7,12)            0.0            estimate D2E/DX2                !
 ! D21   D(4,6,7,5)              0.0            estimate D2E/DX2                !
 ! D22   D(4,6,7,12)           180.0            estimate D2E/DX2                !
 ! D23   D(11,6,7,5)           180.0            estimate D2E/DX2                !
 ! D24   D(11,6,7,12)            0.0            estimate D2E/DX2                !
 --------------------------------------------------------------------------------
 Trust Radius=3.00D-01 FncErr=1.00D-07 GrdErr=1.00D-06
 Number of steps in this run=     64 maximum allowed number of steps=    100.
 GradGradGradGradGradGradGradGradGradGradGradGradGradGradGradGradGradGrad

 Leave Link  103 at Thu Aug 26 21:29:46 2021, MaxMem= 17179869184 cpu:         7.0
 (Enter /public3/home/sc51754/softwares/g09e01/l202.exe)
                          Input orientation:                          
 ---------------------------------------------------------------------
 Center     Atomic      Atomic             Coordinates (Angstroms)
 Number     Number       Type             X           Y           Z
 ---------------------------------------------------------------------
      1          8           0        2.282000   -0.023000    0.000000
      2          7           0        0.285000   -1.189000    0.000000
      3          6           0        1.054000   -0.034000    0.000000
      4          6           0        0.288000    1.248000    0.000000
      5          6           0       -1.088000   -1.185000    0.000000
      6          6           0       -1.052000    1.217000    0.000000
      7          6           0       -1.770000   -0.034000    0.000000
      8          1           0        0.753000   -2.090000    0.000000
      9          1           0        0.841000    2.179000    0.000000
     10          1           0       -1.569000   -2.154000    0.000000
     11          1           0       -1.628000    2.135000    0.000000
     12          1           0       -2.853000   -0.016000    0.000000
 ---------------------------------------------------------------------
                    Distance matrix (angstroms):
                    1          2          3          4          5
     1  O    0.000000
     2  N    2.312480   0.000000
     3  C    1.228049   1.387583   0.000000
     4  C    2.364630   2.437002   1.493412   0.000000
     5  C    3.564708   1.373006   2.431659   2.795150   0.000000
     6  C    3.557127   2.752527   2.449538   1.340359   2.402270
     7  C    4.052015   2.357340   2.824000   2.424642   1.337881
     8  H    2.571056   1.015296   2.077917   3.370233   2.051416
     9  H    2.631594   3.413585   2.223227   1.082853   3.877826
    10  H    4.401291   2.090105   3.372615   3.875829   1.081814
    11  H    4.465990   3.835172   3.449302   2.111356   3.363629
    12  H    5.135005   3.350071   3.907041   3.385790   2.117023
                    6          7          8          9         10
     6  C    0.000000
     7  C    1.442403   0.000000
     8  H    3.767529   3.254637   0.000000
     9  H    2.123415   3.422673   4.269907   0.000000
    10  H    3.410415   2.129507   2.322882   4.958124   0.000000
    11  H    1.083744   2.173643   4.849720   2.469392   4.289406
    12  H    2.182634   1.083150   4.159893   4.296936   2.493933
                   11         12
    11  H    0.000000
    12  H    2.475364   0.000000
 Stoichiometry    C5H5NO
 Framework group  CS[SG(C5H5NO)]
 Deg. of freedom    21
 Full point group                 CS      NOp   2
 Largest Abelian subgroup         CS      NOp   2
 Largest concise Abelian subgroup C1      NOp   1
                         Standard orientation:                         
 ---------------------------------------------------------------------
 Center     Atomic      Atomic             Coordinates (Angstroms)
 Number     Number       Type             X           Y           Z
 ---------------------------------------------------------------------
      1          8           0        0.023182    2.274142    0.000000
      2          7           0       -1.162572    0.288808    0.000000
      3          6           0        0.000000    1.046311    0.000000
      4          6           0        1.274338    0.267631    0.000000
      5          6           0       -1.172193   -1.084165    0.000000
      6          6           0        1.230046   -1.071996    0.000000
      7          6           0       -0.028016   -1.777550    0.000000
      8          1           0       -2.058885    0.765723    0.000000
      9          1           0        2.210778    0.811368    0.000000
     10          1           0       -2.145917   -1.555528    0.000000
     11          1           0        2.142286   -1.657074    0.000000
     12          1           0       -0.020761   -2.860675    0.000000
 ---------------------------------------------------------------------
 Rotational constants (GHZ):      5.5208968      2.8360543      1.8735976
 Leave Link  202 at Thu Aug 26 21:29:47 2021, MaxMem= 17179869184 cpu:         3.1
 (Enter /public3/home/sc51754/softwares/g09e01/l301.exe)
 General basis read from cards:  (5D, 7F)
 Centers:       8      9     10     11     12
 S 5 1.00
     Exponent=  7.7469000000D+02 Coefficients=  1.3163000000D-03
     Exponent=  1.1616000000D+02 Coefficients=  1.0226000000D-02
     Exponent=  2.6449000000D+01 Coefficients=  5.3629000000D-02
     Exponent=  7.5015000000D+00 Coefficients=  2.2285000000D-01
     Exponent=  2.4568000000D+00 Coefficients=  7.5374000000D-01
 S 1 1.00
     Exponent=  8.8774000000D-01 Coefficients=  1.0000000000D+00
 S 1 1.00
     Exponent=  3.4085000000D-01 Coefficients=  1.0000000000D+00
 S 1 1.00
     Exponent=  1.3477000000D-01 Coefficients=  1.0000000000D+00
 S 1 1.00
     Exponent=  5.2263000000D-02 Coefficients=  1.0000000000D+00
 S 1 1.00
     Exponent=  1.8800000000D-02 Coefficients=  1.0000000000D+00
 P 1 1.00
     Exponent=  6.5000000000D+00 Coefficients=  1.0000000000D+00
 P 1 1.00
     Exponent=  1.5500000000D+00 Coefficients=  1.0000000000D+00
 P 1 1.00
     Exponent=  5.5000000000D-01 Coefficients=  1.0000000000D+00
 P 1 1.00
     Exponent=  2.0000000000D-01 Coefficients=  1.0000000000D+00
 P 1 1.00
     Exponent=  5.6399000000D-02 Coefficients=  1.0000000000D+00
 D 1 1.00
     Exponent=  1.9500000000D+00 Coefficients=  1.0000000000D+00
 D 1 1.00
     Exponent=  6.5000000000D-01 Coefficients=  1.0000000000D+00
 D 1 1.00
     Exponent=  7.5199000000D-02 Coefficients=  1.0000000000D+00
 F 1 1.00
     Exponent=  2.2000000000D+00 Coefficients=  1.0000000000D+00
 F 1 1.00
     Exponent=  9.3999000000D-02 Coefficients=  1.0000000000D+00
 ****
 Centers:       3      4      5      6      7
 S 9 1.00
     Exponent=  8.7141000000D+04 Coefficients=  2.8183000000D-05
     Exponent=  1.3052000000D+04 Coefficients=  2.1819000000D-04
     Exponent=  2.9706000000D+03 Coefficients=  1.1511000000D-03
     Exponent=  8.4146000000D+02 Coefficients=  4.7859000000D-03
     Exponent=  2.7459000000D+02 Coefficients=  1.7134000000D-02
     Exponent=  9.9215000000D+01 Coefficients=  5.1120000000D-02
     Exponent=  3.8694000000D+01 Coefficients=  1.2805000000D-01
     Exponent=  1.5911000000D+01 Coefficients=  2.2773000000D-01
     Exponent=  6.7668000000D+00 Coefficients=  2.4758000000D-01
 S 9 1.00
     Exponent=  1.3052000000D+04 Coefficients=  2.5930000000D-06
     Exponent=  2.9706000000D+03 Coefficients= -3.0907000000D-06
     Exponent=  8.4146000000D+02 Coefficients=  1.2247000000D-04
     Exponent=  2.7459000000D+02 Coefficients=  2.5494000000D-04
     Exponent=  9.9215000000D+01 Coefficients=  5.1254000000D-03
     Exponent=  3.8694000000D+01 Coefficients=  2.1955000000D-02
     Exponent=  1.5911000000D+01 Coefficients=  1.4112000000D-01
     Exponent=  6.7668000000D+00 Coefficients=  4.1303000000D-01
     Exponent=  2.8984000000D+00 Coefficients=  8.2714000000D-01
 S 1 1.00
     Exponent=  1.1246000000D+00 Coefficients=  1.0000000000D+00
 S 1 1.00
     Exponent=  5.1446000000D-01 Coefficients=  1.0000000000D+00
 S 1 1.00
     Exponent=  2.1176000000D-01 Coefficients=  1.0000000000D+00
 S 1 1.00
     Exponent=  8.5017000000D-02 Coefficients=  1.0000000000D+00
 S 1 1.00
     Exponent=  3.1605000000D-02 Coefficients=  1.0000000000D+00
 P 5 1.00
     Exponent=  1.4824000000D+02 Coefficients=  5.0756000000D-04
     Exponent=  3.4912000000D+01 Coefficients=  4.2126000000D-03
     Exponent=  1.0894000000D+01 Coefficients=  2.1335000000D-02
     Exponent=  4.1934000000D+00 Coefficients=  6.2329000000D-02
     Exponent=  1.7134000000D+00 Coefficients=  1.6642000000D-01
 P 1 1.00
     Exponent=  7.3566000000D-01 Coefficients=  1.0000000000D+00
 P 1 1.00
     Exponent=  3.1637000000D-01 Coefficients=  1.0000000000D+00
 P 1 1.00
     Exponent=  1.3242000000D-01 Coefficients=  1.0000000000D+00
 P 1 1.00
     Exponent=  5.1901000000D-02 Coefficients=  1.0000000000D+00
 P 1 1.00
     Exponent=  1.8873000000D-02 Coefficients=  1.0000000000D+00
 D 1 1.00
     Exponent=  5.2000000000D+00 Coefficients=  1.0000000000D+00
 D 1 1.00
     Exponent=  1.3500000000D+00 Coefficients=  1.0000000000D+00
 D 1 1.00
     Exponent=  5.2000000000D-01 Coefficients=  1.0000000000D+00
 D 1 1.00
     Exponent=  2.0000000000D-01 Coefficients=  1.0000000000D+00
 D 1 1.00
     Exponent=  5.6619000000D-02 Coefficients=  1.0000000000D+00
 F 1 1.00
     Exponent=  1.5000000000D+00 Coefficients=  1.0000000000D+00
 F 1 1.00
     Exponent=  6.5000000000D-01 Coefficients=  1.0000000000D+00
 F 1 1.00
     Exponent=  7.5492000000D-02 Coefficients=  1.0000000000D+00
 G 1 1.00
     Exponent=  1.4000000000D+00 Coefficients=  1.0000000000D+00
 G 1 1.00
     Exponent=  9.4365000000D-02 Coefficients=  1.0000000000D+00
 ****
 Centers:       2
 S 9 1.00
     Exponent=  1.2455000000D+05 Coefficients=  2.6672000000D-05
     Exponent=  1.8656000000D+04 Coefficients=  2.0684000000D-04
     Exponent=  4.2451000000D+03 Coefficients=  1.0893000000D-03
     Exponent=  1.2021000000D+03 Coefficients=  4.5463000000D-03
     Exponent=  3.9214000000D+02 Coefficients=  1.6237000000D-02
     Exponent=  1.4158000000D+02 Coefficients=  4.8957000000D-02
     Exponent=  5.5136000000D+01 Coefficients=  1.2317000000D-01
     Exponent=  2.2643000000D+01 Coefficients=  2.2425000000D-01
     Exponent=  9.6566000000D+00 Coefficients=  2.3876000000D-01
 S 8 1.00
     Exponent=  1.8656000000D+04 Coefficients=  1.4088000000D-06
     Exponent=  1.2021000000D+03 Coefficients=  8.1439000000D-05
     Exponent=  3.9214000000D+02 Coefficients=  3.2439000000D-04
     Exponent=  1.4158000000D+02 Coefficients=  4.3621000000D-03
     Exponent=  5.5136000000D+01 Coefficients=  2.2838000000D-02
     Exponent=  2.2643000000D+01 Coefficients=  1.3462000000D-01
     Exponent=  9.6566000000D+00 Coefficients=  4.2501000000D-01
     Exponent=  4.1685000000D+00 Coefficients=  8.2517000000D-01
 S 1 1.00
     Exponent=  1.6678000000D+00 Coefficients=  1.0000000000D+00
 S 1 1.00
     Exponent=  7.4574000000D-01 Coefficients=  1.0000000000D+00
 S 1 1.00
     Exponent=  3.0516000000D-01 Coefficients=  1.0000000000D+00
 S 1 1.00
     Exponent=  1.2089000000D-01 Coefficients=  1.0000000000D+00
 S 1 1.00
     Exponent=  4.4444000000D-02 Coefficients=  1.0000000000D+00
 P 5 1.00
     Exponent=  2.1829000000D+02 Coefficients=  4.8281000000D-04
     Exponent=  5.1488000000D+01 Coefficients=  4.0420000000D-03
     Exponent=  1.6130000000D+01 Coefficients=  2.0946000000D-02
     Exponent=  6.1307000000D+00 Coefficients=  6.4757000000D-02
     Exponent=  2.5052000000D+00 Coefficients=  1.7042000000D-01
 P 1 1.00
     Exponent=  1.0730000000D+00 Coefficients=  1.0000000000D+00
 P 1 1.00
     Exponent=  4.5838000000D-01 Coefficients=  1.0000000000D+00
 P 1 1.00
     Exponent=  1.8948000000D-01 Coefficients=  1.0000000000D+00
 P 1 1.00
     Exponent=  7.3359000000D-02 Coefficients=  1.0000000000D+00
 P 1 1.00
     Exponent=  2.6388000000D-02 Coefficients=  1.0000000000D+00
 D 1 1.00
     Exponent=  6.0000000000D+00 Coefficients=  1.0000000000D+00
 D 1 1.00
     Exponent=  1.6500000000D+00 Coefficients=  1.0000000000D+00
 D 1 1.00
     Exponent=  6.5000000000D-01 Coefficients=  1.0000000000D+00
 D 1 1.00
     Exponent=  2.5000000000D-01 Coefficients=  1.0000000000D+00
 D 1 1.00
     Exponent=  7.9164000000D-02 Coefficients=  1.0000000000D+00
 F 1 1.00
     Exponent=  1.8000000000D+00 Coefficients=  1.0000000000D+00
 F 1 1.00
     Exponent=  7.7000000000D-01 Coefficients=  1.0000000000D+00
 F 1 1.00
     Exponent=  1.0555000000D-01 Coefficients=  1.0000000000D+00
 G 1 1.00
     Exponent=  1.5000000000D+00 Coefficients=  1.0000000000D+00
 G 1 1.00
     Exponent=  1.3194000000D-01 Coefficients=  1.0000000000D+00
 ****
 Centers:       1
 S 9 1.00
     Exponent=  1.6403000000D+05 Coefficients=  2.6521000000D-05
     Exponent=  2.4567000000D+04 Coefficients=  2.0571000000D-04
     Exponent=  5.5910000000D+03 Coefficients=  1.0827000000D-03
     Exponent=  1.5836000000D+03 Coefficients=  4.5190000000D-03
     Exponent=  5.1667000000D+02 Coefficients=  1.6135000000D-02
     Exponent=  1.8656000000D+02 Coefficients=  4.8716000000D-02
     Exponent=  7.2696000000D+01 Coefficients=  1.2268000000D-01
     Exponent=  2.9992000000D+01 Coefficients=  2.2189000000D-01
     Exponent=  1.2899000000D+01 Coefficients=  2.3904000000D-01
 S 8 1.00
     Exponent=  2.4567000000D+04 Coefficients=  1.3322000000D-06
     Exponent=  1.5836000000D+03 Coefficients=  8.0252000000D-05
     Exponent=  5.1667000000D+02 Coefficients=  3.4512000000D-04
     Exponent=  1.8656000000D+02 Coefficients=  4.4484000000D-03
     Exponent=  7.2696000000D+01 Coefficients=  2.3601000000D-02
     Exponent=  2.9992000000D+01 Coefficients=  1.3861000000D-01
     Exponent=  1.2899000000D+01 Coefficients=  4.2872000000D-01
     Exponent=  5.6135000000D+00 Coefficients=  8.4873000000D-01
 S 1 1.00
     Exponent=  2.2986000000D+00 Coefficients=  1.0000000000D+00
 S 1 1.00
     Exponent=  9.9980000000D-01 Coefficients=  1.0000000000D+00
 S 1 1.00
     Exponent=  4.0746000000D-01 Coefficients=  1.0000000000D+00
 S 1 1.00
     Exponent=  1.5922000000D-01 Coefficients=  1.0000000000D+00
 S 1 1.00
     Exponent=  5.7690000000D-02 Coefficients=  1.0000000000D+00
 P 5 1.00
     Exponent=  2.7202000000D+02 Coefficients=  5.4941000000D-04
     Exponent=  6.4243000000D+01 Coefficients=  4.5834000000D-03
     Exponent=  2.0249000000D+01 Coefficients=  2.3573000000D-02
     Exponent=  7.6438000000D+00 Coefficients=  7.4338000000D-02
     Exponent=  3.1232000000D+00 Coefficients=  1.8755000000D-01
 P 1 1.00
     Exponent=  1.3251000000D+00 Coefficients=  1.0000000000D+00
 P 1 1.00
     Exponent=  5.5551000000D-01 Coefficients=  1.0000000000D+00
 P 1 1.00
     Exponent=  2.2229000000D-01 Coefficients=  1.0000000000D+00
 P 1 1.00
     Exponent=  8.4010000000D-02 Coefficients=  1.0000000000D+00
 P 1 1.00
     Exponent=  2.9477000000D-02 Coefficients=  1.0000000000D+00
 D 1 1.00
     Exponent=  7.0000000000D+00 Coefficients=  1.0000000000D+00
 D 1 1.00
     Exponent=  2.0000000000D+00 Coefficients=  1.0000000000D+00
 D 1 1.00
     Exponent=  8.0000000000D-01 Coefficients=  1.0000000000D+00
 D 1 1.00
     Exponent=  3.0000000000D-01 Coefficients=  1.0000000000D+00
 D 1 1.00
     Exponent=  8.8431000000D-02 Coefficients=  1.0000000000D+00
 F 1 1.00
     Exponent=  2.1000000000D+00 Coefficients=  1.0000000000D+00
 F 1 1.00
     Exponent=  9.0000000000D-01 Coefficients=  1.0000000000D+00
 F 1 1.00
     Exponent=  1.1791000000D-01 Coefficients=  1.0000000000D+00
 G 1 1.00
     Exponent=  1.6000000000D+00 Coefficients=  1.0000000000D+00
 G 1 1.00
     Exponent=  1.4739000000D-01 Coefficients=  1.0000000000D+00
 ****
 Ernie: Thresh=  0.10000D-02 Tol=  0.10000D-05 Strict=F.
 Ernie:  5 primitive shells out of 399 were deleted.
 There are   725 symmetry adapted cartesian basis functions of A'  symmetry.
 There are   375 symmetry adapted cartesian basis functions of A"  symmetry.
 There are   557 symmetry adapted basis functions of A'  symmetry.
 There are   316 symmetry adapted basis functions of A"  symmetry.
   873 basis functions,  1309 primitive gaussians,  1100 cartesian basis functions
    25 alpha electrons       25 beta electrons
       nuclear repulsion energy       275.0774566563 Hartrees.
 IExCor=  402 DFT=T Ex+Corr=B3LYP ExCW=0 ScaHFX=  0.200000
 ScaDFX=  0.800000  0.720000  1.000000  0.810000 ScalE2=  1.000000  1.000000
 IRadAn=      0 IRanWt=     -1 IRanGd=            0 ICorTp=0 IEmpDi=  4
 NAtoms=   12 NActive=   12 NUniq=   12 SFac= 1.00D+00 NAtFMM=   60 NAOKFM=F Big=F
 Integral buffers will be    131072 words long.
 Raffenetti 2 integral format.
 Two-electron integral symmetry is turned on.
 Leave Link  301 at Thu Aug 26 21:29:47 2021, MaxMem= 17179869184 cpu:         5.5
 (Enter /public3/home/sc51754/softwares/g09e01/l302.exe)
 NPDir=0 NMtPBC=     1 NCelOv=     1 NCel=       1 NClECP=     1 NCelD=      1
         NCelK=      1 NCelE2=     1 NClLst=     1 CellRange=     0.0.
 One-electron integrals computed using PRISM.
 NBasis=   873 RedAO= T EigKep=  1.02D-06  NBF=   557   316
 NBsUse=   852 1.00D-06 EigRej=  8.12D-07 NBFU=   537   315
 Precomputing XC quadrature grid using
 IXCGrd= 4 IRadAn=           0 IRanWt=          -1 IRanGd=           0 AccXCQ= 0.00D+00.
 Generated NRdTot=       0 NPtTot=           0 NUsed=           0 NTot=          32
 NSgBfM=  1091  1091  1091  1091  1091 MxSgAt=    12 MxSgA2=    12.
 Leave Link  302 at Thu Aug 26 21:29:50 2021, MaxMem= 17179869184 cpu:       149.1
 (Enter /public3/home/sc51754/softwares/g09e01/l303.exe)
 DipDrv:  MaxL=1.
 Leave Link  303 at Thu Aug 26 21:29:51 2021, MaxMem= 17179869184 cpu:        20.5
 (Enter /public3/home/sc51754/softwares/g09e01/l401.exe)
 ExpMin= 1.88D-02 ExpMax= 1.64D+05 ExpMxC= 5.17D+02 IAcc=3 IRadAn=         5 AccDes= 0.00D+00
 Harris functional with IExCor=  402 and IRadAn=       5 diagonalized for initial guess.
 HarFok:  IExCor=  402 AccDes= 0.00D+00 IRadAn=         5 IDoV= 1 UseB2=F ITyADJ=14
 ICtDFT=  3500011 ScaDFX=  1.000000  1.000000  1.000000  1.000000
 FoFCou: FMM=F IPFlag=           0 FMFlag=      100000 FMFlg1=           0
         NFxFlg=           0 DoJE=T BraDBF=F KetDBF=T FulRan=T
         wScrn=  0.000000 ICntrl=     500 IOpCl=  0 I1Cent=   200000004 NGrid=           0
         NMat0=    1 NMatS0=      1 NMatT0=    0 NMatD0=    1 NMtDS0=    0 NMtDT0=    0
 Petite list used in FoFCou.
 Harris En= -323.717549553208    
 JPrj=0 DoOrth=F DoCkMO=F.
 Initial guess orbital symmetries:
       Occupied  (A') (A') (A') (A') (A') (A') (A') (A') (A') (A')
                 (A') (A') (A') (A') (A') (A') (A') (A') (A") (A')
                 (A') (A") (A") (A') (A")
       Virtual   (A") (A") (A') (A') (A') (A") (A') (A") (A') (A')
                 (A') (A") (A") (A') (A') (A') (A') (A') (A') (A")
                 (A') (A") (A') (A') (A") (A') (A') (A') (A') (A")
                 (A') (A") (A") (A') (A') (A') (A') (A") (A') (A')
                 (A') (A") (A') (A') (A") (A') (A") (A') (A") (A')
                 (A') (A") (A') (A') (A') (A") (A') (A') (A") (A')
                 (A') (A') (A") (A") (A') (A') (A') (A') (A') (A')
                 (A") (A") (A') (A") (A') (A") (A') (A") (A') (A')
                 (A') (A") (A') (A") (A') (A") (A') (A") (A') (A')
                 (A") (A") (A') (A") (A') (A") (A') (A') (A") (A')
                 (A') (A") (A') (A') (A') (A") (A') (A") (A') (A")
                 (A') (A") (A') (A') (A") (A') (A") (A') (A') (A')
                 (A") (A') (A') (A') (A") (A') (A') (A') (A') (A")
                 (A') (A") (A") (A') (A') (A") (A') (A") (A') (A")
                 (A") (A') (A') (A") (A") (A') (A") (A') (A') (A')
                 (A") (A") (A') (A") (A') (A') (A') (A') (A") (A')
                 (A") (A') (A") (A') (A") (A') (A') (A") (A") (A')
                 (A") (A') (A") (A') (A") (A') (A") (A') (A') (A")
                 (A') (A') (A") (A') (A") (A') (A') (A") (A') (A')
                 (A") (A') (A") (A") (A') (A') (A') (A') (A") (A')
                 (A') (A') (A") (A') (A") (A') (A") (A') (A') (A")
                 (A') (A') (A") (A') (A") (A") (A') (A") (A') (A")
                 (A') (A") (A') (A') (A") (A') (A') (A") (A') (A')
                 (A") (A") (A') (A") (A') (A") (A') (A') (A') (A")
                 (A") (A') (A") (A') (A") (A') (A') (A") (A') (A")
                 (A") (A') (A') (A") (A") (A') (A') (A") (A') (A")
                 (A') (A") (A') (A') (A') (A") (A') (A") (A') (A")
                 (A') (A') (A') (A') (A') (A") (A") (A') (A") (A')
                 (A') (A") (A') (A') (A') (A") (A") (A') (A') (A")
                 (A') (A") (A') (A') (A") (A') (A") (A') (A') (A")
                 (A") (A') (A') (A") (A') (A') (A") (A") (A') (A')
                 (A") (A') (A") (A') (A') (A") (A') (A") (A') (A')
                 (A') (A") (A') (A') (A") (A') (A") (A') (A") (A')
                 (A') (A') (A') (A') (A") (A') (A') (A") (A') (A')
                 (A') (A") (A') (A') (A') (A') (A") (A') (A') (A")
                 (A') (A') (A') (A') (A') (A') (A") (A') (A') (A")
                 (A") (A') (A') (A") (A') (A') (A") (A') (A") (A')
                 (A") (A') (A") (A') (A") (A') (A") (A') (A") (A')
                 (A') (A") (A') (A") (A') (A') (A") (A") (A') (A")
                 (A') (A') (A") (A') (A") (A") (A') (A') (A') (A')
                 (A") (A') (A") (A') (A") (A') (A") (A') (A') (A')
                 (A') (A') (A") (A") (A') (A') (A") (A") (A') (A")
                 (A') (A') (A") (A') (A") (A') (A') (A") (A') (A")
                 (A') (A") (A') (A') (A") (A') (A') (A") (A') (A')
                 (A') (A") (A') (A') (A') (A") (A') (A") (A') (A")
                 (A') (A') (A') (A') (A") (A") (A') (A") (A') (A")
                 (A') (A') (A") (A') (A') (A') (A") (A') (A') (A")
                 (A') (A') (A') (A') (A') (A') (A") (A') (A") (A')
                 (A') (A') (A') (A") (A') (A') (A") (A') (A') (A')
                 (A") (A") (A') (A') (A") (A') (A') (A') (A") (A')
                 (A') (A") (A') (A') (A') (A') (A") (A') (A') (A")
                 (A') (A') (A") (A') (A") (A") (A') (A") (A') (A")
                 (A") (A') (A") (A") (A') (A') (A') (A") (A') (A")
                 (A") (A') (A') (A") (A') (A") (A") (A') (A") (A')
                 (A') (A') (A') (A") (A') (A') (A") (A') (A") (A")
                 (A") (A') (A') (A') (A') (A') (A') (A') (A') (A")
                 (A') (A') (A") (A') (A') (A") (A') (A") (A") (A')
                 (A') (A') (A") (A') (A") (A') (A') (A") (A') (A')
                 (A") (A') (A") (A") (A') (A") (A") (A') (A') (A')
                 (A') (A") (A') (A') (A') (A") (A') (A") (A') (A')
                 (A") (A') (A') (A') (A") (A") (A') (A") (A") (A')
                 (A') (A") (A') (A') (A") (A') (A") (A") (A") (A')
                 (A') (A") (A") (A') (A") (A") (A') (A') (A") (A")
                 (A') (A") (A") (A") (A') (A') (A') (A") (A") (A')
                 (A') (A") (A') (A") (A") (A') (A') (A') (A') (A")
                 (A') (A') (A') (A") (A') (A") (A') (A') (A') (A')
                 (A') (A") (A') (A') (A') (A') (A') (A") (A') (A')
                 (A') (A") (A') (A') (A") (A") (A") (A') (A') (A")
                 (A') (A") (A') (A') (A') (A") (A") (A') (A') (A')
                 (A") (A') (A') (A") (A') (A") (A") (A') (A") (A")
                 (A') (A') (A") (A') (A") (A") (A') (A') (A") (A')
                 (A") (A') (A') (A') (A") (A') (A") (A') (A') (A")
                 (A') (A') (A") (A') (A') (A') (A") (A') (A") (A')
                 (A') (A") (A') (A') (A") (A') (A') (A") (A') (A')
                 (A') (A') (A") (A") (A') (A') (A') (A') (A') (A')
                 (A') (A') (A') (A") (A") (A') (A") (A') (A") (A')
                 (A') (A") (A') (A') (A') (A') (A') (A') (A') (A')
                 (A") (A") (A") (A") (A") (A") (A") (A") (A") (A")
                 (A') (A') (A') (A') (A') (A') (A') (A') (A') (A')
                 (A') (A') (A') (A') (A') (A") (A") (A') (A") (A")
                 (A") (A") (A') (A') (A") (A') (A') (A') (A') (A')
                 (A') (A') (A') (A') (A") (A') (A") (A') (A') (A')
                 (A') (A') (A') (A') (A') (A') (A')
 The electronic state of the initial guess is 1-A'.
 Leave Link  401 at Thu Aug 26 21:29:55 2021, MaxMem= 17179869184 cpu:       174.1
 (Enter /public3/home/sc51754/softwares/g09e01/l502.exe)
 Closed shell SCF:
 Using DIIS extrapolation, IDIIS=  1040.
 Integral symmetry usage will be decided dynamically.
 IVT=     3726933 IEndB=     3726933 NGot= 17179869184 MDV= 17177369992
 LenX= 17177369992 LenY= 17176158892
 Requested convergence on RMS density matrix=1.00D-08 within 128 cycles.
 Requested convergence on MAX density matrix=1.00D-06.
 Requested convergence on             energy=1.00D-06.
 No special actions if energy rises.

 Cycle   1  Pass 1  IDiag  1:
 FoFJK:  IHMeth= 1 ICntrl=       0 DoSepK=F KAlg= 0 I1Cent=   0 FoldK=F
 IRaf= 970000000 NMat=   1 IRICut=       1 DoRegI=T DoRafI=F ISym2E= 1.
 FoFCou: FMM=F IPFlag=           0 FMFlag=      100000 FMFlg1=           0
         NFxFlg=           0 DoJE=F BraDBF=F KetDBF=F FulRan=T
         wScrn=  0.000000 ICntrl=       0 IOpCl=  0 I1Cent=           0 NGrid=           0
         NMat0=    1 NMatS0=      1 NMatT0=    0 NMatD0=    1 NMtDS0=    0 NMtDT0=    0
 Petite list used in FoFCou.
 E= -323.449888448995    
 DIIS: error= 1.97D-02 at cycle   1 NSaved=   1.
 NSaved= 1 IEnMin= 1 EnMin= -323.449888448995     IErMin= 1 ErrMin= 1.97D-02
 ErrMax= 1.97D-02  0.00D+00 EMaxC= 1.00D-01 BMatC= 2.78D-01 BMatP= 2.78D-01
 IDIUse=3 WtCom= 8.03D-01 WtEn= 1.97D-01
 Coeff-Com:  0.100D+01
 Coeff-En:   0.100D+01
 Coeff:      0.100D+01
 Gap=     0.075 Goal=   None    Shift=    0.000
 GapD=    0.075 DampG=0.500 DampE=0.500 DampFc=0.2500 IDamp=-1.
 Damping current iteration by 2.50D-01
 RMSDP=1.23D-03 MaxDP=9.65D-02              OVMax= 3.64D-01

 Cycle   2  Pass 1  IDiag  1:
 E= -323.523207124968     Delta-E=       -0.073318675973 Rises=F Damp=T
 DIIS: error= 9.50D-03 at cycle   2 NSaved=   2.
 NSaved= 2 IEnMin= 2 EnMin= -323.523207124968     IErMin= 2 ErrMin= 9.50D-03
 ErrMax= 9.50D-03  0.00D+00 EMaxC= 1.00D-01 BMatC= 5.73D-02 BMatP= 2.78D-01
 IDIUse=3 WtCom= 9.05D-01 WtEn= 9.50D-02
 Coeff-Com: -0.474D+00 0.147D+01
 Coeff-En:   0.000D+00 0.100D+01
 Coeff:     -0.429D+00 0.143D+01
 Gap=     0.198 Goal=   None    Shift=    0.000
 RMSDP=5.76D-04 MaxDP=3.28D-02 DE=-7.33D-02 OVMax= 2.83D-01

 Cycle   3  Pass 1  IDiag  1:
 E= -323.624489576781     Delta-E=       -0.101282451813 Rises=F Damp=F
 DIIS: error= 1.09D-02 at cycle   3 NSaved=   3.
 NSaved= 3 IEnMin= 3 EnMin= -323.624489576781     IErMin= 2 ErrMin= 9.50D-03
 ErrMax= 1.09D-02  0.00D+00 EMaxC= 1.00D-01 BMatC= 5.55D-02 BMatP= 5.73D-02
 IDIUse=3 WtCom= 8.91D-01 WtEn= 1.09D-01
 Coeff-Com: -0.404D+00 0.950D+00 0.454D+00
 Coeff-En:   0.000D+00 0.000D+00 0.100D+01
 Coeff:     -0.360D+00 0.847D+00 0.513D+00
 Gap=     0.182 Goal=   None    Shift=    0.000
 RMSDP=2.08D-04 MaxDP=1.63D-02 DE=-1.01D-01 OVMax= 1.29D-01

 Cycle   4  Pass 1  IDiag  1:
 E= -323.664179564085     Delta-E=       -0.039689987304 Rises=F Damp=F
 DIIS: error= 3.99D-03 at cycle   4 NSaved=   4.
 NSaved= 4 IEnMin= 4 EnMin= -323.664179564085     IErMin= 4 ErrMin= 3.99D-03
 ErrMax= 3.99D-03  0.00D+00 EMaxC= 1.00D-01 BMatC= 8.61D-03 BMatP= 5.55D-02
 IDIUse=3 WtCom= 9.60D-01 WtEn= 3.99D-02
 Coeff-Com: -0.115D+00 0.226D+00 0.309D+00 0.580D+00
 Coeff-En:   0.000D+00 0.000D+00 0.167D+00 0.833D+00
 Coeff:     -0.110D+00 0.217D+00 0.303D+00 0.590D+00
 Gap=     0.182 Goal=   None    Shift=    0.000
 RMSDP=8.38D-05 MaxDP=5.59D-03 DE=-3.97D-02 OVMax= 3.91D-02

 Cycle   5  Pass 1  IDiag  1:
 E= -323.671354619278     Delta-E=       -0.007175055193 Rises=F Damp=F
 DIIS: error= 7.98D-04 at cycle   5 NSaved=   5.
 NSaved= 5 IEnMin= 5 EnMin= -323.671354619278     IErMin= 5 ErrMin= 7.98D-04
 ErrMax= 7.98D-04  0.00D+00 EMaxC= 1.00D-01 BMatC= 3.61D-04 BMatP= 8.61D-03
 IDIUse=3 WtCom= 9.92D-01 WtEn= 7.98D-03
 Coeff-Com: -0.333D-01 0.520D-01 0.121D+00 0.299D+00 0.561D+00
 Coeff-En:   0.000D+00 0.000D+00 0.000D+00 0.000D+00 0.100D+01
 Coeff:     -0.330D-01 0.516D-01 0.120D+00 0.297D+00 0.565D+00
 Gap=     0.181 Goal=   None    Shift=    0.000
 RMSDP=2.21D-05 MaxDP=1.36D-03 DE=-7.18D-03 OVMax= 1.18D-02

 Cycle   6  Pass 1  IDiag  1:
 E= -323.671625563168     Delta-E=       -0.000270943891 Rises=F Damp=F
 DIIS: error= 4.55D-04 at cycle   6 NSaved=   6.
 NSaved= 6 IEnMin= 6 EnMin= -323.671625563168     IErMin= 6 ErrMin= 4.55D-04
 ErrMax= 4.55D-04  0.00D+00 EMaxC= 1.00D-01 BMatC= 9.06D-05 BMatP= 3.61D-04
 IDIUse=3 WtCom= 9.95D-01 WtEn= 4.55D-03
 Coeff-Com: -0.652D-02 0.521D-02 0.319D-01 0.992D-01 0.366D+00 0.505D+00
 Coeff-En:   0.000D+00 0.000D+00 0.000D+00 0.000D+00 0.228D+00 0.772D+00
 Coeff:     -0.649D-02 0.519D-02 0.318D-01 0.988D-01 0.365D+00 0.506D+00
 Gap=     0.181 Goal=   None    Shift=    0.000
 RMSDP=8.31D-06 MaxDP=5.30D-04 DE=-2.71D-04 OVMax= 4.34D-03

 Cycle   7  Pass 1  IDiag  1:
 E= -323.671717658084     Delta-E=       -0.000092094916 Rises=F Damp=F
 DIIS: error= 5.98D-05 at cycle   7 NSaved=   7.
 NSaved= 7 IEnMin= 7 EnMin= -323.671717658084     IErMin= 7 ErrMin= 5.98D-05
 ErrMax= 5.98D-05  0.00D+00 EMaxC= 1.00D-01 BMatC= 2.43D-06 BMatP= 9.06D-05
 IDIUse=1 WtCom= 1.00D+00 WtEn= 0.00D+00
 Coeff-Com: -0.304D-03-0.138D-02 0.599D-02 0.213D-01 0.119D+00 0.213D+00
 Coeff-Com:  0.642D+00
 Coeff:     -0.304D-03-0.138D-02 0.599D-02 0.213D-01 0.119D+00 0.213D+00
 Coeff:      0.642D+00
 Gap=     0.181 Goal=   None    Shift=    0.000
 RMSDP=1.58D-06 MaxDP=1.51D-04 DE=-9.21D-05 OVMax= 5.08D-04

 Cycle   8  Pass 1  IDiag  1:
 E= -323.671719209969     Delta-E=       -0.000001551885 Rises=F Damp=F
 DIIS: error= 2.79D-05 at cycle   8 NSaved=   8.
 NSaved= 8 IEnMin= 8 EnMin= -323.671719209969     IErMin= 8 ErrMin= 2.79D-05
 ErrMax= 2.79D-05  0.00D+00 EMaxC= 1.00D-01 BMatC= 6.21D-07 BMatP= 2.43D-06
 IDIUse=1 WtCom= 1.00D+00 WtEn= 0.00D+00
 Coeff-Com:  0.732D-03-0.125D-02-0.715D-03-0.204D-02 0.168D-01 0.499D-01
 Coeff-Com:  0.365D+00 0.572D+00
 Coeff:      0.732D-03-0.125D-02-0.715D-03-0.204D-02 0.168D-01 0.499D-01
 Coeff:      0.365D+00 0.572D+00
 Gap=     0.181 Goal=   None    Shift=    0.000
 RMSDP=7.14D-07 MaxDP=4.22D-05 DE=-1.55D-06 OVMax= 2.22D-04

 Cycle   9  Pass 1  IDiag  1:
 E= -323.671719702150     Delta-E=       -0.000000492181 Rises=F Damp=F
 DIIS: error= 5.24D-06 at cycle   9 NSaved=   9.
 NSaved= 9 IEnMin= 9 EnMin= -323.671719702150     IErMin= 9 ErrMin= 5.24D-06
 ErrMax= 5.24D-06  0.00D+00 EMaxC= 1.00D-01 BMatC= 2.26D-08 BMatP= 6.21D-07
 IDIUse=1 WtCom= 1.00D+00 WtEn= 0.00D+00
 Coeff-Com:  0.285D-03-0.433D-03-0.452D-03-0.178D-02 0.142D-02 0.894D-02
 Coeff-Com:  0.956D-01 0.223D+00 0.673D+00
 Coeff:      0.285D-03-0.433D-03-0.452D-03-0.178D-02 0.142D-02 0.894D-02
 Coeff:      0.956D-01 0.223D+00 0.673D+00
 Gap=     0.181 Goal=   None    Shift=    0.000
 RMSDP=2.17D-07 MaxDP=1.85D-05 DE=-4.92D-07 OVMax= 9.90D-05

 Cycle  10  Pass 1  IDiag  1:
 E= -323.671719715841     Delta-E=       -0.000000013691 Rises=F Damp=F
 DIIS: error= 3.91D-06 at cycle  10 NSaved=  10.
 NSaved=10 IEnMin=10 EnMin= -323.671719715841     IErMin=10 ErrMin= 3.91D-06
 ErrMax= 3.91D-06  0.00D+00 EMaxC= 1.00D-01 BMatC= 7.85D-09 BMatP= 2.26D-08
 IDIUse=1 WtCom= 1.00D+00 WtEn= 0.00D+00
 Coeff-Com:  0.646D-04-0.671D-04-0.196D-03-0.969D-03-0.191D-02-0.207D-02
 Coeff-Com:  0.614D-02 0.615D-01 0.422D+00 0.516D+00
 Coeff:      0.646D-04-0.671D-04-0.196D-03-0.969D-03-0.191D-02-0.207D-02
 Coeff:      0.614D-02 0.615D-01 0.422D+00 0.516D+00
 Gap=     0.181 Goal=   None    Shift=    0.000
 RMSDP=8.45D-08 MaxDP=6.34D-06 DE=-1.37D-08 OVMax= 5.30D-05

 Cycle  11  Pass 1  IDiag  1:
 E= -323.671719723348     Delta-E=       -0.000000007507 Rises=F Damp=F
 DIIS: error= 1.01D-06 at cycle  11 NSaved=  11.
 NSaved=11 IEnMin=11 EnMin= -323.671719723348     IErMin=11 ErrMin= 1.01D-06
 ErrMax= 1.01D-06  0.00D+00 EMaxC= 1.00D-01 BMatC= 3.41D-10 BMatP= 7.85D-09
 IDIUse=1 WtCom= 1.00D+00 WtEn= 0.00D+00
 Coeff-Com: -0.426D-05 0.198D-04-0.450D-04-0.295D-03-0.107D-02-0.178D-02
 Coeff-Com: -0.692D-02 0.766D-02 0.116D+00 0.226D+00 0.660D+00
 Coeff:     -0.426D-05 0.198D-04-0.450D-04-0.295D-03-0.107D-02-0.178D-02
 Coeff:     -0.692D-02 0.766D-02 0.116D+00 0.226D+00 0.660D+00
 Gap=     0.181 Goal=   None    Shift=    0.000
 RMSDP=2.47D-08 MaxDP=1.50D-06 DE=-7.51D-09 OVMax= 7.18D-06

 Cycle  12  Pass 1  IDiag  1:
 E= -323.671719723621     Delta-E=       -0.000000000273 Rises=F Damp=F
 DIIS: error= 3.18D-07 at cycle  12 NSaved=  12.
 NSaved=12 IEnMin=12 EnMin= -323.671719723621     IErMin=12 ErrMin= 3.18D-07
 ErrMax= 3.18D-07  0.00D+00 EMaxC= 1.00D-01 BMatC= 6.72D-11 BMatP= 3.41D-10
 IDIUse=1 WtCom= 1.00D+00 WtEn= 0.00D+00
 Coeff-Com: -0.108D-04 0.165D-04 0.106D-04-0.502D-05-0.228D-03-0.490D-03
 Coeff-Com: -0.403D-02-0.307D-02 0.141D-02 0.485D-01 0.364D+00 0.594D+00
 Coeff:     -0.108D-04 0.165D-04 0.106D-04-0.502D-05-0.228D-03-0.490D-03
 Coeff:     -0.403D-02-0.307D-02 0.141D-02 0.485D-01 0.364D+00 0.594D+00
 Gap=     0.181 Goal=   None    Shift=    0.000
 RMSDP=9.36D-09 MaxDP=5.30D-07 DE=-2.73D-10 OVMax= 4.36D-06

 SCF Done:  E(RB3LYP) =  -323.671719724     A.U. after   12 cycles
            NFock= 12  Conv=0.94D-08     -V/T= 2.0047
 KE= 3.221562018256D+02 PE=-1.304983416304D+03 EE= 3.840780380982D+02
 Leave Link  502 at Thu Aug 26 21:41:47 2021, MaxMem= 17179869184 cpu:     45572.8
 (Enter /public3/home/sc51754/softwares/g09e01/l601.exe)
 Copying SCF densities to generalized density rwf, IOpCl= 0 IROHF=0.

 **********************************************************************

            Population analysis using the SCF density.

 **********************************************************************

 Orbital symmetries:
       Occupied  (A') (A') (A') (A') (A') (A') (A') (A') (A') (A')
                 (A') (A') (A') (A') (A') (A') (A') (A") (A') (A')
                 (A') (A") (A") (A') (A")
       Virtual   (A") (A') (A") (A') (A') (A") (A') (A') (A') (A")
                 (A') (A") (A') (A') (A') (A') (A") (A') (A") (A')
                 (A') (A") (A') (A') (A') (A') (A") (A') (A") (A")
                 (A') (A') (A') (A") (A') (A') (A") (A') (A') (A")
                 (A') (A") (A') (A') (A') (A") (A") (A') (A') (A")
                 (A') (A') (A") (A') (A') (A') (A") (A') (A") (A')
                 (A') (A') (A") (A') (A') (A') (A") (A') (A') (A")
                 (A") (A') (A") (A') (A') (A") (A') (A') (A') (A')
                 (A") (A") (A') (A') (A") (A') (A") (A") (A') (A')
                 (A") (A") (A') (A") (A') (A') (A") (A') (A") (A')
                 (A') (A') (A') (A") (A') (A") (A") (A') (A') (A')
                 (A") (A') (A') (A") (A') (A") (A') (A") (A') (A')
                 (A') (A") (A') (A') (A') (A") (A') (A') (A') (A")
                 (A') (A") (A') (A") (A') (A") (A") (A') (A') (A")
                 (A') (A") (A") (A') (A') (A') (A") (A') (A") (A')
                 (A') (A") (A') (A") (A') (A') (A") (A") (A') (A')
                 (A") (A') (A") (A') (A') (A") (A") (A') (A') (A')
                 (A") (A") (A') (A') (A") (A') (A') (A") (A') (A")
                 (A') (A") (A') (A") (A') (A') (A") (A') (A") (A')
                 (A") (A') (A") (A') (A') (A') (A") (A') (A') (A')
                 (A") (A') (A") (A') (A") (A') (A') (A') (A") (A')
                 (A") (A') (A") (A") (A') (A') (A") (A') (A") (A')
                 (A") (A') (A') (A') (A") (A') (A') (A") (A') (A")
                 (A") (A') (A') (A") (A') (A') (A") (A') (A") (A")
                 (A') (A') (A") (A") (A') (A') (A') (A") (A') (A")
                 (A") (A') (A') (A") (A") (A') (A') (A') (A") (A')
                 (A") (A") (A') (A') (A') (A") (A') (A') (A") (A')
                 (A') (A") (A') (A') (A') (A") (A') (A") (A") (A')
                 (A') (A") (A') (A') (A") (A') (A") (A') (A') (A')
                 (A") (A') (A") (A') (A') (A") (A") (A') (A') (A")
                 (A") (A') (A') (A") (A') (A') (A") (A') (A") (A')
                 (A") (A') (A') (A") (A') (A") (A') (A") (A') (A")
                 (A') (A') (A') (A') (A") (A') (A') (A") (A') (A')
                 (A") (A') (A') (A') (A") (A') (A') (A") (A') (A')
                 (A") (A') (A') (A') (A') (A') (A") (A') (A') (A')
                 (A") (A') (A') (A') (A') (A') (A") (A') (A') (A")
                 (A") (A') (A") (A') (A') (A') (A') (A") (A') (A")
                 (A') (A") (A") (A') (A") (A') (A') (A") (A') (A")
                 (A') (A") (A') (A') (A") (A') (A") (A") (A') (A")
                 (A') (A') (A") (A') (A") (A") (A') (A') (A') (A")
                 (A') (A") (A') (A") (A') (A") (A') (A') (A') (A')
                 (A') (A') (A") (A') (A") (A") (A') (A") (A") (A')
                 (A') (A') (A") (A') (A") (A') (A') (A") (A') (A")
                 (A") (A') (A') (A") (A') (A') (A') (A") (A') (A')
                 (A') (A") (A') (A') (A') (A') (A") (A") (A") (A')
                 (A') (A') (A') (A") (A') (A") (A') (A') (A") (A')
                 (A") (A') (A") (A') (A') (A") (A') (A') (A') (A")
                 (A') (A') (A') (A') (A') (A') (A") (A') (A") (A')
                 (A') (A') (A') (A") (A') (A') (A") (A') (A') (A')
                 (A") (A") (A') (A') (A") (A') (A') (A') (A") (A')
                 (A') (A") (A') (A') (A') (A') (A") (A') (A') (A")
                 (A') (A') (A') (A") (A") (A") (A') (A") (A') (A")
                 (A") (A") (A") (A') (A') (A') (A') (A") (A") (A')
                 (A") (A') (A") (A') (A") (A") (A') (A') (A") (A')
                 (A') (A") (A') (A') (A') (A') (A') (A") (A") (A")
                 (A') (A') (A") (A') (A') (A') (A') (A') (A') (A')
                 (A") (A') (A") (A') (A') (A") (A') (A") (A') (A")
                 (A') (A') (A") (A') (A') (A") (A") (A') (A') (A")
                 (A') (A') (A") (A") (A") (A') (A") (A') (A') (A')
                 (A") (A') (A') (A') (A") (A') (A') (A') (A") (A')
                 (A") (A') (A') (A') (A") (A") (A') (A") (A") (A')
                 (A') (A") (A') (A') (A") (A') (A") (A") (A") (A')
                 (A') (A") (A") (A') (A") (A") (A') (A") (A') (A")
                 (A") (A') (A") (A') (A") (A') (A') (A") (A") (A')
                 (A') (A") (A') (A") (A') (A") (A') (A') (A') (A')
                 (A") (A") (A') (A') (A") (A') (A') (A') (A') (A')
                 (A') (A") (A') (A') (A') (A') (A') (A") (A') (A')
                 (A') (A") (A') (A') (A") (A") (A") (A') (A") (A')
                 (A") (A') (A') (A') (A") (A') (A") (A') (A') (A')
                 (A") (A') (A") (A") (A') (A') (A") (A') (A") (A')
                 (A") (A') (A") (A") (A') (A") (A') (A') (A") (A')
                 (A") (A') (A') (A") (A') (A") (A') (A') (A') (A')
                 (A") (A') (A") (A') (A') (A") (A') (A") (A') (A')
                 (A') (A') (A") (A") (A') (A') (A') (A") (A') (A')
                 (A') (A") (A') (A') (A") (A') (A') (A') (A') (A')
                 (A') (A') (A") (A') (A") (A') (A") (A') (A") (A')
                 (A") (A') (A') (A') (A') (A') (A') (A') (A') (A')
                 (A") (A") (A") (A") (A") (A") (A") (A") (A") (A")
                 (A') (A') (A') (A') (A') (A') (A') (A') (A') (A')
                 (A') (A') (A') (A') (A') (A") (A") (A") (A') (A")
                 (A") (A") (A') (A") (A') (A') (A') (A') (A') (A')
                 (A') (A') (A') (A') (A") (A') (A") (A') (A') (A')
                 (A') (A') (A') (A') (A') (A') (A')
 The electronic state is 1-A'.
 Alpha  occ. eigenvalues --  -19.08659 -14.38508 -10.28327 -10.24165 -10.20330
 Alpha  occ. eigenvalues --  -10.19080 -10.19046  -1.03861  -0.96706  -0.82923
 Alpha  occ. eigenvalues --   -0.76653  -0.65620  -0.65174  -0.56819  -0.51635
 Alpha  occ. eigenvalues --   -0.49780  -0.47349  -0.44978  -0.43411  -0.39758
 Alpha  occ. eigenvalues --   -0.38478  -0.35338  -0.32067  -0.26052  -0.23435
 Alpha virt. eigenvalues --   -0.05297  -0.02316  -0.00753  -0.00576   0.00331
 Alpha virt. eigenvalues --    0.01039   0.01952   0.02004   0.02908   0.03024
 Alpha virt. eigenvalues --    0.03216   0.03477   0.04291   0.04317   0.04701
 Alpha virt. eigenvalues --    0.04761   0.05389   0.05699   0.05776   0.06001
 Alpha virt. eigenvalues --    0.06308   0.06534   0.06753   0.07129   0.07276
 Alpha virt. eigenvalues --    0.07773   0.08897   0.09370   0.09781   0.10009
 Alpha virt. eigenvalues --    0.10013   0.10113   0.10506   0.10969   0.11487
 Alpha virt. eigenvalues --    0.11714   0.11844   0.12137   0.12991   0.13432
 Alpha virt. eigenvalues --    0.13525   0.14395   0.14533   0.14620   0.15161
 Alpha virt. eigenvalues --    0.15185   0.15213   0.15538   0.15707   0.15966
 Alpha virt. eigenvalues --    0.16359   0.16856   0.17330   0.17488   0.18294
 Alpha virt. eigenvalues --    0.19184   0.19273   0.19613   0.20210   0.20348
 Alpha virt. eigenvalues --    0.20466   0.20790   0.20954   0.21304   0.21824
 Alpha virt. eigenvalues --    0.21987   0.22534   0.22937   0.23526   0.23842
 Alpha virt. eigenvalues --    0.24237   0.24588   0.24753   0.24803   0.25223
 Alpha virt. eigenvalues --    0.25309   0.25770   0.26608   0.26754   0.26998
 Alpha virt. eigenvalues --    0.27389   0.27602   0.28733   0.29190   0.29220
 Alpha virt. eigenvalues --    0.29788   0.30195   0.30582   0.30873   0.30896
 Alpha virt. eigenvalues --    0.30962   0.31258   0.31560   0.31810   0.31959
 Alpha virt. eigenvalues --    0.32683   0.32725   0.33386   0.33867   0.33914
 Alpha virt. eigenvalues --    0.34007   0.34214   0.34846   0.35076   0.35102
 Alpha virt. eigenvalues --    0.35406   0.36167   0.36215   0.36429   0.36796
 Alpha virt. eigenvalues --    0.36852   0.37705   0.37848   0.37855   0.38167
 Alpha virt. eigenvalues --    0.38504   0.38571   0.38917   0.39366   0.39749
 Alpha virt. eigenvalues --    0.39985   0.40619   0.40763   0.41431   0.42310
 Alpha virt. eigenvalues --    0.42820   0.42860   0.43569   0.44058   0.44136
 Alpha virt. eigenvalues --    0.44454   0.44823   0.45117   0.45167   0.46086
 Alpha virt. eigenvalues --    0.46515   0.46837   0.47382   0.47811   0.48065
 Alpha virt. eigenvalues --    0.48720   0.49196   0.49404   0.49791   0.50309
 Alpha virt. eigenvalues --    0.50594   0.50702   0.51318   0.51319   0.51849
 Alpha virt. eigenvalues --    0.52436   0.52871   0.52964   0.53714   0.54432
 Alpha virt. eigenvalues --    0.54550   0.54652   0.55414   0.55497   0.55959
 Alpha virt. eigenvalues --    0.56213   0.56861   0.57111   0.57377   0.57568
 Alpha virt. eigenvalues --    0.58273   0.58494   0.59104   0.59242   0.59429
 Alpha virt. eigenvalues --    0.60091   0.60204   0.60586   0.60804   0.61574
 Alpha virt. eigenvalues --    0.61848   0.62030   0.62403   0.64029   0.64243
 Alpha virt. eigenvalues --    0.64336   0.64412   0.64689   0.64860   0.65612
 Alpha virt. eigenvalues --    0.65878   0.65947   0.66314   0.66458   0.66641
 Alpha virt. eigenvalues --    0.67674   0.67745   0.68129   0.68167   0.68429
 Alpha virt. eigenvalues --    0.68899   0.69140   0.69253   0.70203   0.70737
 Alpha virt. eigenvalues --    0.71136   0.71197   0.71489   0.72196   0.72263
 Alpha virt. eigenvalues --    0.72435   0.72567   0.73142   0.73362   0.73888
 Alpha virt. eigenvalues --    0.74001   0.74114   0.75592   0.76092   0.76235
 Alpha virt. eigenvalues --    0.76502   0.76595   0.77196   0.77410   0.78100
 Alpha virt. eigenvalues --    0.78475   0.78614   0.79302   0.79749   0.79863
 Alpha virt. eigenvalues --    0.79900   0.80787   0.80907   0.81625   0.81797
 Alpha virt. eigenvalues --    0.82550   0.82574   0.82936   0.83408   0.83805
 Alpha virt. eigenvalues --    0.84078   0.84210   0.85034   0.85284   0.85928
 Alpha virt. eigenvalues --    0.86359   0.86944   0.86999   0.87628   0.87644
 Alpha virt. eigenvalues --    0.88141   0.89050   0.89270   0.89593   0.89682
 Alpha virt. eigenvalues --    0.91096   0.91209   0.91425   0.91611   0.92256
 Alpha virt. eigenvalues --    0.92628   0.94252   0.95430   0.95542   0.95631
 Alpha virt. eigenvalues --    0.96676   0.97119   0.97220   0.97509   0.98139
 Alpha virt. eigenvalues --    0.98618   0.99017   0.99806   1.00803   1.00909
 Alpha virt. eigenvalues --    1.01276   1.02136   1.02189   1.03136   1.03930
 Alpha virt. eigenvalues --    1.05054   1.05218   1.06186   1.07103   1.07221
 Alpha virt. eigenvalues --    1.08106   1.08818   1.09490   1.10074   1.10634
 Alpha virt. eigenvalues --    1.11111   1.11800   1.12249   1.13043   1.13479
 Alpha virt. eigenvalues --    1.13500   1.13907   1.14220   1.15588   1.15902
 Alpha virt. eigenvalues --    1.16247   1.16557   1.17914   1.18218   1.18726
 Alpha virt. eigenvalues --    1.19711   1.20222   1.21170   1.21212   1.22362
 Alpha virt. eigenvalues --    1.22854   1.23028   1.23934   1.24350   1.24845
 Alpha virt. eigenvalues --    1.26231   1.26972   1.27137   1.28040   1.28558
 Alpha virt. eigenvalues --    1.29007   1.29924   1.30669   1.30998   1.32315
 Alpha virt. eigenvalues --    1.33339   1.34188   1.35114   1.36097   1.36453
 Alpha virt. eigenvalues --    1.36802   1.37953   1.38403   1.38728   1.40649
 Alpha virt. eigenvalues --    1.41266   1.42003   1.43743   1.44390   1.45328
 Alpha virt. eigenvalues --    1.47198   1.48344   1.48771   1.50957   1.53280
 Alpha virt. eigenvalues --    1.54636   1.54761   1.56377   1.57508   1.58990
 Alpha virt. eigenvalues --    1.59704   1.60035   1.64575   1.66912   1.67703
 Alpha virt. eigenvalues --    1.68357   1.69110   1.74664   1.78259   1.78680
 Alpha virt. eigenvalues --    1.83089   1.85550   1.86361   1.87141   1.91400
 Alpha virt. eigenvalues --    1.93668   1.94891   1.97314   1.98059   1.98553
 Alpha virt. eigenvalues --    1.99324   2.00825   2.01107   2.02311   2.03116
 Alpha virt. eigenvalues --    2.05262   2.05271   2.06320   2.06926   2.07595
 Alpha virt. eigenvalues --    2.07646   2.08806   2.09204   2.11284   2.11848
 Alpha virt. eigenvalues --    2.13761   2.17426   2.17518   2.17977   2.18375
 Alpha virt. eigenvalues --    2.19402   2.22378   2.23027   2.23512   2.24352
 Alpha virt. eigenvalues --    2.26628   2.27286   2.29704   2.30026   2.30795
 Alpha virt. eigenvalues --    2.33029   2.33065   2.34923   2.36732   2.36868
 Alpha virt. eigenvalues --    2.38104   2.38720   2.39009   2.40431   2.40901
 Alpha virt. eigenvalues --    2.43267   2.43982   2.45874   2.47182   2.48190
 Alpha virt. eigenvalues --    2.50407   2.51736   2.52130   2.53365   2.53752
 Alpha virt. eigenvalues --    2.55191   2.55844   2.57699   2.58701   2.60243
 Alpha virt. eigenvalues --    2.62309   2.62484   2.63762   2.66640   2.68854
 Alpha virt. eigenvalues --    2.69244   2.71564   2.71642   2.72867   2.74131
 Alpha virt. eigenvalues --    2.75830   2.76204   2.78271   2.81507   2.81865
 Alpha virt. eigenvalues --    2.82479   2.84490   2.87110   2.87923   2.91788
 Alpha virt. eigenvalues --    2.94425   2.97581   2.97970   2.99421   3.01877
 Alpha virt. eigenvalues --    3.03679   3.07195   3.08584   3.09733   3.10717
 Alpha virt. eigenvalues --    3.12612   3.14635   3.16016   3.21300   3.21414
 Alpha virt. eigenvalues --    3.22621   3.22653   3.25290   3.25833   3.31864
 Alpha virt. eigenvalues --    3.33037   3.35174   3.38434   3.38773   3.39664
 Alpha virt. eigenvalues --    3.39917   3.40968   3.42686   3.46009   3.46826
 Alpha virt. eigenvalues --    3.47860   3.51822   3.54927   3.56979   3.59078
 Alpha virt. eigenvalues --    3.61257   3.63052   3.65023   3.68108   3.68208
 Alpha virt. eigenvalues --    3.69523   3.73911   3.77715   3.77849   3.79263
 Alpha virt. eigenvalues --    3.84222   3.84918   3.88753   3.90078   3.91788
 Alpha virt. eigenvalues --    3.92007   3.94171   3.97862   4.02512   4.06061
 Alpha virt. eigenvalues --    4.12819   4.17952   4.20404   4.21246   4.25791
 Alpha virt. eigenvalues --    4.32479   4.34094   4.37667   4.43807   4.45977
 Alpha virt. eigenvalues --    4.48609   4.51294   4.52872   4.64913   4.67164
 Alpha virt. eigenvalues --    4.70573   4.84994   4.88929   4.92891   4.98290
 Alpha virt. eigenvalues --    5.00626   5.02058   5.02203   5.04406   5.06287
 Alpha virt. eigenvalues --    5.10940   5.12802   5.13167   5.13275   5.16931
 Alpha virt. eigenvalues --    5.19752   5.20496   5.23620   5.28647   5.29276
 Alpha virt. eigenvalues --    5.30185   5.31160   5.33359   5.34004   5.35864
 Alpha virt. eigenvalues --    5.38951   5.40202   5.42683   5.47954   5.49751
 Alpha virt. eigenvalues --    5.49850   5.52195   5.53774   5.56043   5.59990
 Alpha virt. eigenvalues --    5.61333   5.64201   5.66391   5.68120   5.70544
 Alpha virt. eigenvalues --    5.71345   5.74585   5.75987   5.77429   5.81469
 Alpha virt. eigenvalues --    5.84115   5.85601   5.90447   5.94790   6.02117
 Alpha virt. eigenvalues --    6.03210   6.05318   6.10398   6.10552   6.12000
 Alpha virt. eigenvalues --    6.16003   6.18752   6.23547   6.28738   6.29709
 Alpha virt. eigenvalues --    6.36910   6.42982   6.44080   6.46846   6.51431
 Alpha virt. eigenvalues --    6.51517   6.54325   6.54577   6.58175   6.62206
 Alpha virt. eigenvalues --    6.62287   6.66946   6.67031   6.67865   6.68578
 Alpha virt. eigenvalues --    6.72384   6.72528   6.75719   6.80370   6.91782
 Alpha virt. eigenvalues --    6.92489   6.95237   7.00886   7.02501   7.06205
 Alpha virt. eigenvalues --    7.06692   7.11515   7.15879   7.16497   7.17893
 Alpha virt. eigenvalues --    7.20043   7.24256   7.28421   7.30268   7.30791
 Alpha virt. eigenvalues --    7.36150   7.37591   7.38291   7.40871   7.44453
 Alpha virt. eigenvalues --    7.44756   7.44902   7.48720   7.50830   7.51806
 Alpha virt. eigenvalues --    7.53407   7.53812   7.55948   7.61482   7.62864
 Alpha virt. eigenvalues --    7.63635   7.66725   7.68455   7.69421   7.69707
 Alpha virt. eigenvalues --    7.74055   7.74903   7.76684   7.78674   7.80292
 Alpha virt. eigenvalues --    7.81654   7.83247   7.84884   7.88397   7.88475
 Alpha virt. eigenvalues --    7.89237   7.92136   7.93078   7.96070   7.99071
 Alpha virt. eigenvalues --    7.99816   8.01292   8.02865   8.04719   8.05778
 Alpha virt. eigenvalues --    8.06285   8.07409   8.08839   8.12611   8.16635
 Alpha virt. eigenvalues --    8.17049   8.18617   8.19360   8.20411   8.21483
 Alpha virt. eigenvalues --    8.22241   8.24098   8.29202   8.33193   8.35528
 Alpha virt. eigenvalues --    8.42992   8.43387   8.46940   8.50693   8.54461
 Alpha virt. eigenvalues --    8.55750   8.61256   8.62420   8.65383   8.69176
 Alpha virt. eigenvalues --    8.74059   8.74781   8.78013   8.81495   8.83568
 Alpha virt. eigenvalues --    8.88439   8.90024   8.94125   8.97930   8.99720
 Alpha virt. eigenvalues --    9.01788   9.04507   9.05195   9.07519   9.08638
 Alpha virt. eigenvalues --    9.12360   9.13020   9.16610   9.23445   9.24344
 Alpha virt. eigenvalues --    9.27834   9.29566   9.29884   9.30408   9.30902
 Alpha virt. eigenvalues --    9.33047   9.34304   9.34755   9.35429   9.39026
 Alpha virt. eigenvalues --    9.39988   9.40391   9.41919   9.47764   9.49765
 Alpha virt. eigenvalues --    9.49792   9.51888   9.54410   9.58915   9.64688
 Alpha virt. eigenvalues --    9.66765   9.67368   9.68463   9.74295   9.75216
 Alpha virt. eigenvalues --    9.79830   9.82686   9.84282   9.87795   9.99745
 Alpha virt. eigenvalues --   10.01030  10.02485  10.04822  10.07901  10.12506
 Alpha virt. eigenvalues --   10.12713  10.17244  10.21689  10.25277  10.29281
 Alpha virt. eigenvalues --   10.30547  10.39592  10.40524  10.43840  10.45163
 Alpha virt. eigenvalues --   10.52959  10.55763  10.58686  10.62845  10.63143
 Alpha virt. eigenvalues --   10.79968  10.82301  10.87993  10.96786  10.98596
 Alpha virt. eigenvalues --   11.03893  11.09633  11.18609  11.21512  11.31832
 Alpha virt. eigenvalues --   11.46738  11.56547  11.74908  11.75844  11.79923
 Alpha virt. eigenvalues --   11.88362  11.90567  11.90888  11.98074  12.13584
 Alpha virt. eigenvalues --   12.37648  12.39211  12.44264  12.68536  12.85032
 Alpha virt. eigenvalues --   12.97959  13.11466  13.17261  13.41065  14.07863
 Alpha virt. eigenvalues --   16.57028  16.58241  16.60918  16.66716  16.71961
 Alpha virt. eigenvalues --   16.74036  16.74750  16.80488  16.84978  16.89083
 Alpha virt. eigenvalues --   16.98086  17.05802  17.14742  17.26572  17.34896
 Alpha virt. eigenvalues --   17.40234  17.51998  17.66507  17.70586  17.75784
 Alpha virt. eigenvalues --   17.83298  17.90275  18.08279  18.14982  18.63552
 Alpha virt. eigenvalues --   19.22168  19.28129  19.57045  19.57892  19.60860
 Alpha virt. eigenvalues --   19.65375  19.67034  19.70244  19.76141  19.79505
 Alpha virt. eigenvalues --   19.81977  19.91033  20.05068  20.18931  20.38172
 Alpha virt. eigenvalues --   21.70600  21.76941  21.81936  21.88865  22.25319
 Alpha virt. eigenvalues --   22.31683  22.58595  22.88123  22.94589  23.61946
 Alpha virt. eigenvalues --   30.97162  31.96270  32.59469  33.58074  34.64647
 Alpha virt. eigenvalues --   44.15931  55.62658
          Condensed to atoms (all electrons):
               1          2          3          4          5          6
     1  O    8.487706  -0.167295   0.503762  -0.147329   0.004965  -0.052438
     2  N   -0.167295   6.451566   0.245349  -0.081665   0.399210   0.111224
     3  C    0.503762   0.245349   4.631283   0.291567  -0.061664   0.012106
     4  C   -0.147329  -0.081665   0.291567   5.174231  -0.052039   0.535410
     5  C    0.004965   0.399210  -0.061664  -0.052039   4.817872  -0.027842
     6  C   -0.052438   0.111224   0.012106   0.535410  -0.027842   4.818835
     7  C    0.003275  -0.080826  -0.043579  -0.036211   0.459721   0.490311
     8  H    0.006497   0.357339  -0.019551  -0.038296  -0.035729   0.016636
     9  H   -0.001604   0.019504  -0.052019   0.370544  -0.004154   0.016881
    10  H    0.006709  -0.120590   0.008610   0.013036   0.429545  -0.023803
    11  H    0.000034   0.027542   0.025648  -0.069450   0.010326   0.402010
    12  H    0.000490   0.006205  -0.006251   0.008156  -0.039622  -0.015821
               7          8          9         10         11         12
     1  O    0.003275   0.006497  -0.001604   0.006709   0.000034   0.000490
     2  N   -0.080826   0.357339   0.019504  -0.120590   0.027542   0.006205
     3  C   -0.043579  -0.019551  -0.052019   0.008610   0.025648  -0.006251
     4  C   -0.036211  -0.038296   0.370544   0.013036  -0.069450   0.008156
     5  C    0.459721  -0.035729  -0.004154   0.429545   0.010326  -0.039622
     6  C    0.490311   0.016636   0.016881  -0.023803   0.402010  -0.015821
     7  C    4.818242  -0.004225  -0.002550  -0.058689  -0.004040   0.394528
     8  H   -0.004225   0.501816  -0.008380  -0.025928   0.009438   0.002994
     9  H   -0.002550  -0.008380   0.651506   0.000757  -0.058366   0.002849
    10  H   -0.058689  -0.025928   0.000757   0.763861  -0.008309  -0.067343
    11  H   -0.004040   0.009438  -0.058366  -0.008309   0.711376  -0.047299
    12  H    0.394528   0.002994   0.002849  -0.067343  -0.047299   0.711162
 Mulliken charges:
               1
     1  O   -0.644771
     2  N   -0.167563
     3  C    0.464738
     4  C    0.032045
     5  C    0.099411
     6  C   -0.283509
     7  C    0.064043
     8  H    0.237389
     9  H    0.065031
    10  H    0.082145
    11  H    0.001090
    12  H    0.049952
 Sum of Mulliken charges =  -0.00000
 Mulliken charges with hydrogens summed into heavy atoms:
               1
     1  O   -0.644771
     2  N    0.069826
     3  C    0.464738
     4  C    0.097076
     5  C    0.181555
     6  C   -0.282419
     7  C    0.113995
 Electronic spatial extent (au):  <R**2>=            631.6914
 Charge=             -0.0000 electrons
 Dipole moment (field-independent basis, Debye):
    X=             -1.4369    Y=             -4.1186    Z=              0.0000  Tot=              4.3620
 Quadrupole moment (field-independent basis, Debye-Ang):
   XX=            -31.4627   YY=            -48.2928   ZZ=            -43.1058
   XY=             -0.7815   XZ=              0.0000   YZ=              0.0000
 Traceless Quadrupole moment (field-independent basis, Debye-Ang):
   XX=              9.4911   YY=             -7.3390   ZZ=             -2.1521
   XY=             -0.7815   XZ=              0.0000   YZ=              0.0000
 Octapole moment (field-independent basis, Debye-Ang**2):
  XXX=            -11.8159  YYY=            -29.9678  ZZZ=              0.0000  XYY=             -1.2824
  XXY=              1.9107  XXZ=              0.0000  XZZ=             -1.6537  YZZ=              5.3493
  YYZ=              0.0000  XYZ=              0.0000
 Hexadecapole moment (field-independent basis, Debye-Ang**3):
 XXXX=           -244.0468 YYYY=           -543.7491 ZZZZ=            -47.3275 XXXY=             -3.7580
 XXXZ=              0.0000 YYYX=             -3.3142 YYYZ=             -0.0000 ZZZX=              0.0000
 ZZZY=             -0.0000 XXYY=           -119.3541 XXZZ=            -62.8185 YYZZ=            -96.5082
 XXYZ=              0.0000 YYXZ=              0.0000 ZZXY=             -0.9712
 N-N= 2.750774566563D+02 E-N=-1.304983338119D+03  KE= 3.221562018256D+02
 Symmetry A'   KE= 3.106384740578D+02
 Symmetry A"   KE= 1.151772776785D+01
 No NMR shielding tensors so no spin-rotation constants.
 Leave Link  601 at Thu Aug 26 21:41:51 2021, MaxMem= 17179869184 cpu:       184.9
 (Enter /public3/home/sc51754/softwares/g09e01/l701.exe)
 Compute integral first derivatives.
 ... and contract with generalized density number  0.
 Leave Link  701 at Thu Aug 26 21:41:54 2021, MaxMem= 17179869184 cpu:       157.0
 (Enter /public3/home/sc51754/softwares/g09e01/l702.exe)
 L702 exits ... SP integral derivatives will be done elsewhere.
 Leave Link  702 at Thu Aug 26 21:41:54 2021, MaxMem= 17179869184 cpu:         1.5
 (Enter /public3/home/sc51754/softwares/g09e01/l703.exe)
 Compute integral first derivatives, UseDBF=F ICtDFT=           0.
 Integral derivatives from FoFJK, PRISM(SPDF).
 Calling FoFJK, ICntrl=      2127 FMM=F ISym2X=1 I1Cent= 0 IOpClX= 0 NMat=1 NMatS=1 NMatT=0.
[...]
     35  0.000000D+00  0.123579D-02  0.289028D-03  0.000000D+00 -0.127636D-02
     36 -0.284320D-01  0.000000D+00  0.000000D+00  0.177035D-02  0.000000D+00
               26            27            28            29            30 
     26  0.281446D+00
     27  0.000000D+00  0.242267D-01
     28 -0.128485D-03  0.000000D+00  0.117281D+00
     29 -0.479629D-05  0.000000D+00  0.115948D+00  0.305791D+00
     30  0.000000D+00 -0.122181D-02  0.000000D+00  0.000000D+00  0.243626D-01
     31 -0.438969D-03  0.000000D+00  0.537827D-03 -0.781504D-03  0.000000D+00
     32  0.881785D-03  0.000000D+00  0.836366D-03 -0.957014D-03  0.000000D+00
     33  0.000000D+00 -0.605506D-02  0.000000D+00  0.000000D+00 -0.412803D-03
     34  0.216622D-03  0.000000D+00  0.580675D-03  0.205455D-03  0.000000D+00
     35  0.146266D-03  0.000000D+00 -0.505268D-03  0.853111D-03  0.000000D+00
     36  0.000000D+00  0.575298D-03  0.000000D+00  0.000000D+00 -0.502018D-02
               31            32            33            34            35 
     31  0.134063D+00
     32 -0.128516D+00  0.279236D+00
     33  0.000000D+00  0.000000D+00  0.269433D-01
     34  0.651964D-03 -0.171207D-03  0.000000D+00  0.365043D+00
     35  0.789005D-03  0.106716D-02  0.000000D+00  0.394143D-02  0.568885D-01
     36  0.000000D+00  0.000000D+00 -0.225155D-02  0.000000D+00  0.000000D+00
               36 
     36  0.231524D-01
 FormGI is forming the generalized inverse of G from B-inverse, IUseBI=4.
 Leave Link  716 at Thu Aug 26 23:27:26 2021, MaxMem= 17179869184 cpu:        66.6
 (Enter /public3/home/sc51754/softwares/g09e01/l103.exe)

 GradGradGradGradGradGradGradGradGradGradGradGradGradGradGradGradGradGrad
 Berny optimization.
 Red2BG is reusing G-inverse.
 Internal  Forces:  Max     0.000222448 RMS     0.000044630
 Search for a local minimum.
 Step number   1 out of a maximum of    2
 All quantities printed in internal units (Hartrees-Bohrs-Radians)
 Second derivative matrix not updated -- analytic derivatives used.
 ITU=  0
     Eigenvalues ---    0.00831   0.01137   0.01572   0.01733   0.01994
     Eigenvalues ---    0.02236   0.02687   0.03287   0.04700   0.10341
     Eigenvalues ---    0.10910   0.11180   0.12183   0.12735   0.17057
     Eigenvalues ---    0.19488   0.20382   0.23125   0.30779   0.31285
     Eigenvalues ---    0.35446   0.36053   0.36315   0.36609   0.37420
     Eigenvalues ---    0.41325   0.46077   0.50488   0.53381   0.78349
 Angle between quadratic step and forces=  33.84 degrees.
 Linear search not attempted -- first point.
 Iteration  1 RMS(Cart)=  0.00024491 RMS(Int)=  0.00000006
 Iteration  2 RMS(Cart)=  0.00000006 RMS(Int)=  0.00000000
 ITry= 1 IFail=0 DXMaxC= 7.65D-04 DCOld= 1.00D+10 DXMaxT= 3.00D-01 DXLimC= 3.00D+00 Rises=F
 ClnCor:  largest displacement from symmetrization is 2.35D-13 for atom    11.
 Variable       Old X    -DE/DX   Delta X   Delta X   Delta X     New X
                                 (Linear)    (Quad)   (Total)
    R1        2.30852  -0.00022   0.00000  -0.00038  -0.00038   2.30814
    R2        2.65728   0.00009   0.00000   0.00037   0.00037   2.65765
    R3        2.56782  -0.00002   0.00000  -0.00006  -0.00006   2.56776
    R4        1.90619  -0.00001   0.00000  -0.00003  -0.00003   1.90616
    R5        2.73466   0.00007   0.00000   0.00028   0.00028   2.73493
    R6        2.56903  -0.00002   0.00000  -0.00006  -0.00006   2.56897
    R7        2.03945  -0.00003   0.00000  -0.00008  -0.00008   2.03937
    R8        2.56427  -0.00008   0.00000  -0.00021  -0.00021   2.56406
    R9        2.04029   0.00002   0.00000   0.00007   0.00007   2.04036
   R10        2.68645   0.00005   0.00000   0.00022   0.00022   2.68667
   R11        2.04496   0.00002   0.00000   0.00005   0.00005   2.04501
   R12        2.03629   0.00000   0.00000  -0.00001  -0.00001   2.03627
    A1        2.18808  -0.00004   0.00000  -0.00018  -0.00018   2.18790
    A2        1.99675   0.00005   0.00000   0.00039   0.00039   1.99714
    A3        2.09836  -0.00001   0.00000  -0.00021  -0.00021   2.09815
    A4        2.09362   0.00004   0.00000   0.00017   0.00017   2.09379
    A5        2.21536  -0.00003   0.00000  -0.00009  -0.00009   2.21527
    A6        1.97421  -0.00001   0.00000  -0.00008  -0.00008   1.97413
    A7        2.12177  -0.00001   0.00000   0.00004   0.00004   2.12181
    A8        2.03031   0.00006   0.00000   0.00039   0.00039   2.03070
    A9        2.13110  -0.00005   0.00000  -0.00043  -0.00043   2.13067
   A10        2.10182   0.00006   0.00000   0.00032   0.00032   2.10213
   A11        2.02835   0.00004   0.00000   0.00036   0.00036   2.02871
   A12        2.15302  -0.00010   0.00000  -0.00068  -0.00068   2.15234
   A13        2.12066   0.00001   0.00000   0.00003   0.00003   2.12068
   A14        2.08550   0.00001   0.00000   0.00009   0.00009   2.08559
   A15        2.07703  -0.00002   0.00000  -0.00012  -0.00012   2.07691
   A16        2.05984  -0.00001   0.00000  -0.00013  -0.00013   2.05971
   A17        2.10052   0.00006   0.00000   0.00051   0.00051   2.10103
   A18        2.12283  -0.00005   0.00000  -0.00038  -0.00038   2.12244
    D1        3.14159  -0.00000   0.00000   0.00000   0.00000   3.14159
    D2        0.00000  -0.00000   0.00000   0.00000  -0.00000   0.00000
    D3        0.00000   0.00000   0.00000   0.00000   0.00000   0.00000
    D4        3.14159   0.00000   0.00000   0.00000   0.00000   3.14159
    D5       -0.00000  -0.00000   0.00000  -0.00000   0.00000   0.00000
    D6        3.14159   0.00000   0.00000  -0.00000   0.00000   3.14159
    D7        3.14159   0.00000   0.00000  -0.00000   0.00000   3.14159
    D8        0.00000  -0.00000   0.00000   0.00000   0.00000   0.00000
    D9        3.14159  -0.00000   0.00000  -0.00000   0.00000   3.14159
   D10       -0.00000   0.00000   0.00000   0.00000   0.00000   0.00000
   D11       -0.00000   0.00000   0.00000  -0.00000   0.00000   0.00000
   D12        3.14159  -0.00000   0.00000  -0.00000   0.00000   3.14159
   D13        0.00000  -0.00000   0.00000  -0.00000  -0.00000   0.00000
   D14        3.14159  -0.00000   0.00000  -0.00000   0.00000   3.14159
   D15        3.14159   0.00000   0.00000  -0.00000   0.00000   3.14159
   D16       -0.00000   0.00000   0.00000  -0.00000   0.00000   0.00000
   D17        0.00000  -0.00000   0.00000   0.00000  -0.00000   0.00000
   D18        3.14159   0.00000   0.00000  -0.00000   0.00000   3.14159
   D19        3.14159   0.00000   0.00000   0.00000   0.00000   3.14159
   D20       -0.00000   0.00000   0.00000  -0.00000   0.00000   0.00000
   D21       -0.00000  -0.00000   0.00000   0.00000   0.00000   0.00000
   D22        3.14159  -0.00000   0.00000   0.00000   0.00000   3.14159
   D23        3.14159  -0.00000   0.00000   0.00000   0.00000   3.14159
   D24        0.00000  -0.00000   0.00000   0.00000   0.00000   0.00000
         Item               Value     Threshold  Converged?
 Maximum Force            0.000222     0.000450     YES
 RMS     Force            0.000045     0.000300     YES
 Maximum Displacement     0.000765     0.001800     YES
 RMS     Displacement     0.000245     0.001200     YES
 Predicted change in Energy=-2.022721D-07
 Optimization completed.
    -- Stationary point found.
                           ----------------------------
                           !   Optimized Parameters   !
                           ! (Angstroms and Degrees)  !
 --------------------------                            --------------------------
 ! Name  Definition              Value          Derivative Info.                !
 --------------------------------------------------------------------------------
 ! R1    R(1,3)                  1.2216         -DE/DX =   -0.0002              !
 ! R2    R(2,3)                  1.4062         -DE/DX =    0.0001              !
 ! R3    R(2,5)                  1.3588         -DE/DX =    0.0                 !
 ! R4    R(2,8)                  1.0087         -DE/DX =    0.0                 !
 ! R5    R(3,4)                  1.4471         -DE/DX =    0.0001              !
 ! R6    R(4,6)                  1.3595         -DE/DX =    0.0                 !
 ! R7    R(4,9)                  1.0792         -DE/DX =    0.0                 !
 ! R8    R(5,7)                  1.357          -DE/DX =   -0.0001              !
 ! R9    R(5,10)                 1.0797         -DE/DX =    0.0                 !
 ! R10   R(6,7)                  1.4216         -DE/DX =    0.0001              !
 ! R11   R(6,11)                 1.0821         -DE/DX =    0.0                 !
 ! R12   R(7,12)                 1.0776         -DE/DX =    0.0                 !
 ! A1    A(3,2,5)              125.3677         -DE/DX =    0.0                 !
 ! A2    A(3,2,8)              114.4053         -DE/DX =    0.0001              !
 ! A3    A(5,2,8)              120.2271         -DE/DX =    0.0                 !
 ! A4    A(1,3,2)              119.9554         -DE/DX =    0.0                 !
 ! A5    A(1,3,4)              126.9307         -DE/DX =    0.0                 !
 ! A6    A(2,3,4)              113.1139         -DE/DX =    0.0                 !
 ! A7    A(3,4,6)              121.5687         -DE/DX =    0.0                 !
 ! A8    A(3,4,9)              116.3284         -DE/DX =    0.0001              !
 ! A9    A(6,4,9)              122.1029         -DE/DX =    0.0                 !
 ! A10   A(2,5,7)              120.4252         -DE/DX =    0.0001              !
 ! A11   A(2,5,10)             116.216          -DE/DX =    0.0                 !
 ! A12   A(7,5,10)             123.3589         -DE/DX =   -0.0001              !
 ! A13   A(4,6,7)              121.5047         -DE/DX =    0.0                 !
 ! A14   A(4,6,11)             119.4901         -DE/DX =    0.0                 !
 ! A15   A(7,6,11)             119.0052         -DE/DX =    0.0                 !
 ! A16   A(5,7,6)              118.0199         -DE/DX =    0.0                 !
 ! A17   A(5,7,12)             120.3512         -DE/DX =    0.0001              !
 ! A18   A(6,7,12)             121.629          -DE/DX =    0.0                 !
 ! D1    D(5,2,3,1)            180.0            -DE/DX =    0.0                 !
 ! D2    D(5,2,3,4)              0.0            -DE/DX =    0.0                 !
 ! D3    D(8,2,3,1)              0.0            -DE/DX =    0.0                 !
 ! D4    D(8,2,3,4)            180.0            -DE/DX =    0.0                 !
 ! D5    D(3,2,5,7)              0.0            -DE/DX =    0.0                 !
 ! D6    D(3,2,5,10)           180.0            -DE/DX =    0.0                 !
 ! D7    D(8,2,5,7)            180.0            -DE/DX =    0.0                 !
 ! D8    D(8,2,5,10)             0.0            -DE/DX =    0.0                 !
 ! D9    D(1,3,4,6)            180.0            -DE/DX =    0.0                 !
 ! D10   D(1,3,4,9)              0.0            -DE/DX =    0.0                 !
 ! D11   D(2,3,4,6)              0.0            -DE/DX =    0.0                 !
 ! D12   D(2,3,4,9)            180.0            -DE/DX =    0.0                 !
 ! D13   D(3,4,6,7)              0.0            -DE/DX =    0.0                 !
 ! D14   D(3,4,6,11)           180.0            -DE/DX =    0.0                 !
 ! D15   D(9,4,6,7)            180.0            -DE/DX =    0.0                 !
 ! D16   D(9,4,6,11)             0.0            -DE/DX =    0.0                 !
 ! D17   D(2,5,7,6)              0.0            -DE/DX =    0.0                 !
 ! D18   D(2,5,7,12)           180.0            -DE/DX =    0.0                 !
 ! D19   D(10,5,7,6)           180.0            -DE/DX =    0.0                 !
 ! D20   D(10,5,7,12)            0.0            -DE/DX =    0.0                 !
 ! D21   D(4,6,7,5)              0.0            -DE/DX =    0.0                 !
 ! D22   D(4,6,7,12)           180.0            -DE/DX =    0.0                 !
 ! D23   D(11,6,7,5)           180.0            -DE/DX =    0.0                 !
 ! D24   D(11,6,7,12)            0.0            -DE/DX =    0.0                 !
 --------------------------------------------------------------------------------
 GradGradGradGradGradGradGradGradGradGradGradGradGradGradGradGradGradGrad

 Leave Link  103 at Thu Aug 26 23:27:27 2021, MaxMem= 17179869184 cpu:        61.4
 (Enter /public3/home/sc51754/softwares/g09e01/l9999.exe)
 1\1\GINC-U2107\Freq\RB3LYP\Gen\C5H5N1O1\SC51754\26-Aug-2021\0\\#P Geom
 =AllCheck Guess=TCheck SCRF=Check GenChk RB3LYP/ChkBas Freq\\PY_aug-pc
 -3_B3LYP_OPT_FREQ\\0,1\O,2.2821117043,-0.0946612476,0.\N,0.2681090631,
 -1.1571797758,0.\C,1.0643172424,0.0018626332,0.\C,0.2889381716,1.22372
 10891,0.\C,-1.0905641835,-1.1780589954,0.\C,-1.0703912041,1.2040256147
 ,0.\C,-1.7956394383,-0.0186676834,0.\H,0.7892547516,-2.0208383719,0.\H
 ,0.8491818673,2.1461470708,0.\H,-1.552577301,-2.1538881182,0.\H,-1.616
 6946117,2.1381541216,0.\H,-2.8730460618,-0.0366163371,0.\\Version=EM64
 L-G09RevE.01\State=1-A'\HF=-323.6762879\RMSD=3.272e-09\RMSF=8.063e-05\
 ZeroPoint=0.093581\Thermal=0.098826\Dipole=-1.6462472,-0.4904381,0.\Di
 poleDeriv=-1.7987066,0.0284107,0.,0.2073264,-0.426512,0.,0.,0.,-0.4201
 03,-0.7616187,0.360628,0.,-0.5314089,-0.3381272,0.,0.,0.,-0.2239777,2.
 1875517,0.0081416,0.,-0.1162878,0.4344755,0.,0.,0.,0.2560502,-0.591546
 1,-0.0392613,0.,0.4951836,-0.0526369,0.,0.,0.,-0.1579475,0.4319043,-0.
 5850086,0.,-0.0329554,0.3130083,0.,0.,0.,-0.0141022,0.4613406,0.153668
 5,0.,0.2259783,0.3878641,0.,0.,0.,-0.06981,-0.1270041,0.1201602,0.,-0.
 1861536,-0.5412506,0.,0.,0.,-0.2013645,0.1410466,-0.0185595,0.,-0.0344
 135,0.2259566,0.,0.,0.,0.2722615,0.0350874,-0.0447952,0.,-0.0334067,-0
 .0012514,0.,0.,0.,0.1411953,0.0331795,-0.0360535,0.,-0.045499,-0.01614
 24,0.,0.,0.,0.140271,0.035745,0.0698507,0.,0.0738464,-0.0458702,0.,0.,
 0.,0.1185851,-0.0469797,-0.0171816,0.,-0.0222097,0.0604862,0.,0.,0.,0.
 1589416\Polar=93.540409,0.7323366,77.462994,0.,0.,43.0311849\PG=CS [SG
 (C5H5N1O1)]\NImag=0\\0.74992462,-0.04270927,0.09491469,0.,0.,0.0331545
 2,-0.07273210,-0.07143229,0.,0.75063797,-0.04381510,0.00940539,0.,-0.1
 1570812,0.73093229,0.,0.,0.01934037,0.,0.,0.07652254,-0.61844094,0.054
 81682,0.,-0.13326568,-0.01772239,0.,0.89665175,0.05826362,-0.10639550,
 0.,0.02929844,-0.20014236,0.,-0.09298734,0.53266646,0.,0.,-0.07325953,
 0.,0.,-0.06055114,0.,0.,0.19884270,-0.05730438,0.05012785,0.,0.0471935
 7,-0.00571821,0.,-0.12539628,0.02514626,0.,0.76344850,0.02834851,0.005
 67022,0.,-0.01209130,-0.04510034,0.,0.04852074,-0.21040152,0.,0.076026
 59,0.64792876,0.,0.,0.02194654,0.,0.,0.00510403,0.,0.,-0.07832822,0.,0
 .,0.11890223,-0.00375162,0.01571057,0.,-0.32183888,0.02159718,0.,-0.02
 410248,-0.07951890,0.,-0.03458331,0.01864215,0.,0.66490106,-0.00190628
 ,-0.00979082,0.,-0.02906424,-0.14870211,0.,-0.02547238,0.03379409,0.,0
 .02083007,-0.01244412,0.,-0.01557538,0.82214335,0.,0.,0.00486059,0.,0.
 ,-0.04553903,0.,0.,-0.00280791,0.,0.,0.00067725,0.,0.,0.13942554,0.012
 64077,-0.00595194,0.,-0.03647281,-0.00475317,0.,-0.02870649,0.04729339
 ,0.,-0.42206209,-0.02315539,0.,0.05147438,-0.01784603,0.,0.73754366,0.
 00882963,-0.01359094,0.,-0.03349214,-0.00673265,0.,0.03053841,0.040530
 93,0.,0.01920165,-0.13392701,0.,0.01985796,-0.06161666,0.,-0.04783172,
 0.67143913,0.,0.,0.00403103,0.,0.,-0.00484131,0.,0.,0.00045282,0.,0.,-
 0.05763196,0.,0.,0.00803380,0.,0.,0.14481615,-0.00467407,-0.00328533,0
 .,-0.04937934,0.03638001,0.,0.00542822,0.01149079,0.,-0.02520363,-0.03
 451669,0.,-0.19572635,0.14436710,0.,-0.16304599,-0.09213354,0.,0.76341
 424,-0.00906157,0.01110877,0.,0.06685010,0.01275681,0.,0.00089368,-0.0
 5044385,0.,-0.05605941,0.02171553,0.,0.10109637,-0.33825656,0.,-0.0418
 7460,-0.23660696,0.,-0.05630377,0.66523612,0.,0.,-0.00022538,0.,0.,0.0
 1247926,0.,0.,-0.00739826,0.,0.,0.00817475,0.,0.,-0.06504432,0.,0.,-0.
 06262372,0.,0.,0.11708964,-0.00213518,0.00437360,0.,-0.16443556,0.1588
 6978,0.,0.02072186,-0.01692520,0.,-0.00309410,-0.00309121,0.,-0.013901
 93,0.03221181,0.,0.00060976,0.00002537,0.,-0.00538856,-0.00412505,0.,0
 .16650457,0.00053523,0.00522306,0.,0.16023456,-0.34773864,0.,0.0202934
 8,-0.02376915,0.,-0.00368980,-0.00405696,0.,-0.00113633,0.00790726,0.,
 -0.00259242,-0.00122982,0.,-0.00272018,0.00437845,0.,-0.17122798,0.358
 98442,0.,0.,-0.00457953,0.,0.,-0.01697159,0.,0.,0.00329368,0.,0.,0.004
 49527,0.,0.,-0.00518489,0.,0.,-0.00068487,0.,0.,0.00504451,0.,0.,0.016
 63491,0.00079327,-0.00177464,0.,-0.00124447,0.00398178,0.,0.01138791,0
 .01484883,0.,-0.13103881,-0.12587302,0.,-0.00116220,0.00058709,0.,-0.0
 1185327,-0.02827091,0.,-0.00467700,0.00177832,0.,0.00065037,0.00094078
 ,0.,0.13633630,0.00113453,0.00297152,0.,0.00284824,-0.00489359,0.,-0.0
 1870313,-0.01772568,0.,-0.12405644,-0.26927726,0.,0.00231052,-0.000056
 75,0.,0.00198641,0.00511440,0.,0.00077379,0.00242213,0.,-0.00094066,-0
 .00102418,0.,0.13499757,0.28144615,0.,0.,-0.00217982,0.,0.,0.00479052,
 0.,0.,0.00288600,0.,0.,-0.03456529,0.,0.,-0.00071923,0.,0.,0.00351973,
 0.,0.,0.00924557,0.,0.,-0.00050261,0.,0.,0.02422670,-0.00283115,-0.001
 79434,0.,-0.01960399,-0.03636923,0.,-0.00061911,0.00675073,0.,0.000054
 76,-0.00018166,0.,-0.10776080,-0.10175818,0.,-0.00178984,0.00283548,0.
 ,0.01319780,0.01466133,0.,0.00084317,-0.00029453,0.,0.00011012,-0.0001
 2848,0.,0.11728053,-0.00015076,-0.00020555,0.,0.00076343,0.00425218,0.
 ,0.00163216,0.00236699,0.,0.00062994,0.00054072,0.,-0.10801595,-0.2943
 5645,0.,0.00422465,-0.00315048,0.,-0.01390004,-0.01612752,0.,-0.000448
 96,0.00099772,0.,-0.00010619,-0.00000480,0.,0.11594779,0.30579108,0.,0
 .,-0.00015215,0.,0.,0.00286964,0.,0.,0.00505503,0.,0.,-0.00004619,0.,0
 .,-0.03779226,0.,0.,0.00795882,0.,0.,0.00700669,0.,0.,-0.00260736,0.,0
 .,-0.00122181,0.,0.,0.02436256,-0.00142844,0.00183262,0.,-0.00027060,0
 .00027372,0.,-0.00424117,-0.00334123,0.,-0.01261083,0.02990832,0.,-0.0
 0119275,-0.00343345,0.,-0.12878324,0.11832777,0.,0.01205664,-0.0146552
 6,0.,0.00002151,0.00003492,0.,0.00119617,-0.00043897,0.,0.00053783,-0.
 00078150,0.,0.13406292,0.00056095,-0.00004851,0.,-0.00059346,0.0010199
 7,0.,-0.00172802,0.00146279,0.,-0.00086714,0.00415876,0.,-0.00403970,-
 0.00392319,0.,0.11891073,-0.26492018,0.,0.01539796,-0.01801593,0.,0.00
 004271,0.00003880,0.,0.00016676,0.00088179,0.,0.00083637,-0.00095701,0
 .,-0.12851596,0.27923556,0.,0.,-0.00245943,0.,0.,-0.00076343,0.,0.,0.0
 1212670,0.,0.,0.00758338,0.,0.,0.00456095,0.,0.,-0.04324739,0.,0.,0.00
 468323,0.,0.,-0.00070788,0.,0.,-0.00605506,0.,0.,-0.00041280,0.,0.,0.0
 2694329,-0.00006078,0.00008634,0.,0.00141188,0.00298375,0.,0.00058240,
 -0.00031938,0.,0.00059661,-0.00253705,0.,-0.01235512,-0.00294014,0.,-0
 .00955485,0.00211205,0.,-0.34600197,-0.00320014,0.,-0.00039592,-0.0003
 7773,0.,-0.00049838,0.00021662,0.,0.00058068,0.00020545,0.,0.00065196,
 -0.00017121,0.,0.36504348,-0.00002949,0.00073767,0.,0.00238677,-0.0050
 5695,0.,-0.00008203,-0.00194320,0.,-0.00157135,-0.00480678,0.,0.029071
 51,0.00530194,0.,-0.02840991,0.00469023,0.,-0.00555009,-0.05816699,0.,
 0.00123579,0.00028903,0.,-0.00127636,0.00014627,0.,-0.00050527,0.00085
 311,0.,0.00078901,0.00106716,0.,0.00394143,0.05688851,0.,0.,-0.0004772
 2,0.,0.,0.00756014,0.,0.,-0.00031187,0.,0.,0.00368818,0.,0.,-0.0004705
 0,0.,0.,0.00021690,0.,0.,-0.02843199,0.,0.,0.00177035,0.,0.,0.00057530
 ,0.,0.,-0.00502018,0.,0.,-0.00225155,0.,0.,0.02315244\\0.00021968,-0.0
 0004198,0.,0.00002385,0.00009598,0.,-0.00027222,0.00003709,0.,-0.00003
 108,-0.00005692,0.,-0.00011281,-0.00012036,0.,-0.00006400,-0.00005884,
 0.,0.00005681,0.00020911,0.,0.00003556,0.00001390,0.,0.00005762,-0.000
 00167,0.,0.00006839,-0.00001392,0.,0.00001717,-0.00000924,0.,0.0000010
 2,-0.00005315,0.\\\@


 WHEN ALL ELSE FAILS, LOOK AT THE SCHRODINGER EQUATION.
     -- RUSSELL T. PACK, APRIL 1978
 Job cpu time:       2 days  6 hours  7 minutes 44.3 seconds.
 File lengths (MBytes):  RWF=    509 Int=      0 D2E=      0 Chk=     50 Scr=      1
 Normal termination of Gaussian 09 at Thu Aug 26 23:27:27 2021.
