 Entering Gaussian System, Link 0=g09
 AtFile(1): aug-pc-2.gbs
            -H     0
            S    4   1.00
                  0.754230D+02           0.240650D-02
                  0.113500D+02           0.184870D-01
                  0.259930D+01           0.897420D-01
                  0.735130D+00           0.281110D+00
            S    1   1.00
                  0.231670D+00           0.100000D+01
            S    1   1.00
                  0.741470D-01           0.100000D+01
            S    1   1.00
                  0.223340D-01           0.100000D+01
            P    1   1.00
                  0.160000D+01           0.100000D+01
            P    1   1.00
                  0.450000D+00           0.100000D+01
            P    1   1.00
                  0.670010D-01           0.100000D+01
            D    1   1.00
                  0.125000D+01           0.100000D+01
            D    1   1.00
                  0.893340D-01           0.100000D+01
            ****
            -C     0
            S    7   1.00
                  0.785710D+04           0.568250D-03
                  0.117870D+04           0.439150D-02
                  0.268320D+03           0.225040D-01
                  0.759480D+02           0.866530D-01
                  0.245590D+02           0.244050D+00
                  0.862120D+01           0.441480D+00
                  0.312780D+01           0.353320D+00
            S    7   1.00
                  0.117870D+04          -0.594920D-06
                  0.268320D+03          -0.627480D-04
                  0.759480D+02          -0.757730D-03
                  0.245590D+02          -0.733080D-02
                  0.862120D+01          -0.389320D-01
                  0.312780D+01          -0.889080D-01
                  0.822020D+00           0.216890D+00
            S    1   1.00
                  0.330170D+00           0.100000D+01
            S    1   1.00
                  0.114630D+00           0.100000D+01
            S    1   1.00
                  0.372170D-01           0.100000D+01
            P    4   1.00
                  0.337750D+02           0.602940D-02
                  0.767660D+01           0.432280D-01
                  0.223570D+01           0.163010D+00
                  0.764470D+00           0.365040D+00
            P    1   1.00
                  0.262320D+00           0.100000D+01
            P    1   1.00
                  0.846380D-01           0.100000D+01
            P    1   1.00
                  0.264490D-01           0.100000D+01
            D    1   1.00
                  0.140000D+01           0.100000D+01
            D    1   1.00
                  0.450000D+00           0.100000D+01
            D    1   1.00
                  0.793480D-01           0.100000D+01
            F    1   1.00
                  0.950000D+00           0.100000D+01
            F    1   1.00
                  0.105800D+00           0.100000D+01
            ****
            -N     0
            S    7   1.00
                  0.111010D+05           0.545700D-03
                  0.166530D+04           0.421810D-02
                  0.379080D+03           0.216450D-01
                  0.107300D+03           0.837760D-01
                  0.347470D+02           0.238810D+00
                  0.122490D+02           0.439940D+00
                  0.447430D+01           0.363640D+00
            S    7   1.00
                  0.166530D+04          -0.150060D-05
                  0.379080D+03          -0.587530D-04
                  0.107300D+03          -0.774530D-03
                  0.347470D+02          -0.721610D-02
                  0.122490D+02          -0.393380D-01
                  0.447430D+01          -0.906110D-01
                  0.124040D+01           0.198820D+00
            S    1   1.00
                  0.487430D+00           0.100000D+01
            S    1   1.00
                  0.164840D+00           0.100000D+01
            S    1   1.00
                  0.521650D-01           0.100000D+01
            P    4   1.00
                  0.479340D+02           0.617060D-02
                  0.109990D+02           0.442600D-01
                  0.324720D+01           0.168250D+00
                  0.111140D+01           0.368480D+00
            P    1   1.00
                  0.379880D+00           0.100000D+01
            P    1   1.00
                  0.120680D+00           0.100000D+01
            P    1   1.00
                  0.360230D-01           0.100000D+01
            D    1   1.00
                  0.180000D+01           0.100000D+01
            D    1   1.00
                  0.550000D+00           0.100000D+01
            D    1   1.00
                  0.108070D+00           0.100000D+01
            F    1   1.00
                  0.102000D+01           0.100000D+01
            F    1   1.00
                  0.144090D+00           0.100000D+01
            ****
            -O     0
            S    7   1.00
                  0.147820D+05           0.535190D-03
                  0.221730D+04           0.413750D-02
                  0.504740D+03           0.212450D-01
                  0.142870D+03           0.824530D-01
                  0.463000D+02           0.236710D+00
                  0.163370D+02           0.440390D+00
                  0.598280D+01           0.364650D+00
            S    7   1.00
                  0.221730D+04          -0.192750D-05
                  0.504740D+03          -0.579640D-04
                  0.142870D+03          -0.794940D-03
                  0.463000D+02          -0.731250D-02
                  0.163370D+02          -0.405740D-01
                  0.598280D+01          -0.915940D-01
                  0.167180D+01           0.209400D+00
            S    1   1.00
                  0.646620D+00           0.100000D+01
            S    1   1.00
                  0.216690D+00           0.100000D+01
            S    1   1.00
                  0.681410D-01           0.100000D+01
            P    4   1.00
                  0.604240D+02           0.689490D-02
                  0.139350D+02           0.490050D-01
                  0.415310D+01           0.182550D+00
                  0.141580D+01           0.376330D+00
            P    1   1.00
                  0.475490D+00           0.100000D+01
            P    1   1.00
                  0.145290D+00           0.100000D+01
            P    1   1.00
                  0.418710D-01           0.100000D+01
            D    1   1.00
                  0.220000D+01           0.100000D+01
            D    1   1.00
                  0.650000D+00           0.100000D+01
            D    1   1.00
                  0.125610D+00           0.100000D+01
            F    1   1.00
                  0.110000D+01           0.100000D+01
            F    1   1.00
                  0.167480D+00           0.100000D+01
            ****
 Initial command:
 /public3/home/sc51754/softwares/g09e01/l1.exe "./Gau-59258.inp" -scrdir="./"
 Entering Link 1 = /public3/home/sc51754/softwares/g09e01/l1.exe PID=     59259.
  
 Copyright (c) 1988,1990,1992,1993,1995,1998,2003,2009,2015,
            Gaussian, Inc.  All Rights Reserved.
  
 This is part of the Gaussian(R) 09 program.  It is based on
 the Gaussian(R) 03 system (copyright 2003, Gaussian, Inc.),
 the Gaussian(R) 98 system (copyright 1998, Gaussian, Inc.),
 the Gaussian(R) 94 system (copyright 1995, Gaussian, Inc.),
 the Gaussian 92(TM) system (copyright 1992, Gaussian, Inc.),
 the Gaussian 90(TM) system (copyright 1990, Gaussian, Inc.),
 the Gaussian 88(TM) system (copyright 1988, Gaussian, Inc.),
 the Gaussian 86(TM) system (copyright 1986, Carnegie Mellon
 University), and the Gaussian 82(TM) system (copyright 1983,
 Carnegie Mellon University). Gaussian is a federally registered
 trademark of Gaussian, Inc.
  
 This software contains proprietary and confidential information,
 including trade secrets, belonging to Gaussian, Inc.
  
 This software is provided under written license and may be
 used, copied, transmitted, or stored only in accord with that
 written license.
  
 The following legend is applicable only to US Government
 contracts under FAR:
  
                    RESTRICTED RIGHTS LEGEND
  
 Use, reproduction and disclosure by the US Government is
 subject to restrictions as set forth in subparagraphs (a)
 and (c) of the Commercial Computer Software - Restricted
 Rights clause in FAR 52.227-19.
  
 Gaussian, Inc.
 340 Quinnipiac St., Bldg. 40, Wallingford CT 06492
  
  
 ---------------------------------------------------------------
 Warning -- This program may not be used in any manner that
 competes with the business of Gaussian, Inc. or will provide
 assistance to any competitor of Gaussian, Inc.  The licensee
 of this program is prohibited from giving any competitor of
 Gaussian, Inc. access to this program.  By using this program,
 the user acknowledges that Gaussian, Inc. is engaged in the
 business of creating and licensing software in the field of
 computational chemistry and represents and warrants to the
 licensee that it is not a competitor of Gaussian, Inc. and that
 it will not use this program in any manner prohibited above.
 ---------------------------------------------------------------
  

 Cite this work as:
 Gaussian 09, Revision E.01,
 M. J. Frisch, G. W. Trucks, H. B. Schlegel, G. E. Scuseria, 
 M. A. Robb, J. R. Cheeseman, G. Scalmani, V. Barone, B. Mennucci, 
 G. A. Petersson, H. Nakatsuji, M. Caricato, X. Li, H. P. Hratchian, 
 A. F. Izmaylov, J. Bloino, G. Zheng, J. L. Sonnenberg, M. Hada, 
 M. Ehara, K. Toyota, R. Fukuda, J. Hasegawa, M. Ishida, T. Nakajima, 
 Y. Honda, O. Kitao, H. Nakai, T. Vreven, J. A. Montgomery, Jr., 
 J. E. Peralta, F. Ogliaro, M. Bearpark, J. J. Heyd, E. Brothers, 
 K. N. Kudin, V. N. Staroverov, T. Keith, R. Kobayashi, J. Normand, 
 K. Raghavachari, A. Rendell, J. C. Burant, S. S. Iyengar, J. Tomasi, 
 M. Cossi, N. Rega, J. M. Millam, M. Klene, J. E. Knox, J. B. Cross, 
 V. Bakken, C. Adamo, J. Jaramillo, R. Gomperts, R. E. Stratmann, 
 O. Yazyev, A. J. Austin, R. Cammi, C. Pomelli, J. W. Ochterski, 
 R. L. Martin, K. Morokuma, V. G. Zakrzewski, G. A. Voth, 
 P. Salvador, J. J. Dannenberg, S. Dapprich, A. D. Daniels, 
 O. Farkas, J. B. Foresman, J. V. Ortiz, J. Cioslowski, 
 and D. J. Fox, Gaussian, Inc., Wallingford CT, 2013.
 
 ******************************************
 Gaussian 09:  EM64L-G09RevE.01 30-Nov-2015
                26-Aug-2021 
 ******************************************
 %nprocshared=64
 Will use up to   64 processors via shared memory.
 %mem=128GB
 %chk=PY_aug-pc-2_B3LYP_OPT_FREQ.chk
 --------------------
 # opt freq b3lyp/gen
 --------------------
 1/14=-1,18=20,19=15,26=3,38=1/1,3;
 2/9=110,12=2,17=6,18=5,40=1/2;
 3/5=7,11=2,16=1,25=1,30=1,71=1,74=-5/1,2,3;
 4//1;
 5/5=2,38=5/2;
 6/7=2,8=2,9=2,10=2,28=1/1;
 7//1,2,3,16;
 1/14=-1,18=20,19=15,26=3/3(2);
 2/9=110/2;
 99//99;
 2/9=110/2;
 3/5=7,6=1,11=2,16=1,25=1,30=1,71=1,74=-5,82=7/1,2,3;
 4/5=5,16=3,69=1/1;
 5/5=2,38=5/2;
 7//1,2,3,16;
 1/14=-1,18=20,19=15,26=3/3(-5);
 2/9=110/2;
 6/7=2,8=2,9=2,10=2,19=2,28=1/1;
 99/9=1/99;
 --------------------------
 PY_aug-pc-2_B3LYP_OPT_FREQ
 --------------------------
 Symbolic Z-matrix:
 Charge =  0 Multiplicity = 1
 O                     2.282    -0.023     0. 
 N                     0.285    -1.189     0. 
 C                     1.054    -0.034     0. 
 C                     0.288     1.248     0. 
 C                    -1.088    -1.185     0. 
 C                    -1.052     1.217     0. 
 C                    -1.77     -0.034     0. 
 H                     0.753    -2.09      0. 
 H                     0.841     2.179     0. 
 H                    -1.569    -2.154     0. 
 H                    -1.628     2.135     0. 
 H                    -2.853    -0.016     0. 
 

 GradGradGradGradGradGradGradGradGradGradGradGradGradGradGradGradGradGrad
 Berny optimization.
 Initialization pass.
                           ----------------------------
                           !    Initial Parameters    !
                           ! (Angstroms and Degrees)  !
 --------------------------                            --------------------------
 ! Name  Definition              Value          Derivative Info.                !
 --------------------------------------------------------------------------------
 ! R1    R(1,3)                  1.228          estimate D2E/DX2                !
 ! R2    R(2,3)                  1.3876         estimate D2E/DX2                !
 ! R3    R(2,5)                  1.373          estimate D2E/DX2                !
 ! R4    R(2,8)                  1.0153         estimate D2E/DX2                !
 ! R5    R(3,4)                  1.4934         estimate D2E/DX2                !
 ! R6    R(4,6)                  1.3404         estimate D2E/DX2                !
 ! R7    R(4,9)                  1.0829         estimate D2E/DX2                !
 ! R8    R(5,7)                  1.3379         estimate D2E/DX2                !
 ! R9    R(5,10)                 1.0818         estimate D2E/DX2                !
 ! R10   R(6,7)                  1.4424         estimate D2E/DX2                !
 ! R11   R(6,11)                 1.0837         estimate D2E/DX2                !
 ! R12   R(7,12)                 1.0831         estimate D2E/DX2                !
 ! A1    A(3,2,5)              123.4888         estimate D2E/DX2                !
 ! A2    A(3,2,8)              118.8959         estimate D2E/DX2                !
 ! A3    A(5,2,8)              117.6153         estimate D2E/DX2                !
 ! A4    A(1,3,2)              124.1689         estimate D2E/DX2                !
 ! A5    A(1,3,4)              120.3453         estimate D2E/DX2                !
 ! A6    A(2,3,4)              115.4858         estimate D2E/DX2                !
 ! A7    A(3,4,6)              119.5332         estimate D2E/DX2                !
 ! A8    A(3,4,9)              118.4318         estimate D2E/DX2                !
 ! A9    A(6,4,9)              122.0349         estimate D2E/DX2                !
 ! A10   A(2,5,7)              120.8149         estimate D2E/DX2                !
 ! A11   A(2,5,10)             116.2323         estimate D2E/DX2                !
 ! A12   A(7,5,10)             122.9528         estimate D2E/DX2                !
 ! A13   A(4,6,7)              121.1785         estimate D2E/DX2                !
 ! A14   A(4,6,11)             120.781          estimate D2E/DX2                !
 ! A15   A(7,6,11)             118.0405         estimate D2E/DX2                !
 ! A16   A(5,7,6)              119.4988         estimate D2E/DX2                !
 ! A17   A(5,7,12)             121.6001         estimate D2E/DX2                !
 ! A18   A(6,7,12)             118.9011         estimate D2E/DX2                !
 ! D1    D(5,2,3,1)            180.0            estimate D2E/DX2                !
 ! D2    D(5,2,3,4)              0.0            estimate D2E/DX2                !
 ! D3    D(8,2,3,1)              0.0            estimate D2E/DX2                !
 ! D4    D(8,2,3,4)            180.0            estimate D2E/DX2                !
 ! D5    D(3,2,5,7)              0.0            estimate D2E/DX2                !
 ! D6    D(3,2,5,10)           180.0            estimate D2E/DX2                !
 ! D7    D(8,2,5,7)            180.0            estimate D2E/DX2                !
 ! D8    D(8,2,5,10)             0.0            estimate D2E/DX2                !
 ! D9    D(1,3,4,6)            180.0            estimate D2E/DX2                !
 ! D10   D(1,3,4,9)              0.0            estimate D2E/DX2                !
 ! D11   D(2,3,4,6)              0.0            estimate D2E/DX2                !
 ! D12   D(2,3,4,9)            180.0            estimate D2E/DX2                !
 ! D13   D(3,4,6,7)              0.0            estimate D2E/DX2                !
 ! D14   D(3,4,6,11)           180.0            estimate D2E/DX2                !
 ! D15   D(9,4,6,7)            180.0            estimate D2E/DX2                !
 ! D16   D(9,4,6,11)             0.0            estimate D2E/DX2                !
 ! D17   D(2,5,7,6)              0.0            estimate D2E/DX2                !
 ! D18   D(2,5,7,12)           180.0            estimate D2E/DX2                !
 ! D19   D(10,5,7,6)           180.0            estimate D2E/DX2                !
 ! D20   D(10,5,7,12)            0.0            estimate D2E/DX2                !
 ! D21   D(4,6,7,5)              0.0            estimate D2E/DX2                !
 ! D22   D(4,6,7,12)           180.0            estimate D2E/DX2                !
 ! D23   D(11,6,7,5)           180.0            estimate D2E/DX2                !
 ! D24   D(11,6,7,12)            0.0            estimate D2E/DX2                !
 --------------------------------------------------------------------------------
 Trust Radius=3.00D-01 FncErr=1.00D-07 GrdErr=1.00D-06
 Number of steps in this run=     64 maximum allowed number of steps=    100.
 GradGradGradGradGradGradGradGradGradGradGradGradGradGradGradGradGradGrad

                          Input orientation:                          
 ---------------------------------------------------------------------
 Center     Atomic      Atomic             Coordinates (Angstroms)
 Number     Number       Type             X           Y           Z
 ---------------------------------------------------------------------
      1          8           0        2.282000   -0.023000    0.000000
      2          7           0        0.285000   -1.189000    0.000000
      3          6           0        1.054000   -0.034000    0.000000
      4          6           0        0.288000    1.248000    0.000000
      5          6           0       -1.088000   -1.185000    0.000000
      6          6           0       -1.052000    1.217000    0.000000
      7          6           0       -1.770000   -0.034000    0.000000
      8          1           0        0.753000   -2.090000    0.000000
      9          1           0        0.841000    2.179000    0.000000
     10          1           0       -1.569000   -2.154000    0.000000
     11          1           0       -1.628000    2.135000    0.000000
     12          1           0       -2.853000   -0.016000    0.000000
 ---------------------------------------------------------------------
                    Distance matrix (angstroms):
                    1          2          3          4          5
     1  O    0.000000
     2  N    2.312480   0.000000
     3  C    1.228049   1.387583   0.000000
     4  C    2.364630   2.437002   1.493412   0.000000
     5  C    3.564708   1.373006   2.431659   2.795150   0.000000
     6  C    3.557127   2.752527   2.449538   1.340359   2.402270
     7  C    4.052015   2.357340   2.824000   2.424642   1.337881
     8  H    2.571056   1.015296   2.077917   3.370233   2.051416
     9  H    2.631594   3.413585   2.223227   1.082853   3.877826
    10  H    4.401291   2.090105   3.372615   3.875829   1.081814
    11  H    4.465990   3.835172   3.449302   2.111356   3.363629
    12  H    5.135005   3.350071   3.907041   3.385790   2.117023
                    6          7          8          9         10
     6  C    0.000000
     7  C    1.442403   0.000000
     8  H    3.767529   3.254637   0.000000
     9  H    2.123415   3.422673   4.269907   0.000000
    10  H    3.410415   2.129507   2.322882   4.958124   0.000000
    11  H    1.083744   2.173643   4.849720   2.469392   4.289406
    12  H    2.182634   1.083150   4.159893   4.296936   2.493933
                   11         12
    11  H    0.000000
    12  H    2.475364   0.000000
 Stoichiometry    C5H5NO
 Framework group  CS[SG(C5H5NO)]
 Deg. of freedom    21
 Full point group                 CS      NOp   2
 Largest Abelian subgroup         CS      NOp   2
 Largest concise Abelian subgroup C1      NOp   1
                         Standard orientation:                         
 ---------------------------------------------------------------------
 Center     Atomic      Atomic             Coordinates (Angstroms)
 Number     Number       Type             X           Y           Z
 ---------------------------------------------------------------------
      1          8           0        0.023182    2.274142    0.000000
      2          7           0       -1.162572    0.288808    0.000000
      3          6           0        0.000000    1.046311    0.000000
      4          6           0        1.274338    0.267631    0.000000
      5          6           0       -1.172193   -1.084165    0.000000
      6          6           0        1.230046   -1.071996    0.000000
      7          6           0       -0.028016   -1.777550    0.000000
      8          1           0       -2.058885    0.765723    0.000000
      9          1           0        2.210778    0.811368    0.000000
     10          1           0       -2.145917   -1.555528    0.000000
     11          1           0        2.142286   -1.657074    0.000000
     12          1           0       -0.020761   -2.860675    0.000000
 ---------------------------------------------------------------------
 Rotational constants (GHZ):      5.5208968      2.8360543      1.8735976
 General basis read from cards:  (5D, 7F)
 There are   349 symmetry adapted cartesian basis functions of A'  symmetry.
 There are   161 symmetry adapted cartesian basis functions of A"  symmetry.
 There are   290 symmetry adapted basis functions of A'  symmetry.
 There are   147 symmetry adapted basis functions of A"  symmetry.
   437 basis functions,   665 primitive gaussians,   510 cartesian basis functions
    25 alpha electrons       25 beta electrons
       nuclear repulsion energy       275.0774566563 Hartrees.
 NAtoms=   12 NActive=   12 NUniq=   12 SFac= 1.00D+00 NAtFMM=   60 NAOKFM=F Big=F
 Integral buffers will be    131072 words long.
 Raffenetti 2 integral format.
 Two-electron integral symmetry is turned on.
 One-electron integrals computed using PRISM.
 NBasis=   437 RedAO= T EigKep=  1.19D-06  NBF=   290   147
 NBsUse=   433 1.00D-06 EigRej=  9.09D-07 NBFU=   286   147
 ExpMin= 2.23D-02 ExpMax= 1.48D+04 ExpMxC= 5.05D+02 IAcc=3 IRadAn=         5 AccDes= 0.00D+00
 Harris functional with IExCor=  402 and IRadAn=       5 diagonalized for initial guess.
 HarFok:  IExCor=  402 AccDes= 0.00D+00 IRadAn=         5 IDoV= 1 UseB2=F ITyADJ=14
 ICtDFT=  3500011 ScaDFX=  1.000000  1.000000  1.000000  1.000000
 FoFCou: FMM=F IPFlag=           0 FMFlag=      100000 FMFlg1=           0
         NFxFlg=           0 DoJE=T BraDBF=F KetDBF=T FulRan=T
         wScrn=  0.000000 ICntrl=     500 IOpCl=  0 I1Cent=   200000004 NGrid=           0
         NMat0=    1 NMatS0=      1 NMatT0=    0 NMatD0=    1 NMtDS0=    0 NMtDT0=    0
 Petite list used in FoFCou.
 Initial guess orbital symmetries:
       Occupied  (A') (A') (A') (A') (A') (A') (A') (A') (A') (A')
                 (A') (A') (A') (A') (A') (A') (A') (A') (A") (A')
                 (A') (A") (A") (A') (A")
       Virtual   (A") (A") (A') (A') (A') (A") (A') (A') (A") (A')
                 (A') (A") (A") (A') (A') (A') (A') (A') (A') (A')
                 (A") (A") (A') (A') (A') (A') (A') (A") (A') (A")
                 (A') (A') (A') (A") (A") (A') (A') (A') (A') (A')
                 (A') (A") (A') (A') (A") (A') (A") (A') (A') (A')
                 (A') (A') (A") (A') (A") (A') (A") (A') (A') (A")
                 (A') (A') (A") (A') (A') (A") (A') (A") (A') (A')
                 (A') (A') (A') (A') (A") (A") (A') (A") (A') (A")
                 (A') (A') (A") (A') (A') (A") (A") (A') (A') (A")
                 (A") (A") (A') (A') (A") (A') (A') (A') (A") (A')
                 (A') (A') (A") (A') (A') (A") (A') (A") (A') (A")
                 (A') (A") (A') (A') (A") (A') (A") (A') (A') (A')
                 (A") (A') (A') (A") (A') (A') (A') (A') (A') (A")
                 (A') (A") (A') (A') (A') (A") (A') (A") (A") (A")
                 (A') (A") (A') (A") (A") (A') (A') (A') (A') (A")
                 (A') (A") (A') (A') (A') (A") (A") (A') (A') (A')
                 (A") (A') (A") (A") (A') (A') (A") (A') (A") (A')
                 (A') (A") (A') (A') (A') (A") (A') (A") (A') (A')
                 (A') (A') (A") (A') (A') (A') (A") (A') (A') (A")
                 (A') (A') (A') (A') (A') (A') (A") (A") (A') (A")
                 (A") (A') (A') (A") (A") (A') (A') (A") (A') (A')
                 (A') (A") (A') (A") (A') (A') (A") (A") (A') (A')
                 (A') (A") (A") (A') (A') (A") (A') (A') (A') (A")
                 (A') (A') (A") (A") (A') (A") (A') (A") (A') (A")
                 (A') (A") (A') (A') (A') (A') (A') (A") (A') (A')
                 (A") (A') (A') (A') (A') (A') (A') (A") (A') (A")
                 (A') (A') (A') (A') (A') (A') (A') (A') (A') (A")
                 (A') (A') (A") (A") (A') (A') (A') (A") (A") (A")
                 (A') (A") (A') (A") (A') (A') (A") (A') (A") (A')
                 (A') (A') (A') (A') (A') (A") (A") (A') (A') (A')
                 (A') (A") (A') (A') (A") (A") (A") (A') (A") (A")
                 (A') (A') (A") (A') (A") (A') (A') (A") (A") (A')
                 (A') (A") (A') (A') (A') (A") (A') (A") (A') (A")
                 (A") (A") (A') (A") (A') (A") (A') (A") (A') (A')
                 (A") (A') (A") (A") (A') (A") (A") (A') (A') (A')
                 (A") (A') (A") (A") (A') (A') (A') (A') (A') (A")
                 (A') (A") (A') (A') (A') (A") (A') (A") (A") (A')
                 (A') (A") (A') (A') (A") (A') (A") (A') (A") (A')
                 (A') (A') (A') (A') (A') (A") (A') (A') (A') (A")
                 (A') (A') (A') (A') (A') (A') (A") (A') (A') (A')
                 (A') (A') (A') (A') (A') (A') (A') (A')
 The electronic state of the initial guess is 1-A'.
 Keep R1 ints in memory in symmetry-blocked form, NReq=6897690747.
 Requested convergence on RMS density matrix=1.00D-08 within 128 cycles.
 Requested convergence on MAX density matrix=1.00D-06.
 Requested convergence on             energy=1.00D-06.
 No special actions if energy rises.
 SCF Done:  E(RB3LYP) =  -323.657222293     A.U. after   14 cycles
            NFock= 14  Conv=0.24D-08     -V/T= 2.0042

 **********************************************************************

            Population analysis using the SCF density.

 **********************************************************************

 Orbital symmetries:
       Occupied  (A') (A') (A') (A') (A') (A') (A') (A') (A') (A')
                 (A') (A') (A') (A') (A') (A') (A') (A") (A') (A')
                 (A') (A") (A") (A') (A")
       Virtual   (A") (A') (A") (A') (A') (A") (A') (A') (A') (A")
                 (A') (A") (A') (A') (A') (A') (A') (A") (A') (A')
                 (A") (A') (A') (A') (A") (A') (A") (A") (A') (A')
                 (A') (A') (A") (A") (A') (A') (A') (A') (A') (A")
                 (A') (A') (A") (A') (A') (A') (A") (A') (A") (A')
                 (A') (A') (A") (A") (A') (A') (A') (A') (A') (A")
                 (A") (A') (A") (A') (A') (A") (A') (A') (A') (A')
                 (A') (A') (A") (A') (A") (A') (A") (A") (A') (A')
                 (A") (A') (A") (A") (A') (A") (A') (A') (A") (A')
                 (A") (A') (A") (A') (A') (A') (A") (A') (A') (A')
                 (A') (A") (A') (A') (A') (A") (A') (A") (A') (A")
                 (A") (A') (A') (A") (A') (A') (A') (A') (A") (A')
                 (A') (A") (A") (A') (A') (A') (A') (A") (A') (A')
                 (A") (A') (A') (A') (A') (A") (A") (A') (A") (A")
                 (A") (A') (A") (A') (A') (A") (A') (A") (A') (A')
                 (A') (A") (A') (A') (A') (A") (A") (A') (A') (A')
                 (A") (A") (A") (A') (A') (A') (A') (A") (A") (A')
                 (A') (A') (A') (A") (A') (A') (A") (A") (A') (A')
                 (A') (A') (A') (A') (A") (A') (A') (A") (A') (A')
                 (A") (A') (A') (A') (A') (A") (A') (A") (A') (A")
                 (A') (A") (A') (A") (A") (A') (A') (A") (A') (A')
                 (A') (A") (A') (A") (A') (A') (A") (A") (A') (A')
                 (A') (A") (A') (A") (A') (A') (A") (A') (A') (A")
                 (A') (A') (A") (A') (A") (A') (A") (A') (A") (A')
                 (A") (A') (A") (A') (A') (A') (A') (A') (A") (A')
                 (A") (A') (A') (A') (A') (A') (A') (A") (A') (A")
                 (A') (A') (A') (A') (A') (A') (A') (A') (A') (A')
                 (A") (A') (A") (A") (A') (A') (A') (A") (A") (A")
                 (A') (A") (A') (A") (A') (A") (A') (A') (A") (A')
                 (A') (A') (A') (A') (A") (A') (A") (A') (A') (A')
                 (A') (A") (A') (A') (A") (A") (A") (A") (A') (A")
                 (A") (A') (A') (A') (A') (A") (A') (A") (A') (A")
                 (A') (A') (A") (A') (A') (A") (A') (A") (A') (A")
                 (A") (A") (A') (A') (A") (A') (A") (A") (A') (A')
                 (A") (A') (A") (A") (A") (A') (A") (A') (A') (A")
                 (A') (A") (A') (A") (A') (A') (A') (A') (A") (A')
                 (A") (A') (A') (A') (A') (A") (A') (A") (A") (A')
                 (A') (A") (A') (A') (A") (A') (A") (A") (A') (A')
                 (A') (A') (A') (A') (A") (A') (A') (A') (A') (A')
                 (A") (A') (A') (A') (A') (A') (A") (A') (A') (A')
                 (A') (A') (A') (A') (A') (A') (A') (A')
 The electronic state is 1-A'.
 Alpha  occ. eigenvalues --  -19.08473 -14.38372 -10.28330 -10.24128 -10.20244
 Alpha  occ. eigenvalues --  -10.18998 -10.18961  -1.03914  -0.96746  -0.82945
 Alpha  occ. eigenvalues --   -0.76676  -0.65637  -0.65195  -0.56828  -0.51647
 Alpha  occ. eigenvalues --   -0.49786  -0.47352  -0.44985  -0.43414  -0.39763
 Alpha  occ. eigenvalues --   -0.38482  -0.35345  -0.32071  -0.26052  -0.23438
 Alpha virt. eigenvalues --   -0.05295  -0.02281  -0.00736  -0.00542   0.00411
 Alpha virt. eigenvalues --    0.01759   0.02117   0.02334   0.03428   0.04175
 Alpha virt. eigenvalues --    0.04319   0.04891   0.05005   0.05228   0.05749
 Alpha virt. eigenvalues --    0.06031   0.07274   0.07341   0.07562   0.07705
 Alpha virt. eigenvalues --    0.07710   0.08424   0.09211   0.09390   0.10207
 Alpha virt. eigenvalues --    0.10842   0.11037   0.12469   0.12496   0.12876
 Alpha virt. eigenvalues --    0.14180   0.14606   0.14751   0.15086   0.15257
 Alpha virt. eigenvalues --    0.15519   0.15694   0.16282   0.16828   0.17122
 Alpha virt. eigenvalues --    0.17370   0.17657   0.18203   0.18435   0.19042
 Alpha virt. eigenvalues --    0.19538   0.19948   0.20336   0.21548   0.21895
 Alpha virt. eigenvalues --    0.22564   0.22588   0.23275   0.23675   0.23882
 Alpha virt. eigenvalues --    0.24405   0.25637   0.25924   0.26613   0.26646
 Alpha virt. eigenvalues --    0.27378   0.27920   0.28060   0.28336   0.28786
 Alpha virt. eigenvalues --    0.28840   0.29997   0.30270   0.30980   0.31442
 Alpha virt. eigenvalues --    0.32553   0.33612   0.33668   0.33996   0.34247
 Alpha virt. eigenvalues --    0.35012   0.35390   0.36085   0.36382   0.37589
 Alpha virt. eigenvalues --    0.38140   0.38346   0.39113   0.39355   0.39556
 Alpha virt. eigenvalues --    0.39913   0.40037   0.40420   0.41167   0.41412
 Alpha virt. eigenvalues --    0.41948   0.42166   0.42419   0.42644   0.43102
 Alpha virt. eigenvalues --    0.44198   0.44591   0.44861   0.45102   0.46534
 Alpha virt. eigenvalues --    0.47270   0.47473   0.48172   0.48602   0.49196
 Alpha virt. eigenvalues --    0.49357   0.49951   0.50339   0.50757   0.51428
 Alpha virt. eigenvalues --    0.51941   0.52565   0.53305   0.53476   0.53755
 Alpha virt. eigenvalues --    0.54206   0.54740   0.54963   0.55030   0.55752
 Alpha virt. eigenvalues --    0.56167   0.56520   0.57245   0.57347   0.58076
 Alpha virt. eigenvalues --    0.59162   0.59851   0.60245   0.60571   0.61236
 Alpha virt. eigenvalues --    0.61726   0.62565   0.63005   0.63846   0.64403
 Alpha virt. eigenvalues --    0.65488   0.66069   0.66672   0.66848   0.67625
 Alpha virt. eigenvalues --    0.68640   0.69056   0.69618   0.69761   0.70941
 Alpha virt. eigenvalues --    0.70948   0.72347   0.73227   0.73249   0.73777
 Alpha virt. eigenvalues --    0.74289   0.75058   0.75195   0.77081   0.77920
 Alpha virt. eigenvalues --    0.78243   0.79795   0.80525   0.81399   0.82121
 Alpha virt. eigenvalues --    0.82127   0.83861   0.84403   0.84673   0.84897
 Alpha virt. eigenvalues --    0.86154   0.87121   0.87326   0.87693   0.89872
 Alpha virt. eigenvalues --    0.90710   0.92174   0.93107   0.93573   0.94086
 Alpha virt. eigenvalues --    0.94406   0.95006   0.96739   0.96898   0.97802
 Alpha virt. eigenvalues --    0.98351   0.99455   1.01689   1.02648   1.03441
 Alpha virt. eigenvalues --    1.04354   1.06265   1.07054   1.07945   1.09642
 Alpha virt. eigenvalues --    1.09727   1.12131   1.14561   1.14862   1.15559
 Alpha virt. eigenvalues --    1.17617   1.18204   1.19599   1.19692   1.22408
 Alpha virt. eigenvalues --    1.28783   1.29442   1.29753   1.33997   1.35012
 Alpha virt. eigenvalues --    1.37164   1.42558   1.42752   1.44453   1.46660
 Alpha virt. eigenvalues --    1.47689   1.48698   1.50030   1.50141   1.50781
 Alpha virt. eigenvalues --    1.54374   1.56859   1.59134   1.59145   1.63411
 Alpha virt. eigenvalues --    1.65712   1.67579   1.67655   1.68613   1.69587
 Alpha virt. eigenvalues --    1.73040   1.73474   1.74245   1.75396   1.77474
 Alpha virt. eigenvalues --    1.79386   1.82371   1.84046   1.85805   1.86055
 Alpha virt. eigenvalues --    1.88199   1.89133   1.90539   1.92308   1.93558
 Alpha virt. eigenvalues --    1.93588   1.94721   1.97435   1.98112   1.99608
 Alpha virt. eigenvalues --    2.04788   2.10954   2.12919   2.14290   2.15145
 Alpha virt. eigenvalues --    2.16439   2.16517   2.17091   2.21344   2.22872
 Alpha virt. eigenvalues --    2.25883   2.30466   2.31001   2.32308   2.36948
 Alpha virt. eigenvalues --    2.43016   2.45596   2.48247   2.50964   2.53370
 Alpha virt. eigenvalues --    2.57629   2.59328   2.67886   2.72568   2.79471
 Alpha virt. eigenvalues --    2.82408   2.83079   3.02342   3.07877   3.12085
 Alpha virt. eigenvalues --    3.15465   3.18000   3.25934   3.29240   3.31594
 Alpha virt. eigenvalues --    3.32663   3.32764   3.36442   3.37727   3.41940
 Alpha virt. eigenvalues --    3.43159   3.48845   3.56251   3.57455   3.63173
 Alpha virt. eigenvalues --    3.69694   3.72826   3.74655   3.76848   3.78239
 Alpha virt. eigenvalues --    3.78509   3.80903   3.85163   3.86605   3.95489
 Alpha virt. eigenvalues --    3.99154   4.02986   4.02991   4.04659   4.08319
 Alpha virt. eigenvalues --    4.10438   4.11740   4.16691   4.19502   4.19732
 Alpha virt. eigenvalues --    4.24816   4.25073   4.25357   4.27390   4.27773
 Alpha virt. eigenvalues --    4.29820   4.31501   4.33868   4.34368   4.35533
 Alpha virt. eigenvalues --    4.36372   4.36928   4.37606   4.41297   4.43665
 Alpha virt. eigenvalues --    4.45732   4.47677   4.49729   4.52143   4.52447
 Alpha virt. eigenvalues --    4.53432   4.57591   4.58220   4.60744   4.61805
 Alpha virt. eigenvalues --    4.64434   4.64535   4.67602   4.72456   4.75136
 Alpha virt. eigenvalues --    4.75841   4.76906   4.77727   4.81837   4.84788
 Alpha virt. eigenvalues --    4.85157   4.87523   4.92250   4.94073   4.94393
 Alpha virt. eigenvalues --    4.95671   5.01794   5.03101   5.06801   5.07614
 Alpha virt. eigenvalues --    5.11635   5.17033   5.19304   5.20362   5.20457
 Alpha virt. eigenvalues --    5.28675   5.29018   5.30869   5.33286   5.36174
 Alpha virt. eigenvalues --    5.36459   5.40022   5.40549   5.46364   5.47103
 Alpha virt. eigenvalues --    5.49904   5.52369   5.54026   5.59930   5.61206
 Alpha virt. eigenvalues --    5.64825   5.69792   5.71392   5.72292   5.77765
 Alpha virt. eigenvalues --    5.78401   5.84180   5.89037   5.97237   5.97273
 Alpha virt. eigenvalues --    6.00344   6.14289   6.18904   6.19901   6.29335
 Alpha virt. eigenvalues --    6.32883   6.37174   6.39706   6.44317   6.54748
 Alpha virt. eigenvalues --    6.56421   6.67631   6.94865   7.04357   7.20676
 Alpha virt. eigenvalues --    7.26884  13.35819  16.14029  17.46105  18.80097
 Alpha virt. eigenvalues --   20.61022  21.67892  24.68397
          Condensed to atoms (all electrons):
               1          2          3          4          5          6
     1  O    9.018531  -0.083867  -0.016344  -0.156233   0.046817   0.066170
     2  N   -0.083867   7.021797   0.271539   0.303699  -0.220893  -0.197930
     3  C   -0.016344   0.271539   8.476679  -2.078248  -1.615230  -0.113216
     4  C   -0.156233   0.303699  -2.078248   8.730887  -0.199839  -0.390296
     5  C    0.046817  -0.220893  -1.615230  -0.199839   8.071915  -0.061412
     6  C    0.066170  -0.197930  -0.113216  -0.390296  -0.061412   6.804780
     7  C    0.013289  -0.023492  -0.378411   0.271515  -0.240305  -0.398136
     8  H   -0.036593   0.376223   0.225179  -0.072099   0.011882  -0.053078
     9  H   -0.020750   0.035825  -0.108091   0.286926   0.007909   0.023294
    10  H    0.013072  -0.238818  -0.474608   0.021605   0.212100   0.211723
    11  H   -0.006334   0.001398  -0.034206  -0.004241   0.077077   0.269370
    12  H   -0.010088   0.111778   0.125031   0.079403  -0.224282  -0.284691
               7          8          9         10         11         12
     1  O    0.013289  -0.036593  -0.020750   0.013072  -0.006334  -0.010088
     2  N   -0.023492   0.376223   0.035825  -0.238818   0.001398   0.111778
     3  C   -0.378411   0.225179  -0.108091  -0.474608  -0.034206   0.125031
     4  C    0.271515  -0.072099   0.286926   0.021605  -0.004241   0.079403
     5  C   -0.240305   0.011882   0.007909   0.212100   0.077077  -0.224282
     6  C   -0.398136  -0.053078   0.023294   0.211723   0.269370  -0.284691
     7  C    7.036143  -0.012931   0.050879  -0.139233  -0.108857   0.250626
     8  H   -0.012931   0.597283  -0.013722  -0.150358   0.003321   0.000597
     9  H    0.050879  -0.013722   0.802606   0.009843  -0.033481  -0.019789
    10  H   -0.139233  -0.150358   0.009843   1.909334  -0.015498  -0.270980
    11  H   -0.108857   0.003321  -0.033481  -0.015498   0.658660   0.040004
    12  H    0.250626   0.000597  -0.019789  -0.270980   0.040004   1.048358
 Mulliken charges:
               1
     1  O   -0.827669
     2  N   -0.357260
     3  C    1.719925
     4  C   -0.793079
     5  C    0.134262
     6  C    0.123423
     7  C   -0.321087
     8  H    0.124296
     9  H   -0.021447
    10  H   -0.088182
    11  H    0.152788
    12  H    0.154032
 Sum of Mulliken charges =  -0.00000
 Mulliken charges with hydrogens summed into heavy atoms:
               1
     1  O   -0.827669
     2  N   -0.232965
     3  C    1.719925
     4  C   -0.814526
     5  C    0.046080
     6  C    0.276211
     7  C   -0.167055
 Electronic spatial extent (au):  <R**2>=            631.7241
 Charge=             -0.0000 electrons
 Dipole moment (field-independent basis, Debye):
    X=             -1.4386    Y=             -4.1209    Z=              0.0000  Tot=              4.3648
 Quadrupole moment (field-independent basis, Debye-Ang):
   XX=            -31.4653   YY=            -48.3079   ZZ=            -43.1322
   XY=             -0.7807   XZ=              0.0000   YZ=              0.0000
 Traceless Quadrupole moment (field-independent basis, Debye-Ang):
   XX=              9.5032   YY=             -7.3395   ZZ=             -2.1637
   XY=             -0.7807   XZ=              0.0000   YZ=              0.0000
 Octapole moment (field-independent basis, Debye-Ang**2):
  XXX=            -11.8138  YYY=            -30.0138  ZZZ=              0.0000  XYY=             -1.2856
  XXY=              1.9054  XXZ=              0.0000  XZZ=             -1.6530  YZZ=              5.3540
  YYZ=              0.0000  XYZ=             -0.0000
 Hexadecapole moment (field-independent basis, Debye-Ang**3):
 XXXX=           -244.1075 YYYY=           -544.0208 ZZZZ=            -47.5041 XXXY=             -3.7649
 XXXZ=              0.0000 YYYX=             -3.3270 YYYZ=             -0.0000 ZZZX=              0.0000
 ZZZY=             -0.0000 XXYY=           -119.4036 XXZZ=            -62.8694 YYZZ=            -96.5854
 XXYZ=              0.0000 YYXZ=              0.0000 ZZXY=             -0.9709
 N-N= 2.750774566563D+02 E-N=-1.305107829686D+03  KE= 3.223030717742D+02
 Symmetry A'   KE= 3.107948414657D+02
 Symmetry A"   KE= 1.150823030850D+01
 Calling FoFJK, ICntrl=      2127 FMM=F ISym2X=1 I1Cent= 0 IOpClX= 0 NMat=1 NMatS=1 NMatT=0.
 ***** Axes restored to original set *****
 -------------------------------------------------------------------
 Center     Atomic                   Forces (Hartrees/Bohr)
 Number     Number              X              Y              Z
 -------------------------------------------------------------------
      1        8          -0.007738976   -0.015209128    0.000000000
      2        7          -0.005315878   -0.006039432    0.000000000
      3        6           0.014896128    0.037683873   -0.000000000
      4        6           0.007419638   -0.022367985    0.000000000
      5        6           0.004733037   -0.009464259    0.000000000
      6        6          -0.016346351   -0.005768050    0.000000000
      7        6          -0.008966919    0.020590871   -0.000000000
      8        1           0.003146870    0.008689905   -0.000000000
      9        1           0.002734711   -0.005447947    0.000000000
     10        1           0.001688176    0.000701568   -0.000000000
     11        1           0.000668295   -0.000083782    0.000000000
     12        1           0.003081269   -0.003285633    0.000000000
 -------------------------------------------------------------------
 Cartesian Forces:  Max     0.037683873 RMS     0.010023289

 GradGradGradGradGradGradGradGradGradGradGradGradGradGradGradGradGradGrad
 Berny optimization.
 FormGI is forming the generalized inverse of G from B-inverse, IUseBI=4.
 Internal  Forces:  Max     0.021061541 RMS     0.006018169
 Search for a local minimum.
 Step number   1 out of a maximum of   64
 All quantities printed in internal units (Hartrees-Bohrs-Radians)
 Mixed Optimization -- RFO/linear search
 Second derivative matrix not updated -- first step.
 ITU=  0
     Eigenvalues ---    0.01300   0.01527   0.01837   0.01952   0.02069
     Eigenvalues ---    0.02158   0.02298   0.02494   0.02602   0.16000
     Eigenvalues ---    0.16000   0.16000   0.16000   0.16000   0.22000
     Eigenvalues ---    0.22000   0.23420   0.25000   0.32350   0.35546
     Eigenvalues ---    0.35616   0.35652   0.35776   0.37986   0.45097
     Eigenvalues ---    0.45980   0.48525   0.55001   0.56595   0.91904
 RFO step:  Lambda=-6.66213680D-03 EMin= 1.29980170D-02
 Linear search not attempted -- first point.
 Iteration  1 RMS(Cart)=  0.02944911 RMS(Int)=  0.00069284
 Iteration  2 RMS(Cart)=  0.00075190 RMS(Int)=  0.00005954
 Iteration  3 RMS(Cart)=  0.00000011 RMS(Int)=  0.00005954
 ClnCor:  largest displacement from symmetrization is 2.18D-11 for atom    11.
 Variable       Old X    -DE/DX   Delta X   Delta X   Delta X     New X
                                 (Linear)    (Quad)   (Total)
    R1        2.32068  -0.00787   0.00000  -0.00851  -0.00851   2.31217
    R2        2.62215  -0.00019   0.00000  -0.00162  -0.00171   2.62044
    R3        2.59460   0.00047   0.00000   0.00084   0.00074   2.59534
    R4        1.91863  -0.00626   0.00000  -0.01368  -0.01368   1.90495
    R5        2.82214  -0.01868   0.00000  -0.05704  -0.05702   2.76512
    R6        2.53291   0.01459   0.00000   0.02535   0.02545   2.55836
    R7        2.04630  -0.00329   0.00000  -0.00905  -0.00905   2.03724
    R8        2.52823   0.01048   0.00000   0.01894   0.01892   2.54715
    R9        2.04433  -0.00138   0.00000  -0.00378  -0.00378   2.04055
   R10        2.72575  -0.00848   0.00000  -0.01971  -0.01963   2.70612
   R11        2.04798  -0.00043   0.00000  -0.00118  -0.00118   2.04680
   R12        2.04686  -0.00314   0.00000  -0.00864  -0.00864   2.03821
    A1        2.15529   0.00612   0.00000   0.02350   0.02332   2.17861
    A2        2.07512  -0.00958   0.00000  -0.05089  -0.05080   2.02432
    A3        2.05277   0.00346   0.00000   0.02739   0.02748   2.08026
    A4        2.16716  -0.01407   0.00000  -0.05207  -0.05204   2.11512
    A5        2.10042   0.02106   0.00000   0.08479   0.08483   2.18525
    A6        2.01561  -0.00699   0.00000  -0.03272  -0.03279   1.98281
    A7        2.08625   0.00871   0.00000   0.03542   0.03554   2.12179
    A8        2.06703  -0.00960   0.00000  -0.04921  -0.04927   2.01775
    A9        2.12991   0.00090   0.00000   0.01379   0.01373   2.14364
   A10        2.10862  -0.00020   0.00000   0.00083   0.00072   2.10934
   A11        2.02864  -0.00113   0.00000  -0.00779  -0.00773   2.02090
   A12        2.14593   0.00133   0.00000   0.00696   0.00701   2.15294
   A13        2.11496  -0.00138   0.00000  -0.00397  -0.00379   2.11118
   A14        2.10803   0.00016   0.00000  -0.00121  -0.00130   2.10673
   A15        2.06019   0.00122   0.00000   0.00518   0.00509   2.06528
   A16        2.08565  -0.00626   0.00000  -0.02307  -0.02300   2.06265
   A17        2.12232  -0.00018   0.00000  -0.00834  -0.00837   2.11395
   A18        2.07522   0.00644   0.00000   0.03140   0.03137   2.10659
    D1        3.14159  -0.00000   0.00000  -0.00000   0.00000   3.14159
    D2       -0.00000  -0.00000   0.00000   0.00000   0.00000   0.00000
    D3       -0.00000  -0.00000   0.00000  -0.00000   0.00000   0.00000
    D4        3.14159  -0.00000   0.00000   0.00000   0.00000   3.14159
    D5        0.00000   0.00000   0.00000  -0.00000   0.00000   0.00000
    D6        3.14159   0.00000   0.00000   0.00000   0.00000   3.14159
    D7        3.14159   0.00000   0.00000  -0.00000   0.00000   3.14159
    D8        0.00000   0.00000   0.00000   0.00000  -0.00000   0.00000
    D9        3.14159   0.00000   0.00000   0.00000   0.00000   3.14159
   D10        0.00000   0.00000   0.00000   0.00000  -0.00000   0.00000
   D11        0.00000   0.00000   0.00000   0.00000   0.00000   0.00000
   D12        3.14159   0.00000   0.00000   0.00000   0.00000   3.14159
   D13       -0.00000  -0.00000   0.00000  -0.00000   0.00000   0.00000
   D14        3.14159  -0.00000   0.00000  -0.00000   0.00000   3.14159
   D15        3.14159  -0.00000   0.00000  -0.00000   0.00000   3.14159
   D16       -0.00000  -0.00000   0.00000  -0.00000   0.00000   0.00000
   D17       -0.00000  -0.00000   0.00000  -0.00000   0.00000   0.00000
   D18        3.14159  -0.00000   0.00000   0.00000   0.00000   3.14159
   D19        3.14159  -0.00000   0.00000  -0.00000   0.00000   3.14159
   D20       -0.00000  -0.00000   0.00000   0.00000   0.00000   0.00000
   D21        0.00000   0.00000   0.00000   0.00000   0.00000   0.00000
   D22        3.14159   0.00000   0.00000  -0.00000   0.00000   3.14159
   D23        3.14159   0.00000   0.00000   0.00000   0.00000   3.14159
   D24        0.00000   0.00000   0.00000   0.00000  -0.00000   0.00000
         Item               Value     Threshold  Converged?
 Maximum Force            0.021062     0.000450     NO 
 RMS     Force            0.006018     0.000300     NO 
 Maximum Displacement     0.105636     0.001800     NO 
 RMS     Displacement     0.029431     0.001200     NO 
 Predicted change in Energy=-3.415647D-03
 GradGradGradGradGradGradGradGradGradGradGradGradGradGradGradGradGradGrad

                          Input orientation:                          
 ---------------------------------------------------------------------
 Center     Atomic      Atomic             Coordinates (Angstroms)
 Number     Number       Type             X           Y           Z
 ---------------------------------------------------------------------
      1          8           0        2.284286   -0.077876    0.000000
      2          7           0        0.282284   -1.159142    0.000000
      3          6           0        1.062473   -0.012764   -0.000000
      4          6           0        0.283716    1.226026   -0.000000
      5          6           0       -1.091041   -1.173210    0.000000
      6          6           0       -1.070037    1.212192   -0.000000
      7          6           0       -1.794170   -0.023244    0.000000
      8          1           0        0.782908   -2.034100    0.000000
      9          1           0        0.858765    2.137913   -0.000000
     10          1           0       -1.550843   -2.150234    0.000000
     11          1           0       -1.632611    2.137752   -0.000000
     12          1           0       -2.872730   -0.029314    0.000000
 ---------------------------------------------------------------------
                    Distance matrix (angstroms):
                    1          2          3          4          5
     1  O    0.000000
     2  N    2.275335   0.000000
     3  C    1.223548   1.386678   0.000000
     4  C    2.387978   2.385168   1.463237   0.000000
     5  C    3.548605   1.373397   2.446274   2.765193   0.000000
     6  C    3.593851   2.729834   2.459292   1.353824   2.385495
     7  C    4.078822   2.366839   2.856662   2.424518   1.347892
     8  H    2.465958   1.008056   2.040577   3.298123   2.062236
     9  H    2.634735   3.347073   2.160303   1.078063   3.842562
    10  H    4.359230   2.083895   3.376122   3.842492   1.079812
    11  H    4.500121   3.812654   3.447926   2.122158   3.354962
    12  H    5.157245   3.351212   3.935237   3.396915   2.117289
                    6          7          8          9         10
     6  C    0.000000
     7  C    1.432016   0.000000
     8  H    3.737889   3.268772   0.000000
     9  H    2.139448   3.421793   4.172702   0.000000
    10  H    3.396628   2.140864   2.336638   4.918782   0.000000
    11  H    1.083121   2.167026   4.820693   2.491376   4.288766
    12  H    2.188844   1.078577   4.169275   4.315197   2.499137
                   11         12
    11  H    0.000000
    12  H    2.496812   0.000000
 Stoichiometry    C5H5NO
 Framework group  CS[SG(C5H5NO)]
 Deg. of freedom    21
 Full point group                 CS      NOp   2
 Largest Abelian subgroup         CS      NOp   2
 Largest concise Abelian subgroup C1      NOp   1
                         Standard orientation:                         
 ---------------------------------------------------------------------
 Center     Atomic      Atomic             Coordinates (Angstroms)
 Number     Number       Type             X           Y           Z
 ---------------------------------------------------------------------
      1          8           0       -0.080401    2.279830   -0.000000
      2          7           0       -1.136521    0.264450   -0.000000
      3          6           0        0.000000    1.058927   -0.000000
      4          6           0        1.248442    0.295739    0.000000
      5          6           0       -1.133398   -1.108944   -0.000000
      6          6           0        1.251554   -1.058082    0.000000
      7          6           0        0.025280   -1.797623    0.000000
      8          1           0       -2.017678    0.754082   -0.000000
      9          1           0        2.153059    0.882158    0.000000
     10          1           0       -2.104590   -1.580940   -0.000000
     11          1           0        2.184084   -1.609025    0.000000
     12          1           0        0.032712   -2.876174    0.000000
 ---------------------------------------------------------------------
 Rotational constants (GHZ):      5.6791250      2.8017298      1.8761521
 Basis read from rwf:  (5D, 7F)
 There are   349 symmetry adapted cartesian basis functions of A'  symmetry.
 There are   161 symmetry adapted cartesian basis functions of A"  symmetry.
 There are   290 symmetry adapted basis functions of A'  symmetry.
 There are   147 symmetry adapted basis functions of A"  symmetry.
   437 basis functions,   665 primitive gaussians,   510 cartesian basis functions
    25 alpha electrons       25 beta electrons
       nuclear repulsion energy       275.7214695818 Hartrees.
 NAtoms=   12 NActive=   12 NUniq=   12 SFac= 1.00D+00 NAtFMM=   60 NAOKFM=F Big=F
 Integral buffers will be    131072 words long.
 Raffenetti 2 integral format.
 Two-electron integral symmetry is turned on.
 One-electron integrals computed using PRISM.
 NBasis=   437 RedAO= T EigKep=  1.20D-06  NBF=   290   147
 NBsUse=   433 1.00D-06 EigRej=  9.04D-07 NBFU=   286   147
 Initial guess from the checkpoint file:  "PY_aug-pc-2_B3LYP_OPT_FREQ.chk"
 B after Tr=     0.000000    0.000000    0.000000
         Rot=    0.999905   -0.000000   -0.000000   -0.013789 Ang=  -1.58 deg.
 Initial guess orbital symmetries:
       Occupied  (A') (A') (A') (A') (A') (A') (A') (A') (A') (A')
                 (A') (A') (A') (A') (A') (A') (A') (A") (A') (A')
                 (A') (A") (A") (A') (A")
       Virtual   (A') (A') (A') (A') (A') (A') (A') (A') (A') (A')
                 (A') (A') (A') (A') (A') (A') (A') (A') (A') (A')
                 (A') (A') (A') (A') (A') (A') (A') (A') (A') (A')
                 (A') (A') (A') (A') (A') (A') (A') (A') (A') (A')
                 (A') (A') (A') (A') (A') (A') (A') (A') (A') (A')
                 (A') (A') (A') (A') (A') (A') (A') (A') (A') (A')
                 (A') (A') (A') (A') (A') (A') (A') (A') (A') (A')
                 (A') (A') (A') (A') (A') (A') (A') (A') (A') (A')
                 (A') (A') (A') (A') (A') (A') (A') (A') (A') (A')
                 (A') (A') (A') (A') (A') (A') (A') (A') (A') (A')
                 (A') (A') (A') (A') (A') (A') (A') (A') (A') (A')
                 (A') (A') (A') (A') (A') (A') (A') (A') (A') (A')
                 (A') (A') (A') (A') (A') (A') (A') (A') (A') (A')
                 (A') (A') (A') (A') (A') (A') (A') (A') (A') (A')
                 (A') (A') (A') (A') (A') (A') (A') (A') (A') (A')
                 (A') (A') (A') (A') (A') (A') (A') (A') (A') (A')
                 (A') (A') (A') (A') (A') (A') (A') (A') (A') (A')
                 (A') (A') (A') (A') (A') (A') (A') (A') (A') (A')
                 (A') (A') (A') (A') (A') (A') (A') (A') (A') (A')
                 (A') (A') (A') (A') (A') (A') (A') (A') (A') (A')
                 (A') (A') (A') (A') (A') (A') (A') (A') (A') (A')
                 (A') (A') (A') (A') (A') (A') (A') (A') (A') (A')
                 (A') (A') (A') (A') (A') (A') (A') (A') (A') (A')
                 (A') (A') (A') (A') (A') (A') (A') (A') (A') (A')
                 (A') (A') (A') (A') (A') (A') (A') (A') (A') (A')
                 (A') (A') (A') (A') (A') (A') (A') (A') (A') (A')
                 (A') (A') (A') (A') (A') (A") (A") (A") (A") (A")
                 (A") (A") (A") (A") (A") (A") (A") (A") (A") (A")
                 (A") (A") (A") (A") (A") (A") (A") (A") (A") (A")
                 (A") (A") (A") (A") (A") (A") (A") (A") (A") (A")
                 (A") (A") (A") (A") (A") (A") (A") (A") (A") (A")
                 (A") (A") (A") (A") (A") (A") (A") (A") (A") (A")
                 (A") (A") (A") (A") (A") (A") (A") (A") (A") (A")
                 (A") (A") (A") (A") (A") (A") (A") (A") (A") (A")
                 (A") (A") (A") (A") (A") (A") (A") (A") (A") (A")
                 (A") (A") (A") (A") (A") (A") (A") (A") (A") (A")
                 (A") (A") (A") (A") (A") (A") (A") (A") (A") (A")
                 (A") (A") (A") (A") (A") (A") (A") (A") (A") (A")
                 (A") (A") (A") (A") (A") (A") (A") (A") (A") (A")
                 (A") (A") (A") (A") (A") (A") (A") (A") (A") (A")
                 (A") (A") (A") (A") (A") (A") (A") (A")
 ExpMin= 2.23D-02 ExpMax= 1.48D+04 ExpMxC= 5.05D+02 IAcc=3 IRadAn=         5 AccDes= 0.00D+00
 Harris functional with IExCor=  402 and IRadAn=       5 diagonalized for initial guess.
 HarFok:  IExCor=  402 AccDes= 0.00D+00 IRadAn=         5 IDoV= 1 UseB2=F ITyADJ=14
 ICtDFT=  3500011 ScaDFX=  1.000000  1.000000  1.000000  1.000000
 FoFCou: FMM=F IPFlag=           0 FMFlag=      100000 FMFlg1=           0
         NFxFlg=           0 DoJE=T BraDBF=F KetDBF=T FulRan=T
         wScrn=  0.000000 ICntrl=     500 IOpCl=  0 I1Cent=   200000004 NGrid=           0
         NMat0=    1 NMatS0=      1 NMatT0=    0 NMatD0=    1 NMtDS0=    0 NMtDT0=    0
 Petite list used in FoFCou.
 Keep R1 ints in memory in symmetry-blocked form, NReq=6897690747.
 Requested convergence on RMS density matrix=1.00D-08 within 128 cycles.
 Requested convergence on MAX density matrix=1.00D-06.
 Requested convergence on             energy=1.00D-06.
 No special actions if energy rises.
 SCF Done:  E(RB3LYP) =  -323.661160228     A.U. after   12 cycles
            NFock= 12  Conv=0.82D-08     -V/T= 2.0040
 Calling FoFJK, ICntrl=      2127 FMM=F ISym2X=1 I1Cent= 0 IOpClX= 0 NMat=1 NMatS=1 NMatT=0.
 ***** Axes restored to original set *****
 -------------------------------------------------------------------
 Center     Atomic                   Forces (Hartrees/Bohr)
 Number     Number              X              Y              Z
 -------------------------------------------------------------------
      1        8          -0.000649438   -0.002528675    0.000000000
      2        7          -0.013776488   -0.005895501    0.000000000
      3        6           0.003645685    0.014878230   -0.000000000
      4        6           0.004166131   -0.006184667    0.000000000
      5        6           0.007656284   -0.005694772    0.000000000
      6        6          -0.004607050   -0.004242763    0.000000000
      7        6          -0.000393713    0.009236767   -0.000000000
      8        1           0.001868898    0.000354250   -0.000000000
      9        1           0.000101120    0.001190480   -0.000000000
     10        1           0.000176277   -0.000163044    0.000000000
     11        1           0.001463019    0.000428987   -0.000000000
     12        1           0.000349276   -0.001379292    0.000000000
 -------------------------------------------------------------------
 Cartesian Forces:  Max     0.014878230 RMS     0.004554681

 GradGradGradGradGradGradGradGradGradGradGradGradGradGradGradGradGradGrad
 Berny optimization.
 Using GEDIIS/GDIIS optimizer.
 FormGI is forming the generalized inverse of G from B-inverse, IUseBI=4.
 Internal  Forces:  Max     0.008209824 RMS     0.002070260
 Search for a local minimum.
 Step number   2 out of a maximum of   64
 All quantities printed in internal units (Hartrees-Bohrs-Radians)
 Mixed Optimization -- RFO/linear search
 Update second derivatives using D2CorX and points    1    2
 DE= -3.94D-03 DEPred=-3.42D-03 R= 1.15D+00
 TightC=F SS=  1.41D+00  RLast= 1.60D-01 DXNew= 5.0454D-01 4.7954D-01
 Trust test= 1.15D+00 RLast= 1.60D-01 DXMaxT set to 4.80D-01
 ITU=  1  0
 Use linear search instead of GDIIS.
     Eigenvalues ---    0.01270   0.01524   0.01860   0.01957   0.02072
     Eigenvalues ---    0.02151   0.02303   0.02497   0.02600   0.14518
     Eigenvalues ---    0.16000   0.16000   0.16000   0.16434   0.21008
     Eigenvalues ---    0.22000   0.23202   0.23943   0.30753   0.35543
     Eigenvalues ---    0.35600   0.35758   0.35820   0.37653   0.45068
     Eigenvalues ---    0.46452   0.50329   0.55002   0.57020   0.92018
 RFO step:  Lambda=-6.06579544D-04 EMin= 1.26982203D-02
 Quartic linear search produced a step of  0.20915.
 Iteration  1 RMS(Cart)=  0.00786265 RMS(Int)=  0.00008041
 Iteration  2 RMS(Cart)=  0.00008244 RMS(Int)=  0.00001519
 Iteration  3 RMS(Cart)=  0.00000000 RMS(Int)=  0.00001519
 ClnCor:  largest displacement from symmetrization is 2.56D-12 for atom     8.
 Variable       Old X    -DE/DX   Delta X   Delta X   Delta X     New X
                                 (Linear)    (Quad)   (Total)
    R1        2.31217  -0.00051  -0.00178   0.00035  -0.00143   2.31074
    R2        2.62044   0.00821  -0.00036   0.02107   0.02070   2.64114
    R3        2.59534  -0.00669   0.00015  -0.01600  -0.01587   2.57948
    R4        1.90495   0.00062  -0.00286   0.00334   0.00048   1.90543
    R5        2.76512  -0.00622  -0.01193  -0.01565  -0.02756   2.73755
    R6        2.55836   0.00207   0.00532   0.00117   0.00652   2.56487
    R7        2.03724   0.00106  -0.00189   0.00472   0.00282   2.04007
    R8        2.54715   0.00487   0.00396   0.00792   0.01186   2.55901
    R9        2.04055   0.00007  -0.00079   0.00072  -0.00008   2.04047
   R10        2.70612  -0.00300  -0.00411  -0.00693  -0.01102   2.69510
   R11        2.04680  -0.00039  -0.00025  -0.00119  -0.00144   2.04537
   R12        2.03821  -0.00034  -0.00181  -0.00008  -0.00189   2.03632
    A1        2.17861   0.00127   0.00488   0.00443   0.00926   2.18787
    A2        2.02432  -0.00235  -0.01063  -0.00993  -0.02054   2.00379
    A3        2.08026   0.00108   0.00575   0.00551   0.01127   2.09153
    A4        2.11512  -0.00256  -0.01088  -0.00578  -0.01666   2.09846
    A5        2.18525   0.00335   0.01774   0.00531   0.02305   2.20831
    A6        1.98281  -0.00079  -0.00686   0.00047  -0.00639   1.97642
    A7        2.12179   0.00003   0.00743  -0.00488   0.00260   2.12439
    A8        2.01775   0.00055  -0.01031   0.01086   0.00053   2.01828
    A9        2.14364  -0.00058   0.00287  -0.00598  -0.00313   2.14051
   A10        2.10934  -0.00162   0.00015  -0.00866  -0.00855   2.10079
   A11        2.02090   0.00057  -0.00162   0.00352   0.00193   2.02283
   A12        2.15294   0.00105   0.00147   0.00513   0.00662   2.15957
   A13        2.11118   0.00103  -0.00079   0.00550   0.00475   2.11593
   A14        2.10673  -0.00202  -0.00027  -0.01365  -0.01394   2.09279
   A15        2.06528   0.00099   0.00106   0.00815   0.00919   2.07447
   A16        2.06265   0.00007  -0.00481   0.00313  -0.00168   2.06097
   A17        2.11395  -0.00145  -0.00175  -0.00955  -0.01130   2.10265
   A18        2.10659   0.00137   0.00656   0.00642   0.01298   2.11957
    D1        3.14159   0.00000   0.00000   0.00000   0.00000   3.14159
    D2        0.00000  -0.00000   0.00000   0.00000  -0.00000   0.00000
    D3       -0.00000   0.00000   0.00000   0.00000   0.00000   0.00000
    D4        3.14159  -0.00000   0.00000   0.00000   0.00000   3.14159
    D5       -0.00000   0.00000   0.00000  -0.00000   0.00000   0.00000
    D6        3.14159   0.00000   0.00000  -0.00000   0.00000   3.14159
    D7        3.14159   0.00000   0.00000   0.00000   0.00000   3.14159
    D8       -0.00000   0.00000   0.00000   0.00000   0.00000   0.00000
    D9        3.14159  -0.00000   0.00000  -0.00000   0.00000   3.14159
   D10        0.00000  -0.00000   0.00000  -0.00000   0.00000   0.00000
   D11       -0.00000   0.00000   0.00000  -0.00000   0.00000   0.00000
   D12        3.14159   0.00000   0.00000  -0.00000   0.00000   3.14159
   D13       -0.00000  -0.00000   0.00000   0.00000   0.00000   0.00000
   D14        3.14159   0.00000   0.00000   0.00000   0.00000   3.14159
   D15        3.14159  -0.00000   0.00000  -0.00000   0.00000   3.14159
   D16        0.00000  -0.00000   0.00000  -0.00000   0.00000   0.00000
   D17       -0.00000   0.00000   0.00000  -0.00000   0.00000   0.00000
   D18        3.14159   0.00000   0.00000   0.00000   0.00000   3.14159
   D19        3.14159  -0.00000   0.00000  -0.00000   0.00000   3.14159
   D20        0.00000  -0.00000   0.00000   0.00000   0.00000   0.00000
   D21        0.00000  -0.00000   0.00000   0.00000   0.00000   0.00000
   D22        3.14159  -0.00000   0.00000  -0.00000   0.00000   3.14159
   D23        3.14159  -0.00000   0.00000   0.00000   0.00000   3.14159
   D24       -0.00000  -0.00000   0.00000  -0.00000   0.00000   0.00000
         Item               Value     Threshold  Converged?
 Maximum Force            0.008210     0.000450     NO 
 RMS     Force            0.002070     0.000300     NO 
 Maximum Displacement     0.025968     0.001800     NO 
 RMS     Displacement     0.007879     0.001200     NO 
 Predicted change in Energy=-4.322161D-04
 GradGradGradGradGradGradGradGradGradGradGradGradGradGradGradGradGradGrad

                          Input orientation:                          
 ---------------------------------------------------------------------
 Center     Atomic      Atomic             Coordinates (Angstroms)
 Number     Number       Type             X           Y           Z
 ---------------------------------------------------------------------
      1          8           0        2.281121   -0.089883    0.000000
      2          7           0        0.271914   -1.154166    0.000000
      3          6           0        1.061567   -0.000988   -0.000000
      4          6           0        0.286247    1.222723   -0.000000
      5          6           0       -1.092897   -1.176888    0.000000
      6          6           0       -1.070941    1.207587   -0.000000
      7          6           0       -1.796822   -0.020054   -0.000000
      8          1           0        0.788056   -2.020358    0.000000
      9          1           0        0.858377    2.138207   -0.000000
     10          1           0       -1.548302   -2.155925    0.000000
     11          1           0       -1.621041    2.139733   -0.000000
     12          1           0       -2.874280   -0.035987   -0.000000
 ---------------------------------------------------------------------
                    Distance matrix (angstroms):
                    1          2          3          4          5
     1  O    0.000000
     2  N    2.273678   0.000000
     3  C    1.222789   1.397631   0.000000
     4  C    2.387982   2.376932   1.448651   0.000000
     5  C    3.544796   1.365000   2.454477   2.767701   0.000000
     6  C    3.594406   2.716825   2.451172   1.357273   2.384576
     7  C    4.078541   2.359211   2.858452   2.425628   1.354170
     8  H    2.440487   1.008311   2.037808   3.281674   2.061413
     9  H    2.643593   3.344197   2.148823   1.079557   3.846729
    10  H    4.351208   2.077669   3.384549   3.844585   1.079772
    11  H    4.494225   3.799086   3.432066   2.116284   3.358409
    12  H    5.155683   3.338991   3.936003   3.401953   2.115415
                    6          7          8          9         10
     6  C    0.000000
     7  C    1.426185   0.000000
     8  H    3.724983   3.268456   0.000000
     9  H    2.142036   3.421720   4.159159   0.000000
    10  H    3.397217   2.150281   2.340288   4.922567   0.000000
    11  H    1.082361   2.166929   4.807297   2.479418   4.296274
    12  H    2.190550   1.077576   4.165385   4.319704   2.500471
                   11         12
    11  H    0.000000
    12  H    2.510850   0.000000
 Stoichiometry    C5H5NO
 Framework group  CS[SG(C5H5NO)]
 Deg. of freedom    21
 Full point group                 CS      NOp   2
 Largest Abelian subgroup         CS      NOp   2
 Largest concise Abelian subgroup C1      NOp   1
                         Standard orientation:                         
 ---------------------------------------------------------------------
 Center     Atomic      Atomic             Coordinates (Angstroms)
 Number     Number       Type             X           Y           Z
 ---------------------------------------------------------------------
      1          8           0       -0.118517    2.277351    0.000000
      2          7           0       -1.133640    0.242864    0.000000
      3          6           0        0.000000    1.060319    0.000000
      4          6           0        1.242198    0.314977    0.000000
      5          6           0       -1.123175   -1.122096    0.000000
      6          6           0        1.260062   -1.042178    0.000000
      7          6           0        0.050430   -1.797689    0.000000
      8          1           0       -2.012123    0.737795    0.000000
      9          1           0        2.143502    0.909194    0.000000
     10          1           0       -2.090851   -1.601169    0.000000
     11          1           0        2.205306   -1.569454    0.000000
     12          1           0        0.060696   -2.875217    0.000000
 ---------------------------------------------------------------------
 Rotational constants (GHZ):      5.6972899      2.8039134      1.8791114
 Basis read from rwf:  (5D, 7F)
 There are   349 symmetry adapted cartesian basis functions of A'  symmetry.
 There are   161 symmetry adapted cartesian basis functions of A"  symmetry.
 There are   290 symmetry adapted basis functions of A'  symmetry.
 There are   147 symmetry adapted basis functions of A"  symmetry.
   437 basis functions,   665 primitive gaussians,   510 cartesian basis functions
    25 alpha electrons       25 beta electrons
       nuclear repulsion energy       275.9410932996 Hartrees.
 NAtoms=   12 NActive=   12 NUniq=   12 SFac= 1.00D+00 NAtFMM=   60 NAOKFM=F Big=F
 Integral buffers will be    131072 words long.
 Raffenetti 2 integral format.
 Two-electron integral symmetry is turned on.
 One-electron integrals computed using PRISM.
 NBasis=   437 RedAO= T EigKep=  1.21D-06  NBF=   290   147
 NBsUse=   433 1.00D-06 EigRej=  8.87D-07 NBFU=   286   147
 Initial guess from the checkpoint file:  "PY_aug-pc-2_B3LYP_OPT_FREQ.chk"
 B after Tr=    -0.000000    0.000000    0.000000
         Rot=    0.999978   -0.000000   -0.000000   -0.006567 Ang=  -0.75 deg.
 Initial guess orbital symmetries:
       Occupied  (A') (A') (A') (A') (A') (A') (A') (A') (A') (A')
                 (A') (A') (A') (A') (A') (A') (A') (A") (A') (A')
                 (A') (A") (A") (A') (A")
       Virtual   (A') (A') (A') (A') (A') (A') (A') (A') (A') (A')
                 (A') (A') (A') (A') (A') (A') (A') (A') (A') (A')
                 (A') (A') (A') (A') (A') (A') (A') (A') (A') (A')
                 (A') (A') (A') (A') (A') (A') (A') (A') (A') (A')
                 (A') (A') (A') (A') (A') (A') (A') (A') (A') (A')
                 (A') (A') (A') (A') (A') (A') (A') (A') (A') (A')
                 (A') (A') (A') (A') (A') (A') (A') (A') (A') (A')
                 (A') (A') (A') (A') (A') (A') (A') (A') (A') (A')
                 (A') (A') (A') (A') (A') (A') (A') (A') (A') (A')
                 (A') (A') (A') (A') (A') (A') (A') (A') (A') (A')
                 (A') (A') (A') (A') (A') (A') (A') (A') (A') (A')
                 (A') (A') (A') (A') (A') (A') (A') (A') (A') (A')
                 (A') (A') (A') (A') (A') (A') (A') (A') (A') (A')
                 (A') (A') (A') (A') (A') (A') (A') (A') (A') (A')
                 (A') (A') (A') (A') (A') (A') (A') (A') (A') (A')
                 (A') (A') (A') (A') (A') (A') (A') (A') (A') (A')
                 (A') (A') (A') (A') (A') (A') (A') (A') (A') (A')
                 (A') (A') (A') (A') (A') (A') (A') (A') (A') (A')
                 (A') (A') (A') (A') (A') (A') (A') (A') (A') (A')
                 (A') (A') (A') (A') (A') (A') (A') (A') (A') (A')
                 (A') (A') (A') (A') (A') (A') (A') (A') (A') (A')
                 (A') (A') (A') (A') (A') (A') (A') (A') (A') (A')
                 (A') (A') (A') (A') (A') (A') (A') (A') (A') (A')
                 (A') (A') (A') (A') (A') (A') (A') (A') (A') (A')
                 (A') (A') (A') (A') (A') (A') (A') (A') (A') (A')
                 (A') (A') (A') (A') (A') (A') (A') (A') (A') (A')
                 (A') (A') (A') (A') (A') (A") (A") (A") (A") (A")
                 (A") (A") (A") (A") (A") (A") (A") (A") (A") (A")
                 (A") (A") (A") (A") (A") (A") (A") (A") (A") (A")
                 (A") (A") (A") (A") (A") (A") (A") (A") (A") (A")
                 (A") (A") (A") (A") (A") (A") (A") (A") (A") (A")
                 (A") (A") (A") (A") (A") (A") (A") (A") (A") (A")
                 (A") (A") (A") (A") (A") (A") (A") (A") (A") (A")
                 (A") (A") (A") (A") (A") (A") (A") (A") (A") (A")
                 (A") (A") (A") (A") (A") (A") (A") (A") (A") (A")
                 (A") (A") (A") (A") (A") (A") (A") (A") (A") (A")
                 (A") (A") (A") (A") (A") (A") (A") (A") (A") (A")
                 (A") (A") (A") (A") (A") (A") (A") (A") (A") (A")
                 (A") (A") (A") (A") (A") (A") (A") (A") (A") (A")
                 (A") (A") (A") (A") (A") (A") (A") (A") (A") (A")
                 (A") (A") (A") (A") (A") (A") (A") (A")
 ExpMin= 2.23D-02 ExpMax= 1.48D+04 ExpMxC= 5.05D+02 IAcc=3 IRadAn=         5 AccDes= 0.00D+00
 Harris functional with IExCor=  402 and IRadAn=       5 diagonalized for initial guess.
 HarFok:  IExCor=  402 AccDes= 0.00D+00 IRadAn=         5 IDoV= 1 UseB2=F ITyADJ=14
 ICtDFT=  3500011 ScaDFX=  1.000000  1.000000  1.000000  1.000000
 FoFCou: FMM=F IPFlag=           0 FMFlag=      100000 FMFlg1=           0
         NFxFlg=           0 DoJE=T BraDBF=F KetDBF=T FulRan=T
         wScrn=  0.000000 ICntrl=     500 IOpCl=  0 I1Cent=   200000004 NGrid=           0
         NMat0=    1 NMatS0=      1 NMatT0=    0 NMatD0=    1 NMtDS0=    0 NMtDT0=    0
 Petite list used in FoFCou.
 Keep R1 ints in memory in symmetry-blocked form, NReq=6897690747.
 Requested convergence on RMS density matrix=1.00D-08 within 128 cycles.
 Requested convergence on MAX density matrix=1.00D-06.
 Requested convergence on             energy=1.00D-06.
 No special actions if energy rises.
 SCF Done:  E(RB3LYP) =  -323.661687975     A.U. after   12 cycles
            NFock= 12  Conv=0.24D-08     -V/T= 2.0040
 Calling FoFJK, ICntrl=      2127 FMM=F ISym2X=1 I1Cent= 0 IOpClX= 0 NMat=1 NMatS=1 NMatT=0.
 ***** Axes restored to original set *****
 -------------------------------------------------------------------
 Center     Atomic                   Forces (Hartrees/Bohr)
 Number     Number              X              Y              Z
 -------------------------------------------------------------------
      1        8           0.000529130   -0.000292909    0.000000000
      2        7          -0.005972850   -0.003556499    0.000000000
      3        6           0.001645477    0.003140390   -0.000000000
      4        6           0.002091865    0.000406961   -0.000000000
      5        6           0.004377613   -0.001008905    0.000000000
      6        6          -0.001985099   -0.002223356    0.000000000
      7        6          -0.000013961    0.002868403   -0.000000000
      8        1           0.000733153   -0.000348477    0.000000000
      9        1          -0.000821995    0.000727959   -0.000000000
     10        1          -0.000491357    0.000107543   -0.000000000
     11        1           0.000254803    0.000277851   -0.000000000
     12        1          -0.000346779   -0.000098961    0.000000000
 -------------------------------------------------------------------
 Cartesian Forces:  Max     0.005972850 RMS     0.001711753

 GradGradGradGradGradGradGradGradGradGradGradGradGradGradGradGradGradGrad
 Berny optimization.
 Using GEDIIS/GDIIS optimizer.
 FormGI is forming the generalized inverse of G from B-inverse, IUseBI=4.
 Internal  Forces:  Max     0.004240583 RMS     0.000851980
 Search for a local minimum.
 Step number   3 out of a maximum of   64
 All quantities printed in internal units (Hartrees-Bohrs-Radians)
 Mixed Optimization -- En-DIIS/RFO-DIIS
 Update second derivatives using D2CorX and points    1    2    3
 DE= -5.28D-04 DEPred=-4.32D-04 R= 1.22D+00
 TightC=F SS=  1.41D+00  RLast= 6.31D-02 DXNew= 8.0649D-01 1.8933D-01
 Trust test= 1.22D+00 RLast= 6.31D-02 DXMaxT set to 4.80D-01
 ITU=  1  1  0
 Use linear search instead of GDIIS.
     Eigenvalues ---    0.01259   0.01525   0.01860   0.01958   0.02067
     Eigenvalues ---    0.02142   0.02302   0.02496   0.02599   0.12539
     Eigenvalues ---    0.16000   0.16000   0.16143   0.16743   0.20749
     Eigenvalues ---    0.22336   0.23076   0.23996   0.31317   0.35547
     Eigenvalues ---    0.35600   0.35762   0.35829   0.37664   0.44779
     Eigenvalues ---    0.46467   0.47407   0.54401   0.56954   0.92305
 RFO step:  Lambda=-8.46432298D-05 EMin= 1.25947791D-02
 Quartic linear search produced a step of  0.29481.
 Iteration  1 RMS(Cart)=  0.00332618 RMS(Int)=  0.00001449
 Iteration  2 RMS(Cart)=  0.00001435 RMS(Int)=  0.00000268
 Iteration  3 RMS(Cart)=  0.00000000 RMS(Int)=  0.00000268
 ClnCor:  largest displacement from symmetrization is 1.23D-11 for atom    11.
 Variable       Old X    -DE/DX   Delta X   Delta X   Delta X     New X
                                 (Linear)    (Quad)   (Total)
    R1        2.31074   0.00055  -0.00042   0.00064   0.00022   2.31096
    R2        2.64114   0.00424   0.00610   0.00708   0.01318   2.65432
    R3        2.57948  -0.00284  -0.00468  -0.00385  -0.00854   2.57094
    R4        1.90543   0.00067   0.00014   0.00115   0.00129   1.90672
    R5        2.73755   0.00043  -0.00813   0.00497  -0.00315   2.73440
    R6        2.56487   0.00105   0.00192   0.00217   0.00410   2.56897
    R7        2.04007   0.00018   0.00083  -0.00035   0.00048   2.04055
    R8        2.55901   0.00166   0.00350   0.00188   0.00537   2.56438
    R9        2.04047   0.00011  -0.00002   0.00023   0.00021   2.04068
   R10        2.69510  -0.00161  -0.00325  -0.00407  -0.00731   2.68778
   R11        2.04537   0.00011  -0.00042   0.00062   0.00020   2.04557
   R12        2.03632   0.00035  -0.00056   0.00121   0.00066   2.03698
    A1        2.18787  -0.00033   0.00273  -0.00226   0.00047   2.18834
    A2        2.00379  -0.00027  -0.00605  -0.00073  -0.00679   1.99700
    A3        2.09153   0.00060   0.00332   0.00299   0.00631   2.09784
    A4        2.09846  -0.00017  -0.00491  -0.00032  -0.00524   2.09322
    A5        2.20831   0.00040   0.00680   0.00068   0.00747   2.21578
    A6        1.97642  -0.00023  -0.00188  -0.00035  -0.00223   1.97419
    A7        2.12439  -0.00066   0.00077  -0.00206  -0.00129   2.12310
    A8        2.01828   0.00144   0.00016   0.00791   0.00806   2.02635
    A9        2.14051  -0.00078  -0.00092  -0.00584  -0.00677   2.13374
   A10        2.10079   0.00033  -0.00252   0.00304   0.00051   2.10130
   A11        2.02283   0.00033   0.00057   0.00252   0.00310   2.02593
   A12        2.15957  -0.00066   0.00195  -0.00556  -0.00360   2.15596
   A13        2.11593   0.00066   0.00140   0.00216   0.00357   2.11950
   A14        2.09279  -0.00070  -0.00411  -0.00169  -0.00581   2.08698
   A15        2.07447   0.00003   0.00271  -0.00047   0.00224   2.07671
   A16        2.06097   0.00022  -0.00049  -0.00053  -0.00103   2.05994
   A17        2.10265  -0.00021  -0.00333   0.00110  -0.00223   2.10042
   A18        2.11957  -0.00001   0.00383  -0.00058   0.00325   2.12282
    D1        3.14159   0.00000   0.00000  -0.00000   0.00000   3.14159
    D2       -0.00000   0.00000   0.00000   0.00000   0.00000   0.00000
    D3        0.00000   0.00000   0.00000  -0.00000  -0.00000   0.00000
    D4        3.14159   0.00000   0.00000  -0.00000   0.00000   3.14159
    D5        0.00000   0.00000   0.00000  -0.00000  -0.00000   0.00000
    D6        3.14159  -0.00000   0.00000  -0.00000   0.00000   3.14159
    D7        3.14159  -0.00000   0.00000  -0.00000   0.00000   3.14159
    D8       -0.00000  -0.00000   0.00000  -0.00000   0.00000   0.00000
    D9        3.14159  -0.00000   0.00000   0.00000   0.00000   3.14159
   D10        0.00000   0.00000   0.00000   0.00000   0.00000   0.00000
   D11       -0.00000   0.00000   0.00000   0.00000   0.00000   0.00000
   D12        3.14159  -0.00000   0.00000   0.00000   0.00000   3.14159
   D13        0.00000  -0.00000   0.00000  -0.00000   0.00000   0.00000
   D14        3.14159  -0.00000   0.00000   0.00000   0.00000   3.14159
   D15        3.14159  -0.00000   0.00000  -0.00000   0.00000   3.14159
   D16       -0.00000  -0.00000   0.00000   0.00000   0.00000   0.00000
   D17       -0.00000   0.00000   0.00000  -0.00000   0.00000   0.00000
   D18        3.14159   0.00000   0.00000  -0.00000   0.00000   3.14159
   D19        3.14159   0.00000   0.00000   0.00000   0.00000   3.14159
   D20        0.00000   0.00000   0.00000   0.00000   0.00000   0.00000
[...]
 Iteration  2 RMS(Cart)=  0.00000006 RMS(Int)=  0.00000000
 ClnCor:  largest displacement from symmetrization is 8.81D-09 for atom     8.
 Variable       Old X    -DE/DX   Delta X   Delta X   Delta X     New X
                                 (Linear)    (Quad)   (Total)
    R1        2.31038  -0.00024   0.00000  -0.00040  -0.00040   2.30997
    R2        2.65799   0.00010   0.00000   0.00037   0.00037   2.65836
    R3        2.56868  -0.00002   0.00000  -0.00006  -0.00006   2.56862
    R4        1.90701  -0.00001   0.00000  -0.00003  -0.00003   1.90697
    R5        2.73483   0.00008   0.00000   0.00029   0.00029   2.73512
    R6        2.56973  -0.00002   0.00000  -0.00007  -0.00007   2.56967
    R7        2.04032  -0.00003   0.00000  -0.00008  -0.00008   2.04023
    R8        2.56486  -0.00008   0.00000  -0.00021  -0.00021   2.56465
    R9        2.04109   0.00002   0.00000   0.00007   0.00007   2.04116
   R10        2.68691   0.00006   0.00000   0.00023   0.00023   2.68713
   R11        2.04586   0.00002   0.00000   0.00005   0.00005   2.04591
   R12        2.03716  -0.00000   0.00000  -0.00001  -0.00001   2.03714
    A1        2.18807  -0.00004   0.00000  -0.00017  -0.00017   2.18790
    A2        1.99665   0.00005   0.00000   0.00039   0.00039   1.99704
    A3        2.09847  -0.00001   0.00000  -0.00022  -0.00022   2.09825
    A4        2.09329   0.00004   0.00000   0.00019   0.00019   2.09348
    A5        2.21565  -0.00003   0.00000  -0.00009  -0.00009   2.21556
    A6        1.97425  -0.00001   0.00000  -0.00010  -0.00010   1.97415
    A7        2.12178  -0.00001   0.00000   0.00005   0.00005   2.12183
    A8        2.03018   0.00006   0.00000   0.00038   0.00038   2.03057
    A9        2.13122  -0.00005   0.00000  -0.00043  -0.00043   2.13078
   A10        2.10169   0.00006   0.00000   0.00032   0.00032   2.10201
   A11        2.02822   0.00004   0.00000   0.00037   0.00037   2.02859
   A12        2.15327  -0.00010   0.00000  -0.00069  -0.00069   2.15258
   A13        2.12075   0.00001   0.00000   0.00003   0.00003   2.12077
   A14        2.08549   0.00001   0.00000   0.00009   0.00009   2.08558
   A15        2.07695  -0.00002   0.00000  -0.00012  -0.00012   2.07683
   A16        2.05983  -0.00001   0.00000  -0.00013  -0.00013   2.05970
   A17        2.10057   0.00006   0.00000   0.00051   0.00051   2.10108
   A18        2.12278  -0.00005   0.00000  -0.00038  -0.00038   2.12240
    D1        3.14159   0.00000   0.00000  -0.00000   0.00000   3.14159
    D2        0.00000   0.00000   0.00000  -0.00000  -0.00000   0.00000
    D3       -0.00000   0.00000   0.00000  -0.00000   0.00000   0.00000
    D4        3.14159   0.00000   0.00000  -0.00000   0.00000   3.14159
    D5        0.00000  -0.00000   0.00000   0.00000   0.00000   0.00000
    D6        3.14159  -0.00000   0.00000   0.00000   0.00000   3.14159
    D7        3.14159  -0.00000   0.00000   0.00000   0.00000   3.14159
    D8        0.00000  -0.00000   0.00000   0.00000  -0.00000   0.00000
    D9        3.14159  -0.00000   0.00000   0.00000   0.00000   3.14159
   D10        0.00000  -0.00000   0.00000  -0.00000  -0.00000   0.00000
   D11       -0.00000  -0.00000   0.00000   0.00000   0.00000   0.00000
   D12        3.14159  -0.00000   0.00000  -0.00000   0.00000   3.14159
   D13        0.00000  -0.00000   0.00000  -0.00000  -0.00000   0.00000
   D14        3.14159  -0.00000   0.00000  -0.00000   0.00000   3.14159
   D15        3.14159  -0.00000   0.00000   0.00000   0.00000   3.14159
   D16       -0.00000  -0.00000   0.00000   0.00000   0.00000   0.00000
   D17       -0.00000  -0.00000   0.00000  -0.00000   0.00000   0.00000
   D18        3.14159   0.00000   0.00000  -0.00000   0.00000   3.14159
   D19        3.14159  -0.00000   0.00000   0.00000   0.00000   3.14159
   D20        0.00000  -0.00000   0.00000  -0.00000   0.00000   0.00000
   D21        0.00000   0.00000   0.00000   0.00000  -0.00000   0.00000
   D22        3.14159   0.00000   0.00000   0.00000   0.00000   3.14159
   D23        3.14159   0.00000   0.00000   0.00000   0.00000   3.14159
   D24        0.00000   0.00000   0.00000   0.00000   0.00000   0.00000
         Item               Value     Threshold  Converged?
 Maximum Force            0.000238     0.000450     YES
 RMS     Force            0.000046     0.000300     YES
 Maximum Displacement     0.000773     0.001800     YES
 RMS     Displacement     0.000248     0.001200     YES
 Predicted change in Energy=-2.119445D-07
 Optimization completed.
    -- Stationary point found.
                           ----------------------------
                           !   Optimized Parameters   !
                           ! (Angstroms and Degrees)  !
 --------------------------                            --------------------------
 ! Name  Definition              Value          Derivative Info.                !
 --------------------------------------------------------------------------------
 ! R1    R(1,3)                  1.2226         -DE/DX =   -0.0002              !
 ! R2    R(2,3)                  1.4065         -DE/DX =    0.0001              !
 ! R3    R(2,5)                  1.3593         -DE/DX =    0.0                 !
 ! R4    R(2,8)                  1.0091         -DE/DX =    0.0                 !
 ! R5    R(3,4)                  1.4472         -DE/DX =    0.0001              !
 ! R6    R(4,6)                  1.3598         -DE/DX =    0.0                 !
 ! R7    R(4,9)                  1.0797         -DE/DX =    0.0                 !
 ! R8    R(5,7)                  1.3573         -DE/DX =   -0.0001              !
 ! R9    R(5,10)                 1.0801         -DE/DX =    0.0                 !
 ! R10   R(6,7)                  1.4218         -DE/DX =    0.0001              !
 ! R11   R(6,11)                 1.0826         -DE/DX =    0.0                 !
 ! R12   R(7,12)                 1.078          -DE/DX =    0.0                 !
 ! A1    A(3,2,5)              125.367          -DE/DX =    0.0                 !
 ! A2    A(3,2,8)              114.3997         -DE/DX =    0.0001              !
 ! A3    A(5,2,8)              120.2333         -DE/DX =    0.0                 !
 ! A4    A(1,3,2)              119.9367         -DE/DX =    0.0                 !
 ! A5    A(1,3,4)              126.9471         -DE/DX =    0.0                 !
 ! A6    A(2,3,4)              113.1162         -DE/DX =    0.0                 !
 ! A7    A(3,4,6)              121.5693         -DE/DX =    0.0                 !
 ! A8    A(3,4,9)              116.321          -DE/DX =    0.0001              !
 ! A9    A(6,4,9)              122.1097         -DE/DX =   -0.0001              !
 ! A10   A(2,5,7)              120.418          -DE/DX =    0.0001              !
 ! A11   A(2,5,10)             116.2086         -DE/DX =    0.0                 !
 ! A12   A(7,5,10)             123.3734         -DE/DX =   -0.0001              !
 ! A13   A(4,6,7)              121.5098         -DE/DX =    0.0                 !
 ! A14   A(4,6,11)             119.4899         -DE/DX =    0.0                 !
 ! A15   A(7,6,11)             119.0003         -DE/DX =    0.0                 !
 ! A16   A(5,7,6)              118.0197         -DE/DX =    0.0                 !
 ! A17   A(5,7,12)             120.354          -DE/DX =    0.0001              !
 ! A18   A(6,7,12)             121.6263         -DE/DX =    0.0                 !
 ! D1    D(5,2,3,1)            180.0            -DE/DX =    0.0                 !
 ! D2    D(5,2,3,4)              0.0            -DE/DX =    0.0                 !
 ! D3    D(8,2,3,1)              0.0            -DE/DX =    0.0                 !
 ! D4    D(8,2,3,4)            180.0            -DE/DX =    0.0                 !
 ! D5    D(3,2,5,7)              0.0            -DE/DX =    0.0                 !
 ! D6    D(3,2,5,10)           180.0            -DE/DX =    0.0                 !
 ! D7    D(8,2,5,7)            180.0            -DE/DX =    0.0                 !
 ! D8    D(8,2,5,10)             0.0            -DE/DX =    0.0                 !
 ! D9    D(1,3,4,6)            180.0            -DE/DX =    0.0                 !
 ! D10   D(1,3,4,9)              0.0            -DE/DX =    0.0                 !
 ! D11   D(2,3,4,6)              0.0            -DE/DX =    0.0                 !
 ! D12   D(2,3,4,9)            180.0            -DE/DX =    0.0                 !
 ! D13   D(3,4,6,7)              0.0            -DE/DX =    0.0                 !
 ! D14   D(3,4,6,11)           180.0            -DE/DX =    0.0                 !
 ! D15   D(9,4,6,7)            180.0            -DE/DX =    0.0                 !
 ! D16   D(9,4,6,11)             0.0            -DE/DX =    0.0                 !
 ! D17   D(2,5,7,6)              0.0            -DE/DX =    0.0                 !
 ! D18   D(2,5,7,12)           180.0            -DE/DX =    0.0                 !
 ! D19   D(10,5,7,6)           180.0            -DE/DX =    0.0                 !
 ! D20   D(10,5,7,12)            0.0            -DE/DX =    0.0                 !
 ! D21   D(4,6,7,5)              0.0            -DE/DX =    0.0                 !
 ! D22   D(4,6,7,12)           180.0            -DE/DX =    0.0                 !
 ! D23   D(11,6,7,5)           180.0            -DE/DX =    0.0                 !
 ! D24   D(11,6,7,12)            0.0            -DE/DX =    0.0                 !
 --------------------------------------------------------------------------------
 GradGradGradGradGradGradGradGradGradGradGradGradGradGradGradGradGradGrad

 1\1\GINC-Q1607\Freq\RB3LYP\Gen\C5H5N1O1\SC51754\26-Aug-2021\0\\#N Geom
 =AllCheck Guess=TCheck SCRF=Check GenChk RB3LYP/ChkBas Freq\\PY_aug-pc
 -2_B3LYP_OPT_FREQ\\0,1\O,2.283312049,-0.0948638924,0.\N,0.2682309341,-
 1.1573683815,0.\C,1.064560392,0.0020420612,0.\C,0.289085018,1.22395029
 51,0.\C,-1.0908958093,-1.1783437306,0.\C,-1.0706152446,1.2042125008,0.
 \C,-1.7960637525,-0.0186445529,0.\H,0.7897514899,-2.0213058464,0.\H,0.
 8496502319,2.1467144992,0.\H,-1.5529014053,-2.1546467815,0.\H,-1.61717
 96141,2.1387376866,0.\H,-2.8739342893,-0.0364838575,0.\\Version=EM64L-
 G09RevE.01\State=1-A'\HF=-323.6617796\RMSD=5.405e-09\RMSF=8.422e-05\Ze
 roPoint=0.093599\Thermal=0.0988446\Dipole=-1.6502037,-0.4907393,0.\Dip
 oleDeriv=-1.7969507,0.0280987,0.0000178,0.2074992,-0.4265967,-0.000003
 ,-0.0000004,0.0000055,-0.4206158,-0.761277,0.3605828,0.0000021,-0.5314
 276,-0.3381305,0.0000133,-0.0000006,-0.0000006,-0.2238681,2.1862765,0.
 0088476,-0.0000338,-0.1166111,0.434059,0.0000021,-0.0000023,-0.0000117
 ,0.2561118,-0.5924887,-0.0395007,-0.000012,0.4954008,-0.0524911,-0.000
 0054,-0.0000015,-0.0000218,-0.1581869,0.4307767,-0.5848238,0.0000124,-
 0.0326851,0.3125456,-0.000003,0.0000012,0.0000265,-0.0141479,0.4605257
 ,0.1536198,0.0000109,0.2258534,0.3876819,-0.000008,0.0000054,0.0000102
 ,-0.069711,-0.1263147,0.1200668,0.0000155,-0.1864343,-0.5415796,0.0000
 103,0.000012,0.0000107,-0.201801,0.1411321,-0.0188708,0.0000059,-0.034
 4606,0.2261567,-0.0000103,-0.0000017,-0.0000065,0.2724639,0.0354299,-0
 .0446512,0.0000038,-0.0332574,-0.0010787,0.0000059,0.,-0.0000002,0.141
 3122,0.033371,-0.0359696,-0.0000052,-0.0455481,-0.0158607,-0.0000057,-
 0.0000106,-0.0000077,0.1404934,0.0361728,0.0698147,-0.0000034,0.073732
 3,-0.0455245,0.0000015,0.0000036,0.0000054,0.1188189,-0.0466537,-0.017
 2143,-0.0000139,-0.0220616,0.0608185,0.0000024,-0.0000049,-0.0000097,0
 .1591306\Polar=93.5545974,0.7294016,77.4257164,0.0000417,-0.0011414,42
 .9844591\PG=CS [SG(C5H5N1O1)]\NImag=0\\0.74781425,-0.04268799,0.094604
 97,-0.00000004,-0.00000001,0.03308156,-0.07257620,-0.07125567,0.000000
 05,0.75043284,-0.04368895,0.00931179,0.,-0.11600580,0.73101424,-0.0000
 0004,0.,0.01929201,0.,-0.00000003,0.07660801,-0.61657166,0.05483921,0.
 ,-0.13306761,-0.01813142,0.00000007,0.89478754,0.05817919,-0.10591767,
 0.00000002,0.02906580,-0.19996985,0.00000001,-0.09306687,0.53208426,0.
 00000014,0.00000005,-0.07313061,-0.00000017,0.00000006,-0.06048474,-0.
 00000009,-0.00000013,0.19866869,-0.05721286,0.04991568,-0.00000005,0.0
 4710992,-0.00564548,0.00000003,-0.12514071,0.02559963,0.00000006,0.763
 60569,0.02825715,0.00552752,0.,-0.01216350,-0.04514078,-0.00000001,0.0
 4898545,-0.21022017,0.,0.07630519,0.64818774,-0.00000019,0.00000007,0.
 02192591,-0.00000011,-0.00000018,0.00513205,0.00000043,-0.00000008,-0.
 07841165,0.00000019,0.00000007,0.11905129,-0.00376139,0.01567212,-0.00
 000005,-0.32178292,0.02169633,-0.00000001,-0.02423889,-0.07954919,0.00
 000019,-0.03458440,0.01862224,-0.00000009,0.66471353,-0.00189394,-0.00
 975427,0.00000008,-0.02911291,-0.14815916,0.00000002,-0.02542762,0.033
 66343,-0.00000019,0.02078230,-0.01247241,-0.00000003,-0.01549972,0.822
 79767,0.00000008,-0.00000008,0.00485888,0.00000019,0.00000013,-0.04561
 213,-0.00000034,0.00000012,-0.00272545,-0.00000022,-0.00000006,0.00062
 411,-0.00000003,0.00000016,0.13934806,0.01262445,-0.00592595,0.0000000
 3,-0.03645043,-0.00474495,-0.00000003,-0.02883738,0.04724662,0.,-0.422
 34645,-0.02320974,-0.00000016,0.05131626,-0.01780432,0.00000016,0.7378
 9513,0.00881123,-0.01354055,0.,-0.03342755,-0.00677968,0.00000005,0.03
 052609,0.04037324,-0.00000008,0.01921163,-0.13337486,0.00000007,0.0198
 2862,-0.06171364,-0.00000003,-0.04818374,0.67174783,0.00000015,-0.0000
 0001,0.00404107,0.,0.00000016,-0.00486664,-0.00000024,-0.00000003,0.00
 050921,-0.00000016,0.00000004,-0.05774609,0.00000006,-0.00000006,0.008
 06040,0.00000017,-0.00000013,0.14483100,-0.00464441,-0.00327653,-0.000
 00008,-0.04943967,0.03629412,-0.00000012,0.00535496,0.01148972,0.00000
 029,-0.02523409,-0.03445487,-0.00000007,-0.19538205,0.14486021,-0.0000
 0009,-0.16270179,-0.09240507,0.00000031,0.76405004,-0.00904241,0.01108
 611,0.00000007,0.06679628,0.01263284,0.,0.00087117,-0.05042761,-0.0000
 0014,-0.05599128,0.02159029,-0.00000020,0.10154502,-0.33838493,0.00000
 027,-0.04212729,-0.23647403,0.00000002,-0.05653512,0.66519126,-0.00000
 008,-0.00000008,-0.00021875,0.00000022,-0.00000006,0.01251060,0.000000
 16,0.00000024,-0.00748261,0.00000002,0.00000004,0.00826541,-0.00000022
 ,0.00000006,-0.06499701,-0.00000006,0.00000015,-0.06263813,-0.00000035
 ,0.00000003,0.11704510,-0.00214383,0.00435844,0.00000002,-0.16457164,0
 .15930656,-0.00000002,0.02066892,-0.01693483,-0.00000006,-0.00309331,-
 0.00308993,-0.00000011,-0.01385785,0.03215283,0.00000013,0.00062387,0.
 00003217,0.00000008,-0.00538493,-0.00412452,0.00000006,0.16666411,0.00
 054826,0.00523525,-0.00000003,0.16063872,-0.34821728,0.00000004,0.0203
 2817,-0.02375555,0.00000005,-0.00369722,-0.00405978,0.00000017,-0.0012
 1317,0.00785639,-0.00000019,-0.00259065,-0.00122698,-0.00000018,-0.002
 71990,0.00438484,-0.00000005,-0.17159198,0.35947549,0.00000002,0.00000
 002,-0.00457802,-0.00000007,0.,-0.01700669,0.,-0.00000005,0.00328254,0
 .00000004,0.,0.00450786,0.00000005,-0.00000006,-0.00518893,-0.00000002
 ,-0.00000003,-0.00068510,0.00000010,-0.00000006,0.00504277,-0.00000003
 ,0.00000004,0.01666523,0.00079339,-0.00175412,0.,-0.00123597,0.0039713
 7,-0.00000002,0.01128533,0.01484515,0.00000003,-0.13117193,-0.12640275
 ,-0.00000003,-0.00115624,0.00058641,0.00000002,-0.01184078,-0.02823591
 ,0.00000005,-0.00467565,0.00177413,-0.00000007,0.00064804,0.00094038,0
 .00000001,0.13656024,0.00113623,0.00297247,-0.00000004,0.00285121,-0.0
 0488227,-0.00000003,-0.01875246,-0.01773896,0.00000013,-0.12459293,-0.
 26985258,-0.00000002,0.00231980,-0.00004765,-0.00000006,0.00207736,0.0
 0501341,0.00000009,0.00076182,0.00243522,-0.00000014,-0.00094035,-0.00
 102851,0.00000004,0.13549175,0.28209234,-0.00000004,0.,-0.00219491,0.0
 0000002,-0.00000004,0.00478273,0.00000006,0.00000004,0.00292316,0.0000
 0002,0.,-0.03454504,-0.00000002,0.00000002,-0.00070995,-0.00000004,0.0
 0000004,0.00351347,-0.00000010,0.,0.00922264,0.,0.00000003,-0.00050251
 ,-0.00000002,-0.00000003,0.02419598,-0.00282718,-0.00179772,0.00000003
 ,-0.01956863,-0.03629898,0.00000003,-0.00060714,0.00676349,-0.00000010
 ,0.00005946,-0.00018068,0.00000003,-0.10770841,-0.10217359,0.00000004,
 -0.00178947,0.00282984,-0.00000011,0.01310013,0.01465926,0.00000007,0.
 00082601,-0.00030128,-0.00000003,0.00010895,-0.00012792,0.00000003,0.1
 1728025,-0.00014942,-0.00020994,-0.00000002,0.00081442,0.00420950,0.,0
 .00163457,0.00238292,0.00000006,0.00062969,0.00053842,0.00000011,-0.10
 838817,-0.29510126,-0.00000013,0.00422871,-0.00315280,-0.00000004,-0.0
 1393324,-0.01609568,-0.00000008,-0.00044423,0.00100375,0.00000003,-0.0
 0010528,-0.00000541,0.,0.11627937,0.30653530,0.00000003,0.00000003,-0.
 00014552,-0.00000010,-0.00000002,0.00286512,-0.00000010,-0.00000009,0.
 00503667,0.00000004,-0.00000008,-0.00003388,0.00000013,0.,-0.03773308,
 -0.00000004,-0.00000003,0.00794973,0.00000005,0.00000003,0.00697969,-0
 .00000006,0.00000010,-0.00260347,0.00000002,0.00000004,-0.00122565,0.0
 0000002,0.00000004,0.02432129,-0.00142898,0.00182808,0.00000002,-0.000
 26877,0.00026434,0.00000002,-0.00423473,-0.00332854,-0.00000007,-0.012
 59073,0.02988246,0.00000002,-0.00117975,-0.00343199,0.00000003,-0.1288
 9448,0.11881522,-0.00000009,0.01195449,-0.01466097,0.00000005,0.000022
 11,0.00003607,-0.00000002,0.00118401,-0.00044165,0.00000002,0.00053698
 ,-0.00078275,0.00000003,0.13424032,0.00055857,-0.00004925,-0.00000003,
 -0.00059521,0.00102578,-0.00000004,-0.00172321,0.00146864,0.00000010,-
 0.00093975,0.00406441,0.00000002,-0.00403723,-0.00392412,-0.00000008,0
 .11940362,-0.26548637,0.00000010,0.01542653,-0.01801280,-0.00000007,0.
 00004224,0.00004085,0.00000003,0.00016685,0.00089689,-0.00000003,0.000
 83748,-0.00095769,-0.00000003,-0.12895920,0.27986924,0.00000004,-0.000
 00002,-0.00245258,0.00000005,0.00000004,-0.00076730,-0.00000006,0.0000
 0003,0.01211296,-0.00000004,0.00000002,0.00756016,-0.00000002,0.,0.004
 55801,0.00000004,-0.00000001,-0.04318743,0.00000003,0.00000002,0.00467
 134,0.00000004,-0.00000007,-0.00070419,0.,0.,-0.00603959,-0.00000002,-
 0.00000003,-0.00041026,-0.00000002,0.00000002,0.02690166,-0.00006557,0
 .00008444,0.00000006,0.00141907,0.00298286,0.00000007,0.00060138,-0.00
 031018,-0.00000021,0.00059941,-0.00255101,0.00000010,-0.01237790,-0.00
 303765,0.00000004,-0.00959894,0.00219746,-0.00000023,-0.34699703,-0.00
 316427,0.00000021,-0.00040150,-0.00037740,-0.00000006,-0.00049940,0.00
 021712,0.00000006,0.00058904,0.00021634,-0.00000002,0.00065953,-0.0001
 8071,-0.00000003,0.36607192,-0.00002795,0.00073355,-0.00000003,0.00239
 421,-0.00504513,-0.00000001,-0.00008308,-0.00194269,0.00000008,-0.0015
 7747,-0.00478781,0.,0.02900336,0.00523994,-0.00000005,-0.02836968,0.00
 461444,0.00000004,-0.00550767,-0.05792549,-0.00000005,0.00123360,0.000
 29153,0.00000002,-0.00127797,0.00014504,-0.00000001,-0.00048927,0.0008
 5290,0.,0.00077893,0.00106440,0.,0.00392298,0.05675931,-0.00000007,0.0
 0000004,-0.00047904,-0.00000009,-0.00000006,0.00754699,0.00000012,-0.0
 0000009,-0.00029817,0.00000006,0.,0.00366986,0.00000002,0.,-0.00048291
 ,-0.00000004,0.,0.00021851,0.00000002,-0.00000005,-0.02840105,-0.00000
 005,0.00000008,0.00177051,0.,0.00000001,0.00057969,0.00000001,0.000000
 06,-0.00500064,0.00000001,0.,-0.00224278,0.00000001,0.,0.02311902\\0.0
 0023515,-0.00004433,0.,0.00002741,0.00009503,0.,-0.00029275,0.00004335
 ,0.,-0.00002771,-0.00005825,0.,-0.00011537,-0.00011956,0.,-0.00006580,
 -0.00006146,0.,0.00005963,0.00021045,0.,0.00003623,0.00001335,0.,0.000
 05738,-0.00000152,0.,0.00006937,-0.00001512,0.,0.00001610,-0.00000881,
 0.,0.00000034,-0.00005312,0.\\\@


 GOD GAVE US TWO ENDS... ONE TO SIT ON...    
 AND THE OTHER TO THINK WITH...              
 YOUR SUCCESS DEPENDS UPON WHICH END YOU     
 USE THE MOST...                             
                                             
 IT'S A CASE OF HEADS YOU WIN TAILS YOU LOSE.
          SOURCE UNKNOWN(IT'S JUST AS WELL.) 
 Job cpu time:       0 days  2 hours 37 minutes 19.3 seconds.
 File lengths (MBytes):  RWF=    161 Int=      0 D2E=      0 Chk=     14 Scr=      1
 Normal termination of Gaussian 09 at Thu Aug 26 17:03:05 2021.
