 Entering Gaussian System, Link 0=g09
 AtFile(1): pc-0.gbs
            -H     0
            S    2   1.00
                  0.434480D+01           0.792990D-01
                  0.660490D+00           0.424220D+00
            S    1   1.00
                  0.136690D+00           0.100000D+01
            ****
            -C     0
            S    3   1.00
                  0.446510D+03           0.197880D-01
                  0.674620D+02           0.145340D+00
                  0.150670D+02           0.185290D+00
            S    3   1.00
                  0.674620D+02          -0.999100D-02
                  0.150670D+02           0.285190D+00
                  0.393880D+01           0.566870D+00
            S    1   1.00
                  0.299910D+00           0.100000D+01
            P    2   1.00
                  0.436770D+01           0.116710D+00
                  0.869820D+00           0.475580D+00
            P    1   1.00
                  0.188930D+00           0.100000D+01
            ****
            -N     0
            S    3   1.00
                  0.615850D+03           0.195880D-01
                  0.930440D+02           0.146950D+00
                  0.208480D+02           0.155600D+00
            S    3   1.00
                  0.930440D+02          -0.120590D-01
                  0.208480D+02           0.301990D+00
                  0.549590D+01           0.540900D+00
            S    1   1.00
                  0.426240D+00           0.100000D+01
            P    2   1.00
                  0.626800D+01           0.121340D+00
                  0.126900D+01           0.480130D+00
            P    1   1.00
                  0.273900D+00           0.100000D+01
            ****
            -O     0
            S    3   1.00
                  0.812120D+03           0.194500D-01
                  0.122690D+03           0.147740D+00
                  0.275610D+02           0.135930D+00
            S    3   1.00
                  0.122690D+03          -0.131890D-01
                  0.275610D+02           0.315100D+00
                  0.731730D+01           0.529640D+00
            S    1   1.00
                  0.579240D+00           0.100000D+01
            P    2   1.00
                  0.821780D+01           0.129020D+00
                  0.167540D+01           0.487060D+00
            P    1   1.00
                  0.350670D+00           0.100000D+01
            ****
 Initial command:
 /public3/home/sc51754/softwares/g09e01/l1.exe "./Gau-33929.inp" -scrdir="./"
 Entering Link 1 = /public3/home/sc51754/softwares/g09e01/l1.exe PID=     33930.
  
 Copyright (c) 1988,1990,1992,1993,1995,1998,2003,2009,2015,
            Gaussian, Inc.  All Rights Reserved.
  
 This is part of the Gaussian(R) 09 program.  It is based on
 the Gaussian(R) 03 system (copyright 2003, Gaussian, Inc.),
 the Gaussian(R) 98 system (copyright 1998, Gaussian, Inc.),
 the Gaussian(R) 94 system (copyright 1995, Gaussian, Inc.),
 the Gaussian 92(TM) system (copyright 1992, Gaussian, Inc.),
 the Gaussian 90(TM) system (copyright 1990, Gaussian, Inc.),
 the Gaussian 88(TM) system (copyright 1988, Gaussian, Inc.),
 the Gaussian 86(TM) system (copyright 1986, Carnegie Mellon
 University), and the Gaussian 82(TM) system (copyright 1983,
 Carnegie Mellon University). Gaussian is a federally registered
 trademark of Gaussian, Inc.
  
 This software contains proprietary and confidential information,
 including trade secrets, belonging to Gaussian, Inc.
  
 This software is provided under written license and may be
 used, copied, transmitted, or stored only in accord with that
 written license.
  
 The following legend is applicable only to US Government
 contracts under FAR:
  
                    RESTRICTED RIGHTS LEGEND
  
 Use, reproduction and disclosure by the US Government is
 subject to restrictions as set forth in subparagraphs (a)
 and (c) of the Commercial Computer Software - Restricted
 Rights clause in FAR 52.227-19.
  
 Gaussian, Inc.
 340 Quinnipiac St., Bldg. 40, Wallingford CT 06492
  
  
 ---------------------------------------------------------------
 Warning -- This program may not be used in any manner that
 competes with the business of Gaussian, Inc. or will provide
 assistance to any competitor of Gaussian, Inc.  The licensee
 of this program is prohibited from giving any competitor of
 Gaussian, Inc. access to this program.  By using this program,
 the user acknowledges that Gaussian, Inc. is engaged in the
 business of creating and licensing software in the field of
 computational chemistry and represents and warrants to the
 licensee that it is not a competitor of Gaussian, Inc. and that
 it will not use this program in any manner prohibited above.
 ---------------------------------------------------------------
  

 Cite this work as:
 Gaussian 09, Revision E.01,
 M. J. Frisch, G. W. Trucks, H. B. Schlegel, G. E. Scuseria, 
 M. A. Robb, J. R. Cheeseman, G. Scalmani, V. Barone, B. Mennucci, 
 G. A. Petersson, H. Nakatsuji, M. Caricato, X. Li, H. P. Hratchian, 
 A. F. Izmaylov, J. Bloino, G. Zheng, J. L. Sonnenberg, M. Hada, 
 M. Ehara, K. Toyota, R. Fukuda, J. Hasegawa, M. Ishida, T. Nakajima, 
 Y. Honda, O. Kitao, H. Nakai, T. Vreven, J. A. Montgomery, Jr., 
 J. E. Peralta, F. Ogliaro, M. Bearpark, J. J. Heyd, E. Brothers, 
 K. N. Kudin, V. N. Staroverov, T. Keith, R. Kobayashi, J. Normand, 
 K. Raghavachari, A. Rendell, J. C. Burant, S. S. Iyengar, J. Tomasi, 
 M. Cossi, N. Rega, J. M. Millam, M. Klene, J. E. Knox, J. B. Cross, 
 V. Bakken, C. Adamo, J. Jaramillo, R. Gomperts, R. E. Stratmann, 
 O. Yazyev, A. J. Austin, R. Cammi, C. Pomelli, J. W. Ochterski, 
 R. L. Martin, K. Morokuma, V. G. Zakrzewski, G. A. Voth, 
 P. Salvador, J. J. Dannenberg, S. Dapprich, A. D. Daniels, 
 O. Farkas, J. B. Foresman, J. V. Ortiz, J. Cioslowski, 
 and D. J. Fox, Gaussian, Inc., Wallingford CT, 2013.
 
 ******************************************
 Gaussian 09:  EM64L-G09RevE.01 30-Nov-2015
                26-Aug-2021 
 ******************************************
 %nprocshared=64
 Will use up to   64 processors via shared memory.
 %mem=128GB
 %chk=PY_pc-0_B3LYP_OPT_FREQ.chk
 --------------------
 # opt freq b3lyp/gen
 --------------------
 1/14=-1,18=20,19=15,26=3,38=1/1,3;
 2/9=110,12=2,17=6,18=5,40=1/2;
 3/5=7,11=2,16=1,25=1,30=1,71=1,74=-5/1,2,3;
 4//1;
 5/5=2,38=5/2;
 6/7=2,8=2,9=2,10=2,28=1/1;
 7//1,2,3,16;
 1/14=-1,18=20,19=15,26=3/3(2);
 2/9=110/2;
 99//99;
 2/9=110/2;
 3/5=7,6=1,11=2,16=1,25=1,30=1,71=1,74=-5,82=7/1,2,3;
 4/5=5,16=3,69=1/1;
 5/5=2,38=5/2;
 7//1,2,3,16;
 1/14=-1,18=20,19=15,26=3/3(-5);
 2/9=110/2;
 6/7=2,8=2,9=2,10=2,19=2,28=1/1;
 99/9=1/99;
 ----------------------
 PY_pc-0_B3LYP_OPT_FREQ
 ----------------------
 Symbolic Z-matrix:
 Charge =  0 Multiplicity = 1
 O                     2.282    -0.023     0. 
 N                     0.285    -1.189     0. 
 C                     1.054    -0.034     0. 
 C                     0.288     1.248     0. 
 C                    -1.088    -1.185     0. 
 C                    -1.052     1.217     0. 
 C                    -1.77     -0.034     0. 
 H                     0.753    -2.09      0. 
 H                     0.841     2.179     0. 
 H                    -1.569    -2.154     0. 
 H                    -1.628     2.135     0. 
 H                    -2.853    -0.016     0. 
 

 GradGradGradGradGradGradGradGradGradGradGradGradGradGradGradGradGradGrad
 Berny optimization.
 Initialization pass.
                           ----------------------------
                           !    Initial Parameters    !
                           ! (Angstroms and Degrees)  !
 --------------------------                            --------------------------
 ! Name  Definition              Value          Derivative Info.                !
 --------------------------------------------------------------------------------
 ! R1    R(1,3)                  1.228          estimate D2E/DX2                !
 ! R2    R(2,3)                  1.3876         estimate D2E/DX2                !
 ! R3    R(2,5)                  1.373          estimate D2E/DX2                !
 ! R4    R(2,8)                  1.0153         estimate D2E/DX2                !
 ! R5    R(3,4)                  1.4934         estimate D2E/DX2                !
 ! R6    R(4,6)                  1.3404         estimate D2E/DX2                !
 ! R7    R(4,9)                  1.0829         estimate D2E/DX2                !
 ! R8    R(5,7)                  1.3379         estimate D2E/DX2                !
 ! R9    R(5,10)                 1.0818         estimate D2E/DX2                !
 ! R10   R(6,7)                  1.4424         estimate D2E/DX2                !
 ! R11   R(6,11)                 1.0837         estimate D2E/DX2                !
 ! R12   R(7,12)                 1.0831         estimate D2E/DX2                !
 ! A1    A(3,2,5)              123.4888         estimate D2E/DX2                !
 ! A2    A(3,2,8)              118.8959         estimate D2E/DX2                !
 ! A3    A(5,2,8)              117.6153         estimate D2E/DX2                !
 ! A4    A(1,3,2)              124.1689         estimate D2E/DX2                !
 ! A5    A(1,3,4)              120.3453         estimate D2E/DX2                !
 ! A6    A(2,3,4)              115.4858         estimate D2E/DX2                !
 ! A7    A(3,4,6)              119.5332         estimate D2E/DX2                !
 ! A8    A(3,4,9)              118.4318         estimate D2E/DX2                !
 ! A9    A(6,4,9)              122.0349         estimate D2E/DX2                !
 ! A10   A(2,5,7)              120.8149         estimate D2E/DX2                !
 ! A11   A(2,5,10)             116.2323         estimate D2E/DX2                !
 ! A12   A(7,5,10)             122.9528         estimate D2E/DX2                !
 ! A13   A(4,6,7)              121.1785         estimate D2E/DX2                !
 ! A14   A(4,6,11)             120.781          estimate D2E/DX2                !
 ! A15   A(7,6,11)             118.0405         estimate D2E/DX2                !
 ! A16   A(5,7,6)              119.4988         estimate D2E/DX2                !
 ! A17   A(5,7,12)             121.6001         estimate D2E/DX2                !
 ! A18   A(6,7,12)             118.9011         estimate D2E/DX2                !
 ! D1    D(5,2,3,1)            180.0            estimate D2E/DX2                !
 ! D2    D(5,2,3,4)              0.0            estimate D2E/DX2                !
 ! D3    D(8,2,3,1)              0.0            estimate D2E/DX2                !
 ! D4    D(8,2,3,4)            180.0            estimate D2E/DX2                !
 ! D5    D(3,2,5,7)              0.0            estimate D2E/DX2                !
 ! D6    D(3,2,5,10)           180.0            estimate D2E/DX2                !
 ! D7    D(8,2,5,7)            180.0            estimate D2E/DX2                !
 ! D8    D(8,2,5,10)             0.0            estimate D2E/DX2                !
 ! D9    D(1,3,4,6)            180.0            estimate D2E/DX2                !
 ! D10   D(1,3,4,9)              0.0            estimate D2E/DX2                !
 ! D11   D(2,3,4,6)              0.0            estimate D2E/DX2                !
 ! D12   D(2,3,4,9)            180.0            estimate D2E/DX2                !
 ! D13   D(3,4,6,7)              0.0            estimate D2E/DX2                !
 ! D14   D(3,4,6,11)           180.0            estimate D2E/DX2                !
 ! D15   D(9,4,6,7)            180.0            estimate D2E/DX2                !
 ! D16   D(9,4,6,11)             0.0            estimate D2E/DX2                !
 ! D17   D(2,5,7,6)              0.0            estimate D2E/DX2                !
 ! D18   D(2,5,7,12)           180.0            estimate D2E/DX2                !
 ! D19   D(10,5,7,6)           180.0            estimate D2E/DX2                !
 ! D20   D(10,5,7,12)            0.0            estimate D2E/DX2                !
 ! D21   D(4,6,7,5)              0.0            estimate D2E/DX2                !
 ! D22   D(4,6,7,12)           180.0            estimate D2E/DX2                !
 ! D23   D(11,6,7,5)           180.0            estimate D2E/DX2                !
 ! D24   D(11,6,7,12)            0.0            estimate D2E/DX2                !
 --------------------------------------------------------------------------------
 Trust Radius=3.00D-01 FncErr=1.00D-07 GrdErr=1.00D-06
 Number of steps in this run=     64 maximum allowed number of steps=    100.
 GradGradGradGradGradGradGradGradGradGradGradGradGradGradGradGradGradGrad

                          Input orientation:                          
 ---------------------------------------------------------------------
 Center     Atomic      Atomic             Coordinates (Angstroms)
 Number     Number       Type             X           Y           Z
 ---------------------------------------------------------------------
      1          8           0        2.282000   -0.023000    0.000000
      2          7           0        0.285000   -1.189000    0.000000
      3          6           0        1.054000   -0.034000    0.000000
      4          6           0        0.288000    1.248000    0.000000
      5          6           0       -1.088000   -1.185000    0.000000
      6          6           0       -1.052000    1.217000    0.000000
      7          6           0       -1.770000   -0.034000    0.000000
      8          1           0        0.753000   -2.090000    0.000000
      9          1           0        0.841000    2.179000    0.000000
     10          1           0       -1.569000   -2.154000    0.000000
     11          1           0       -1.628000    2.135000    0.000000
     12          1           0       -2.853000   -0.016000    0.000000
 ---------------------------------------------------------------------
                    Distance matrix (angstroms):
                    1          2          3          4          5
     1  O    0.000000
     2  N    2.312480   0.000000
     3  C    1.228049   1.387583   0.000000
     4  C    2.364630   2.437002   1.493412   0.000000
     5  C    3.564708   1.373006   2.431659   2.795150   0.000000
     6  C    3.557127   2.752527   2.449538   1.340359   2.402270
     7  C    4.052015   2.357340   2.824000   2.424642   1.337881
     8  H    2.571056   1.015296   2.077917   3.370233   2.051416
     9  H    2.631594   3.413585   2.223227   1.082853   3.877826
    10  H    4.401291   2.090105   3.372615   3.875829   1.081814
    11  H    4.465990   3.835172   3.449302   2.111356   3.363629
    12  H    5.135005   3.350071   3.907041   3.385790   2.117023
                    6          7          8          9         10
     6  C    0.000000
     7  C    1.442403   0.000000
     8  H    3.767529   3.254637   0.000000
     9  H    2.123415   3.422673   4.269907   0.000000
    10  H    3.410415   2.129507   2.322882   4.958124   0.000000
    11  H    1.083744   2.173643   4.849720   2.469392   4.289406
    12  H    2.182634   1.083150   4.159893   4.296936   2.493933
                   11         12
    11  H    0.000000
    12  H    2.475364   0.000000
 Stoichiometry    C5H5NO
 Framework group  CS[SG(C5H5NO)]
 Deg. of freedom    21
 Full point group                 CS      NOp   2
 Largest Abelian subgroup         CS      NOp   2
 Largest concise Abelian subgroup C1      NOp   1
                         Standard orientation:                         
 ---------------------------------------------------------------------
 Center     Atomic      Atomic             Coordinates (Angstroms)
 Number     Number       Type             X           Y           Z
 ---------------------------------------------------------------------
      1          8           0        0.023182    2.274142    0.000000
      2          7           0       -1.162572    0.288808    0.000000
      3          6           0        0.000000    1.046311    0.000000
      4          6           0        1.274338    0.267631    0.000000
      5          6           0       -1.172193   -1.084165    0.000000
      6          6           0        1.230046   -1.071996    0.000000
      7          6           0       -0.028016   -1.777550    0.000000
      8          1           0       -2.058885    0.765723    0.000000
      9          1           0        2.210778    0.811368    0.000000
     10          1           0       -2.145917   -1.555528    0.000000
     11          1           0        2.142286   -1.657074    0.000000
     12          1           0       -0.020761   -2.860675    0.000000
 ---------------------------------------------------------------------
 Rotational constants (GHZ):      5.5208968      2.8360543      1.8735976
 General basis read from cards:  (5D, 7F)
 There are    59 symmetry adapted cartesian basis functions of A'  symmetry.
 There are    14 symmetry adapted cartesian basis functions of A"  symmetry.
 There are    59 symmetry adapted basis functions of A'  symmetry.
 There are    14 symmetry adapted basis functions of A"  symmetry.
    73 basis functions,   127 primitive gaussians,    73 cartesian basis functions
    25 alpha electrons       25 beta electrons
       nuclear repulsion energy       275.0774566563 Hartrees.
 NAtoms=   12 NActive=   12 NUniq=   12 SFac= 1.00D+00 NAtFMM=   60 NAOKFM=F Big=F
 Integral buffers will be    131072 words long.
 Raffenetti 2 integral format.
 Two-electron integral symmetry is turned on.
 One-electron integrals computed using PRISM.
 NBasis=    73 RedAO= T EigKep=  1.72D-02  NBF=    59    14
 NBsUse=    73 1.00D-06 EigRej= -1.00D+00 NBFU=    59    14
 ExpMin= 1.37D-01 ExpMax= 8.12D+02 ExpMxC= 8.12D+02 IAcc=1 IRadAn=         1 AccDes= 0.00D+00
 Harris functional with IExCor=  402 and IRadAn=       1 diagonalized for initial guess.
 HarFok:  IExCor=  402 AccDes= 0.00D+00 IRadAn=         1 IDoV= 1 UseB2=F ITyADJ=14
 ICtDFT=  3500011 ScaDFX=  1.000000  1.000000  1.000000  1.000000
 FoFCou: FMM=F IPFlag=           0 FMFlag=      100000 FMFlg1=           0
         NFxFlg=           0 DoJE=T BraDBF=F KetDBF=T FulRan=T
         wScrn=  0.000000 ICntrl=     500 IOpCl=  0 I1Cent=   200000004 NGrid=           0
         NMat0=    1 NMatS0=      1 NMatT0=    0 NMatD0=    1 NMtDS0=    0 NMtDT0=    0
 Petite list used in FoFCou.
 Initial guess orbital symmetries:
       Occupied  (A') (A') (A') (A') (A') (A') (A') (A') (A') (A')
                 (A') (A') (A') (A') (A') (A') (A') (A') (A") (A')
                 (A') (A") (A") (A') (A")
       Virtual   (A") (A") (A') (A") (A') (A') (A') (A') (A') (A')
                 (A') (A') (A') (A') (A') (A') (A') (A') (A") (A')
                 (A') (A') (A") (A') (A") (A") (A') (A") (A') (A')
                 (A') (A') (A") (A') (A') (A') (A') (A") (A') (A')
                 (A') (A') (A') (A') (A') (A') (A') (A')
 The electronic state of the initial guess is 1-A'.
 Keep R1 ints in memory in symmetry-blocked form, NReq=5795614.
 Requested convergence on RMS density matrix=1.00D-08 within 128 cycles.
 Requested convergence on MAX density matrix=1.00D-06.
 Requested convergence on             energy=1.00D-06.
 No special actions if energy rises.
 Integral accuracy reduced to 1.0D-05 until final iterations.
 Initial convergence to 1.0D-05 achieved.  Increase integral accuracy.
 SCF Done:  E(RB3LYP) =  -322.642394047     A.U. after   15 cycles
            NFock= 15  Conv=0.91D-08     -V/T= 2.0104

 **********************************************************************

            Population analysis using the SCF density.

 **********************************************************************

 Orbital symmetries:
       Occupied  (A') (A') (A') (A') (A') (A') (A') (A') (A') (A')
                 (A') (A') (A') (A') (A') (A') (A') (A") (A') (A')
                 (A') (A") (A") (A') (A")
       Virtual   (A") (A") (A') (A') (A') (A") (A') (A') (A') (A')
                 (A') (A') (A') (A') (A') (A') (A') (A") (A') (A')
                 (A') (A') (A") (A") (A') (A") (A") (A') (A') (A')
                 (A') (A') (A") (A') (A') (A') (A') (A") (A') (A')
                 (A') (A') (A') (A') (A') (A') (A') (A')
 The electronic state is 1-A'.
 Alpha  occ. eigenvalues --  -19.13457 -14.42651 -10.32479 -10.28127 -10.23812
 Alpha  occ. eigenvalues --  -10.22680 -10.22425  -1.05496  -0.98065  -0.83977
 Alpha  occ. eigenvalues --   -0.77696  -0.66569  -0.66177  -0.57688  -0.52970
 Alpha  occ. eigenvalues --   -0.50661  -0.48130  -0.45440  -0.43195  -0.39213
 Alpha  occ. eigenvalues --   -0.38615  -0.35417  -0.32215  -0.25022  -0.22959
 Alpha virt. eigenvalues --   -0.04436   0.00709   0.05990   0.09549   0.11884
 Alpha virt. eigenvalues --    0.12774   0.14383   0.16093   0.22722   0.27137
 Alpha virt. eigenvalues --    0.33026   0.34862   0.40360   0.46640   0.51499
 Alpha virt. eigenvalues --    0.63406   0.64398   0.68372   0.68824   0.71182
 Alpha virt. eigenvalues --    0.74163   0.76272   0.76978   0.78346   0.79161
 Alpha virt. eigenvalues --    0.82034   0.85713   0.86581   0.89838   0.91902
 Alpha virt. eigenvalues --    0.95703   1.02410   1.15906   1.18308   1.34302
 Alpha virt. eigenvalues --    1.34991   1.48544   1.52431   1.60892   1.67088
 Alpha virt. eigenvalues --    1.71268  33.01547  33.55268  33.70727  33.93111
 Alpha virt. eigenvalues --   34.63099  52.45309  74.85213
          Condensed to atoms (all electrons):
               1          2          3          4          5          6
     1  O    7.725119  -0.077827   0.760640  -0.091584   0.000476   0.002431
     2  N   -0.077827   7.002073   0.201617  -0.085796   0.329702   0.002288
     3  C    0.760640   0.201617   4.655661   0.237863  -0.044699  -0.079888
     4  C   -0.091584  -0.085796   0.237863   5.481833  -0.012265   0.418304
     5  C    0.000476   0.329702  -0.044699  -0.012265   4.986698  -0.132081
     6  C    0.002431   0.002288  -0.079888   0.418304  -0.132081   5.214069
     7  C   -0.000195  -0.111956  -0.006805  -0.119399   0.472524   0.340818
     8  H    0.000840   0.354622  -0.022464   0.008215  -0.025793  -0.002289
     9  H   -0.005912   0.002276  -0.032607   0.403839  -0.000634  -0.039456
    10  H   -0.000082  -0.031138   0.000177  -0.001062   0.409634   0.004143
    11  H   -0.000045  -0.000219   0.002324  -0.037912   0.003136   0.416844
    12  H   -0.000003   0.002129  -0.000310   0.002877  -0.035854  -0.024803
               7          8          9         10         11         12
     1  O   -0.000195   0.000840  -0.005912  -0.000082  -0.000045  -0.000003
     2  N   -0.111956   0.354622   0.002276  -0.031138  -0.000219   0.002129
     3  C   -0.006805  -0.022464  -0.032607   0.000177   0.002324  -0.000310
     4  C   -0.119399   0.008215   0.403839  -0.001062  -0.037912   0.002877
     5  C    0.472524  -0.025793  -0.000634   0.409634   0.003136  -0.035854
     6  C    0.340818  -0.002289  -0.039456   0.004143   0.416844  -0.024803
     7  C    5.268789   0.004284   0.003408  -0.032253  -0.023798   0.417790
     8  H    0.004284   0.374200   0.000160  -0.007409   0.000024   0.000018
     9  H    0.003408   0.000160   0.483100   0.000016  -0.008115   0.000156
    10  H   -0.032253  -0.007409   0.000016   0.469580   0.000076  -0.008093
    11  H   -0.023798   0.000024  -0.008115   0.000076   0.473450  -0.008334
    12  H    0.417790   0.000018   0.000156  -0.008093  -0.008334   0.480287
 Mulliken charges:
               1
     1  O   -0.313859
     2  N   -0.587770
     3  C    0.328492
     4  C   -0.204914
     5  C    0.049156
     6  C   -0.120380
     7  C   -0.213209
     8  H    0.315593
     9  H    0.193771
    10  H    0.196410
    11  H    0.182568
    12  H    0.174141
 Sum of Mulliken charges =  -0.00000
 Mulliken charges with hydrogens summed into heavy atoms:
               1
     1  O   -0.313859
     2  N   -0.272177
     3  C    0.328492
     4  C   -0.011143
     5  C    0.245566
     6  C    0.062189
     7  C   -0.039067
 Electronic spatial extent (au):  <R**2>=            630.9944
 Charge=              0.0000 electrons
 Dipole moment (field-independent basis, Debye):
    X=             -1.6053    Y=             -3.9670    Z=              0.0000  Tot=              4.2795
 Quadrupole moment (field-independent basis, Debye-Ang):
   XX=            -31.0894   YY=            -47.0584   ZZ=            -43.7761
   XY=             -0.8480   XZ=             -0.0000   YZ=              0.0000
 Traceless Quadrupole moment (field-independent basis, Debye-Ang):
   XX=              9.5519   YY=             -6.4170   ZZ=             -3.1348
   XY=             -0.8480   XZ=             -0.0000   YZ=              0.0000
 Octapole moment (field-independent basis, Debye-Ang**2):
  XXX=            -12.5163  YYY=            -28.1463  ZZZ=              0.0000  XYY=             -2.1033
  XXY=              2.6040  XXZ=              0.0000  XZZ=             -1.9389  YZZ=              6.7546
  YYZ=              0.0000  XYZ=              0.0000
 Hexadecapole moment (field-independent basis, Debye-Ang**3):
 XXXX=           -235.1781 YYYY=           -517.2271 ZZZZ=            -42.5005 XXXY=             -4.1765
 XXXZ=              0.0000 YYYX=             -4.4403 YYYZ=             -0.0000 ZZZX=              0.0000
 ZZZY=             -0.0000 XXYY=           -111.6755 XXZZ=            -60.9402 YYZZ=            -91.1973
 XXYZ=              0.0000 YYXZ=              0.0000 ZZXY=             -0.8603
 N-N= 2.750774566563D+02 E-N=-1.299505859633D+03  KE= 3.193162684919D+02
 Symmetry A'   KE= 3.078035494005D+02
 Symmetry A"   KE= 1.151271909135D+01
 Calling FoFJK, ICntrl=      2127 FMM=F ISym2X=1 I1Cent= 0 IOpClX= 0 NMat=1 NMatS=1 NMatT=0.
 ***** Axes restored to original set *****
 -------------------------------------------------------------------
 Center     Atomic                   Forces (Hartrees/Bohr)
 Number     Number              X              Y              Z
 -------------------------------------------------------------------
      1        8           0.047112535   -0.014291157    0.000000000
      2        7          -0.006653056   -0.006664026    0.000000000
      3        6          -0.018076962    0.050635539   -0.000000000
      4        6           0.014044982   -0.027132334    0.000000000
      5        6          -0.005522763   -0.020716163    0.000000000
      6        6          -0.023114275   -0.001045309    0.000000000
      7        6          -0.014594651    0.027592480   -0.000000000
      8        1           0.010282781   -0.004843335    0.000000000
      9        1           0.004077584   -0.001070286    0.000000000
     10        1          -0.001517815   -0.005029818    0.000000000
     11        1          -0.002887022    0.005357893   -0.000000000
     12        1          -0.003151338   -0.002793483    0.000000000
 -------------------------------------------------------------------
 Cartesian Forces:  Max     0.050635539 RMS     0.015397850

 GradGradGradGradGradGradGradGradGradGradGradGradGradGradGradGradGradGrad
 Berny optimization.
 FormGI is forming the generalized inverse of G from B-inverse, IUseBI=4.
 Internal  Forces:  Max     0.046982629 RMS     0.010896768
 Search for a local minimum.
 Step number   1 out of a maximum of   64
 All quantities printed in internal units (Hartrees-Bohrs-Radians)
 Mixed Optimization -- RFO/linear search
 Second derivative matrix not updated -- first step.
 ITU=  0
     Eigenvalues ---    0.01300   0.01527   0.01837   0.01952   0.02069
     Eigenvalues ---    0.02158   0.02298   0.02494   0.02602   0.16000
     Eigenvalues ---    0.16000   0.16000   0.16000   0.16000   0.22000
     Eigenvalues ---    0.22000   0.23420   0.25000   0.32350   0.35546
     Eigenvalues ---    0.35616   0.35652   0.35776   0.37986   0.45097
     Eigenvalues ---    0.45980   0.48525   0.55001   0.56595   0.91904
 RFO step:  Lambda=-1.33948877D-02 EMin= 1.29980170D-02
 Linear search not attempted -- first point.
 Iteration  1 RMS(Cart)=  0.03417214 RMS(Int)=  0.00060816
 Iteration  2 RMS(Cart)=  0.00073589 RMS(Int)=  0.00010026
 Iteration  3 RMS(Cart)=  0.00000044 RMS(Int)=  0.00010026
 ClnCor:  largest displacement from symmetrization is 1.83D-09 for atom    11.
 Variable       Old X    -DE/DX   Delta X   Delta X   Delta X     New X
                                 (Linear)    (Quad)   (Total)
    R1        2.32068   0.04698   0.00000   0.05039   0.05039   2.37106
    R2        2.62215   0.02168   0.00000   0.04356   0.04343   2.66558
    R3        2.59460   0.02116   0.00000   0.04220   0.04202   2.63663
    R4        1.91863   0.00904   0.00000   0.01946   0.01946   1.93809
    R5        2.82214  -0.01296   0.00000  -0.04069  -0.04063   2.78151
    R6        2.53291   0.02947   0.00000   0.04929   0.04946   2.58237
    R7        2.04630   0.00116   0.00000   0.00314   0.00314   2.04944
    R8        2.52823   0.02688   0.00000   0.04731   0.04726   2.57549
    R9        2.04433   0.00518   0.00000   0.01396   0.01396   2.05829
   R10        2.72575   0.00014   0.00000   0.00125   0.00137   2.72712
   R11        2.04798   0.00607   0.00000   0.01646   0.01646   2.06444
   R12        2.04686   0.00310   0.00000   0.00840   0.00840   2.05526
    A1        2.15529   0.00711   0.00000   0.03082   0.03052   2.18581
    A2        2.07512  -0.01017   0.00000  -0.05354  -0.05339   2.02173
    A3        2.05277   0.00306   0.00000   0.02272   0.02287   2.07565
    A4        2.16716  -0.01135   0.00000  -0.03987  -0.03983   2.12733
    A5        2.10042   0.02280   0.00000   0.08976   0.08980   2.19022
    A6        2.01561  -0.01145   0.00000  -0.04988  -0.04997   1.96564
    A7        2.08625   0.01418   0.00000   0.05220   0.05243   2.13868
    A8        2.06703  -0.01123   0.00000  -0.05001  -0.05013   2.01690
    A9        2.12991  -0.00294   0.00000  -0.00219  -0.00230   2.12761
   A10        2.10862  -0.00296   0.00000  -0.00633  -0.00655   2.10207
   A11        2.02864   0.00059   0.00000  -0.00200  -0.00189   2.02675
   A12        2.14593   0.00238   0.00000   0.00833   0.00844   2.15437
   A13        2.11496  -0.00054   0.00000  -0.00488  -0.00457   2.11039
   A14        2.10803  -0.00014   0.00000   0.00006  -0.00009   2.10794
   A15        2.06019   0.00068   0.00000   0.00481   0.00466   2.06486
   A16        2.08565  -0.00633   0.00000  -0.02193  -0.02186   2.06378
   A17        2.12232   0.00025   0.00000  -0.00583  -0.00586   2.11646
   A18        2.07522   0.00607   0.00000   0.02776   0.02772   2.10294
    D1        3.14159  -0.00000   0.00000  -0.00000   0.00000   3.14159
    D2       -0.00000  -0.00000   0.00000  -0.00000   0.00000   0.00000
    D3       -0.00000  -0.00000   0.00000  -0.00000   0.00000   0.00000
    D4        3.14159   0.00000   0.00000   0.00000   0.00000   3.14159
    D5        0.00000   0.00000   0.00000  -0.00000   0.00000   0.00000
    D6        3.14159   0.00000   0.00000   0.00000   0.00000   3.14159
    D7        3.14159  -0.00000   0.00000  -0.00000   0.00000   3.14159
    D8        0.00000   0.00000   0.00000   0.00000  -0.00000   0.00000
    D9        3.14159   0.00000   0.00000   0.00000   0.00000   3.14159
   D10        0.00000   0.00000   0.00000   0.00000   0.00000   0.00000
   D11        0.00000   0.00000   0.00000   0.00000   0.00000   0.00000
   D12        3.14159   0.00000   0.00000   0.00000   0.00000   3.14159
   D13       -0.00000  -0.00000   0.00000  -0.00000   0.00000   0.00000
   D14        3.14159  -0.00000   0.00000  -0.00000   0.00000   3.14159
   D15        3.14159  -0.00000   0.00000  -0.00000   0.00000   3.14159
   D16       -0.00000  -0.00000   0.00000  -0.00000   0.00000   0.00000
   D17       -0.00000  -0.00000   0.00000   0.00000   0.00000   0.00000
   D18        3.14159  -0.00000   0.00000   0.00000   0.00000   3.14159
   D19        3.14159  -0.00000   0.00000  -0.00000   0.00000   3.14159
   D20       -0.00000  -0.00000   0.00000  -0.00000   0.00000   0.00000
   D21        0.00000   0.00000   0.00000   0.00000   0.00000   0.00000
   D22        3.14159   0.00000   0.00000  -0.00000   0.00000   3.14159
   D23        3.14159   0.00000   0.00000   0.00000   0.00000   3.14159
   D24        0.00000   0.00000   0.00000   0.00000   0.00000   0.00000
         Item               Value     Threshold  Converged?
 Maximum Force            0.046983     0.000450     NO 
 RMS     Force            0.010897     0.000300     NO 
 Maximum Displacement     0.110956     0.001800     NO 
 RMS     Displacement     0.034064     0.001200     NO 
 Predicted change in Energy=-6.943983D-03
 GradGradGradGradGradGradGradGradGradGradGradGradGradGradGradGradGradGrad

                          Input orientation:                          
 ---------------------------------------------------------------------
 Center     Atomic      Atomic             Coordinates (Angstroms)
 Number     Number       Type             X           Y           Z
 ---------------------------------------------------------------------
      1          8           0        2.340715   -0.065010    0.000000
      2          7           0        0.288177   -1.169956    0.000000
      3          6           0        1.087317   -0.007601   -0.000000
      4          6           0        0.288504    1.228693   -0.000000
      5          6           0       -1.106953   -1.187693    0.000000
      6          6           0       -1.078005    1.220810   -0.000000
      7          6           0       -1.812313   -0.021531    0.000000
      8          1           0        0.795604   -2.061226    0.000000
      9          1           0        0.856331    2.152677   -0.000000
     10          1           0       -1.574072   -2.171643    0.000000
     11          1           0       -1.642399    2.156181   -0.000000
     12          1           0       -2.899907   -0.019701    0.000000
 ---------------------------------------------------------------------
                    Distance matrix (angstroms):
                    1          2          3          4          5
     1  O    0.000000
     2  N    2.331055   0.000000
     3  C    1.254713   1.410564   0.000000
     4  C    2.425951   2.398649   1.471912   0.000000
     5  C    3.625856   1.395243   2.491473   2.790381   0.000000
     6  C    3.652531   2.753582   2.489500   1.366532   2.408677
     7  C    4.153256   2.393938   2.899663   2.444687   1.362890
     8  H    2.524332   1.025595   2.074240   3.328771   2.093510
     9  H    2.668620   3.370859   2.172592   1.084515   3.874604
    10  H    4.445612   2.114556   3.430170   3.877044   1.089200
    11  H    4.560580   3.845818   3.483289   2.142107   3.386473
    12  H    5.240818   3.389243   3.987242   3.424099   2.139834
                    6          7          8          9         10
     6  C    0.000000
     7  C    1.443128   0.000000
     8  H    3.779176   3.310829   0.000000
     9  H    2.147099   3.442215   4.214341   0.000000
    10  H    3.428530   2.163270   2.372247   4.960504   0.000000
    11  H    1.092456   2.184331   4.871384   2.498732   4.328363
    12  H    2.204131   1.087595   4.221922   4.339187   2.527586
                   11         12
    11  H    0.000000
    12  H    2.513124   0.000000
 Stoichiometry    C5H5NO
 Framework group  CS[SG(C5H5NO)]
 Deg. of freedom    21
 Full point group                 CS      NOp   2
 Largest Abelian subgroup         CS      NOp   2
 Largest concise Abelian subgroup C1      NOp   1
                         Standard orientation:                         
 ---------------------------------------------------------------------
 Center     Atomic      Atomic             Coordinates (Angstroms)
 Number     Number       Type             X           Y           Z
 ---------------------------------------------------------------------
      1          8           0       -0.077832    2.328760   -0.000000
      2          7           0       -1.149174    0.258483   -0.000000
      3          6           0        0.000000    1.076463    0.000000
      4          6           0        1.249151    0.297910    0.000000
      5          6           0       -1.144167   -1.136751   -0.000000
      6          6           0        1.263544   -1.068547    0.000000
      7          6           0        0.033338   -1.823009    0.000000
      8          1           0       -2.048597    0.751314   -0.000000
      9          1           0        2.163756    0.880723    0.000000
     10          1           0       -2.120371   -1.619847   -0.000000
     11          1           0        2.207991   -1.617618    0.000000
     12          1           0        0.052897   -2.910428    0.000000
 ---------------------------------------------------------------------
 Rotational constants (GHZ):      5.5881484      2.7047648      1.8225956
 Basis read from rwf:  (5D, 7F)
 There are    59 symmetry adapted cartesian basis functions of A'  symmetry.
 There are    14 symmetry adapted cartesian basis functions of A"  symmetry.
 There are    59 symmetry adapted basis functions of A'  symmetry.
 There are    14 symmetry adapted basis functions of A"  symmetry.
    73 basis functions,   127 primitive gaussians,    73 cartesian basis functions
    25 alpha electrons       25 beta electrons
       nuclear repulsion energy       272.0261331890 Hartrees.
 NAtoms=   12 NActive=   12 NUniq=   12 SFac= 1.00D+00 NAtFMM=   60 NAOKFM=F Big=F
 Integral buffers will be    131072 words long.
 Raffenetti 2 integral format.
 Two-electron integral symmetry is turned on.
 One-electron integrals computed using PRISM.
 NBasis=    73 RedAO= T EigKep=  1.82D-02  NBF=    59    14
 NBsUse=    73 1.00D-06 EigRej= -1.00D+00 NBFU=    59    14
 Initial guess from the checkpoint file:  "PY_pc-0_B3LYP_OPT_FREQ.chk"
 B after Tr=     0.000000    0.000000    0.000000
         Rot=    0.999888   -0.000000   -0.000000   -0.014979 Ang=  -1.72 deg.
 Initial guess orbital symmetries:
       Occupied  (A') (A') (A') (A') (A') (A') (A') (A') (A') (A')
                 (A') (A') (A') (A') (A') (A') (A') (A") (A') (A')
                 (A') (A") (A") (A') (A")
       Virtual   (A') (A') (A') (A') (A') (A') (A') (A') (A') (A')
                 (A') (A') (A') (A') (A') (A') (A') (A') (A') (A')
                 (A') (A') (A') (A') (A') (A') (A') (A') (A') (A')
                 (A') (A') (A') (A') (A') (A') (A') (A') (A") (A")
                 (A") (A") (A") (A") (A") (A") (A") (A")
 ExpMin= 1.37D-01 ExpMax= 8.12D+02 ExpMxC= 8.12D+02 IAcc=1 IRadAn=         1 AccDes= 0.00D+00
 Harris functional with IExCor=  402 and IRadAn=       1 diagonalized for initial guess.
 HarFok:  IExCor=  402 AccDes= 0.00D+00 IRadAn=         1 IDoV= 1 UseB2=F ITyADJ=14
 ICtDFT=  3500011 ScaDFX=  1.000000  1.000000  1.000000  1.000000
 FoFCou: FMM=F IPFlag=           0 FMFlag=      100000 FMFlg1=           0
         NFxFlg=           0 DoJE=T BraDBF=F KetDBF=T FulRan=T
         wScrn=  0.000000 ICntrl=     500 IOpCl=  0 I1Cent=   200000004 NGrid=           0
         NMat0=    1 NMatS0=      1 NMatT0=    0 NMatD0=    1 NMtDS0=    0 NMtDT0=    0
 Petite list used in FoFCou.
 Keep R1 ints in memory in symmetry-blocked form, NReq=5795614.
 Requested convergence on RMS density matrix=1.00D-08 within 128 cycles.
 Requested convergence on MAX density matrix=1.00D-06.
 Requested convergence on             energy=1.00D-06.
 No special actions if energy rises.
 Integral accuracy reduced to 1.0D-05 until final iterations.
 Initial convergence to 1.0D-05 achieved.  Increase integral accuracy.
 SCF Done:  E(RB3LYP) =  -322.649743257     A.U. after   14 cycles
            NFock= 14  Conv=0.51D-08     -V/T= 2.0116
 Calling FoFJK, ICntrl=      2127 FMM=F ISym2X=1 I1Cent= 0 IOpClX= 0 NMat=1 NMatS=1 NMatT=0.
 ***** Axes restored to original set *****
 -------------------------------------------------------------------
 Center     Atomic                   Forces (Hartrees/Bohr)
 Number     Number              X              Y              Z
 -------------------------------------------------------------------
      1        8           0.003196766   -0.004162504    0.000000000
      2        7          -0.010853852   -0.005658579    0.000000000
      3        6          -0.004423425    0.019197272   -0.000000000
      4        6           0.005382780   -0.009137279    0.000000000
      5        6           0.005401707   -0.006104855    0.000000000
      6        6          -0.004035534   -0.004036447    0.000000000
      7        6           0.001003632    0.009481810   -0.000000000
      8        1           0.001562124   -0.000290443    0.000000000
      9        1          -0.000202916    0.002002089   -0.000000000
     10        1           0.000864537   -0.000214385    0.000000000
     11        1           0.001854309    0.000405610   -0.000000000
     12        1           0.000249870   -0.001482291    0.000000000
 -------------------------------------------------------------------
 Cartesian Forces:  Max     0.019197272 RMS     0.004947238

 GradGradGradGradGradGradGradGradGradGradGradGradGradGradGradGradGradGrad
 Berny optimization.
 Using GEDIIS/GDIIS optimizer.
 FormGI is forming the generalized inverse of G from B-inverse, IUseBI=4.
 Internal  Forces:  Max     0.009185533 RMS     0.002363762
 Search for a local minimum.
 Step number   2 out of a maximum of   64
 All quantities printed in internal units (Hartrees-Bohrs-Radians)
 Mixed Optimization -- RFO/linear search
 Update second derivatives using D2CorX and points    1    2
 DE= -7.35D-03 DEPred=-6.94D-03 R= 1.06D+00
 TightC=F SS=  1.41D+00  RLast= 1.91D-01 DXNew= 5.0454D-01 5.7401D-01
 Trust test= 1.06D+00 RLast= 1.91D-01 DXMaxT set to 5.05D-01
 ITU=  1  0
 Use linear search instead of GDIIS.
     Eigenvalues ---    0.01271   0.01526   0.01858   0.01956   0.02072
     Eigenvalues ---    0.02149   0.02302   0.02497   0.02600   0.15420
     Eigenvalues ---    0.16000   0.16000   0.16000   0.16288   0.21495
     Eigenvalues ---    0.22014   0.23022   0.24525   0.31196   0.35583
     Eigenvalues ---    0.35612   0.35678   0.35884   0.37869   0.44740
     Eigenvalues ---    0.45309   0.49653   0.54754   0.58444   0.91979
 RFO step:  Lambda=-9.11830626D-04 EMin= 1.27092167D-02
 Quartic linear search produced a step of  0.14126.
 Iteration  1 RMS(Cart)=  0.00917041 RMS(Int)=  0.00011221
 Iteration  2 RMS(Cart)=  0.00012048 RMS(Int)=  0.00001175
 Iteration  3 RMS(Cart)=  0.00000001 RMS(Int)=  0.00001175
 ClnCor:  largest displacement from symmetrization is 4.11D-09 for atom    11.
 Variable       Old X    -DE/DX   Delta X   Delta X   Delta X     New X
                                 (Linear)    (Quad)   (Total)
    R1        2.37106   0.00338   0.00712   0.00052   0.00764   2.37870
    R2        2.66558   0.00745   0.00613   0.01478   0.02090   2.68648
    R3        2.63663  -0.00617   0.00594  -0.01664  -0.01073   2.62590
    R4        1.93809   0.00103   0.00275   0.00120   0.00395   1.94204
    R5        2.78151  -0.00919  -0.00574  -0.02910  -0.03483   2.74668
    R6        2.58237   0.00085   0.00699  -0.00213   0.00488   2.58725
    R7        2.04944   0.00160   0.00044   0.00488   0.00533   2.05477
    R8        2.57549   0.00464   0.00668   0.00595   0.01262   2.58810
    R9        2.05829  -0.00018   0.00197  -0.00155   0.00042   2.05871
   R10        2.72712  -0.00295   0.00019  -0.00876  -0.00855   2.71856
   R11        2.06444  -0.00061   0.00233  -0.00312  -0.00079   2.06365
   R12        2.05526  -0.00025   0.00119  -0.00140  -0.00021   2.05504
    A1        2.18581   0.00064   0.00431   0.00226   0.00654   2.19235
    A2        2.02173  -0.00150  -0.00754  -0.00697  -0.01449   2.00724
    A3        2.07565   0.00086   0.00323   0.00471   0.00796   2.08360
    A4        2.12733  -0.00508  -0.00563  -0.02028  -0.02590   2.10142
    A5        2.19022   0.00443   0.01268   0.01407   0.02676   2.21698
    A6        1.96564   0.00065  -0.00706   0.00620  -0.00086   1.96478
    A7        2.13868  -0.00026   0.00741  -0.00613   0.00131   2.13999
    A8        2.01690   0.00138  -0.00708   0.01350   0.00641   2.02330
    A9        2.12761  -0.00112  -0.00033  -0.00737  -0.00771   2.11990
   A10        2.10207  -0.00255  -0.00093  -0.01144  -0.01239   2.08967
   A11        2.02675   0.00038  -0.00027  -0.00031  -0.00056   2.02618
   A12        2.15437   0.00217   0.00119   0.01175   0.01295   2.16733
   A13        2.11039   0.00105  -0.00065   0.00478   0.00416   2.11456
   A14        2.10794  -0.00238  -0.00001  -0.01539  -0.01542   2.09252
   A15        2.06486   0.00133   0.00066   0.01061   0.01126   2.07611
   A16        2.06378   0.00048  -0.00309   0.00433   0.00125   2.06503
   A17        2.11646  -0.00176  -0.00083  -0.01186  -0.01269   2.10377
   A18        2.10294   0.00128   0.00392   0.00753   0.01144   2.11438
    D1        3.14159  -0.00000   0.00000   0.00000   0.00000   3.14159
    D2        0.00000   0.00000   0.00000   0.00000  -0.00000   0.00000
    D3       -0.00000   0.00000   0.00000   0.00000   0.00000   0.00000
    D4        3.14159   0.00000   0.00000   0.00000   0.00000   3.14159
    D5       -0.00000  -0.00000   0.00000  -0.00000   0.00000   0.00000
    D6        3.14159  -0.00000   0.00000  -0.00000   0.00000   3.14159
    D7        3.14159  -0.00000   0.00000  -0.00000   0.00000   3.14159
    D8        0.00000  -0.00000   0.00000  -0.00000   0.00000   0.00000
    D9        3.14159  -0.00000   0.00000  -0.00000   0.00000   3.14159
   D10       -0.00000  -0.00000   0.00000  -0.00000   0.00000   0.00000
   D11       -0.00000  -0.00000   0.00000  -0.00000   0.00000   0.00000
   D12        3.14159  -0.00000   0.00000  -0.00000   0.00000   3.14159
   D13        0.00000   0.00000   0.00000   0.00000  -0.00000   0.00000
   D14        3.14159   0.00000   0.00000   0.00000   0.00000   3.14159
   D15        3.14159   0.00000   0.00000   0.00000   0.00000   3.14159
   D16       -0.00000   0.00000   0.00000   0.00000   0.00000   0.00000
   D17       -0.00000  -0.00000   0.00000  -0.00000   0.00000   0.00000
   D18        3.14159  -0.00000   0.00000  -0.00000   0.00000   3.14159
   D19        3.14159  -0.00000   0.00000  -0.00000   0.00000   3.14159
   D20        0.00000   0.00000   0.00000  -0.00000  -0.00000   0.00000
   D21        0.00000   0.00000   0.00000   0.00000   0.00000   0.00000
   D22        3.14159  -0.00000   0.00000   0.00000   0.00000   3.14159
   D23        3.14159   0.00000   0.00000   0.00000   0.00000   3.14159
   D24        0.00000  -0.00000   0.00000   0.00000   0.00000   0.00000
         Item               Value     Threshold  Converged?
 Maximum Force            0.009186     0.000450     NO 
 RMS     Force            0.002364     0.000300     NO 
 Maximum Displacement     0.030787     0.001800     NO 
 RMS     Displacement     0.009197     0.001200     NO 
 Predicted change in Energy=-5.490759D-04
 GradGradGradGradGradGradGradGradGradGradGradGradGradGradGradGradGradGrad

                          Input orientation:                          
 ---------------------------------------------------------------------
 Center     Atomic      Atomic             Coordinates (Angstroms)
 Number     Number       Type             X           Y           Z
 ---------------------------------------------------------------------
      1          8           0        2.338274   -0.081302    0.000000
      2          7           0        0.278668   -1.165150    0.000000
      3          6           0        1.082640    0.007303   -0.000000
      4          6           0        0.291289    1.226471   -0.000000
      5          6           0       -1.110608   -1.193596    0.000000
      6          6           0       -1.077794    1.217508   -0.000000
      7          6           0       -1.813988   -0.018450   -0.000000
      8          1           0        0.801101   -2.050136    0.000000
      9          1           0        0.852707    2.157657   -0.000000
     10          1           0       -1.569617   -2.181602    0.000000
     11          1           0       -1.628221    2.160682   -0.000000
     12          1           0       -2.901449   -0.025383   -0.000000
 ---------------------------------------------------------------------
                    Distance matrix (angstroms):
                    1          2          3          4          5
     1  O    0.000000
     2  N    2.327382   0.000000
     3  C    1.258756   1.421624   0.000000
     4  C    2.429077   2.391654   1.453481   0.000000
     5  C    3.623808   1.389567   2.500498   2.796790   0.000000
     6  C    3.654645   2.741723   2.476302   1.369113   2.411327
     7  C    4.152738   2.386238   2.896743   2.445817   1.369566
     8  H    2.497841   1.027685   2.076612   3.316031   2.094825
     9  H    2.686977   3.372027   2.162613   1.087335   3.884006
    10  H    4.436539   2.109344   3.438862   3.883031   1.089424
    11  H    4.556268   3.833717   3.462053   2.134777   3.393980
    12  H    5.240022   3.378197   3.984223   3.429390   2.138185
                    6          7          8          9         10
     6  C    0.000000
     7  C    1.438601   0.000000
     8  H    3.769316   3.311562   0.000000
     9  H    2.147257   3.441904   4.208110   0.000000
    10  H    3.434507   2.176911   2.374360   4.969590   0.000000
    11  H    1.092038   2.187036   4.861337   2.480930   4.342679
    12  H    2.206920   1.087483   4.220012   4.342735   2.534375
                   11         12
    11  H    0.000000
    12  H    2.529820   0.000000
 Stoichiometry    C5H5NO
 Framework group  CS[SG(C5H5NO)]
 Deg. of freedom    21
 Full point group                 CS      NOp   2
 Largest Abelian subgroup         CS      NOp   2
 Largest concise Abelian subgroup C1      NOp   1
                         Standard orientation:                         
 ---------------------------------------------------------------------
 Center     Atomic      Atomic             Coordinates (Angstroms)
 Number     Number       Type             X           Y           Z
 ---------------------------------------------------------------------
      1          8           0       -0.127713    2.326611    0.000000
      2          7           0       -1.146814    0.234211    0.000000
      3          6           0        0.000000    1.074350    0.000000
      4          6           0        1.243250    0.321399    0.000000
      5          6           0       -1.131927   -1.155277    0.000000
      6          6           0        1.276981   -1.047298    0.000000
      7          6           0        0.064579   -1.821673    0.000000
      8          1           0       -2.047660    0.728795    0.000000
      9          1           0        2.156478    0.911579    0.000000
     10          1           0       -2.105140   -1.644869    0.000000
     11          1           0        2.236859   -1.568049    0.000000
     12          1           0        0.091558   -2.908821    0.000000
 ---------------------------------------------------------------------
 Rotational constants (GHZ):      5.5933150      2.7078874      1.8245630
 Basis read from rwf:  (5D, 7F)
 There are    59 symmetry adapted cartesian basis functions of A'  symmetry.
 There are    14 symmetry adapted cartesian basis functions of A"  symmetry.
 There are    59 symmetry adapted basis functions of A'  symmetry.
 There are    14 symmetry adapted basis functions of A"  symmetry.
    73 basis functions,   127 primitive gaussians,    73 cartesian basis functions
    25 alpha electrons       25 beta electrons
       nuclear repulsion energy       272.1100160529 Hartrees.
 NAtoms=   12 NActive=   12 NUniq=   12 SFac= 1.00D+00 NAtFMM=   60 NAOKFM=F Big=F
 Integral buffers will be    131072 words long.
 Raffenetti 2 integral format.
 Two-electron integral symmetry is turned on.
 One-electron integrals computed using PRISM.
 NBasis=    73 RedAO= T EigKep=  1.82D-02  NBF=    59    14
 NBsUse=    73 1.00D-06 EigRej= -1.00D+00 NBFU=    59    14
 Initial guess from the checkpoint file:  "PY_pc-0_B3LYP_OPT_FREQ.chk"
 B after Tr=     0.000000    0.000000    0.000000
         Rot=    0.999966   -0.000000   -0.000000   -0.008290 Ang=  -0.95 deg.
 Initial guess orbital symmetries:
       Occupied  (A') (A') (A') (A') (A') (A') (A') (A') (A') (A')
                 (A') (A') (A') (A') (A') (A') (A') (A") (A') (A')
                 (A') (A") (A") (A') (A")
       Virtual   (A') (A') (A') (A') (A') (A') (A') (A') (A') (A')
                 (A') (A') (A') (A') (A') (A') (A') (A') (A') (A')
                 (A') (A') (A') (A') (A') (A') (A') (A') (A') (A')
                 (A') (A') (A') (A') (A') (A') (A') (A') (A") (A")
                 (A") (A") (A") (A") (A") (A") (A") (A")
 ExpMin= 1.37D-01 ExpMax= 8.12D+02 ExpMxC= 8.12D+02 IAcc=1 IRadAn=         1 AccDes= 0.00D+00
 Harris functional with IExCor=  402 and IRadAn=       1 diagonalized for initial guess.
 HarFok:  IExCor=  402 AccDes= 0.00D+00 IRadAn=         1 IDoV= 1 UseB2=F ITyADJ=14
 ICtDFT=  3500011 ScaDFX=  1.000000  1.000000  1.000000  1.000000
 FoFCou: FMM=F IPFlag=           0 FMFlag=      100000 FMFlg1=           0
         NFxFlg=           0 DoJE=T BraDBF=F KetDBF=T FulRan=T
         wScrn=  0.000000 ICntrl=     500 IOpCl=  0 I1Cent=   200000004 NGrid=           0
         NMat0=    1 NMatS0=      1 NMatT0=    0 NMatD0=    1 NMtDS0=    0 NMtDT0=    0
 Petite list used in FoFCou.
 Keep R1 ints in memory in symmetry-blocked form, NReq=5795614.
 Requested convergence on RMS density matrix=1.00D-08 within 128 cycles.
 Requested convergence on MAX density matrix=1.00D-06.
 Requested convergence on             energy=1.00D-06.
 No special actions if energy rises.
 Integral accuracy reduced to 1.0D-05 until final iterations.
 Initial convergence to 1.0D-05 achieved.  Increase integral accuracy.
 SCF Done:  E(RB3LYP) =  -322.650411389     A.U. after   12 cycles
            NFock= 12  Conv=0.87D-08     -V/T= 2.0116
 Calling FoFJK, ICntrl=      2127 FMM=F ISym2X=1 I1Cent= 0 IOpClX= 0 NMat=1 NMatS=1 NMatT=0.
 ***** Axes restored to original set *****
 -------------------------------------------------------------------
 Center     Atomic                   Forces (Hartrees/Bohr)
 Number     Number              X              Y              Z
 -------------------------------------------------------------------
      1        8          -0.001632645   -0.000699805    0.000000000
      2        7          -0.005318961   -0.003676535    0.000000000
      3        6           0.002460148    0.003130096   -0.000000000
      4        6           0.002415713    0.000040178    0.000000000
      5        6           0.004572947   -0.000530145    0.000000000
      6        6          -0.002275450   -0.002741604    0.000000000
      7        6           0.000212884    0.003026342   -0.000000000
      8        1           0.000297002    0.000875558   -0.000000000
      9        1          -0.001117473    0.000318960   -0.000000000
     10        1          -0.000187543    0.000534441   -0.000000000
     11        1           0.000477752   -0.000173193    0.000000000
     12        1           0.000095625   -0.000104294    0.000000000
 -------------------------------------------------------------------
 Cartesian Forces:  Max     0.005318961 RMS     0.001768128

 GradGradGradGradGradGradGradGradGradGradGradGradGradGradGradGradGradGrad
 Berny optimization.
 Using GEDIIS/GDIIS optimizer.
 FormGI is forming the generalized inverse of G from B-inverse, IUseBI=4.
 Internal  Forces:  Max     0.003626340 RMS     0.000857794
 Search for a local minimum.
 Step number   3 out of a maximum of   64
 All quantities printed in internal units (Hartrees-Bohrs-Radians)
 Mixed Optimization -- En-DIIS/RFO-DIIS
 Update second derivatives using D2CorX and points    1    2    3
 DE= -6.68D-04 DEPred=-5.49D-04 R= 1.22D+00
 TightC=F SS=  1.41D+00  RLast= 7.02D-02 DXNew= 8.4853D-01 2.1059D-01
 Trust test= 1.22D+00 RLast= 7.02D-02 DXMaxT set to 5.05D-01
 ITU=  1  1  0
 Use linear search instead of GDIIS.
     Eigenvalues ---    0.01257   0.01525   0.01855   0.01957   0.02067
     Eigenvalues ---    0.02138   0.02299   0.02497   0.02599   0.13042
     Eigenvalues ---    0.16000   0.16000   0.16252   0.16370   0.20479
     Eigenvalues ---    0.22381   0.22519   0.24515   0.31779   0.35590
     Eigenvalues ---    0.35627   0.35714   0.35878   0.37870   0.43778
     Eigenvalues ---    0.45256   0.48594   0.54649   0.58688   0.95012
 RFO step:  Lambda=-9.82853566D-05 EMin= 1.25660290D-02
 Quartic linear search produced a step of  0.23109.
 Iteration  1 RMS(Cart)=  0.00389068 RMS(Int)=  0.00001975
 Iteration  2 RMS(Cart)=  0.00001926 RMS(Int)=  0.00000088
 Iteration  3 RMS(Cart)=  0.00000000 RMS(Int)=  0.00000088
 ClnCor:  largest displacement from symmetrization is 2.27D-12 for atom    11.
 Variable       Old X    -DE/DX   Delta X   Delta X   Delta X     New X
                                 (Linear)    (Quad)   (Total)
    R1        2.37870  -0.00158   0.00177  -0.00196  -0.00020   2.37851
    R2        2.68648   0.00266   0.00483   0.00486   0.00969   2.69617
    R3        2.62590  -0.00363  -0.00248  -0.00616  -0.00864   2.61726
    R4        1.94204  -0.00060   0.00091  -0.00171  -0.00079   1.94125
    R5        2.74668  -0.00046  -0.00805   0.00282  -0.00523   2.74145
    R6        2.58725   0.00072   0.00113   0.00215   0.00328   2.59053
    R7        2.05477  -0.00030   0.00123  -0.00174  -0.00051   2.05426
    R8        2.58810   0.00086   0.00292   0.00090   0.00381   2.59192
    R9        2.05871  -0.00041   0.00010  -0.00107  -0.00098   2.05774
   R10        2.71856  -0.00260  -0.00198  -0.00686  -0.00884   2.70972
   R11        2.06365  -0.00039  -0.00018  -0.00079  -0.00097   2.06268
   R12        2.05504  -0.00009  -0.00005  -0.00007  -0.00012   2.05492
    A1        2.19235  -0.00019   0.00151  -0.00115   0.00036   2.19270
    A2        2.00724  -0.00059  -0.00335  -0.00394  -0.00729   1.99995
    A3        2.08360   0.00077   0.00184   0.00509   0.00693   2.09053
    A4        2.10142  -0.00088  -0.00599  -0.00187  -0.00785   2.09357
    A5        2.21698   0.00106   0.00618   0.00308   0.00926   2.22624
    A6        1.96478  -0.00018  -0.00020  -0.00121  -0.00141   1.96337
    A7        2.13999  -0.00077   0.00030  -0.00218  -0.00187   2.13811
    A8        2.02330   0.00154   0.00148   0.00805   0.00953   2.03283
    A9        2.11990  -0.00077  -0.00178  -0.00587  -0.00766   2.11224
   A10        2.08967   0.00046  -0.00286   0.00331   0.00044   2.09012
   A11        2.02618   0.00018  -0.00013   0.00230   0.00217   2.02835
   A12        2.16733  -0.00064   0.00299  -0.00561  -0.00261   2.16472
   A13        2.11456   0.00068   0.00096   0.00296   0.00392   2.11847
   A14        2.09252  -0.00068  -0.00356  -0.00208  -0.00564   2.08688
   A15        2.07611  -0.00000   0.00260  -0.00088   0.00172   2.07784
   A16        2.06503  -0.00000   0.00029  -0.00172  -0.00144   2.06359
   A17        2.10377  -0.00011  -0.00293   0.00140  -0.00153   2.10224
   A18        2.11438   0.00011   0.00264   0.00032   0.00297   2.11735
    D1        3.14159  -0.00000   0.00000  -0.00000   0.00000   3.14159
    D2        0.00000  -0.00000   0.00000  -0.00000   0.00000   0.00000
    D3       -0.00000  -0.00000   0.00000  -0.00000   0.00000   0.00000
    D4        3.14159   0.00000   0.00000  -0.00000   0.00000   3.14159
    D5       -0.00000   0.00000   0.00000   0.00000   0.00000   0.00000
    D6        3.14159   0.00000   0.00000   0.00000   0.00000   3.14159
    D7        3.14159   0.00000   0.00000   0.00000   0.00000   3.14159
    D8        0.00000   0.00000   0.00000   0.00000   0.00000   0.00000
    D9        3.14159  -0.00000   0.00000  -0.00000   0.00000   3.14159
   D10       -0.00000  -0.00000   0.00000  -0.00000   0.00000   0.00000
   D11       -0.00000  -0.00000   0.00000  -0.00000   0.00000   0.00000
   D12        3.14159  -0.00000   0.00000   0.00000   0.00000   3.14159
   D13        0.00000   0.00000   0.00000   0.00000   0.00000   0.00000
   D14        3.14159   0.00000   0.00000   0.00000   0.00000   3.14159
   D15        3.14159   0.00000   0.00000   0.00000   0.00000   3.14159
   D16        0.00000   0.00000   0.00000   0.00000  -0.00000   0.00000
   D17        0.00000   0.00000   0.00000   0.00000  -0.00000   0.00000
   D18        3.14159  -0.00000   0.00000  -0.00000   0.00000   3.14159
   D19        3.14159  -0.00000   0.00000   0.00000   0.00000   3.14159
   D20       -0.00000   0.00000   0.00000  -0.00000   0.00000   0.00000
   D21       -0.00000  -0.00000   0.00000  -0.00000   0.00000   0.00000
   D22        3.14159  -0.00000   0.00000  -0.00000   0.00000   3.14159
   D23        3.14159  -0.00000   0.00000  -0.00000   0.00000   3.14159
   D24       -0.00000  -0.00000   0.00000  -0.00000   0.00000   0.00000
         Item               Value     Threshold  Converged?
 Maximum Force            0.003626     0.000450     NO 
 RMS     Force            0.000858     0.000300     NO 
 Maximum Displacement     0.015541     0.001800     NO 
 RMS     Displacement     0.003890     0.001200     NO 
 Predicted change in Energy=-7.411706D-05
 GradGradGradGradGradGradGradGradGradGradGradGradGradGradGradGradGradGrad

                          Input orientation:                          
 ---------------------------------------------------------------------
 Center     Atomic      Atomic             Coordinates (Angstroms)
 Number     Number       Type             X           Y           Z
 ---------------------------------------------------------------------
      1          8           0        2.338291   -0.089526    0.000000
      2          7           0        0.275694   -1.165971    0.000000
      3          6           0        1.083580    0.010012   -0.000000
      4          6           0        0.293072    1.226427   -0.000000
      5          6           0       -1.109023   -1.193622    0.000000
      6          6           0       -1.077721    1.214137   -0.000000
      7          6           0       -1.813366   -0.016700   -0.000000
      8          1           0        0.803585   -2.047224    0.000000
      9          1           0        0.844943    2.162991   -0.000000
     10          1           0       -1.570454   -2.179929    0.000000
     11          1           0       -1.624850    2.158636   -0.000000
     12          1           0       -2.900750   -0.025231   -0.000000
 ---------------------------------------------------------------------
                    Distance matrix (angstroms):
                    1          2          3          4          5
     1  O    0.000000
     2  N    2.326594   0.000000
     3  C    1.258653   1.426750   0.000000
     4  C    2.432005   2.392461   1.450713   0.000000
     5  C    3.619807   1.384993   2.501248   2.796874   0.000000
     6  C    3.656319   2.738001   2.474094   1.370848   2.407962
     7  C    4.152295   2.384323   2.897069   2.445904   1.371585
     8  H    2.487550   1.027265   2.076202   3.313218   2.094446
     9  H    2.702576   3.377282   2.166164   1.087066   3.883919
    10  H    4.432614   2.106270   3.440892   3.882781   1.088908
    11  H    4.556393   3.829502   3.457193   2.132473   3.391712
    12  H    5.239435   3.375069   3.984486   3.430328   2.139024
                    6          7          8          9         10
     6  C    0.000000
     7  C    1.433922   0.000000
     8  H    3.765074   3.312319   0.000000
     9  H    2.144052   3.437682   4.210418   0.000000
    10  H    3.429646   2.176825   2.377744   4.969416   0.000000
    11  H    1.091526   2.183489   4.856599   2.469797   4.338906
    12  H    2.204420   1.087418   4.220255   4.338033   2.532275
                   11         12
    11  H    0.000000
    12  H    2.529268   0.000000
 Stoichiometry    C5H5NO
 Framework group  CS[SG(C5H5NO)]
 Deg. of freedom    21
 Full point group                 CS      NOp   2
 Largest Abelian subgroup         CS      NOp   2
 Largest concise Abelian subgroup C1      NOp   1
                         Standard orientation:                         
 ---------------------------------------------------------------------
 Center     Atomic      Atomic             Coordinates (Angstroms)
 Number     Number       Type             X           Y           Z
 ---------------------------------------------------------------------
      1          8           0       -0.143068    2.325766    0.000000
      2          7           0       -1.147206    0.227018    0.000000
      3          6           0        0.000000    1.075271    0.000000
      4          6           0        1.243144    0.327500    0.000000
      5          6           0       -1.126733   -1.157825    0.000000
      6          6           0        1.278485   -1.042892    0.000000
      7          6           0        0.073949   -1.820854    0.000000
      8          1           0       -2.046266    0.723973    0.000000
      9          1           0        2.159970    0.911575    0.000000
     10          1           0       -2.096414   -1.653242    0.000000
     11          1           0        2.241422   -1.556878    0.000000
     12          1           0        0.103200   -2.907879    0.000000
 ---------------------------------------------------------------------
 Rotational constants (GHZ):      5.5978247      2.7088869      1.8254966
 Basis read from rwf:  (5D, 7F)
 There are    59 symmetry adapted cartesian basis functions of A'  symmetry.
 There are    14 symmetry adapted cartesian basis functions of A"  symmetry.
 There are    59 symmetry adapted basis functions of A'  symmetry.
 There are    14 symmetry adapted basis functions of A"  symmetry.
    73 basis functions,   127 primitive gaussians,    73 cartesian basis functions
    25 alpha electrons       25 beta electrons
       nuclear repulsion energy       272.1837520407 Hartrees.
 NAtoms=   12 NActive=   12 NUniq=   12 SFac= 1.00D+00 NAtFMM=   60 NAOKFM=F Big=F
 Integral buffers will be    131072 words long.
 Raffenetti 2 integral format.
 Two-electron integral symmetry is turned on.
 One-electron integrals computed using PRISM.
 NBasis=    73 RedAO= T EigKep=  1.82D-02  NBF=    59    14
 NBsUse=    73 1.00D-06 EigRej= -1.00D+00 NBFU=    59    14
 Initial guess from the checkpoint file:  "PY_pc-0_B3LYP_OPT_FREQ.chk"
 B after Tr=    -0.000000   -0.000000   -0.000000
         Rot=    0.999997   -0.000000   -0.000000   -0.002237 Ang=  -0.26 deg.
 Initial guess orbital symmetries:
       Occupied  (A') (A') (A') (A') (A') (A') (A') (A') (A') (A')
                 (A') (A') (A') (A') (A') (A') (A') (A") (A') (A')
                 (A') (A") (A") (A') (A")
       Virtual   (A') (A') (A') (A') (A') (A') (A') (A') (A') (A')
                 (A') (A') (A') (A') (A') (A') (A') (A') (A') (A')
                 (A') (A') (A') (A') (A') (A') (A') (A') (A') (A')
                 (A') (A') (A') (A') (A') (A') (A') (A') (A") (A")
                 (A") (A") (A") (A") (A") (A") (A") (A")
 Keep R1 ints in memory in symmetry-blocked form, NReq=5795614.
 Requested convergence on RMS density matrix=1.00D-08 within 128 cycles.
 Requested convergence on MAX density matrix=1.00D-06.
 Requested convergence on             energy=1.00D-06.
 No special actions if energy rises.
 SCF Done:  E(RB3LYP) =  -322.650501131     A.U. after   11 cycles
            NFock= 11  Conv=0.30D-08     -V/T= 2.0116
 Calling FoFJK, ICntrl=      2127 FMM=F ISym2X=1 I1Cent= 0 IOpClX= 0 NMat=1 NMatS=1 NMatT=0.
 ***** Axes restored to original set *****
 -------------------------------------------------------------------
 Center     Atomic                   Forces (Hartrees/Bohr)
 Number     Number              X              Y              Z
 -------------------------------------------------------------------
      1        8          -0.001682667    0.000175149   -0.000000000
      2        7          -0.002000459   -0.000846328    0.000000000
      3        6           0.002368691   -0.000089745    0.000000000
      4        6           0.000583206    0.000777660   -0.000000000
      5        6           0.001837944    0.000092703   -0.000000000
      6        6          -0.000398776   -0.000553020    0.000000000
      7        6          -0.000138793    0.000024188   -0.000000000
      8        1           0.000004677    0.000220520   -0.000000000
      9        1          -0.000366338    0.000005644   -0.000000000
     10        1          -0.000339082    0.000108579   -0.000000000
     11        1           0.000046880    0.000064143   -0.000000000
     12        1           0.000084716    0.000020508   -0.000000000
 -------------------------------------------------------------------
 Cartesian Forces:  Max     0.002368691 RMS     0.000713728

 GradGradGradGradGradGradGradGradGradGradGradGradGradGradGradGradGradGrad
 Berny optimization.
 Using GEDIIS/GDIIS optimizer.
 FormGI is forming the generalized inverse of G from B-inverse, IUseBI=4.
 Internal  Forces:  Max     0.001691196 RMS     0.000354753
 Search for a local minimum.
 Step number   4 out of a maximum of   64
 All quantities printed in internal units (Hartrees-Bohrs-Radians)
 Mixed Optimization -- En-DIIS/RFO-DIIS
 Swapping is turned off.
 Update second derivatives using D2CorX and points    1    2    3    4
 DE= -8.97D-05 DEPred=-7.41D-05 R= 1.21D+00
 TightC=F SS=  1.41D+00  RLast= 2.79D-02 DXNew= 8.4853D-01 8.3832D-02
 Trust test= 1.21D+00 RLast= 2.79D-02 DXMaxT set to 5.05D-01
 ITU=  1  1  1  0
     Eigenvalues ---    0.01252   0.01525   0.01850   0.01958   0.02065
     Eigenvalues ---    0.02135   0.02298   0.02497   0.02599   0.11628
     Eigenvalues ---    0.16000   0.16065   0.16099   0.16406   0.20499
     Eigenvalues ---    0.22304   0.22905   0.24512   0.32964   0.35515
     Eigenvalues ---    0.35604   0.35645   0.35950   0.36424   0.42161
     Eigenvalues ---    0.45128   0.46738   0.54812   0.58115   0.92380
 En-DIIS/RFO-DIIS IScMMF=        0 using points:     4    3
 RFO step:  Lambda=-1.06018452D-05.
 DidBck=F Rises=F RFO-DIIS coefs:    1.27931   -0.27931
 Iteration  1 RMS(Cart)=  0.00141085 RMS(Int)=  0.00000240
 Iteration  2 RMS(Cart)=  0.00000246 RMS(Int)=  0.00000047
 Iteration  3 RMS(Cart)=  0.00000000 RMS(Int)=  0.00000047
 ClnCor:  largest displacement from symmetrization is 9.81D-13 for atom    11.
 Variable       Old X    -DE/DX   Delta X   Delta X   Delta X     New X
                                 (Linear)    (Quad)   (Total)
    R1        2.37851  -0.00169  -0.00005  -0.00185  -0.00190   2.37660
    R2        2.69617   0.00089   0.00271   0.00093   0.00364   2.69980
    R3        2.61726  -0.00133  -0.00241  -0.00159  -0.00400   2.61325
    R4        1.94125  -0.00019  -0.00022  -0.00017  -0.00039   1.94086
    R5        2.74145   0.00047  -0.00146   0.00210   0.00064   2.74209
    R6        2.59053   0.00024   0.00092   0.00024   0.00115   2.59168
    R7        2.05426  -0.00018  -0.00014  -0.00038  -0.00053   2.05373
    R8        2.59192  -0.00009   0.00107  -0.00064   0.00042   2.59234
    R9        2.05774   0.00005  -0.00027   0.00044   0.00016   2.05790
   R10        2.70972  -0.00027  -0.00247   0.00080  -0.00167   2.70805
   R11        2.06268   0.00003  -0.00027   0.00037   0.00010   2.06279
   R12        2.05492  -0.00008  -0.00003  -0.00023  -0.00027   2.05465
    A1        2.19270   0.00010   0.00010   0.00059   0.00068   2.19339
    A2        1.99995  -0.00016  -0.00203  -0.00011  -0.00214   1.99781
    A3        2.09053   0.00006   0.00194  -0.00048   0.00146   2.09199
    A4        2.09357   0.00012  -0.00219   0.00130  -0.00090   2.09268
    A5        2.22624   0.00002   0.00259  -0.00101   0.00158   2.22782
    A6        1.96337  -0.00014  -0.00039  -0.00029  -0.00068   1.96269
    A7        2.13811  -0.00040  -0.00052  -0.00098  -0.00150   2.13661
    A8        2.03283   0.00052   0.00266   0.00120   0.00386   2.03670
    A9        2.11224  -0.00013  -0.00214  -0.00022  -0.00236   2.10988
   A10        2.09012   0.00022   0.00012   0.00022   0.00034   2.09046
   A11        2.02835   0.00026   0.00061   0.00201   0.00262   2.03097
   A12        2.16472  -0.00047  -0.00073  -0.00223  -0.00296   2.16176
   A13        2.11847   0.00017   0.00109   0.00039   0.00148   2.11996
   A14        2.08688  -0.00016  -0.00158  -0.00031  -0.00188   2.08499
   A15        2.07784  -0.00001   0.00048  -0.00008   0.00040   2.07824
   A16        2.06359   0.00005  -0.00040   0.00008  -0.00032   2.06327
   A17        2.10224  -0.00000  -0.00043   0.00025  -0.00018   2.10206
   A18        2.11735  -0.00004   0.00083  -0.00032   0.00050   2.11786
    D1        3.14159   0.00000   0.00000   0.00000   0.00000   3.14159
    D2        0.00000   0.00000   0.00000   0.00000  -0.00000   0.00000
    D3        0.00000   0.00000   0.00000   0.00000   0.00000   0.00000
    D4        3.14159  -0.00000   0.00000   0.00000   0.00000   3.14159
    D5       -0.00000  -0.00000   0.00000  -0.00000   0.00000   0.00000
    D6        3.14159   0.00000   0.00000  -0.00000   0.00000   3.14159
    D7        3.14159   0.00000   0.00000  -0.00000   0.00000   3.14159
    D8        0.00000  -0.00000   0.00000  -0.00000  -0.00000   0.00000
    D9        3.14159   0.00000   0.00000  -0.00000   0.00000   3.14159
   D10       -0.00000   0.00000   0.00000  -0.00000   0.00000   0.00000
   D11       -0.00000   0.00000   0.00000   0.00000   0.00000   0.00000
   D12        3.14159   0.00000   0.00000  -0.00000   0.00000   3.14159
   D13        0.00000  -0.00000   0.00000  -0.00000  -0.00000   0.00000
   D14        3.14159  -0.00000   0.00000  -0.00000   0.00000   3.14159
   D15        3.14159   0.00000   0.00000  -0.00000   0.00000   3.14159
   D16       -0.00000  -0.00000   0.00000  -0.00000   0.00000   0.00000
   D17        0.00000   0.00000   0.00000   0.00000   0.00000   0.00000
   D18        3.14159   0.00000   0.00000   0.00000   0.00000   3.14159
   D19        3.14159   0.00000   0.00000   0.00000   0.00000   3.14159
   D20       -0.00000  -0.00000   0.00000   0.00000   0.00000   0.00000
   D21       -0.00000  -0.00000   0.00000   0.00000   0.00000   0.00000
   D22        3.14159  -0.00000   0.00000   0.00000   0.00000   3.14159
   D23        3.14159  -0.00000   0.00000   0.00000   0.00000   3.14159
   D24        0.00000   0.00000   0.00000   0.00000   0.00000   0.00000
         Item               Value     Threshold  Converged?
 Maximum Force            0.001691     0.000450     NO 
 RMS     Force            0.000355     0.000300     NO 
 Maximum Displacement     0.004943     0.001800     NO 
 RMS     Displacement     0.001410     0.001200     NO 
 Predicted change in Energy=-9.565966D-06
 GradGradGradGradGradGradGradGradGradGradGradGradGradGradGradGradGradGrad

                          Input orientation:                          
 ---------------------------------------------------------------------
 Center     Atomic      Atomic             Coordinates (Angstroms)
 Number     Number       Type             X           Y           Z
 ---------------------------------------------------------------------
      1          8           0        2.338091   -0.091252    0.000000
      2          7           0        0.274587   -1.166494    0.000000
      3          6           0        1.084560    0.010390    0.000000
      4          6           0        0.294066    1.227219   -0.000000
      5          6           0       -1.108016   -1.193878    0.000000
      6          6           0       -1.077321    1.213084   -0.000000
      7          6           0       -1.812688   -0.016891   -0.000000
      8          1           0        0.803512   -2.046886    0.000000
      9          1           0        0.842327    2.165578   -0.000000
     10          1           0       -1.572223   -2.178977    0.000000
     11          1           0       -1.623968    2.157925   -0.000000
     12          1           0       -2.899927   -0.025815   -0.000000
 ---------------------------------------------------------------------
                    Distance matrix (angstroms):
                    1          2          3          4          5
     1  O    0.000000
     2  N    2.326842   0.000000
     3  C    1.257645   1.428675   0.000000
     4  C    2.432366   2.393792   1.451053   0.000000
     5  C    3.618209   1.382874   2.501530   2.797774   0.000000
     6  C    3.656000   2.736795   2.473905   1.371460   2.407157
     7  C    4.151445   2.382920   2.897377   2.446675   1.371809
     8  H    2.485848   1.027059   2.076384   3.313502   2.093218
     9  H    2.707507   3.380094   2.168758   1.086788   3.884557
    10  H    4.432737   2.106141   3.442648   3.883968   1.088994
    11  H    4.555953   3.828352   3.456592   2.131916   3.391282
    12  H    5.238427   3.373231   3.984652   3.430988   2.138999
                    6          7          8          9         10
     6  C    0.000000
     7  C    1.433040   0.000000
     8  H    3.763633   3.311401   0.000000
     9  H    2.142964   3.436899   4.212643   0.000000
    10  H    3.427974   2.175417   2.379404   4.970434   0.000000
    11  H    1.091580   2.182989   4.855213   2.466306   4.337211
    12  H    2.203806   1.087275   4.219026   4.336665   2.529605
                   11         12
    11  H    0.000000
    12  H    2.529189   0.000000
 Stoichiometry    C5H5NO
 Framework group  CS[SG(C5H5NO)]
 Deg. of freedom    21
 Full point group                 CS      NOp   2
 Largest Abelian subgroup         CS      NOp   2
 Largest concise Abelian subgroup C1      NOp   1
                         Standard orientation:                         
 ---------------------------------------------------------------------
 Center     Atomic      Atomic             Coordinates (Angstroms)
 Number     Number       Type             X           Y           Z
 ---------------------------------------------------------------------
      1          8           0       -0.145930    2.325181   -0.000000
      2          7           0       -1.147489    0.224924   -0.000000
      3          6           0        0.000000    1.076031    0.000000
      4          6           0        1.244036    0.329085    0.000000
      5          6           0       -1.125936   -1.157782   -0.000000
      6          6           0        1.278433   -1.041944    0.000000
      7          6           0        0.075246   -1.820369    0.000000
      8          1           0       -2.046044    0.722368   -0.000000
      9          1           0        2.162409    0.910204    0.000000
     10          1           0       -2.093994   -1.656553   -0.000000
     11          1           0        2.242024   -1.554817    0.000000
     12          1           0        0.104796   -2.907243    0.000000
 ---------------------------------------------------------------------
 Rotational constants (GHZ):      5.5964412      2.7098584      1.8257905
 Basis read from rwf:  (5D, 7F)
 There are    59 symmetry adapted cartesian basis functions of A'  symmetry.
 There are    14 symmetry adapted cartesian basis functions of A"  symmetry.
 There are    59 symmetry adapted basis functions of A'  symmetry.
 There are    14 symmetry adapted basis functions of A"  symmetry.
    73 basis functions,   127 primitive gaussians,    73 cartesian basis functions
    25 alpha electrons       25 beta electrons
       nuclear repulsion energy       272.2058857871 Hartrees.
 NAtoms=   12 NActive=   12 NUniq=   12 SFac= 1.00D+00 NAtFMM=   60 NAOKFM=F Big=F
 Integral buffers will be    131072 words long.
 Raffenetti 2 integral format.
 Two-electron integral symmetry is turned on.
 One-electron integrals computed using PRISM.
 NBasis=    73 RedAO= T EigKep=  1.81D-02  NBF=    59    14
 NBsUse=    73 1.00D-06 EigRej= -1.00D+00 NBFU=    59    14
 Initial guess from the checkpoint file:  "PY_pc-0_B3LYP_OPT_FREQ.chk"
 B after Tr=     0.000000    0.000000   -0.000000
[...]
 Vib (V=0)    3  0.114006D+01          0.056927          0.131078
 Vib (V=0)    4  0.108954D+01          0.037242          0.085753
 Vib (V=0)    5  0.107542D+01          0.031579          0.072712
 Electronic      0.100000D+01          0.000000          0.000000
 Translational   0.364162D+08          7.561295         17.410525
 Rotational      0.164935D+06          5.217313         12.013306
 ***** Axes restored to original set *****
 -------------------------------------------------------------------
 Center     Atomic                   Forces (Hartrees/Bohr)
 Number     Number              X              Y              Z
 -------------------------------------------------------------------
      1        8          -0.000064775    0.000008766   -0.000000000
      2        7          -0.000014948   -0.000021076    0.000000000
      3        6           0.000133679    0.000035474   -0.000000000
      4        6          -0.000066392   -0.000010452    0.000000000
      5        6          -0.000005181   -0.000001367    0.000000000
      6        6           0.000038326    0.000048023   -0.000000000
      7        6          -0.000021150   -0.000045681    0.000000000
      8        1          -0.000008135   -0.000009580    0.000000000
      9        1           0.000018085   -0.000000205    0.000000000
     10        1          -0.000007650   -0.000009760    0.000000000
     11        1          -0.000005420    0.000003239   -0.000000000
     12        1           0.000003561    0.000002620   -0.000000000
 -------------------------------------------------------------------
 Cartesian Forces:  Max     0.000133679 RMS     0.000031456
 FormGI is forming the generalized inverse of G from B-inverse, IUseBI=4.

 GradGradGradGradGradGradGradGradGradGradGradGradGradGradGradGradGradGrad
 Berny optimization.
 Internal  Forces:  Max     0.000065221 RMS     0.000015281
 Search for a local minimum.
 Step number   1 out of a maximum of    2
 All quantities printed in internal units (Hartrees-Bohrs-Radians)
 Second derivative matrix not updated -- analytic derivatives used.
 ITU=  0
     Eigenvalues ---    0.01047   0.01418   0.01739   0.01951   0.02362
     Eigenvalues ---    0.02485   0.02839   0.03433   0.04865   0.10824
     Eigenvalues ---    0.11364   0.11821   0.12559   0.12975   0.17267
     Eigenvalues ---    0.19953   0.21337   0.23909   0.30360   0.32559
     Eigenvalues ---    0.36323   0.37006   0.37376   0.37619   0.38305
     Eigenvalues ---    0.40886   0.44516   0.50459   0.52009   0.71457
 Angle between quadratic step and forces=  30.09 degrees.
 Linear search not attempted -- first point.
 Iteration  1 RMS(Cart)=  0.00006321 RMS(Int)=  0.00000000
 Iteration  2 RMS(Cart)=  0.00000000 RMS(Int)=  0.00000000
 ClnCor:  largest displacement from symmetrization is 5.24D-13 for atom    11.
 Variable       Old X    -DE/DX   Delta X   Delta X   Delta X     New X
                                 (Linear)    (Quad)   (Total)
    R1        2.37571  -0.00007   0.00000  -0.00013  -0.00013   2.37558
    R2        2.70028   0.00006   0.00000   0.00019   0.00019   2.70047
    R3        2.61285   0.00001   0.00000   0.00004   0.00004   2.61288
    R4        1.94088   0.00000   0.00000   0.00001   0.00001   1.94089
    R5        2.74265   0.00002   0.00000   0.00006   0.00006   2.74271
    R6        2.59175  -0.00002   0.00000  -0.00006  -0.00006   2.59169
    R7        2.05363   0.00001   0.00000   0.00003   0.00003   2.05367
    R8        2.59223   0.00000   0.00000  -0.00001  -0.00001   2.59222
    R9        2.05796   0.00001   0.00000   0.00004   0.00004   2.05800
   R10        2.70814   0.00005   0.00000   0.00013   0.00013   2.70827
   R11        2.06286   0.00001   0.00000   0.00001   0.00001   2.06288
   R12        2.05463  -0.00000   0.00000  -0.00001  -0.00001   2.05462
    A1        2.19337   0.00000   0.00000   0.00001   0.00001   2.19338
    A2        1.99781   0.00001   0.00000   0.00011   0.00011   1.99792
    A3        2.09201  -0.00001   0.00000  -0.00012  -0.00012   2.09189
    A4        2.09299   0.00001   0.00000   0.00006   0.00006   2.09305
    A5        2.22787   0.00001   0.00000   0.00004   0.00004   2.22791
    A6        1.96233  -0.00002   0.00000  -0.00010  -0.00010   1.96223
    A7        2.13672   0.00002   0.00000   0.00012   0.00012   2.13684
    A8        2.03666  -0.00003   0.00000  -0.00021  -0.00021   2.03645
    A9        2.10980   0.00001   0.00000   0.00010   0.00010   2.10990
   A10        2.09092  -0.00000   0.00000   0.00002   0.00002   2.09095
   A11        2.03156   0.00001   0.00000   0.00002   0.00002   2.03158
   A12        2.16070  -0.00000   0.00000  -0.00004  -0.00004   2.16066
   A13        2.12002  -0.00001   0.00000  -0.00005  -0.00005   2.11997
   A14        2.08508   0.00001   0.00000   0.00005   0.00005   2.08514
   A15        2.07809   0.00000   0.00000  -0.00001  -0.00001   2.07808
   A16        2.06300   0.00000   0.00000   0.00001   0.00001   2.06301
   A17        2.10253   0.00000   0.00000   0.00004   0.00004   2.10257
   A18        2.11765  -0.00001   0.00000  -0.00005  -0.00005   2.11761
    D1        3.14159   0.00000   0.00000  -0.00000   0.00000   3.14159
    D2        0.00000   0.00000   0.00000   0.00000   0.00000   0.00000
    D3       -0.00000  -0.00000   0.00000  -0.00000   0.00000   0.00000
    D4        3.14159  -0.00000   0.00000   0.00000   0.00000   3.14159
    D5       -0.00000  -0.00000   0.00000   0.00000   0.00000   0.00000
    D6        3.14159  -0.00000   0.00000   0.00000   0.00000   3.14159
    D7        3.14159   0.00000   0.00000  -0.00000   0.00000   3.14159
    D8        0.00000   0.00000   0.00000   0.00000  -0.00000   0.00000
    D9        3.14159  -0.00000   0.00000   0.00000   0.00000   3.14159
   D10        0.00000  -0.00000   0.00000  -0.00000   0.00000   0.00000
   D11        0.00000   0.00000   0.00000   0.00000  -0.00000   0.00000
   D12        3.14159  -0.00000   0.00000  -0.00000   0.00000   3.14159
   D13       -0.00000  -0.00000   0.00000  -0.00000   0.00000   0.00000
   D14        3.14159  -0.00000   0.00000  -0.00000   0.00000   3.14159
   D15        3.14159  -0.00000   0.00000   0.00000   0.00000   3.14159
   D16       -0.00000   0.00000   0.00000  -0.00000   0.00000   0.00000
   D17        0.00000   0.00000   0.00000  -0.00000  -0.00000   0.00000
   D18        3.14159  -0.00000   0.00000  -0.00000   0.00000   3.14159
   D19        3.14159  -0.00000   0.00000  -0.00000   0.00000   3.14159
   D20       -0.00000  -0.00000   0.00000  -0.00000   0.00000   0.00000
   D21        0.00000   0.00000   0.00000   0.00000  -0.00000   0.00000
   D22        3.14159   0.00000   0.00000   0.00000   0.00000   3.14159
   D23        3.14159  -0.00000   0.00000   0.00000   0.00000   3.14159
   D24       -0.00000   0.00000   0.00000   0.00000   0.00000   0.00000
         Item               Value     Threshold  Converged?
 Maximum Force            0.000065     0.000450     YES
 RMS     Force            0.000015     0.000300     YES
 Maximum Displacement     0.000228     0.001800     YES
 RMS     Displacement     0.000063     0.001200     YES
 Predicted change in Energy=-2.172633D-08
 Optimization completed.
    -- Stationary point found.
                           ----------------------------
                           !   Optimized Parameters   !
                           ! (Angstroms and Degrees)  !
 --------------------------                            --------------------------
 ! Name  Definition              Value          Derivative Info.                !
 --------------------------------------------------------------------------------
 ! R1    R(1,3)                  1.2572         -DE/DX =   -0.0001              !
 ! R2    R(2,3)                  1.4289         -DE/DX =    0.0001              !
 ! R3    R(2,5)                  1.3827         -DE/DX =    0.0                 !
 ! R4    R(2,8)                  1.0271         -DE/DX =    0.0                 !
 ! R5    R(3,4)                  1.4513         -DE/DX =    0.0                 !
 ! R6    R(4,6)                  1.3715         -DE/DX =    0.0                 !
 ! R7    R(4,9)                  1.0867         -DE/DX =    0.0                 !
 ! R8    R(5,7)                  1.3718         -DE/DX =    0.0                 !
 ! R9    R(5,10)                 1.089          -DE/DX =    0.0                 !
 ! R10   R(6,7)                  1.4331         -DE/DX =    0.0                 !
 ! R11   R(6,11)                 1.0916         -DE/DX =    0.0                 !
 ! R12   R(7,12)                 1.0873         -DE/DX =    0.0                 !
 ! A1    A(3,2,5)              125.6711         -DE/DX =    0.0                 !
 ! A2    A(3,2,8)              114.4658         -DE/DX =    0.0                 !
 ! A3    A(5,2,8)              119.8631         -DE/DX =    0.0                 !
 ! A4    A(1,3,2)              119.9193         -DE/DX =    0.0                 !
 ! A5    A(1,3,4)              127.6476         -DE/DX =    0.0                 !
 ! A6    A(2,3,4)              112.433          -DE/DX =    0.0                 !
 ! A7    A(3,4,6)              122.4252         -DE/DX =    0.0                 !
 ! A8    A(3,4,9)              116.692          -DE/DX =    0.0                 !
 ! A9    A(6,4,9)              120.8828         -DE/DX =    0.0                 !
 ! A10   A(2,5,7)              119.8012         -DE/DX =    0.0                 !
 ! A11   A(2,5,10)             116.3997         -DE/DX =    0.0                 !
 ! A12   A(7,5,10)             123.7991         -DE/DX =    0.0                 !
 ! A13   A(4,6,7)              121.4681         -DE/DX =    0.0                 !
 ! A14   A(4,6,11)             119.4664         -DE/DX =    0.0                 !
 ! A15   A(7,6,11)             119.0655         -DE/DX =    0.0                 !
 ! A16   A(5,7,6)              118.2014         -DE/DX =    0.0                 !
 ! A17   A(5,7,12)             120.4659         -DE/DX =    0.0                 !
 ! A18   A(6,7,12)             121.3326         -DE/DX =    0.0                 !
 ! D1    D(5,2,3,1)            180.0            -DE/DX =    0.0                 !
 ! D2    D(5,2,3,4)              0.0            -DE/DX =    0.0                 !
 ! D3    D(8,2,3,1)              0.0            -DE/DX =    0.0                 !
 ! D4    D(8,2,3,4)            180.0            -DE/DX =    0.0                 !
 ! D5    D(3,2,5,7)              0.0            -DE/DX =    0.0                 !
 ! D6    D(3,2,5,10)           180.0            -DE/DX =    0.0                 !
 ! D7    D(8,2,5,7)            180.0            -DE/DX =    0.0                 !
 ! D8    D(8,2,5,10)             0.0            -DE/DX =    0.0                 !
 ! D9    D(1,3,4,6)            180.0            -DE/DX =    0.0                 !
 ! D10   D(1,3,4,9)              0.0            -DE/DX =    0.0                 !
 ! D11   D(2,3,4,6)              0.0            -DE/DX =    0.0                 !
 ! D12   D(2,3,4,9)            180.0            -DE/DX =    0.0                 !
 ! D13   D(3,4,6,7)              0.0            -DE/DX =    0.0                 !
 ! D14   D(3,4,6,11)           180.0            -DE/DX =    0.0                 !
 ! D15   D(9,4,6,7)            180.0            -DE/DX =    0.0                 !
 ! D16   D(9,4,6,11)             0.0            -DE/DX =    0.0                 !
 ! D17   D(2,5,7,6)              0.0            -DE/DX =    0.0                 !
 ! D18   D(2,5,7,12)           180.0            -DE/DX =    0.0                 !
 ! D19   D(10,5,7,6)           180.0            -DE/DX =    0.0                 !
 ! D20   D(10,5,7,12)            0.0            -DE/DX =    0.0                 !
 ! D21   D(4,6,7,5)              0.0            -DE/DX =    0.0                 !
 ! D22   D(4,6,7,12)           180.0            -DE/DX =    0.0                 !
 ! D23   D(11,6,7,5)           180.0            -DE/DX =    0.0                 !
 ! D24   D(11,6,7,12)            0.0            -DE/DX =    0.0                 !
 --------------------------------------------------------------------------------
 GradGradGradGradGradGradGradGradGradGradGradGradGradGradGradGradGradGrad

 1\1\GINC-Q1607\Freq\RB3LYP\Gen\C5H5N1O1\SC51754\26-Aug-2021\0\\#N Geom
 =AllCheck Guess=TCheck SCRF=Check GenChk RB3LYP/ChkBas Freq\\PY_pc-0_B
 3LYP_OPT_FREQ\\0,1\O,2.3380644971,-0.0910885871,0.\N,0.2746862797,-1.1
 666331963,0.\C,1.084990263,0.0103261849,0.\C,0.2940924004,1.2272430009
 ,0.\C,-1.1077068323,-1.1937743996,0.\C,-1.0773283018,1.2129898672,0.\C
 ,-1.8126900486,-0.0170427541,0.\H,0.8034796357,-2.0471165878,0.\H,0.84
 21732033,2.1656457965,0.\H,-1.5726811489,-2.1785490838,0.\H,-1.6241590
 312,2.1577714622,0.\H,-2.8999209163,-0.0257717031,0.\\Version=EM64L-G0
 9RevE.01\State=1-A'\HF=-322.6505125\RMSD=5.911e-09\RMSF=3.146e-05\Zero
 Point=0.0946138\Thermal=0.0997676\Dipole=-1.6711531,-0.5411376,0.\Dipo
 leDeriv=-1.2157488,-0.0090432,0.,0.1725332,-0.4469064,0.,0.,0.,-0.4529
 321,-0.6991411,0.3928265,0.,-0.4376729,-0.3998426,0.,0.,0.,-0.4890652,
 1.5371968,0.0288159,0.,-0.1083728,0.4227168,0.,0.,0.,0.4220327,-0.5426
 261,-0.0197164,0.,0.4270989,-0.0572094,0.,0.,0.,-0.248546,0.3418146,-0
 .5856029,0.,0.0746427,0.3290374,0.,0.,0.,0.0922826,0.3865542,0.1311044
 ,0.,0.1683419,0.3686155,0.,0.,0.,-0.0581986,-0.1161248,0.1207843,0.,-0
 .2384324,-0.5944249,0.,0.,0.,-0.2807702,0.1613849,-0.0210107,0.,-0.047
 5701,0.2759577,0.,0.,0.,0.3665494,0.0470009,-0.0530056,0.,-0.0207976,0
 .0295893,0.,0.,0.,0.171178,0.0596518,-0.0329383,0.,-0.0443538,0.006420
 6,0.,0.,0.,0.1615558,0.0570682,0.0659657,0.,0.059187,-0.0118267,0.,0.,
 0.,0.1458001,-0.0170305,-0.0181798,0.,-0.0046041,0.0778728,0.,0.,0.,0.
 1701135\Polar=78.1627025,0.6532513,63.5073737,0.,0.,16.113145\PG=CS [S
 G(C5H5N1O1)]\NImag=0\\0.69271818,-0.04219933,0.08328646,0.,0.,0.033450
 83,-0.05599068,-0.06848828,0.,0.73542412,-0.03175994,0.00727901,0.,-0.
 10607844,0.72039505,0.,0.,0.02113931,0.,0.,0.10899338,-0.59666126,0.05
 588586,0.,-0.14196236,-0.02839509,0.,0.90857863,0.05990809,-0.09356786
 ,0.,0.01711995,-0.20259803,0.,-0.10290591,0.53780055,0.,0.,-0.07425780
 ,0.,0.,-0.07399597,0.,0.,0.20657629,-0.03906398,0.04606053,0.,0.042707
 88,-0.00920805,0.,-0.15350137,0.04792247,0.,0.77891106,0.01404327,0.00
 476653,0.,-0.00399916,-0.04377996,0.,0.06516976,-0.22102389,0.,0.06369
 186,0.67613128,0.,0.,0.02318319,0.,0.,0.00686778,0.,0.,-0.08712242,0.,
 0.,0.14005814,-0.00247689,0.01421180,0.,-0.31742816,0.02136324,0.,-0.0
 2782216,-0.07430846,0.,-0.03264015,0.01631000,0.,0.66308202,-0.0010395
 0,-0.00908073,0.,-0.02125842,-0.14567524,0.,-0.02866448,0.03232587,0.,
 0.02121357,-0.01298003,0.,-0.01246356,0.83515763,0.,0.,0.00394419,0.,0
 .,-0.05527962,0.,0.,0.00215035,0.,0.,-0.00102048,0.,0.,0.14333422,0.01
 107781,-0.00602846,0.,-0.03920447,-0.00679701,0.,-0.02247439,0.0417672
 9,0.,-0.42740602,-0.01497843,0.,0.04868665,-0.01097111,0.,0.74972803,0
 .00473068,-0.01162815,0.,-0.03561354,-0.00638269,0.,0.04195987,0.03731
 571,0.,0.01162834,-0.13406791,0.,0.01193560,-0.06333542,0.,-0.04806725
 ,0.68849451,0.,0.,0.00363101,0.,0.,-0.00590946,0.,0.,0.00403516,0.,0.,
 -0.06586959,0.,0.,0.00933903,0.,0.,0.15445137,-0.00381925,-0.00267662,
 0.,-0.04471864,0.03806067,0.,0.00354741,0.01093566,0.,-0.02290325,-0.0
 3863353,0.,-0.19578961,0.13648877,0.,-0.16678853,-0.08553389,0.,0.7707
 2217,-0.00555341,0.00940008,0.,0.05728397,0.01234215,0.,-0.00403970,-0
 .04931195,0.,-0.04686723,0.01998564,0.,0.10990793,-0.34051423,0.,-0.05
 516991,-0.24232139,0.,-0.05393123,0.67312685,0.,0.,0.00036906,0.,0.,0.
 01245540,0.,0.,-0.00863602,0.,0.,0.00947860,0.,0.,-0.06799012,0.,0.,-0
 .06852077,0.,0.,0.12977138,-0.00172026,0.00551823,0.,-0.16091540,0.151
 10132,0.,0.02062340,-0.01977158,0.,-0.00306695,-0.00305281,0.,-0.01422
 010,0.03360820,0.,0.00105038,0.00024965,0.,-0.00447922,-0.00498217,0.,
 0.16253617,0.00061084,0.00536186,0.,0.15281431,-0.33800265,0.,0.021937
 73,-0.02485824,0.,-0.00343256,-0.00365557,0.,-0.00322643,0.00821000,0.
 ,-0.00260607,-0.00097406,0.,-0.00311141,0.00418483,0.,-0.16247681,0.34
 951325,0.,0.,-0.00534737,0.,0.,-0.02933659,0.,0.,0.00874038,0.,0.,0.00
 409172,0.,0.,-0.00078577,0.,0.,-0.00065509,0.,0.,0.00459960,0.,0.,0.02
 075888,-0.00155013,-0.00219554,0.,-0.00055889,0.00425684,0.,0.01314126
 ,0.01604178,0.,-0.13174581,-0.12747132,0.,-0.00097002,0.00080545,0.,-0
 .01156025,-0.03011856,0.,-0.00425798,0.00184308,0.,0.00037421,0.000549
 08,0.,0.13684678,0.00068281,0.00348866,0.,0.00228899,-0.00442476,0.,-0
 .02037858,-0.01763677,0.,-0.12717623,-0.28534112,0.,0.00266128,0.00005
 760,0.,0.00437656,0.00440312,0.,0.00124617,0.00264937,0.,-0.00073033,-
 0.00104203,0.,0.13734302,0.29678870,0.,0.,-0.00306635,0.,0.,0.00488487
 ,0.,0.,0.00617056,0.,0.,-0.04218583,0.,0.,-0.00043415,0.,0.,0.00522849
 ,0.,0.,0.00947265,0.,0.,-0.00055323,0.,0.,0.02764724,-0.00207151,-0.00
 168001,0.,-0.01917614,-0.03523716,0.,-0.00025390,0.00726988,0.,-0.0000
 6012,-0.00013681,0.,-0.10750036,-0.10789998,0.,-0.00191781,0.00249302,
 0.,0.01231784,0.01701225,0.,0.00017896,-0.00066251,0.,0.00001855,-0.00
 008016,0.,0.11747250,-0.00008734,-0.00007942,0.,0.00439995,0.00494964,
 0.,0.00220004,0.00200528,0.,0.00051656,0.00060286,0.,-0.11294576,-0.30
 633379,0.,0.00403357,-0.00202229,0.,-0.01626083,-0.01315634,0.,-0.0005
 4897,0.00098189,0.,-0.00008045,-0.00011749,0.,0.11880704,0.31340531,0.
 ,0.,-0.00029897,0.,0.,0.00286124,0.,0.,0.00513606,0.,0.,0.00014872,0.,
 0.,-0.03889068,0.,0.,0.00821351,0.,0.,0.00699859,0.,0.,-0.00241645,0.,
 0.,-0.00135017,0.,0.,0.02501119,-0.00060703,0.00152791,0.,-0.00045983,
 0.00012608,0.,-0.00376375,-0.00366748,0.,-0.01240006,0.03113885,0.,-0.
 00137657,-0.00379960,0.,-0.13139082,0.12226358,0.,0.01159611,-0.016036
 45,0.,-0.00004300,-0.00002433,0.,0.00067286,-0.00036063,0.,0.00057336,
 -0.00063225,0.,0.13651454,0.00059419,0.00015729,0.,-0.00062458,0.00068
 640,0.,-0.00288764,0.00160235,0.,-0.00295858,0.00401646,0.,-0.00391448
 ,-0.00263969,0.,0.12355886,-0.27425494,0.,0.01669768,-0.01743967,0.,0.
 00003234,0.00001478,0.,0.00019204,0.00098495,0.,0.00065852,-0.00088064
 ,0.,-0.13113836,0.28685389,0.,0.,-0.00213764,0.,0.,-0.00069853,0.,0.,0
 .01155698,0.,0.,0.00837413,0.,0.,0.00472583,0.,0.,-0.04531340,0.,0.,0.
 00497899,0.,0.,-0.00065286,0.,0.,-0.00627982,0.,0.,-0.00040838,0.,0.,0
 .02807711,0.00016500,0.00006391,0.,0.00228256,0.00256753,0.,0.00054850
 ,-0.00031171,0.,0.00116877,-0.00208169,0.,-0.01154465,-0.00601934,0.,-
 0.00980057,0.00407249,0.,-0.35542705,0.00053287,0.,-0.00031817,-0.0003
 7183,0.,-0.00041057,0.00012711,0.,0.00041863,0.00059843,0.,0.00068417,
 -0.00020998,0.,0.37223339,0.00006962,0.00061629,0.,0.00215525,-0.00478
 893,0.,0.00011813,-0.00205301,0.,-0.00139068,-0.00465429,0.,0.03046884
 ,0.00480803,0.,-0.02911803,0.00477351,0.,-0.00328144,-0.05894534,0.,0.
 00105292,0.00026592,0.,-0.00116542,0.00018979,0.,-0.00054409,0.0006449
 8,0.,0.00060268,0.00089882,0.,0.00103221,0.05824422,0.,0.,-0.00060946,
 0.,0.,0.00801820,0.,0.,-0.00035356,0.,0.,0.00399605,0.,0.,0.00090721,0
 .,0.,0.00136973,0.,0.,-0.03297736,0.,0.,0.00155678,0.,0.,0.00046573,0.
 ,0.,-0.00500465,0.,0.,-0.00222239,0.,0.,0.02485373\\0.00006478,-0.0000
 0877,0.,0.00001495,0.00002108,0.,-0.00013368,-0.00003547,0.,0.00006639
 ,0.00001045,0.,0.00000518,0.00000137,0.,-0.00003833,-0.00004802,0.,0.0
 0002115,0.00004568,0.,0.00000813,0.00000958,0.,-0.00001808,0.00000020,
 0.,0.00000765,0.00000976,0.,0.00000542,-0.00000324,0.,-0.00000356,-0.0
 0000262,0.\\\@


 THE MOST SERIOUS THREAT TO THE SURVIVAL OF MANKIND IS NOT NOW
 IGNORANCE IN THE TRADITIONAL SENSE,
 BUT A MORALLY NEUTRAL, AN INSENSITIVE OR INHIBITED HUMAN INTELLIGENCE.

                     -- MARGO JEFFERSON IN NEWSWEEK, SEPTEMBER 2, 1974
 Job cpu time:       0 days  0 hours  9 minutes 40.7 seconds.
 File lengths (MBytes):  RWF=     13 Int=      0 D2E=      0 Chk=      2 Scr=      1
 Normal termination of Gaussian 09 at Thu Aug 26 16:33:31 2021.
